<event>
 7    1  0.3435408E-009  0.4614232E+02  0.7816164E-02  0.1320468E+00
        -11   -1    0    0    0    0  0.00000000000E+00  0.00000000000E+00  0.45593999997E+02  0.45594000000E+02  0.51100000000E-03 0. -1.
         11   -1    0    0    0    0 -0.00000000000E+00 -0.00000000000E+00 -0.45593999997E+02  0.45594000000E+02  0.51100000000E-03 0.  1.
    9900012    2    1    2    0    0  0.23648657236E+02  0.37959134962E+02  0.53813187898E+01  0.46142317542E+02  0.99999980060E+01 0.  0.
        -12    1    1    2    0    0 -0.23648657236E+02 -0.37959134962E+02 -0.53813187898E+01  0.45045682458E+02  0.00000000000E+00 0.  1.
         11    1    3    3    0    0  0.28911194394E+01  0.53987599396E+01  0.45889428116E+00  0.61413162043E+01  0.51100000000E-03 0. -1.
        -11    1    3    3    0    0 -0.30129994429E+00  0.11698560651E+01  0.16702994083E+01  0.20613697495E+01  0.51100000000E-03 0.  1.
        -12    1    3    3    0    0  0.21058837741E+02  0.31390518958E+02  0.32521251004E+01  0.37939631589E+02  0.00000000000E+00 0.  1.
</event>
<event>
 7    1  0.3435408E-009  0.4614232E+02  0.7816164E-02  0.1320468E+00
        -11   -1    0    0    0    0  0.00000000000E+00  0.00000000000E+00  0.45593999997E+02  0.45594000000E+02  0.51100000000E-03 0.  1.
         11   -1    0    0    0    0 -0.00000000000E+00 -0.00000000000E+00 -0.45593999997E+02  0.45594000000E+02  0.51100000000E-03 0. -1.
    9900012    2    1    2    0    0 -0.23940955736E+01  0.10551352716E+02 -0.43727000906E+02  0.46142319342E+02  0.10000014414E+02 0.  0.
        -12    1    1    2    0    0  0.23940955736E+01 -0.10551352716E+02  0.43727000906E+02  0.45045680658E+02  0.00000000000E+00 0.  1.
         11    1    3    3    0    0 -0.39101842589E+01  0.82533830339E+00 -0.17298857098E+02  0.17754469336E+02  0.51100000000E-03 0. -1.
        -11    1    3    3    0    0  0.93697423843E+00  0.95004637194E+01 -0.25775662406E+02  0.27486751433E+02  0.51100000000E-03 0.  1.
         12    1    3    3    0    0  0.57911444690E+00  0.22555069348E+00 -0.65248140176E+00  0.90109857262E+00  0.00000000000E+00 0. -1.
</event>
<event>
 7    1  0.3435408E-009  0.4614232E+02  0.7816164E-02  0.1320468E+00
        -11   -1    0    0    0    0  0.00000000000E+00  0.00000000000E+00  0.45593999997E+02  0.45594000000E+02  0.51100000000E-03 0.  1.
         11   -1    0    0    0    0 -0.00000000000E+00 -0.00000000000E+00 -0.45593999997E+02  0.45594000000E+02  0.51100000000E-03 0. -1.
    9900012    2    1    2    0    0  0.36635788733E+02  0.89926749931E+01 -0.24618372222E+02  0.46142317960E+02  0.10000001813E+02 0.  0.
        -12    1    1    2    0    0 -0.36635788733E+02 -0.89926749931E+01  0.24618372222E+02  0.45045682040E+02  0.00000000000E+00 0.  1.
         11    1    3    3    0    0  0.16349874816E+01 -0.50104613757E+00 -0.31998393836E+01  0.36281129584E+01  0.51100000000E-03 0.  1.
        -11    1    3    3    0    0  0.22383986190E+02  0.58052187456E+01 -0.16794497151E+02  0.28579687494E+02  0.51100000000E-03 0. -1.
        -12    1    3    3    0    0  0.12616815061E+02  0.36885023851E+01 -0.46240356874E+01  0.13934517507E+02  0.00000000000E+00 0.  1.
</event>
<event>
 7    1  0.3435408E-009  0.4614232E+02  0.7816164E-02  0.1320468E+00
        -11   -1    0    0    0    0  0.00000000000E+00  0.00000000000E+00  0.45593999997E+02  0.45594000000E+02  0.51100000000E-03 0.  1.
         11   -1    0    0    0    0 -0.00000000000E+00 -0.00000000000E+00 -0.45593999997E+02  0.45594000000E+02  0.51100000000E-03 0. -1.
    9900012    2    1    2    0    0 -0.13146191790E+02  0.27562596538E+02 -0.33114862770E+02  0.46142320709E+02  0.10000026879E+02 0.  0.
        -12    1    1    2    0    0  0.13146191790E+02 -0.27562596538E+02  0.33114862770E+02  0.45045679291E+02  0.00000000000E+00 0.  1.
         11    1    3    3    0    0  0.29231164885E+00  0.35352259705E+01 -0.26081555156E+01  0.44029245074E+01  0.51100000000E-03 0. -1.
        -11    1    3    3    0    0 -0.29797892314E+01  0.10769949688E+01 -0.45784176961E+01  0.55678515504E+01  0.51100000000E-03 0.  1.
         12    1    3    3    0    0 -0.10458714207E+02  0.22950375599E+02 -0.25928289559E+02  0.36171544651E+02  0.00000000000E+00 0. -1.
</event>
<event>
 7    1  0.3435408E-009  0.4614232E+02  0.7816164E-02  0.1320468E+00
        -11   -1    0    0    0    0  0.00000000000E+00  0.00000000000E+00  0.45593999997E+02  0.45594000000E+02  0.51100000000E-03 0.  1.
         11   -1    0    0    0    0 -0.00000000000E+00 -0.00000000000E+00 -0.45593999997E+02  0.45594000000E+02  0.51100000000E-03 0. -1.
    9900012    2    1    2    0    0  0.27364855121E+00  0.35770120931E+02 -0.27377675826E+02  0.46142316871E+02  0.99999918798E+01 0.  0.
        -12    1    1    2    0    0 -0.27364855121E+00 -0.35770120931E+02  0.27377675826E+02  0.45045683129E+02  0.00000000000E+00 0.  1.
         11    1    3    3    0    0  0.32337720082E+01  0.13493818570E+02 -0.13846884372E+02  0.19602974980E+02  0.51100000000E-03 0. -1.
        -11    1    3    3    0    0  0.15700869292E+00  0.48599640600E+01 -0.13095369293E+01  0.50357511480E+01  0.51100000000E-03 0.  1.
        -12    1    3    3    0    0 -0.31171321499E+01  0.17416338302E+02 -0.12221254525E+02  0.21503590743E+02  0.00000000000E+00 0.  1.
</event>
<event>
 7    1  0.3435408E-009  0.4614231E+02  0.7816164E-02  0.1320468E+00
        -11   -1    0    0    0    0  0.00000000000E+00  0.00000000000E+00  0.45593999997E+02  0.45594000000E+02  0.51100000000E-03 0.  1.
         11   -1    0    0    0    0 -0.00000000000E+00 -0.00000000000E+00 -0.45593999997E+02  0.45594000000E+02  0.51100000000E-03 0. -1.
    9900012    2    1    2    0    0  0.20532001309E+02 -0.20956523019E+02 -0.34181499014E+02  0.46142314195E+02  0.99999674811E+01 0.  0.
        -12    1    1    2    0    0 -0.20532001309E+02  0.20956523019E+02  0.34181499014E+02  0.45045685805E+02  0.00000000000E+00 0.  1.
         11    1    3    3    0    0  0.95778213076E+01 -0.13700112711E+02 -0.22669331719E+02  0.28166049601E+02  0.51100000000E-03 0. -1.
        -11    1    3    3    0    0  0.10539072415E+02 -0.57545790047E+01 -0.11128354243E+02  0.16371545294E+02  0.51100000000E-03 0.  1.
        -12    1    3    3    0    0  0.41510758708E+00 -0.15018313036E+01 -0.38381305155E+00  0.16047193000E+01  0.00000000000E+00 0.  1.
</event>
<event>
 7    1  0.3435408E-009  0.4614232E+02  0.7816164E-02  0.1320468E+00
        -11   -1    0    0    0    0  0.00000000000E+00  0.00000000000E+00  0.45593999997E+02  0.45594000000E+02  0.51100000000E-03 0. -1.
         11   -1    0    0    0    0 -0.00000000000E+00 -0.00000000000E+00 -0.45593999997E+02  0.45594000000E+02  0.51100000000E-03 0.  1.
    9900012    2    1    2    0    0  0.37016232117E+02  0.17357418154E+02  0.18911161501E+02  0.46142318360E+02  0.10000005461E+02 0.  0.
        -12    1    1    2    0    0 -0.37016232117E+02 -0.17357418154E+02 -0.18911161501E+02  0.45045681640E+02  0.00000000000E+00 0.  1.
         11    1    3    3    0    0  0.65996511649E+01  0.62256253849E+01  0.39223582464E+01  0.98842653448E+01  0.51100000000E-03 0. -1.
        -11    1    3    3    0    0  0.28034847688E+01  0.21836795332E+01 -0.76913568957E-01  0.35544196588E+01  0.51100000000E-03 0.  1.
         12    1    3    3    0    0  0.27613096183E+02  0.89481132360E+01  0.15065716824E+02  0.32703633356E+02  0.00000000000E+00 0. -1.
</event>
<event>
 7    1  0.3435408E-009  0.4614232E+02  0.7816164E-02  0.1320468E+00
        -11   -1    0    0    0    0  0.00000000000E+00  0.00000000000E+00  0.45593999997E+02  0.45594000000E+02  0.51100000000E-03 0. -1.
         11   -1    0    0    0    0 -0.00000000000E+00 -0.00000000000E+00 -0.45593999997E+02  0.45594000000E+02  0.51100000000E-03 0.  1.
    9900012    2    1    2    0    0  0.14396346667E+02  0.40132565221E+02  0.14533952535E+02  0.46142319132E+02  0.10000012504E+02 0.  0.
        -12    1    1    2    0    0 -0.14396346667E+02 -0.40132565221E+02 -0.14533952535E+02  0.45045680868E+02  0.00000000000E+00 0.  1.
         11    1    3    3    0    0  0.42527954757E+01  0.12436491826E+02  0.15280229477E+01  0.13232061543E+02  0.51100000000E-03 0. -1.
        -11    1    3    3    0    0  0.85011121934E+01  0.13604287742E+02  0.67075316502E+01  0.17387827196E+02  0.51100000000E-03 0.  1.
         12    1    3    3    0    0  0.16424389978E+01  0.14091785652E+02  0.62983979372E+01  0.15522430393E+02  0.00000000000E+00 0. -1.
</event>
<event>
 7    1  0.3435408E-009  0.4614232E+02  0.7816164E-02  0.1320468E+00
        -11   -1    0    0    0    0  0.00000000000E+00  0.00000000000E+00  0.45593999997E+02  0.45594000000E+02  0.51100000000E-03 0.  1.
         11   -1    0    0    0    0 -0.00000000000E+00 -0.00000000000E+00 -0.45593999997E+02  0.45594000000E+02  0.51100000000E-03 0. -1.
    9900012    2    1    2    0    0 -0.62913177296E+01 -0.42983961374E+02 -0.11912676194E+02  0.46142317985E+02  0.10000002038E+02 0.  0.
        -12    1    1    2    0    0  0.62913177296E+01  0.42983961374E+02  0.11912676194E+02  0.45045682015E+02  0.00000000000E+00 0.  1.
         11    1    3    3    0    0 -0.53072972679E+01 -0.38184090975E+02 -0.82187392951E+01  0.39417507326E+02  0.51100000000E-03 0. -1.
        -11    1    3    3    0    0  0.55605492187E+00 -0.33220574552E+01 -0.15789513634E+01  0.37199933442E+01  0.51100000000E-03 0.  1.
         12    1    3    3    0    0 -0.15400753836E+01 -0.14778129430E+01 -0.21149855351E+01  0.30048173148E+01  0.00000000000E+00 0. -1.
</event>
<event>
 7    1  0.3435408E-009  0.4614232E+02  0.7816164E-02  0.1320468E+00
        -11   -1    0    0    0    0  0.00000000000E+00  0.00000000000E+00  0.45593999997E+02  0.45594000000E+02  0.51100000000E-03 0.  1.
         11   -1    0    0    0    0 -0.00000000000E+00 -0.00000000000E+00 -0.45593999997E+02  0.45594000000E+02  0.51100000000E-03 0. -1.
    9900012    2    1    2    0    0  0.91207071761E+01  0.44518588094E+00 -0.44110407450E+02  0.46142317240E+02  0.99999952514E+01 0.  0.
        -12    1    1    2    0    0 -0.91207071761E+01 -0.44518588094E+00  0.44110407450E+02  0.45045682760E+02  0.00000000000E+00 0.  1.
         11    1    3    3    0    0  0.14745302463E+01  0.25751012601E+00 -0.62694627198E+01  0.64456740508E+01  0.51100000000E-03 0. -1.
        -11    1    3    3    0    0  0.86392364898E+00  0.20526496943E+01 -0.24624067473E+02  0.24724571463E+02  0.51100000000E-03 0.  1.
        -12    1    3    3    0    0  0.67822532808E+01 -0.18649739393E+01 -0.13216877257E+02  0.14972071727E+02  0.00000000000E+00 0.  1.
</event>
<event>
 7    1  0.3435408E-009  0.4614232E+02  0.7816164E-02  0.1320468E+00
        -11   -1    0    0    0    0  0.00000000000E+00  0.00000000000E+00  0.45593999997E+02  0.45594000000E+02  0.51100000000E-03 0. -1.
         11   -1    0    0    0    0 -0.00000000000E+00 -0.00000000000E+00 -0.45593999997E+02  0.45594000000E+02  0.51100000000E-03 0.  1.
    9900012    2    1    2    0    0  0.31150815457E+02  0.19643038374E+02 -0.25940145954E+02  0.46142318384E+02  0.10000005676E+02 0.  0.
        -12    1    1    2    0    0 -0.31150815457E+02 -0.19643038374E+02  0.25940145954E+02  0.45045681616E+02  0.00000000000E+00 0.  1.
         11    1    3    3    0    0  0.42383266182E+01  0.65415542852E+01 -0.66638474389E+01  0.10254862648E+02  0.51100000000E-03 0. -1.
        -11    1    3    3    0    0  0.25394003905E+02  0.12903393053E+02 -0.19206217880E+02  0.34354501773E+02  0.51100000000E-03 0.  1.
        -12    1    3    3    0    0  0.15184849342E+01  0.19809103529E+00 -0.70080635092E-01  0.15329539618E+01  0.00000000000E+00 0.  1.
</event>
<event>
 7    1  0.3435408E-009  0.4614232E+02  0.7816164E-02  0.1320468E+00
        -11   -1    0    0    0    0  0.00000000000E+00  0.00000000000E+00  0.45593999997E+02  0.45594000000E+02  0.51100000000E-03 0.  1.
         11   -1    0    0    0    0 -0.00000000000E+00 -0.00000000000E+00 -0.45593999997E+02  0.45594000000E+02  0.51100000000E-03 0. -1.
    9900012    2    1    2    0    0  0.14034178554E+02 -0.66199508677E+01 -0.42288669732E+02  0.46142317577E+02  0.99999983251E+01 0.  0.
        -12    1    1    2    0    0 -0.14034178554E+02  0.66199508677E+01  0.42288669732E+02  0.45045682423E+02  0.00000000000E+00 0.  1.
         11    1    3    3    0    0 -0.89254998014E+00 -0.24019656682E+01 -0.93815104684E+01  0.97251644443E+01  0.51100000000E-03 0. -1.
        -11    1    3    3    0    0  0.99766977149E+01 -0.31222963195E+01 -0.20428422771E+02  0.22947847149E+02  0.51100000000E-03 0.  1.
         12    1    3    3    0    0  0.49500308192E+01 -0.10956888800E+01 -0.12478736493E+02  0.13469305984E+02  0.00000000000E+00 0. -1.
</event>
<event>
 7    1  0.3435408E-009  0.4614232E+02  0.7816164E-02  0.1320468E+00
        -11   -1    0    0    0    0  0.00000000000E+00  0.00000000000E+00  0.45593999997E+02  0.45594000000E+02  0.51100000000E-03 0.  1.
         11   -1    0    0    0    0 -0.00000000000E+00 -0.00000000000E+00 -0.45593999997E+02  0.45594000000E+02  0.51100000000E-03 0. -1.
    9900012    2    1    2    0    0  0.21319492827E+02 -0.36980909718E+02 -0.14387671801E+02  0.46142316990E+02  0.99999929681E+01 0.  0.
        -12    1    1    2    0    0 -0.21319492827E+02  0.36980909718E+02  0.14387671801E+02  0.45045683010E+02  0.00000000000E+00 0.  1.
         11    1    3    3    0    0  0.78319163942E+01 -0.86754472338E+01 -0.17971637737E+01  0.11825062241E+02  0.51100000000E-03 0. -1.
        -11    1    3    3    0    0  0.70646197309E+00 -0.13507125425E+01 -0.23030297052E+01  0.27617854688E+01  0.51100000000E-03 0.  1.
        -12    1    3    3    0    0  0.12781114460E+02 -0.26954749942E+02 -0.10287478322E+02  0.31555469280E+02  0.00000000000E+00 0.  1.
</event>
<event>
 7    1  0.3435408E-009  0.4614232E+02  0.7816164E-02  0.1320468E+00
        -11   -1    0    0    0    0  0.00000000000E+00  0.00000000000E+00  0.45593999997E+02  0.45594000000E+02  0.51100000000E-03 0.  1.
         11   -1    0    0    0    0 -0.00000000000E+00 -0.00000000000E+00 -0.45593999997E+02  0.45594000000E+02  0.51100000000E-03 0. -1.
    9900012    2    1    2    0    0  0.29189779551E+02  0.23674252994E+02 -0.24831427593E+02  0.46142320059E+02  0.10000020954E+02 0.  0.
        -12    1    1    2    0    0 -0.29189779551E+02 -0.23674252994E+02  0.24831427593E+02  0.45045679941E+02  0.00000000000E+00 0.  1.
         11    1    3    3    0    0  0.18217048608E+02  0.16555018378E+02 -0.17813716983E+02  0.30385160959E+02  0.51100000000E-03 0. -1.
        -11    1    3    3    0    0  0.42943902753E+01  0.98053513517E-01 -0.12212647752E+01  0.44657463251E+01  0.51100000000E-03 0.  1.
        -12    1    3    3    0    0  0.66783406678E+01  0.70211811022E+01 -0.57964458345E+01  0.11291412775E+02  0.00000000000E+00 0.  1.
</event>
<event>
 7    1  0.3435408E-009  0.4614232E+02  0.7816164E-02  0.1320468E+00
        -11   -1    0    0    0    0  0.00000000000E+00  0.00000000000E+00  0.45593999997E+02  0.45594000000E+02  0.51100000000E-03 0.  1.
         11   -1    0    0    0    0 -0.00000000000E+00 -0.00000000000E+00 -0.45593999997E+02  0.45594000000E+02  0.51100000000E-03 0. -1.
    9900012    2    1    2    0    0 -0.35042986940E+02  0.10125123973E+02 -0.26430747400E+02  0.46142317884E+02  0.10000001123E+02 0.  0.
        -12    1    1    2    0    0  0.35042986940E+02 -0.10125123973E+02  0.26430747400E+02  0.45045682116E+02  0.00000000000E+00 0.  1.
         11    1    3    3    0    0 -0.32561856726E+02  0.10327878203E+02 -0.24486747961E+02  0.42030232067E+02  0.51100000000E-03 0. -1.
        -11    1    3    3    0    0 -0.24868129927E+00 -0.39936277318E+00 -0.18065294182E+01  0.18667838153E+01  0.51100000000E-03 0.  1.
        -12    1    3    3    0    0 -0.22324489144E+01  0.19660854396E+00 -0.13747002144E+00  0.22453020024E+01  0.00000000000E+00 0.  1.
</event>
<event>
 7    1  0.3435408E-009  0.4614232E+02  0.7816164E-02  0.1320468E+00
        -11   -1    0    0    0    0  0.00000000000E+00  0.00000000000E+00  0.45593999997E+02  0.45594000000E+02  0.51100000000E-03 0. -1.
         11   -1    0    0    0    0 -0.00000000000E+00 -0.00000000000E+00 -0.45593999997E+02  0.45594000000E+02  0.51100000000E-03 0.  1.
    9900012    2    1    2    0    0  0.40257557266E+02  0.56495558029E+01  0.19404255091E+02  0.46142317483E+02  0.99999974595E+01 0.  0.
        -12    1    1    2    0    0 -0.40257557266E+02 -0.56495558029E+01 -0.19404255091E+02  0.45045682517E+02  0.00000000000E+00 0.  1.
         11    1    3    3    0    0  0.18164650450E+02  0.10118170469E+00  0.83469762538E+01  0.19990917351E+02  0.51100000000E-03 0. -1.
        -11    1    3    3    0    0  0.15993928122E+02  0.89740350164E+00  0.78254455589E+01  0.17828310864E+02  0.51100000000E-03 0.  1.
        -12    1    3    3    0    0  0.60989786944E+01  0.46509705966E+01  0.32318332787E+01  0.83230892670E+01  0.00000000000E+00 0.  1.
</event>
<event>
 7    1  0.3435408E-009  0.4614232E+02  0.7816164E-02  0.1320468E+00
        -11   -1    0    0    0    0  0.00000000000E+00  0.00000000000E+00  0.45593999997E+02  0.45594000000E+02  0.51100000000E-03 0.  1.
         11   -1    0    0    0    0 -0.00000000000E+00 -0.00000000000E+00 -0.45593999997E+02  0.45594000000E+02  0.51100000000E-03 0. -1.
    9900012    2    1    2    0    0 -0.20745708817E+02 -0.36197053775E+01 -0.39819930247E+02  0.46142317119E+02  0.99999941458E+01 0.  0.
        -12    1    1    2    0    0  0.20745708817E+02  0.36197053775E+01  0.39819930247E+02  0.45045682881E+02  0.00000000000E+00 0.  1.
         11    1    3    3    0    0 -0.42959492414E+01  0.13156480919E+00 -0.38314386804E+01  0.57578131097E+01  0.51100000000E-03 0. -1.
        -11    1    3    3    0    0 -0.12013186746E+02 -0.35257219119E+01 -0.32192172529E+02  0.34541038537E+02  0.51100000000E-03 0.  1.
        -12    1    3    3    0    0 -0.44365728293E+01 -0.22554827478E+00 -0.37963190372E+01  0.58434654724E+01  0.00000000000E+00 0.  1.
</event>
<event>
 7    1  0.3435408E-009  0.4614232E+02  0.7816164E-02  0.1320468E+00
        -11   -1    0    0    0    0  0.00000000000E+00  0.00000000000E+00  0.45593999997E+02  0.45594000000E+02  0.51100000000E-03 0. -1.
         11   -1    0    0    0    0 -0.00000000000E+00 -0.00000000000E+00 -0.45593999997E+02  0.45594000000E+02  0.51100000000E-03 0.  1.
    9900012    2    1    2    0    0 -0.12540476124E+02  0.18717480584E+02  0.39006481751E+02  0.46142320524E+02  0.10000025196E+02 0.  0.
        -12    1    1    2    0    0  0.12540476124E+02 -0.18717480584E+02 -0.39006481751E+02  0.45045679476E+02  0.00000000000E+00 0.  1.
         11    1    3    3    0    0 -0.60947332179E+01  0.34261048258E+01  0.11992848745E+02  0.13882088768E+02  0.51100000000E-03 0.  1.
        -11    1    3    3    0    0 -0.67204359562E+01  0.13841838520E+02  0.20793662510E+02  0.25867685514E+02  0.51100000000E-03 0. -1.
        -12    1    3    3    0    0  0.27469305027E+00  0.14495372389E+01  0.62199704965E+01  0.63925462420E+01  0.00000000000E+00 0.  1.
</event>
<event>
 7    1  0.3435408E-009  0.4614232E+02  0.7816164E-02  0.1320468E+00
        -11   -1    0    0    0    0  0.00000000000E+00  0.00000000000E+00  0.45593999997E+02  0.45594000000E+02  0.51100000000E-03 0.  1.
         11   -1    0    0    0    0 -0.00000000000E+00 -0.00000000000E+00 -0.45593999997E+02  0.45594000000E+02  0.51100000000E-03 0. -1.
    9900012    2    1    2    0    0  0.22762509731E+01 -0.21975736552E+02 -0.39255561220E+02  0.46142318718E+02  0.10000008726E+02 0.  0.
        -12    1    1    2    0    0 -0.22762509731E+01  0.21975736552E+02  0.39255561220E+02  0.45045681282E+02  0.00000000000E+00 0.  1.
         11    1    3    3    0    0  0.12698916206E+01 -0.24129589852E+01 -0.11633811298E+02  0.11949082030E+02  0.51100000000E-03 0. -1.
        -11    1    3    3    0    0 -0.13740633006E+01 -0.13127721157E+02 -0.19700644572E+02  0.23713719859E+02  0.51100000000E-03 0.  1.
         12    1    3    3    0    0  0.23804226531E+01 -0.64350564094E+01 -0.79211053494E+01  0.10479516828E+02  0.00000000000E+00 0. -1.
</event>
<event>
 7    1  0.3435408E-009  0.4614232E+02  0.7816164E-02  0.1320468E+00
        -11   -1    0    0    0    0  0.00000000000E+00  0.00000000000E+00  0.45593999997E+02  0.45594000000E+02  0.51100000000E-03 0.  1.
         11   -1    0    0    0    0 -0.00000000000E+00 -0.00000000000E+00 -0.45593999997E+02  0.45594000000E+02  0.51100000000E-03 0. -1.
    9900012    2    1    2    0    0  0.21095057832E+02  0.19855292279E+01 -0.39751348083E+02  0.46142318013E+02  0.10000002299E+02 0.  0.
        -12    1    1    2    0    0 -0.21095057832E+02 -0.19855292279E+01  0.39751348083E+02  0.45045681987E+02  0.00000000000E+00 0.  1.
         11    1    3    3    0    0  0.12680350096E+02  0.23779892026E+01 -0.19880508273E+02  0.23699804232E+02  0.51100000000E-03 0. -1.
        -11    1    3    3    0    0  0.35916696582E+01 -0.20895652203E+00 -0.15562019340E+02  0.15972482586E+02  0.51100000000E-03 0.  1.
         12    1    3    3    0    0  0.48230380782E+01 -0.18350345272E+00 -0.43088204697E+01  0.64700311947E+01  0.00000000000E+00 0. -1.
</event>
<event>
 7    1  0.3435408E-009  0.4614232E+02  0.7816164E-02  0.1320468E+00
        -11   -1    0    0    0    0  0.00000000000E+00  0.00000000000E+00  0.45593999997E+02  0.45594000000E+02  0.51100000000E-03 0.  1.
         11   -1    0    0    0    0 -0.00000000000E+00 -0.00000000000E+00 -0.45593999997E+02  0.45594000000E+02  0.51100000000E-03 0. -1.
    9900012    2    1    2    0    0  0.83653511282E+01 -0.15071286992E+02 -0.41617192474E+02  0.46142317626E+02  0.99999987674E+01 0.  0.
        -12    1    1    2    0    0 -0.83653511282E+01  0.15071286992E+02  0.41617192474E+02  0.45045682374E+02  0.00000000000E+00 0.  1.
         11    1    3    3    0    0  0.33715449867E+01 -0.72995690907E+01 -0.25279927381E+02  0.26527829786E+02  0.51100000000E-03 0. -1.
        -11    1    3    3    0    0 -0.12826113224E+01 -0.13660928929E+01 -0.24770520187E+01  0.31059762653E+01  0.51100000000E-03 0.  1.
        -12    1    3    3    0    0  0.62764174639E+01 -0.64056250086E+01 -0.13860213074E+02  0.16508511574E+02  0.00000000000E+00 0.  1.
</event>
<event>
 7    1  0.3435408E-009  0.4614232E+02  0.7816164E-02  0.1320468E+00
        -11   -1    0    0    0    0  0.00000000000E+00  0.00000000000E+00  0.45593999997E+02  0.45594000000E+02  0.51100000000E-03 0. -1.
         11   -1    0    0    0    0 -0.00000000000E+00 -0.00000000000E+00 -0.45593999997E+02  0.45594000000E+02  0.51100000000E-03 0.  1.
    9900012    2    1    2    0    0  0.43202689991E+02  0.83385210676E+01  0.96493558481E+01  0.46142318472E+02  0.10000006482E+02 0.  0.
        -12    1    1    2    0    0 -0.43202689991E+02 -0.83385210676E+01 -0.96493558481E+01  0.45045681528E+02  0.00000000000E+00 0.  1.
         11    1    3    3    0    0  0.14465242220E+02  0.59442179268E+01  0.41021704853E+01  0.16168016644E+02  0.51100000000E-03 0. -1.
        -11    1    3    3    0    0  0.48879278072E+01 -0.54107165912E+00  0.31166554088E+01  0.58222107474E+01  0.51100000000E-03 0.  1.
         12    1    3    3    0    0  0.23849519964E+02  0.29353747999E+01  0.24305299540E+01  0.24152091081E+02  0.00000000000E+00 0. -1.
</event>
<event>
 7    1  0.3435408E-009  0.4614232E+02  0.7816164E-02  0.1320468E+00
        -11   -1    0    0    0    0  0.00000000000E+00  0.00000000000E+00  0.45593999997E+02  0.45594000000E+02  0.51100000000E-03 0.  1.
         11   -1    0    0    0    0 -0.00000000000E+00 -0.00000000000E+00 -0.45593999997E+02  0.45594000000E+02  0.51100000000E-03 0. -1.
    9900012    2    1    2    0    0 -0.15029036108E+02  0.40832110035E+02 -0.11661059556E+02  0.46142318229E+02  0.10000004271E+02 0.  0.
        -12    1    1    2    0    0  0.15029036108E+02 -0.40832110035E+02  0.11661059556E+02  0.45045681771E+02  0.00000000000E+00 0.  1.
         11    1    3    3    0    0 -0.39739692366E+01  0.14502010788E+02 -0.43030927917E+01  0.15640247959E+02  0.51100000000E-03 0. -1.
        -11    1    3    3    0    0 -0.38782762903E+01  0.18798612788E+02 -0.49936968314E+01  0.19833453508E+02  0.51100000000E-03 0.  1.
        -12    1    3    3    0    0 -0.71767905806E+01  0.75314864592E+01 -0.23642699328E+01  0.10668616763E+02  0.00000000000E+00 0.  1.
</event>
<event>
 7    1  0.3435408E-009  0.4614232E+02  0.7816164E-02  0.1320468E+00
        -11   -1    0    0    0    0  0.00000000000E+00  0.00000000000E+00  0.45593999997E+02  0.45594000000E+02  0.51100000000E-03 0. -1.
         11   -1    0    0    0    0 -0.00000000000E+00 -0.00000000000E+00 -0.45593999997E+02  0.45594000000E+02  0.51100000000E-03 0.  1.
    9900012    2    1    2    0    0 -0.44949659001E+02  0.73435930956E+00  0.28464501532E+01  0.46142318672E+02  0.10000008303E+02 0.  0.
        -12    1    1    2    0    0  0.44949659001E+02 -0.73435930956E+00 -0.28464501532E+01  0.45045681328E+02  0.00000000000E+00 0.  1.
         11    1    3    3    0    0 -0.11047805480E+02  0.15266641367E+01  0.19817535174E+01  0.11327491187E+02  0.51100000000E-03 0.  1.
        -11    1    3    3    0    0 -0.19750916185E+02  0.64737141322E+00  0.42048642584E+01  0.20203926935E+02  0.51100000000E-03 0. -1.
        -12    1    3    3    0    0 -0.14150937335E+02 -0.14396762404E+01 -0.33401676226E+01  0.14610900550E+02  0.00000000000E+00 0.  1.
</event>
<event>
 7    1  0.3435408E-009  0.4614232E+02  0.7816164E-02  0.1320468E+00
        -11   -1    0    0    0    0  0.00000000000E+00  0.00000000000E+00  0.45593999997E+02  0.45594000000E+02  0.51100000000E-03 0.  1.
         11   -1    0    0    0    0 -0.00000000000E+00 -0.00000000000E+00 -0.45593999997E+02  0.45594000000E+02  0.51100000000E-03 0. -1.
    9900012    2    1    2    0    0  0.19217634657E+02  0.36611800054E+02 -0.17870987104E+02  0.46142316910E+02  0.99999922363E+01 0.  0.
        -12    1    1    2    0    0 -0.19217634657E+02 -0.36611800054E+02  0.17870987104E+02  0.45045683090E+02  0.00000000000E+00 0.  1.
         11    1    3    3    0    0 -0.59272933610E+00  0.10836783504E+01 -0.44971186610E+00  0.13145066971E+01  0.51100000000E-03 0. -1.
        -11    1    3    3    0    0  0.11185182508E+02  0.19499663859E+02 -0.13454985518E+02  0.26198889937E+02  0.51100000000E-03 0.  1.
         12    1    3    3    0    0  0.86251814847E+01  0.16028457844E+02 -0.39662897207E+01  0.18628920276E+02  0.00000000000E+00 0. -1.
</event>
<event>
 7    1  0.3435408E-009  0.4614232E+02  0.7816164E-02  0.1320468E+00
        -11   -1    0    0    0    0  0.00000000000E+00  0.00000000000E+00  0.45593999997E+02  0.45594000000E+02  0.51100000000E-03 0.  1.
         11   -1    0    0    0    0 -0.00000000000E+00 -0.00000000000E+00 -0.45593999997E+02  0.45594000000E+02  0.51100000000E-03 0. -1.
    9900012    2    1    2    0    0  0.86807248564E+01  0.13795167650E+02 -0.41993474348E+02  0.46142317384E+02  0.99999965616E+01 0.  0.
        -12    1    1    2    0    0 -0.86807248564E+01 -0.13795167650E+02  0.41993474348E+02  0.45045682616E+02  0.00000000000E+00 0.  1.
         11    1    3    3    0    0  0.16124903411E+01  0.69681182314E+01 -0.23457305386E+02  0.24523457607E+02  0.51100000000E-03 0. -1.
        -11    1    3    3    0    0  0.61660313981E+01  0.48998886943E+01 -0.17623927735E+02  0.19303670156E+02  0.51100000000E-03 0.  1.
        -12    1    3    3    0    0  0.90220311716E+00  0.19271607247E+01 -0.91224122655E+00  0.23151896205E+01  0.00000000000E+00 0.  1.
</event>
<event>
 7    1  0.3435408E-009  0.4614232E+02  0.7816164E-02  0.1320468E+00
        -11   -1    0    0    0    0  0.00000000000E+00  0.00000000000E+00  0.45593999997E+02  0.45594000000E+02  0.51100000000E-03 0.  1.
         11   -1    0    0    0    0 -0.00000000000E+00 -0.00000000000E+00 -0.45593999997E+02  0.45594000000E+02  0.51100000000E-03 0. -1.
    9900012    2    1    2    0    0  0.23012533812E+02 -0.34826535932E+02 -0.16930717500E+02  0.46142317493E+02  0.99999975531E+01 0.  0.
        -12    1    1    2    0    0 -0.23012533812E+02  0.34826535932E+02  0.16930717500E+02  0.45045682507E+02  0.00000000000E+00 0.  1.
         11    1    3    3    0    0  0.14658340712E+01 -0.61516991144E+01 -0.33785782366E+01  0.71698579261E+01  0.51100000000E-03 0.  1.
        -11    1    3    3    0    0  0.20043403411E+02 -0.23859275217E+02 -0.13414902014E+02  0.33925840159E+02  0.51100000000E-03 0. -1.
        -12    1    3    3    0    0  0.15032963300E+01 -0.48155616007E+01 -0.13723724936E+00  0.50466194079E+01  0.00000000000E+00 0.  1.
</event>
<event>
 7    1  0.3435408E-009  0.4614232E+02  0.7816164E-02  0.1320468E+00
        -11   -1    0    0    0    0  0.00000000000E+00  0.00000000000E+00  0.45593999997E+02  0.45594000000E+02  0.51100000000E-03 0. -1.
         11   -1    0    0    0    0 -0.00000000000E+00 -0.00000000000E+00 -0.45593999997E+02  0.45594000000E+02  0.51100000000E-03 0.  1.
    9900012    2    1    2    0    0  0.39781228021E+02 -0.89435412910E+01  0.19146291298E+02  0.46142317585E+02  0.99999983985E+01 0.  0.
        -12    1    1    2    0    0 -0.39781228021E+02  0.89435412910E+01 -0.19146291298E+02  0.45045682415E+02  0.00000000000E+00 0.  1.
         11    1    3    3    0    0  0.24385547220E+02 -0.46493625124E+01  0.11124624843E+02  0.27203469689E+02  0.51100000000E-03 0. -1.
        -11    1    3    3    0    0  0.21392524625E+01 -0.99298512248E+00 -0.10061231460E+01  0.25641186786E+01  0.51100000000E-03 0.  1.
        -12    1    3    3    0    0  0.13256428339E+02 -0.33011936561E+01  0.90277896012E+01  0.16374729218E+02  0.00000000000E+00 0.  1.
</event>
<event>
 7    1  0.3435408E-009  0.4614232E+02  0.7816164E-02  0.1320468E+00
        -11   -1    0    0    0    0  0.00000000000E+00  0.00000000000E+00  0.45593999997E+02  0.45594000000E+02  0.51100000000E-03 0. -1.
         11   -1    0    0    0    0 -0.00000000000E+00 -0.00000000000E+00 -0.45593999997E+02  0.45594000000E+02  0.51100000000E-03 0.  1.
    9900012    2    1    2    0    0 -0.78390726682E+01 -0.44355308814E+02 -0.51875180016E+00  0.46142316703E+02  0.99999903531E+01 0.  0.
        -12    1    1    2    0    0  0.78390726682E+01  0.44355308814E+02  0.51875180016E+00  0.45045683297E+02  0.00000000000E+00 0.  1.
         11    1    3    3    0    0 -0.41846485004E+01 -0.18564107714E+02 -0.34194869945E+01  0.19334690840E+02  0.51100000000E-03 0. -1.
        -11    1    3    3    0    0 -0.56522009628E+00 -0.70461520667E+00 -0.86726369907E+00  0.12522391671E+01  0.51100000000E-03 0.  1.
         12    1    3    3    0    0 -0.30892040716E+01 -0.25086585893E+02  0.37679988934E+01  0.25555386696E+02  0.00000000000E+00 0. -1.
</event>
<event>
 7    1  0.3435408E-009  0.4614232E+02  0.7816164E-02  0.1320468E+00
        -11   -1    0    0    0    0  0.00000000000E+00  0.00000000000E+00  0.45593999997E+02  0.45594000000E+02  0.51100000000E-03 0.  1.
         11   -1    0    0    0    0 -0.00000000000E+00 -0.00000000000E+00 -0.45593999997E+02  0.45594000000E+02  0.51100000000E-03 0. -1.
    9900012    2    1    2    0    0 -0.30316112633E+02  0.21995941121E+02  0.25024495505E+02  0.46142317784E+02  0.10000000213E+02 0.  0.
        -12    1    1    2    0    0  0.30316112633E+02 -0.21995941121E+02 -0.25024495505E+02  0.45045682216E+02  0.00000000000E+00 0.  1.
         11    1    3    3    0    0 -0.11885480342E+02  0.11340172752E+02  0.12781164205E+02  0.20813993363E+02  0.51100000000E-03 0. -1.
        -11    1    3    3    0    0  0.42240642380E+00 -0.14267340932E+00  0.23105308340E+00  0.50216399420E+00  0.51100000000E-03 0.  1.
        -12    1    3    3    0    0 -0.18853038715E+02  0.10798441778E+02  0.12012278217E+02  0.24826160427E+02  0.00000000000E+00 0.  1.
</event>
<event>
 7    1  0.3435408E-009  0.4614232E+02  0.7816164E-02  0.1320468E+00
        -11   -1    0    0    0    0  0.00000000000E+00  0.00000000000E+00  0.45593999997E+02  0.45594000000E+02  0.51100000000E-03 0.  1.
         11   -1    0    0    0    0 -0.00000000000E+00 -0.00000000000E+00 -0.45593999997E+02  0.45594000000E+02  0.51100000000E-03 0. -1.
    9900012    2    1    2    0    0 -0.29504838197E+02  0.33964240896E+02 -0.22379341169E+01  0.46142317789E+02  0.10000000256E+02 0.  0.
        -12    1    1    2    0    0  0.29504838197E+02 -0.33964240896E+02  0.22379341169E+01  0.45045682211E+02  0.00000000000E+00 0.  1.
         11    1    3    3    0    0 -0.13952156523E+02  0.16867919554E+02 -0.46740766152E+01  0.22383841810E+02  0.51100000000E-03 0. -1.
        -11    1    3    3    0    0 -0.16619608095E+01  0.37468758712E+01  0.18154441350E+01  0.44829711348E+01  0.51100000000E-03 0.  1.
        -12    1    3    3    0    0 -0.13890720865E+02  0.13349445471E+02  0.62069836328E+00  0.19275504844E+02  0.00000000000E+00 0.  1.
</event>
<event>
 7    1  0.3435408E-009  0.4614232E+02  0.7816164E-02  0.1320468E+00
        -11   -1    0    0    0    0  0.00000000000E+00  0.00000000000E+00  0.45593999997E+02  0.45594000000E+02  0.51100000000E-03 0.  1.
         11   -1    0    0    0    0 -0.00000000000E+00 -0.00000000000E+00 -0.45593999997E+02  0.45594000000E+02  0.51100000000E-03 0. -1.
    9900012    2    1    2    0    0 -0.82995371912E+01 -0.34354200133E+02 -0.27928842701E+02  0.46142316089E+02  0.99999847565E+01 0.  0.
        -12    1    1    2    0    0  0.82995371912E+01  0.34354200133E+02  0.27928842701E+02  0.45045683911E+02  0.00000000000E+00 0.  1.
         11    1    3    3    0    0 -0.41210993291E+00 -0.63862706881E+01 -0.19744143861E+01  0.66972083981E+01  0.51100000000E-03 0. -1.
        -11    1    3    3    0    0 -0.56952210716E+01 -0.13519795073E+02 -0.16304194007E+02  0.21932786971E+02  0.51100000000E-03 0.  1.
         12    1    3    3    0    0 -0.21922061867E+01 -0.14448134372E+02 -0.96502343081E+01  0.17512320720E+02  0.00000000000E+00 0. -1.
</event>
<event>
 7    1  0.3435408E-009  0.4614232E+02  0.7816164E-02  0.1320468E+00
        -11   -1    0    0    0    0  0.00000000000E+00  0.00000000000E+00  0.45593999997E+02  0.45594000000E+02  0.51100000000E-03 0.  1.
         11   -1    0    0    0    0 -0.00000000000E+00 -0.00000000000E+00 -0.45593999997E+02  0.45594000000E+02  0.51100000000E-03 0. -1.
    9900012    2    1    2    0    0 -0.18900773091E+02  0.24182772614E+02 -0.32970711140E+02  0.46142317545E+02  0.99999980304E+01 0.  0.
        -12    1    1    2    0    0  0.18900773091E+02 -0.24182772614E+02  0.32970711140E+02  0.45045682455E+02  0.00000000000E+00 0.  1.
         11    1    3    3    0    0 -0.19645679338E+02  0.23442292615E+02 -0.32161099833E+02  0.44382768531E+02  0.51100000000E-03 0. -1.
        -11    1    3    3    0    0  0.87664101922E+00  0.83719013566E+00 -0.95315121037E+00  0.15420390043E+01  0.51100000000E-03 0.  1.
         12    1    3    3    0    0 -0.13173477160E+00 -0.96710136377E-01  0.14353990356E+00  0.21751000997E+00  0.00000000000E+00 0. -1.
</event>
<event>
 7    1  0.3435408E-009  0.4614232E+02  0.7816164E-02  0.1320468E+00
        -11   -1    0    0    0    0  0.00000000000E+00  0.00000000000E+00  0.45593999997E+02  0.45594000000E+02  0.51100000000E-03 0.  1.
         11   -1    0    0    0    0 -0.00000000000E+00 -0.00000000000E+00 -0.45593999997E+02  0.45594000000E+02  0.51100000000E-03 0. -1.
    9900012    2    1    2    0    0  0.25446724183E+02  0.29205541259E+02 -0.22991600993E+02  0.46142321760E+02  0.10000036462E+02 0.  0.
        -12    1    1    2    0    0 -0.25446724183E+02 -0.29205541259E+02  0.22991600993E+02  0.45045678240E+02  0.00000000000E+00 0.  1.
         11    1    3    3    0    0  0.85362914389E+01  0.10997966323E+02 -0.67822444171E+01  0.15486199481E+02  0.51100000000E-03 0. -1.
        -11    1    3    3    0    0  0.89452694497E+01  0.12171860458E+02 -0.13604210393E+02  0.20328467065E+02  0.51100000000E-03 0.  1.
        -12    1    3    3    0    0  0.79651632948E+01  0.60357144786E+01 -0.26051461825E+01  0.10327655214E+02  0.00000000000E+00 0.  1.
</event>
<event>
 7    1  0.3435408E-009  0.4614232E+02  0.7816164E-02  0.1320468E+00
        -11   -1    0    0    0    0  0.00000000000E+00  0.00000000000E+00  0.45593999997E+02  0.45594000000E+02  0.51100000000E-03 0. -1.
         11   -1    0    0    0    0 -0.00000000000E+00 -0.00000000000E+00 -0.45593999997E+02  0.45594000000E+02  0.51100000000E-03 0.  1.
    9900012    2    1    2    0    0  0.41475782603E+02 -0.14702076890E+02  0.96292214880E+01  0.46142317478E+02  0.99999974227E+01 0.  0.
        -12    1    1    2    0    0 -0.41475782603E+02  0.14702076890E+02 -0.96292214880E+01  0.45045682522E+02  0.00000000000E+00 0.  1.
         11    1    3    3    0    0  0.93947180164E+01 -0.25032557032E+01  0.80615341339E+00  0.97558648674E+01  0.51100000000E-03 0. -1.
        -11    1    3    3    0    0  0.21472172693E+01  0.11801431956E+01  0.72830645677E-01  0.24512414259E+01  0.51100000000E-03 0.  1.
        -12    1    3    3    0    0  0.29933847317E+02 -0.13378964382E+02  0.87502374289E+01  0.33935211185E+02  0.00000000000E+00 0.  1.
</event>
<event>
 7    1  0.3435408E-009  0.4614232E+02  0.7816164E-02  0.1320468E+00
        -11   -1    0    0    0    0  0.00000000000E+00  0.00000000000E+00  0.45593999997E+02  0.45594000000E+02  0.51100000000E-03 0.  1.
         11   -1    0    0    0    0 -0.00000000000E+00 -0.00000000000E+00 -0.45593999997E+02  0.45594000000E+02  0.51100000000E-03 0. -1.
    9900012    2    1    2    0    0 -0.17712254572E+02 -0.49359113985E+01 -0.41122089099E+02  0.46142318795E+02  0.10000009431E+02 0.  0.
        -12    1    1    2    0    0  0.17712254572E+02  0.49359113985E+01  0.41122089099E+02  0.45045681205E+02  0.00000000000E+00 0.  1.
         11    1    3    3    0    0 -0.39553404357E+01  0.29909750156E+00 -0.78505761627E+01  0.87957787390E+01  0.51100000000E-03 0. -1.
        -11    1    3    3    0    0 -0.95080696747E+01 -0.31894264539E+01 -0.12394778660E+02  0.15943850487E+02  0.51100000000E-03 0.  1.
        -12    1    3    3    0    0 -0.42488444616E+01 -0.20455824461E+01 -0.20876734276E+02  0.21402689570E+02  0.00000000000E+00 0.  1.
</event>
<event>
 7    1  0.3435408E-009  0.4614232E+02  0.7816164E-02  0.1320468E+00
        -11   -1    0    0    0    0  0.00000000000E+00  0.00000000000E+00  0.45593999997E+02  0.45594000000E+02  0.51100000000E-03 0.  1.
         11   -1    0    0    0    0 -0.00000000000E+00 -0.00000000000E+00 -0.45593999997E+02  0.45594000000E+02  0.51100000000E-03 0. -1.
    9900012    2    1    2    0    0 -0.21894932867E+02 -0.19388593234E+02 -0.34260879613E+02  0.46142317579E+02  0.99999983433E+01 0.  0.
        -12    1    1    2    0    0  0.21894932867E+02  0.19388593234E+02  0.34260879613E+02  0.45045682421E+02  0.00000000000E+00 0.  1.
         11    1    3    3    0    0 -0.16161432563E+01 -0.34194271790E+01 -0.17957885464E+01  0.41867956748E+01  0.51100000000E-03 0. -1.
        -11    1    3    3    0    0 -0.74211676388E+01 -0.28156008367E+01 -0.12516076148E+02  0.14820711845E+02  0.51100000000E-03 0.  1.
         12    1    3    3    0    0 -0.12857621972E+02 -0.13153565218E+02 -0.19949014919E+02  0.27134810060E+02  0.00000000000E+00 0. -1.
</event>
<event>
 7    1  0.3435408E-009  0.4614231E+02  0.7816164E-02  0.1320468E+00
        -11   -1    0    0    0    0  0.00000000000E+00  0.00000000000E+00  0.45593999997E+02  0.45594000000E+02  0.51100000000E-03 0. -1.
         11   -1    0    0    0    0 -0.00000000000E+00 -0.00000000000E+00 -0.45593999997E+02  0.45594000000E+02  0.51100000000E-03 0.  1.
    9900012    2    1    2    0    0 -0.39248313092E+02  0.67362619662E+01  0.21054844417E+02  0.46142314532E+02  0.99999705556E+01 0.  0.
        -12    1    1    2    0    0  0.39248313092E+02 -0.67362619662E+01 -0.21054844417E+02  0.45045685468E+02  0.00000000000E+00 0.  1.
         11    1    3    3    0    0 -0.10178969097E+02  0.12524561131E+01  0.19011073223E+01  0.10430449056E+02  0.51100000000E-03 0. -1.
        -11    1    3    3    0    0 -0.16177443933E+02  0.44691026215E+01  0.78175142898E+01  0.18514753587E+02  0.51100000000E-03 0.  1.
         12    1    3    3    0    0 -0.12891900062E+02  0.10147032317E+01  0.11336222805E+02  0.17197111889E+02  0.00000000000E+00 0. -1.
</event>
<event>
 7    1  0.3435408E-009  0.4614232E+02  0.7816164E-02  0.1320468E+00
        -11   -1    0    0    0    0  0.00000000000E+00  0.00000000000E+00  0.45593999997E+02  0.45594000000E+02  0.51100000000E-03 0.  1.
         11   -1    0    0    0    0 -0.00000000000E+00 -0.00000000000E+00 -0.45593999997E+02  0.45594000000E+02  0.51100000000E-03 0. -1.
    9900012    2    1    2    0    0  0.30246618928E+02 -0.21695194296E+02 -0.25368765503E+02  0.46142315687E+02  0.99999810829E+01 0.  0.
        -12    1    1    2    0    0 -0.30246618928E+02  0.21695194296E+02  0.25368765503E+02  0.45045684313E+02  0.00000000000E+00 0.  1.
         11    1    3    3    0    0  0.10783994316E+01 -0.23382666908E+01 -0.43180493869E+01  0.50275229706E+01  0.51100000000E-03 0. -1.
        -11    1    3    3    0    0  0.24246611919E+02 -0.17999206103E+02 -0.18413534785E+02  0.35368458737E+02  0.51100000000E-03 0.  1.
        -12    1    3    3    0    0  0.49216075776E+01 -0.13577215018E+01 -0.26371813308E+01  0.57463339788E+01  0.00000000000E+00 0.  1.
</event>
<event>
 7    1  0.3435408E-009  0.4614231E+02  0.7816164E-02  0.1320468E+00
        -11   -1    0    0    0    0  0.00000000000E+00  0.00000000000E+00  0.45593999997E+02  0.45594000000E+02  0.51100000000E-03 0.  1.
         11   -1    0    0    0    0 -0.00000000000E+00 -0.00000000000E+00 -0.45593999997E+02  0.45594000000E+02  0.51100000000E-03 0. -1.
    9900012    2    1    2    0    0  0.30858321300E+02 -0.25298915744E+02  0.20900780407E+02  0.46142314824E+02  0.99999732201E+01 0.  0.
        -12    1    1    2    0    0 -0.30858321300E+02  0.25298915744E+02 -0.20900780407E+02  0.45045685176E+02  0.00000000000E+00 0.  1.
         11    1    3    3    0    0  0.40067445431E+01 -0.55647816403E+01  0.56450302769E+01  0.88818446072E+01  0.51100000000E-03 0. -1.
        -11    1    3    3    0    0  0.77659317412E+01 -0.23951290039E+01  0.25727073422E+01  0.85243863172E+01  0.51100000000E-03 0.  1.
        -12    1    3    3    0    0  0.19085645016E+02 -0.17339005100E+02  0.12683042788E+02  0.28736083900E+02  0.00000000000E+00 0.  1.
</event>
<event>
 7    1  0.3435408E-009  0.4614232E+02  0.7816164E-02  0.1320468E+00
        -11   -1    0    0    0    0  0.00000000000E+00  0.00000000000E+00  0.45593999997E+02  0.45594000000E+02  0.51100000000E-03 0.  1.
         11   -1    0    0    0    0 -0.00000000000E+00 -0.00000000000E+00 -0.45593999997E+02  0.45594000000E+02  0.51100000000E-03 0. -1.
    9900012    2    1    2    0    0  0.40623802143E+02 -0.13931124429E+00 -0.19462807770E+02  0.46142316584E+02  0.99999892626E+01 0.  0.
        -12    1    1    2    0    0 -0.40623802143E+02  0.13931124429E+00  0.19462807770E+02  0.45045683416E+02  0.00000000000E+00 0.  1.
         11    1    3    3    0    0  0.47092160126E+01 -0.98175562853E+00 -0.49781370806E+01  0.69226012902E+01  0.51100000000E-03 0. -1.
        -11    1    3    3    0    0  0.11301323429E+02  0.21261921269E+01 -0.69957555952E+01  0.13460356638E+02  0.51100000000E-03 0.  1.
        -12    1    3    3    0    0  0.24613262701E+02 -0.12837477426E+01 -0.74889150937E+01  0.25759358655E+02  0.00000000000E+00 0.  1.
</event>
<event>
 7    1  0.3435408E-009  0.4614232E+02  0.7816164E-02  0.1320468E+00
        -11   -1    0    0    0    0  0.00000000000E+00  0.00000000000E+00  0.45593999997E+02  0.45594000000E+02  0.51100000000E-03 0. -1.
         11   -1    0    0    0    0 -0.00000000000E+00 -0.00000000000E+00 -0.45593999997E+02  0.45594000000E+02  0.51100000000E-03 0.  1.
    9900012    2    1    2    0    0  0.12074715382E+02 -0.40571667264E+02 -0.15403067821E+02  0.46142318360E+02  0.10000005459E+02 0.  0.
        -12    1    1    2    0    0 -0.12074715382E+02  0.40571667264E+02  0.15403067821E+02  0.45045681640E+02  0.00000000000E+00 0.  1.
         11    1    3    3    0    0  0.10569407479E+02 -0.34571864900E+02 -0.16628585988E+02  0.39792412459E+02  0.51100000000E-03 0. -1.
        -11    1    3    3    0    0  0.57918331335E+00 -0.37974767210E+01  0.75374805563E+00  0.39146416374E+01  0.51100000000E-03 0.  1.
         12    1    3    3    0    0  0.92612458915E+00 -0.22023256435E+01  0.47177011108E+00  0.24352642633E+01  0.00000000000E+00 0. -1.
</event>
<event>
 7    1  0.3435408E-009  0.4614232E+02  0.7816164E-02  0.1320468E+00
        -11   -1    0    0    0    0  0.00000000000E+00  0.00000000000E+00  0.45593999997E+02  0.45594000000E+02  0.51100000000E-03 0. -1.
         11   -1    0    0    0    0 -0.00000000000E+00 -0.00000000000E+00 -0.45593999997E+02  0.45594000000E+02  0.51100000000E-03 0.  1.
    9900012    2    1    2    0    0 -0.16281151846E+02 -0.57257091344E+01  0.41608339075E+02  0.46142317287E+02  0.99999956743E+01 0.  0.
        -12    1    1    2    0    0  0.16281151846E+02  0.57257091344E+01 -0.41608339075E+02  0.45045682713E+02  0.00000000000E+00 0.  1.
         11    1    3    3    0    0 -0.92589453308E+01 -0.72400733214E+01  0.24965710337E+02  0.27594083120E+02  0.51100000000E-03 0. -1.
        -11    1    3    3    0    0 -0.16426759072E+01  0.17266795621E+01  0.26949550759E+01  0.35975810719E+01  0.51100000000E-03 0.  1.
        -12    1    3    3    0    0 -0.53795306079E+01 -0.21231537507E+00  0.13947673662E+02  0.14950653095E+02  0.00000000000E+00 0.  1.
</event>
<event>
 7    1  0.3435408E-009  0.4614232E+02  0.7816164E-02  0.1320468E+00
        -11   -1    0    0    0    0  0.00000000000E+00  0.00000000000E+00  0.45593999997E+02  0.45594000000E+02  0.51100000000E-03 0.  1.
         11   -1    0    0    0    0 -0.00000000000E+00 -0.00000000000E+00 -0.45593999997E+02  0.45594000000E+02  0.51100000000E-03 0. -1.
    9900012    2    1    2    0    0 -0.30730614712E+02  0.32908070755E+02  0.13422705153E+01  0.46142317726E+02  0.99999996818E+01 0.  0.
        -12    1    1    2    0    0  0.30730614712E+02 -0.32908070755E+02 -0.13422705153E+01  0.45045682274E+02  0.00000000000E+00 0.  1.
         11    1    3    3    0    0 -0.10102628957E+02  0.10931349363E+02  0.34779404949E+01  0.15285731291E+02  0.51100000000E-03 0. -1.
        -11    1    3    3    0    0 -0.10459653643E+02  0.70479628050E+01  0.38686290073E+00  0.12618549726E+02  0.51100000000E-03 0.  1.
         12    1    3    3    0    0 -0.10168332112E+02  0.14928758587E+02 -0.25225328803E+01  0.18238036710E+02  0.00000000000E+00 0. -1.
</event>
<event>
 7    1  0.3435408E-009  0.4614232E+02  0.7816164E-02  0.1320468E+00
        -11   -1    0    0    0    0  0.00000000000E+00  0.00000000000E+00  0.45593999997E+02  0.45594000000E+02  0.51100000000E-03 0.  1.
         11   -1    0    0    0    0 -0.00000000000E+00 -0.00000000000E+00 -0.45593999997E+02  0.45594000000E+02  0.51100000000E-03 0. -1.
    9900012    2    1    2    0    0  0.26556738270E+01 -0.31175078254E+02 -0.32406411517E+02  0.46142316355E+02  0.99999871776E+01 0.  0.
        -12    1    1    2    0    0 -0.26556738270E+01  0.31175078254E+02  0.32406411517E+02  0.45045683645E+02  0.00000000000E+00 0.  1.
         11    1    3    3    0    0  0.26569876024E+01 -0.26094872521E+02 -0.26965386237E+02  0.37618266975E+02  0.51100000000E-03 0. -1.
        -11    1    3    3    0    0  0.58206685930E+00  0.59354659104E+00 -0.96543808750E+00  0.12740370271E+01  0.51100000000E-03 0.  1.
        -12    1    3    3    0    0 -0.58338063474E+00 -0.56737523247E+01 -0.44755871922E+01  0.72500123532E+01  0.00000000000E+00 0.  1.
</event>
<event>
 7    1  0.3435408E-009  0.4614232E+02  0.7816164E-02  0.1320468E+00
        -11   -1    0    0    0    0  0.00000000000E+00  0.00000000000E+00  0.45593999997E+02  0.45594000000E+02  0.51100000000E-03 0.  1.
         11   -1    0    0    0    0 -0.00000000000E+00 -0.00000000000E+00 -0.45593999997E+02  0.45594000000E+02  0.51100000000E-03 0. -1.
    9900012    2    1    2    0    0  0.28161412493E+02 -0.13448767920E+02 -0.32483518063E+02  0.46142318099E+02  0.10000003080E+02 0.  0.
        -12    1    1    2    0    0 -0.28161412493E+02  0.13448767920E+02  0.32483518063E+02  0.45045681901E+02  0.00000000000E+00 0.  1.
         11    1    3    3    0    0  0.70924521461E+01 -0.11584668862E+01 -0.50179139078E+01  0.87649519804E+01  0.51100000000E-03 0. -1.
        -11    1    3    3    0    0  0.16346213743E+02 -0.11948020034E+02 -0.24526891874E+02  0.31804438554E+02  0.51100000000E-03 0.  1.
        -12    1    3    3    0    0  0.47227466041E+01 -0.34228100028E+00 -0.29387122811E+01  0.55729275646E+01  0.00000000000E+00 0.  1.
</event>
<event>
 7    1  0.3435408E-009  0.4614232E+02  0.7816164E-02  0.1320468E+00
        -11   -1    0    0    0    0  0.00000000000E+00  0.00000000000E+00  0.45593999997E+02  0.45594000000E+02  0.51100000000E-03 0.  1.
         11   -1    0    0    0    0 -0.00000000000E+00 -0.00000000000E+00 -0.45593999997E+02  0.45594000000E+02  0.51100000000E-03 0. -1.
    9900012    2    1    2    0    0 -0.42261833320E+02  0.97261498408E+01  0.12184128941E+02  0.46142317139E+02  0.99999943305E+01 0.  0.
        -12    1    1    2    0    0  0.42261833320E+02 -0.97261498408E+01 -0.12184128941E+02  0.45045682861E+02  0.00000000000E+00 0.  1.
         11    1    3    3    0    0 -0.11075222832E+02  0.44869815010E+01  0.14313820107E+01  0.12035049584E+02  0.51100000000E-03 0. -1.
        -11    1    3    3    0    0 -0.27251847105E+02  0.25307494909E+01  0.10531234047E+02  0.29325326160E+02  0.51100000000E-03 0.  1.
        -12    1    3    3    0    0 -0.39347633838E+01  0.27084188489E+01  0.22151288361E+00  0.47819413951E+01  0.00000000000E+00 0.  1.
</event>
<event>
 7    1  0.3435408E-009  0.4614232E+02  0.7816164E-02  0.1320468E+00
        -11   -1    0    0    0    0  0.00000000000E+00  0.00000000000E+00  0.45593999997E+02  0.45594000000E+02  0.51100000000E-03 0. -1.
         11   -1    0    0    0    0 -0.00000000000E+00 -0.00000000000E+00 -0.45593999997E+02  0.45594000000E+02  0.51100000000E-03 0.  1.
    9900012    2    1    2    0    0 -0.44462863877E+02  0.66078754619E+00  0.71923759575E+01  0.46142321226E+02  0.10000031596E+02 0.  0.
        -12    1    1    2    0    0  0.44462863877E+02 -0.66078754619E+00 -0.71923759575E+01  0.45045678774E+02  0.00000000000E+00 0.  1.
         11    1    3    3    0    0 -0.18634195797E+02 -0.37905143035E+01  0.29840954818E+01  0.19248534432E+02  0.51100000000E-03 0. -1.
        -11    1    3    3    0    0 -0.25387050213E+02  0.44316155765E+01  0.34292882440E+01  0.25998106724E+02  0.51100000000E-03 0.  1.
        -12    1    3    3    0    0 -0.44161786679E+00  0.19686273190E-01  0.77899223174E+00  0.89568006941E+00  0.00000000000E+00 0.  1.
</event>
<event>
 7    1  0.3435408E-009  0.4614232E+02  0.7816164E-02  0.1320468E+00
        -11   -1    0    0    0    0  0.00000000000E+00  0.00000000000E+00  0.45593999997E+02  0.45594000000E+02  0.51100000000E-03 0.  1.
         11   -1    0    0    0    0 -0.00000000000E+00 -0.00000000000E+00 -0.45593999997E+02  0.45594000000E+02  0.51100000000E-03 0. -1.
    9900012    2    1    2    0    0  0.11825029699E+02  0.93397297345E+01 -0.42450577896E+02  0.46142318269E+02  0.10000004629E+02 0.  0.
        -12    1    1    2    0    0 -0.11825029699E+02 -0.93397297345E+01  0.42450577896E+02  0.45045681731E+02  0.00000000000E+00 0.  1.
         11    1    3    3    0    0  0.19286838251E+01  0.49883811896E+01 -0.18219546184E+02  0.18988302494E+02  0.51100000000E-03 0. -1.
        -11    1    3    3    0    0  0.22234963365E+00  0.23651086555E+01 -0.44229709479E+01  0.50205428569E+01  0.51100000000E-03 0.  1.
         12    1    3    3    0    0  0.96739962402E+01  0.19862398894E+01 -0.19808060765E+02  0.22133472918E+02  0.00000000000E+00 0. -1.
</event>
<event>
 7    1  0.3435408E-009  0.4614231E+02  0.7816164E-02  0.1320468E+00
        -11   -1    0    0    0    0  0.00000000000E+00  0.00000000000E+00  0.45593999997E+02  0.45594000000E+02  0.51100000000E-03 0. -1.
         11   -1    0    0    0    0 -0.00000000000E+00 -0.00000000000E+00 -0.45593999997E+02  0.45594000000E+02  0.51100000000E-03 0.  1.
    9900012    2    1    2    0    0 -0.24357292052E+00 -0.41363456234E+02 -0.17835890442E+02  0.46142314000E+02  0.99999657027E+01 0.  0.
        -12    1    1    2    0    0  0.24357292052E+00  0.41363456234E+02  0.17835890442E+02  0.45045686000E+02  0.00000000000E+00 0.  1.
         11    1    3    3    0    0 -0.19311461969E+00 -0.26674766830E+02 -0.81787324447E+01  0.27901113658E+02  0.51100000000E-03 0. -1.
        -11    1    3    3    0    0  0.69138376197E+00 -0.60083246519E+01 -0.67354908345E+01  0.90523374701E+01  0.51100000000E-03 0.  1.
        -12    1    3    3    0    0 -0.74184206279E+00 -0.86803647515E+01 -0.29216671627E+01  0.91888628717E+01  0.00000000000E+00 0.  1.
</event>
<event>
 7    1  0.3435408E-009  0.4614232E+02  0.7816164E-02  0.1320468E+00
        -11   -1    0    0    0    0  0.00000000000E+00  0.00000000000E+00  0.45593999997E+02  0.45594000000E+02  0.51100000000E-03 0. -1.
         11   -1    0    0    0    0 -0.00000000000E+00 -0.00000000000E+00 -0.45593999997E+02  0.45594000000E+02  0.51100000000E-03 0.  1.
    9900012    2    1    2    0    0 -0.25098043548E+02 -0.20329200606E+02  0.31399450062E+02  0.46142315951E+02  0.99999834970E+01 0.  0.
        -12    1    1    2    0    0  0.25098043548E+02  0.20329200606E+02 -0.31399450062E+02  0.45045684049E+02  0.00000000000E+00 0.  1.
         11    1    3    3    0    0 -0.16185278985E+02 -0.14388669173E+02  0.23532007730E+02  0.31980501004E+02  0.51100000000E-03 0. -1.
        -11    1    3    3    0    0 -0.29782775777E+01 -0.99411275284E+00  0.50341330069E+01  0.59330340372E+01  0.51100000000E-03 0.  1.
         12    1    3    3    0    0 -0.59344869855E+01 -0.49464186800E+01  0.28333093253E+01  0.82287809104E+01  0.00000000000E+00 0. -1.
</event>
<event>
 7    1  0.3435408E-009  0.4614232E+02  0.7816164E-02  0.1320468E+00
        -11   -1    0    0    0    0  0.00000000000E+00  0.00000000000E+00  0.45593999997E+02  0.45594000000E+02  0.51100000000E-03 0.  1.
         11   -1    0    0    0    0 -0.00000000000E+00 -0.00000000000E+00 -0.45593999997E+02  0.45594000000E+02  0.51100000000E-03 0. -1.
    9900012    2    1    2    0    0  0.32318260278E+02 -0.31375071105E+02  0.49847752977E+00  0.46142317476E+02  0.99999973988E+01 0.  0.
        -12    1    1    2    0    0 -0.32318260278E+02  0.31375071105E+02 -0.49847752977E+00  0.45045682524E+02  0.00000000000E+00 0.  1.
         11    1    3    3    0    0  0.14654060146E+02 -0.12994563720E+02  0.34478130055E+01  0.19886869533E+02  0.51100000000E-03 0. -1.
        -11    1    3    3    0    0  0.26786229858E+01 -0.47025885534E+01  0.12068608926E+01  0.55448961828E+01  0.51100000000E-03 0.  1.
         12    1    3    3    0    0  0.14985577146E+02 -0.13677918832E+02 -0.41561963683E+01  0.20710551760E+02  0.00000000000E+00 0. -1.
</event>
<event>
 7    1  0.3435408E-009  0.4614232E+02  0.7816164E-02  0.1320468E+00
        -11   -1    0    0    0    0  0.00000000000E+00  0.00000000000E+00  0.45593999997E+02  0.45594000000E+02  0.51100000000E-03 0. -1.
         11   -1    0    0    0    0 -0.00000000000E+00 -0.00000000000E+00 -0.45593999997E+02  0.45594000000E+02  0.51100000000E-03 0.  1.
    9900012    2    1    2    0    0 -0.39341935991E+02 -0.17991142964E+02  0.12555633090E+02  0.46142322350E+02  0.10000041841E+02 0.  0.
        -12    1    1    2    0    0  0.39341935991E+02  0.17991142964E+02 -0.12555633090E+02  0.45045677650E+02  0.00000000000E+00 0.  1.
         11    1    3    3    0    0 -0.22766298711E+02 -0.14352200396E+02  0.10325423772E+02  0.28825412218E+02  0.51100000000E-03 0. -1.
        -11    1    3    3    0    0 -0.12954004458E+02 -0.20427836158E+01  0.24988395112E+01  0.13350033542E+02  0.51100000000E-03 0.  1.
        -12    1    3    3    0    0 -0.36216328217E+01 -0.15961589523E+01 -0.26863019285E+00  0.39668765895E+01  0.00000000000E+00 0.  1.
</event>
<event>
 7    1  0.3435408E-009  0.4614231E+02  0.7816164E-02  0.1320468E+00
        -11   -1    0    0    0    0  0.00000000000E+00  0.00000000000E+00  0.45593999997E+02  0.45594000000E+02  0.51100000000E-03 0. -1.
         11   -1    0    0    0    0 -0.00000000000E+00 -0.00000000000E+00 -0.45593999997E+02  0.45594000000E+02  0.51100000000E-03 0.  1.
    9900012    2    1    2    0    0 -0.22994587104E+02  0.41658216009E+01  0.38509851099E+02  0.46142314997E+02  0.99999747957E+01 0.  0.
        -12    1    1    2    0    0  0.22994587104E+02 -0.41658216009E+01 -0.38509851099E+02  0.45045685003E+02  0.00000000000E+00 0.  1.
         11    1    3    3    0    0  0.51811976639E+00  0.29564319214E+00  0.99254648152E+00  0.11580163075E+01  0.51100000000E-03 0. -1.
        -11    1    3    3    0    0 -0.41496612767E+00  0.15283778746E+01  0.19769592014E+01  0.25330818699E+01  0.51100000000E-03 0.  1.
         12    1    3    3    0    0 -0.23097740743E+02  0.23418005342E+01  0.35540345416E+02  0.42451216820E+02  0.00000000000E+00 0. -1.
</event>
<event>
 7    1  0.3435408E-009  0.4614232E+02  0.7816164E-02  0.1320468E+00
        -11   -1    0    0    0    0  0.00000000000E+00  0.00000000000E+00  0.45593999997E+02  0.45594000000E+02  0.51100000000E-03 0. -1.
         11   -1    0    0    0    0 -0.00000000000E+00 -0.00000000000E+00 -0.45593999997E+02  0.45594000000E+02  0.51100000000E-03 0.  1.
    9900012    2    1    2    0    0 -0.29612294481E+02 -0.18759600719E+02 -0.28289624658E+02  0.46142318000E+02  0.10000002179E+02 0.  0.
        -12    1    1    2    0    0  0.29612294481E+02  0.18759600719E+02  0.28289624658E+02  0.45045682000E+02  0.00000000000E+00 0.  1.
         11    1    3    3    0    0 -0.13716556534E+02 -0.12823795188E+02 -0.14545964010E+02  0.23752446515E+02  0.51100000000E-03 0. -1.
        -11    1    3    3    0    0 -0.20326411386E+01 -0.19692796526E+01 -0.63050035818E+00  0.28995212210E+01  0.51100000000E-03 0.  1.
         12    1    3    3    0    0 -0.13863096808E+02 -0.39665258781E+01 -0.13113160289E+02  0.19490350264E+02  0.00000000000E+00 0. -1.
</event>
<event>
 7    1  0.3435408E-009  0.4614232E+02  0.7816164E-02  0.1320468E+00
        -11   -1    0    0    0    0  0.00000000000E+00  0.00000000000E+00  0.45593999997E+02  0.45594000000E+02  0.51100000000E-03 0. -1.
         11   -1    0    0    0    0 -0.00000000000E+00 -0.00000000000E+00 -0.45593999997E+02  0.45594000000E+02  0.51100000000E-03 0.  1.
    9900012    2    1    2    0    0  0.17944653690E+02  0.35042495363E+02  0.21888955259E+02  0.46142318302E+02  0.10000004931E+02 0.  0.
        -12    1    1    2    0    0 -0.17944653690E+02 -0.35042495363E+02 -0.21888955259E+02  0.45045681698E+02  0.00000000000E+00 0.  1.
         11    1    3    3    0    0  0.44746801480E+01  0.69211183209E+01  0.30563218699E+01  0.87900935644E+01  0.51100000000E-03 0. -1.
        -11    1    3    3    0    0  0.12925320908E+02  0.20996431319E+02  0.17082080935E+02  0.29995191915E+02  0.51100000000E-03 0.  1.
        -12    1    3    3    0    0  0.54465263391E+00  0.71249457237E+01  0.17505524541E+01  0.73570328225E+01  0.00000000000E+00 0.  1.
</event>
<event>
 7    1  0.3435408E-009  0.4614232E+02  0.7816164E-02  0.1320468E+00
        -11   -1    0    0    0    0  0.00000000000E+00  0.00000000000E+00  0.45593999997E+02  0.45594000000E+02  0.51100000000E-03 0.  1.
         11   -1    0    0    0    0 -0.00000000000E+00 -0.00000000000E+00 -0.45593999997E+02  0.45594000000E+02  0.51100000000E-03 0. -1.
    9900012    2    1    2    0    0 -0.10943412312E+02  0.38342155917E+02  0.20957918474E+02  0.46142317186E+02  0.99999947571E+01 0.  0.
        -12    1    1    2    0    0  0.10943412312E+02 -0.38342155917E+02 -0.20957918474E+02  0.45045682814E+02  0.00000000000E+00 0.  1.
         11    1    3    3    0    0 -0.49477798160E+01  0.87633657870E+01  0.22092274450E+01  0.10303290309E+02  0.51100000000E-03 0. -1.
        -11    1    3    3    0    0 -0.11314954523E+01  0.12127991571E+01  0.39589776335E+00  0.17052563016E+01  0.51100000000E-03 0.  1.
         12    1    3    3    0    0 -0.48641370440E+01  0.28365990973E+02  0.18352793266E+02  0.34133770576E+02  0.00000000000E+00 0. -1.
</event>
<event>
 7    1  0.3435408E-009  0.4614231E+02  0.7816164E-02  0.1320468E+00
        -11   -1    0    0    0    0  0.00000000000E+00  0.00000000000E+00  0.45593999997E+02  0.45594000000E+02  0.51100000000E-03 0.  1.
         11   -1    0    0    0    0 -0.00000000000E+00 -0.00000000000E+00 -0.45593999997E+02  0.45594000000E+02  0.51100000000E-03 0. -1.
    9900012    2    1    2    0    0  0.11949326770E+02 -0.43043143670E+02  0.57978897449E+01  0.46142310386E+02  0.99999327479E+01 0.  0.
        -12    1    1    2    0    0 -0.11949326770E+02  0.43043143670E+02 -0.57978897449E+01  0.45045689614E+02  0.00000000000E+00 0.  1.
         11    1    3    3    0    0 -0.14100089588E+01 -0.36987838995E+01 -0.12203538144E+00  0.39603056062E+01  0.51100000000E-03 0. -1.
        -11    1    3    3    0    0  0.62959362570E+01 -0.17152187856E+02  0.46740492604E+01  0.18859562518E+02  0.51100000000E-03 0.  1.
         12    1    3    3    0    0  0.70633994723E+01 -0.22192171915E+02  0.12458758659E+01  0.23322442262E+02  0.00000000000E+00 0. -1.
</event>
<event>
 7    1  0.3435408E-009  0.4614232E+02  0.7816164E-02  0.1320468E+00
        -11   -1    0    0    0    0  0.00000000000E+00  0.00000000000E+00  0.45593999997E+02  0.45594000000E+02  0.51100000000E-03 0.  1.
         11   -1    0    0    0    0 -0.00000000000E+00 -0.00000000000E+00 -0.45593999997E+02  0.45594000000E+02  0.51100000000E-03 0. -1.
    9900012    2    1    2    0    0  0.35497952644E+02  0.15352591685E+02 -0.23093438535E+02  0.46142316336E+02  0.99999870039E+01 0.  0.
        -12    1    1    2    0    0 -0.35497952644E+02 -0.15352591685E+02  0.23093438535E+02  0.45045683664E+02  0.00000000000E+00 0.  1.
         11    1    3    3    0    0  0.28533234983E+02  0.13095937476E+02 -0.19379915765E+02  0.36894853466E+02  0.51100000000E-03 0. -1.
        -11    1    3    3    0    0  0.24335482577E+01  0.55387876825E-01 -0.34246765002E+01  0.42016228213E+01  0.51100000000E-03 0.  1.
         12    1    3    3    0    0  0.45311694029E+01  0.22012663326E+01 -0.28884627030E+00  0.50458400483E+01  0.00000000000E+00 0. -1.
</event>
<event>
 7    1  0.3435408E-009  0.4614232E+02  0.7816164E-02  0.1320468E+00
        -11   -1    0    0    0    0  0.00000000000E+00  0.00000000000E+00  0.45593999997E+02  0.45594000000E+02  0.51100000000E-03 0.  1.
         11   -1    0    0    0    0 -0.00000000000E+00 -0.00000000000E+00 -0.45593999997E+02  0.45594000000E+02  0.51100000000E-03 0. -1.
    9900012    2    1    2    0    0 -0.31223325336E+02 -0.26897497154E+02 -0.18186314536E+02  0.46142318358E+02  0.10000005444E+02 0.  0.
        -12    1    1    2    0    0  0.31223325336E+02  0.26897497154E+02  0.18186314536E+02  0.45045681642E+02  0.00000000000E+00 0.  1.
         11    1    3    3    0    0 -0.66966437519E+01 -0.66404722464E+01 -0.89147835471E+01  0.12977452568E+02  0.51100000000E-03 0. -1.
        -11    1    3    3    0    0 -0.78650013003E+01 -0.56513847190E+01 -0.27265050328E+01  0.10061323206E+02  0.51100000000E-03 0.  1.
         12    1    3    3    0    0 -0.16661680284E+02 -0.14605640188E+02 -0.65450259558E+01  0.23103542585E+02  0.00000000000E+00 0. -1.
</event>
<event>
 7    1  0.3435408E-009  0.4614232E+02  0.7816164E-02  0.1320468E+00
        -11   -1    0    0    0    0  0.00000000000E+00  0.00000000000E+00  0.45593999997E+02  0.45594000000E+02  0.51100000000E-03 0. -1.
         11   -1    0    0    0    0 -0.00000000000E+00 -0.00000000000E+00 -0.45593999997E+02  0.45594000000E+02  0.51100000000E-03 0.  1.
    9900012    2    1    2    0    0 -0.40391532709E+02  0.69238388763E+01  0.18700215672E+02  0.46142317348E+02  0.99999962353E+01 0.  0.
        -12    1    1    2    0    0  0.40391532709E+02 -0.69238388763E+01 -0.18700215672E+02  0.45045682652E+02  0.00000000000E+00 0.  1.
         11    1    3    3    0    0 -0.13162626209E+02  0.65904041194E+01  0.74264387554E+01  0.16487575566E+02  0.51100000000E-03 0. -1.
        -11    1    3    3    0    0 -0.88948156117E+01 -0.14311357620E+01  0.36542846164E+01  0.97221237728E+01  0.51100000000E-03 0.  1.
         12    1    3    3    0    0 -0.18334090888E+02  0.17645705188E+01  0.76194923000E+01  0.19932618010E+02  0.00000000000E+00 0. -1.
</event>
<event>
 7    1  0.3435408E-009  0.4614232E+02  0.7816164E-02  0.1320468E+00
        -11   -1    0    0    0    0  0.00000000000E+00  0.00000000000E+00  0.45593999997E+02  0.45594000000E+02  0.51100000000E-03 0.  1.
         11   -1    0    0    0    0 -0.00000000000E+00 -0.00000000000E+00 -0.45593999997E+02  0.45594000000E+02  0.51100000000E-03 0. -1.
    9900012    2    1    2    0    0  0.28825033158E+02 -0.34594867359E+02 -0.11942037105E+01  0.46142317558E+02  0.99999981479E+01 0.  0.
        -12    1    1    2    0    0 -0.28825033158E+02  0.34594867359E+02  0.11942037105E+01  0.45045682442E+02  0.00000000000E+00 0.  1.
         11    1    3    3    0    0  0.14753169908E+02 -0.11491818857E+02 -0.31999968403E+01  0.18972556576E+02  0.51100000000E-03 0. -1.
        -11    1    3    3    0    0  0.49474118330E+01 -0.90471773663E+01  0.13455536335E+01  0.10398981536E+02  0.51100000000E-03 0.  1.
         12    1    3    3    0    0  0.91244514169E+01 -0.14055871136E+02  0.66023949633E+00  0.16770779446E+02  0.00000000000E+00 0. -1.
</event>
<event>
 7    1  0.3435408E-009  0.4614232E+02  0.7816164E-02  0.1320468E+00
        -11   -1    0    0    0    0  0.00000000000E+00  0.00000000000E+00  0.45593999997E+02  0.45594000000E+02  0.51100000000E-03 0.  1.
         11   -1    0    0    0    0 -0.00000000000E+00 -0.00000000000E+00 -0.45593999997E+02  0.45594000000E+02  0.51100000000E-03 0. -1.
    9900012    2    1    2    0    0 -0.93327256111E+01  0.20566876442E+02 -0.38974572786E+02  0.46142317657E+02  0.99999990511E+01 0.  0.
        -12    1    1    2    0    0  0.93327256111E+01 -0.20566876442E+02  0.38974572786E+02  0.45045682343E+02  0.00000000000E+00 0.  1.
         11    1    3    3    0    0 -0.52536497929E+01  0.99523463920E+01 -0.17004540841E+02  0.20391283538E+02  0.51100000000E-03 0. -1.
        -11    1    3    3    0    0  0.65734567612E+00  0.21295242580E+01 -0.10425863313E+02  0.10661407177E+02  0.51100000000E-03 0.  1.
        -12    1    3    3    0    0 -0.47364214943E+01  0.84850057919E+01 -0.11544168632E+02  0.15089626942E+02  0.00000000000E+00 0.  1.
</event>
<event>
 7    1  0.3435408E-009  0.4614232E+02  0.7816164E-02  0.1320468E+00
        -11   -1    0    0    0    0  0.00000000000E+00  0.00000000000E+00  0.45593999997E+02  0.45594000000E+02  0.51100000000E-03 0. -1.
         11   -1    0    0    0    0 -0.00000000000E+00 -0.00000000000E+00 -0.45593999997E+02  0.45594000000E+02  0.51100000000E-03 0.  1.
    9900012    2    1    2    0    0 -0.36806045936E+02  0.84758846844E+01  0.24547664253E+02  0.46142318088E+02  0.10000002982E+02 0.  0.
        -12    1    1    2    0    0  0.36806045936E+02 -0.84758846844E+01 -0.24547664253E+02  0.45045681912E+02  0.00000000000E+00 0.  1.
         11    1    3    3    0    0 -0.17946454877E+02  0.56571082045E+01  0.94701990547E+01  0.21065677922E+02  0.51100000000E-03 0. -1.
        -11    1    3    3    0    0 -0.13250342581E+02  0.23789662477E+00  0.12994332934E+02  0.18560195635E+02  0.51100000000E-03 0.  1.
        -12    1    3    3    0    0 -0.56092484775E+01  0.25808798551E+01  0.20831322638E+01  0.65164445319E+01  0.00000000000E+00 0.  1.
</event>
<event>
 7    1  0.3455615E-009  0.4614232E+02  0.7816164E-02  0.1320468E+00
        -11   -1    0    0    0    0  0.00000000000E+00  0.00000000000E+00  0.45593999997E+02  0.45594000000E+02  0.51100000000E-03 0. -1.
         11   -1    0    0    0    0 -0.00000000000E+00 -0.00000000000E+00 -0.45593999997E+02  0.45594000000E+02  0.51100000000E-03 0.  1.
    9900012    2    1    2    0    0  0.27855477406E+02 -0.30311633014E+02  0.18286353955E+02  0.46142318093E+02  0.10000003029E+02 0.  0.
        -12    1    1    2    0    0 -0.27855477406E+02  0.30311633014E+02 -0.18286353955E+02  0.45045681907E+02  0.00000000000E+00 0.  1.
         11    1    3    3    0    0  0.81206530782E+01 -0.64575993975E+01  0.67714871381E+01  0.12389456595E+02  0.51100000000E-03 0. -1.
        -11    1    3    3    0    0  0.16666839119E+02 -0.23074461980E+02  0.95332354429E+01  0.30018276103E+02  0.51100000000E-03 0.  1.
        -12    1    3    3    0    0  0.30679852085E+01 -0.77957163618E+00  0.19816313742E+01  0.37345853958E+01  0.00000000000E+00 0.  1.
</event>
<event>
 7    1  0.3435408E-009  0.4614232E+02  0.7816164E-02  0.1320468E+00
        -11   -1    0    0    0    0  0.00000000000E+00  0.00000000000E+00  0.45593999997E+02  0.45594000000E+02  0.51100000000E-03 0. -1.
         11   -1    0    0    0    0 -0.00000000000E+00 -0.00000000000E+00 -0.45593999997E+02  0.45594000000E+02  0.51100000000E-03 0.  1.
    9900012    2    1    2    0    0 -0.27508273683E+02 -0.26871646741E+01  0.35569474620E+02  0.46142317635E+02  0.99999988497E+01 0.  0.
        -12    1    1    2    0    0  0.27508273683E+02  0.26871646741E+01 -0.35569474620E+02  0.45045682365E+02  0.00000000000E+00 0.  1.
         11    1    3    3    0    0 -0.97005879181E+01 -0.63728836516E+00  0.82881850182E+01  0.12775036343E+02  0.51100000000E-03 0. -1.
        -11    1    3    3    0    0 -0.21987150696E+01 -0.26473825858E+01  0.66724702929E+01  0.75076522684E+01  0.51100000000E-03 0.  1.
         12    1    3    3    0    0 -0.15608970695E+02  0.59750627686E+00  0.20608819309E+02  0.25859629023E+02  0.00000000000E+00 0. -1.
</event>
<event>
 7    1  0.3435408E-009  0.4614232E+02  0.7816164E-02  0.1320468E+00
        -11   -1    0    0    0    0  0.00000000000E+00  0.00000000000E+00  0.45593999997E+02  0.45594000000E+02  0.51100000000E-03 0.  1.
         11   -1    0    0    0    0 -0.00000000000E+00 -0.00000000000E+00 -0.45593999997E+02  0.45594000000E+02  0.51100000000E-03 0. -1.
    9900012    2    1    2    0    0  0.42138724145E+02  0.81903744907E+01  0.13651334399E+02  0.46142320543E+02  0.10000025365E+02 0.  0.
        -12    1    1    2    0    0 -0.42138724145E+02 -0.81903744907E+01 -0.13651334399E+02  0.45045679457E+02  0.00000000000E+00 0.  1.
         11    1    3    3    0    0  0.14133438071E+02  0.37675100829E+01  0.76547445480E+01  0.16508886040E+02  0.51100000000E-03 0. -1.
        -11    1    3    3    0    0  0.60945944950E+01 -0.14213815322E+01  0.22440855621E+01  0.66483327075E+01  0.51100000000E-03 0.  1.
         12    1    3    3    0    0  0.21910691579E+02  0.58442459400E+01  0.37525042885E+01  0.22985101795E+02  0.00000000000E+00 0. -1.
</event>
<event>
 7    1  0.3435408E-009  0.4614232E+02  0.7816164E-02  0.1320468E+00
        -11   -1    0    0    0    0  0.00000000000E+00  0.00000000000E+00  0.45593999997E+02  0.45594000000E+02  0.51100000000E-03 0.  1.
         11   -1    0    0    0    0 -0.00000000000E+00 -0.00000000000E+00 -0.45593999997E+02  0.45594000000E+02  0.51100000000E-03 0. -1.
    9900012    2    1    2    0    0 -0.80587210732E+00 -0.19547656312E+02 -0.40575277673E+02  0.46142318128E+02  0.10000003344E+02 0.  0.
        -12    1    1    2    0    0  0.80587210732E+00  0.19547656312E+02  0.40575277673E+02  0.45045681872E+02  0.00000000000E+00 0.  1.
         11    1    3    3    0    0 -0.29096991456E+01 -0.42875878409E+01 -0.10905272517E+02  0.12073720534E+02  0.51100000000E-03 0. -1.
        -11    1    3    3    0    0  0.18760668626E+01 -0.13051831185E+02 -0.18732023851E+02  0.22907611005E+02  0.51100000000E-03 0.  1.
         12    1    3    3    0    0  0.22776017574E+00 -0.22082372860E+01 -0.10937981304E+02  0.11160986588E+02  0.00000000000E+00 0. -1.
</event>
<event>
 7    1  0.3435408E-009  0.4614232E+02  0.7816164E-02  0.1320468E+00
        -11   -1    0    0    0    0  0.00000000000E+00  0.00000000000E+00  0.45593999997E+02  0.45594000000E+02  0.51100000000E-03 0. -1.
         11   -1    0    0    0    0 -0.00000000000E+00 -0.00000000000E+00 -0.45593999997E+02  0.45594000000E+02  0.51100000000E-03 0.  1.
    9900012    2    1    2    0    0 -0.25338905288E+02  0.27431606712E+02  0.25190485506E+02  0.46142315101E+02  0.99999757449E+01 0.  0.
        -12    1    1    2    0    0  0.25338905288E+02 -0.27431606712E+02 -0.25190485506E+02  0.45045684899E+02  0.00000000000E+00 0.  1.
         11    1    3    3    0    0 -0.10008799042E+02  0.13579451224E+02  0.11347744125E+02  0.20330982534E+02  0.51100000000E-03 0. -1.
        -11    1    3    3    0    0 -0.63333796951E+01  0.95495710573E+01  0.96972039693E+01  0.15011388038E+02  0.51100000000E-03 0.  1.
        -12    1    3    3    0    0 -0.89967265505E+01  0.43025844308E+01  0.41455374116E+01  0.10799944529E+02  0.00000000000E+00 0.  1.
</event>
<event>
 7    1  0.3435408E-009  0.4614232E+02  0.7816164E-02  0.1320468E+00
        -11   -1    0    0    0    0  0.00000000000E+00  0.00000000000E+00  0.45593999997E+02  0.45594000000E+02  0.51100000000E-03 0.  1.
         11   -1    0    0    0    0 -0.00000000000E+00 -0.00000000000E+00 -0.45593999997E+02  0.45594000000E+02  0.51100000000E-03 0. -1.
    9900012    2    1    2    0    0  0.17756503504E+02  0.70127515892E+01 -0.40800016026E+02  0.46142318639E+02  0.10000008008E+02 0.  0.
        -12    1    1    2    0    0 -0.17756503504E+02 -0.70127515892E+01  0.40800016026E+02  0.45045681361E+02  0.00000000000E+00 0.  1.
         11    1    3    3    0    0  0.16946116616E+01  0.88764050717E+00 -0.13355737729E+02  0.13492047468E+02  0.51100000000E-03 0. -1.
        -11    1    3    3    0    0  0.78452521056E+01  0.14296753739E+01 -0.98603178197E+01  0.12681396612E+02  0.51100000000E-03 0.  1.
         12    1    3    3    0    0  0.82166397366E+01  0.46954357082E+01 -0.17583960478E+02  0.19968874558E+02  0.00000000000E+00 0. -1.
</event>
<event>
 7    1  0.3435408E-009  0.4614232E+02  0.7816164E-02  0.1320468E+00
        -11   -1    0    0    0    0  0.00000000000E+00  0.00000000000E+00  0.45593999997E+02  0.45594000000E+02  0.51100000000E-03 0.  1.
         11   -1    0    0    0    0 -0.00000000000E+00 -0.00000000000E+00 -0.45593999997E+02  0.45594000000E+02  0.51100000000E-03 0. -1.
    9900012    2    1    2    0    0  0.20422784763E+02 -0.27666991816E+01 -0.40054570209E+02  0.46142319225E+02  0.10000013350E+02 0.  0.
        -12    1    1    2    0    0 -0.20422784763E+02  0.27666991816E+01  0.40054570209E+02  0.45045680775E+02  0.00000000000E+00 0.  1.
         11    1    3    3    0    0  0.54812028334E+01 -0.23273629150E+00 -0.73279599996E+01  0.91540564068E+01  0.51100000000E-03 0. -1.
        -11    1    3    3    0    0  0.13149084367E+01 -0.32479647425E+01 -0.52821329093E+01  0.63387055065E+01  0.51100000000E-03 0.  1.
         12    1    3    3    0    0  0.13626673493E+02  0.71400185233E+00 -0.27444477300E+02  0.30649557312E+02  0.00000000000E+00 0. -1.
</event>
<event>
 7    1  0.3435408E-009  0.4614232E+02  0.7816164E-02  0.1320468E+00
        -11   -1    0    0    0    0  0.00000000000E+00  0.00000000000E+00  0.45593999997E+02  0.45594000000E+02  0.51100000000E-03 0.  1.
         11   -1    0    0    0    0 -0.00000000000E+00 -0.00000000000E+00 -0.45593999997E+02  0.45594000000E+02  0.51100000000E-03 0. -1.
    9900012    2    1    2    0    0 -0.30262185883E+02 -0.31100395265E+02 -0.12086307236E+02  0.46142319823E+02  0.10000018803E+02 0.  0.
        -12    1    1    2    0    0  0.30262185883E+02  0.31100395265E+02  0.12086307236E+02  0.45045680177E+02  0.00000000000E+00 0.  1.
         11    1    3    3    0    0 -0.59832714521E+01 -0.62788343243E+01 -0.38259585186E+01  0.94795177403E+01  0.51100000000E-03 0. -1.
        -11    1    3    3    0    0 -0.14939991069E+02 -0.15274729876E+02 -0.83576003196E+00  0.21382684607E+02  0.51100000000E-03 0.  1.
        -12    1    3    3    0    0 -0.93389233613E+01 -0.95468310645E+01 -0.74245886850E+01  0.15280117475E+02  0.00000000000E+00 0.  1.
</event>
<event>
 7    1  0.3435408E-009  0.4614232E+02  0.7816164E-02  0.1320468E+00
        -11   -1    0    0    0    0  0.00000000000E+00  0.00000000000E+00  0.45593999997E+02  0.45594000000E+02  0.51100000000E-03 0.  1.
         11   -1    0    0    0    0 -0.00000000000E+00 -0.00000000000E+00 -0.45593999997E+02  0.45594000000E+02  0.51100000000E-03 0. -1.
    9900012    2    1    2    0    0 -0.36530587429E+02  0.42591226111E+01  0.26009412679E+02  0.46142317730E+02  0.99999997121E+01 0.  0.
        -12    1    1    2    0    0  0.36530587429E+02 -0.42591226111E+01 -0.26009412679E+02  0.45045682270E+02  0.00000000000E+00 0.  1.
         11    1    3    3    0    0 -0.13515496834E+02  0.33973388236E+01  0.12020492883E+02  0.18403880437E+02  0.51100000000E-03 0. -1.
        -11    1    3    3    0    0 -0.21005409636E+02 -0.30280834018E+00  0.14274182259E+02  0.25398252032E+02  0.51100000000E-03 0.  1.
        -12    1    3    3    0    0 -0.20096809587E+01  0.11645921277E+01 -0.28526246210E+00  0.23401852602E+01  0.00000000000E+00 0.  1.
</event>
<event>
 7    1  0.3435408E-009  0.4614233E+02  0.7816164E-02  0.1320468E+00
        -11   -1    0    0    0    0  0.00000000000E+00  0.00000000000E+00  0.45593999997E+02  0.45594000000E+02  0.51100000000E-03 0.  1.
         11   -1    0    0    0    0 -0.00000000000E+00 -0.00000000000E+00 -0.45593999997E+02  0.45594000000E+02  0.51100000000E-03 0. -1.
    9900012    2    1    2    0    0  0.20045043459E+02 -0.14258935924E+02 -0.37735815595E+02  0.46142325407E+02  0.10000069721E+02 0.  0.
        -12    1    1    2    0    0 -0.20045043459E+02  0.14258935924E+02  0.37735815595E+02  0.45045674593E+02  0.00000000000E+00 0.  1.
         11    1    3    3    0    0  0.10957763935E+02 -0.96321765890E+01 -0.22967511551E+02  0.27209520456E+02  0.51100000000E-03 0. -1.
        -11    1    3    3    0    0  0.70921832349E+01 -0.36045995843E+01 -0.62287953232E+01  0.10103964204E+02  0.51100000000E-03 0.  1.
         12    1    3    3    0    0  0.19950962888E+01 -0.10221597505E+01 -0.85395087201E+01  0.88288407471E+01  0.00000000000E+00 0. -1.
</event>
<event>
 7    1  0.3435408E-009  0.4614232E+02  0.7816164E-02  0.1320468E+00
        -11   -1    0    0    0    0  0.00000000000E+00  0.00000000000E+00  0.45593999997E+02  0.45594000000E+02  0.51100000000E-03 0. -1.
         11   -1    0    0    0    0 -0.00000000000E+00 -0.00000000000E+00 -0.45593999997E+02  0.45594000000E+02  0.51100000000E-03 0.  1.
    9900012    2    1    2    0    0  0.29092281987E+02  0.33821502678E+02 -0.62336645759E+01  0.46142317757E+02  0.99999999657E+01 0.  0.
        -12    1    1    2    0    0 -0.29092281987E+02 -0.33821502678E+02  0.62336645759E+01  0.45045682243E+02  0.00000000000E+00 0.  1.
         11    1    3    3    0    0  0.15918363417E+02  0.20611303207E+02 -0.35055382726E+01  0.26277536273E+02  0.51100000000E-03 0. -1.
        -11    1    3    3    0    0  0.15365657115E+00  0.18275856289E+01  0.11181153190E+01  0.21479901537E+01  0.51100000000E-03 0.  1.
         12    1    3    3    0    0  0.13020262000E+02  0.11382613843E+02 -0.38462416222E+01  0.17716791331E+02  0.00000000000E+00 0. -1.
</event>
<event>
 7    1  0.3435408E-009  0.4614232E+02  0.7816164E-02  0.1320468E+00
        -11   -1    0    0    0    0  0.00000000000E+00  0.00000000000E+00  0.45593999997E+02  0.45594000000E+02  0.51100000000E-03 0. -1.
         11   -1    0    0    0    0 -0.00000000000E+00 -0.00000000000E+00 -0.45593999997E+02  0.45594000000E+02  0.51100000000E-03 0.  1.
    9900012    2    1    2    0    0  0.35155897087E+02 -0.16367000521E+02  0.22919373391E+02  0.46142317824E+02  0.10000000574E+02 0.  0.
        -12    1    1    2    0    0 -0.35155897087E+02  0.16367000521E+02 -0.22919373391E+02  0.45045682176E+02  0.00000000000E+00 0.  1.
         11    1    3    3    0    0  0.15244721068E+02 -0.48946204097E+01  0.96983653089E+01  0.18719431598E+02  0.51100000000E-03 0. -1.
        -11    1    3    3    0    0  0.11007492213E+01  0.97930580951E-01  0.27868929107E+01  0.29980012681E+01  0.51100000000E-03 0.  1.
        -12    1    3    3    0    0  0.18810426797E+02 -0.11570310692E+02  0.10434115171E+02  0.24424884958E+02  0.00000000000E+00 0.  1.
</event>
<event>
 7    1  0.3435408E-009  0.4614232E+02  0.7816164E-02  0.1320468E+00
        -11   -1    0    0    0    0  0.00000000000E+00  0.00000000000E+00  0.45593999997E+02  0.45594000000E+02  0.51100000000E-03 0. -1.
         11   -1    0    0    0    0 -0.00000000000E+00 -0.00000000000E+00 -0.45593999997E+02  0.45594000000E+02  0.51100000000E-03 0.  1.
    9900012    2    1    2    0    0 -0.61125574557E+01  0.33746064267E+02  0.29205366314E+02  0.46142316148E+02  0.99999852879E+01 0.  0.
        -12    1    1    2    0    0  0.61125574557E+01 -0.33746064267E+02 -0.29205366314E+02  0.45045683852E+02  0.00000000000E+00 0.  1.
         11    1    3    3    0    0 -0.68608684890E+00  0.11816836271E+02  0.11879867422E+02  0.16770199309E+02  0.51100000000E-03 0. -1.
        -11    1    3    3    0    0 -0.10380031612E+01  0.16597011779E+02  0.10527005941E+02  0.19681364406E+02  0.51100000000E-03 0.  1.
        -12    1    3    3    0    0 -0.43884674455E+01  0.53322162170E+01  0.67984929508E+01  0.96907524325E+01  0.00000000000E+00 0.  1.
</event>
<event>
 7    1  0.3435408E-009  0.4614232E+02  0.7816164E-02  0.1320468E+00
        -11   -1    0    0    0    0  0.00000000000E+00  0.00000000000E+00  0.45593999997E+02  0.45594000000E+02  0.51100000000E-03 0.  1.
         11   -1    0    0    0    0 -0.00000000000E+00 -0.00000000000E+00 -0.45593999997E+02  0.45594000000E+02  0.51100000000E-03 0. -1.
    9900012    2    1    2    0    0 -0.37912506725E+02 -0.13570824815E+02 -0.20188809435E+02  0.46142317868E+02  0.10000000979E+02 0.  0.
        -12    1    1    2    0    0  0.37912506725E+02  0.13570824815E+02  0.20188809435E+02  0.45045682132E+02  0.00000000000E+00 0.  1.
         11    1    3    3    0    0 -0.26621544336E+01 -0.35072370564E+00 -0.18726619020E+01  0.32736731979E+01  0.51100000000E-03 0.  1.
        -11    1    3    3    0    0 -0.34413419349E+02 -0.10607204672E+02 -0.17176101324E+02  0.39897552296E+02  0.51100000000E-03 0. -1.
        -12    1    3    3    0    0 -0.83693294249E+00 -0.26128964376E+01 -0.11400462082E+01  0.29710923750E+01  0.00000000000E+00 0.  1.
</event>
<event>
 7    1  0.3435408E-009  0.4614232E+02  0.7816164E-02  0.1320468E+00
        -11   -1    0    0    0    0  0.00000000000E+00  0.00000000000E+00  0.45593999997E+02  0.45594000000E+02  0.51100000000E-03 0. -1.
         11   -1    0    0    0    0 -0.00000000000E+00 -0.00000000000E+00 -0.45593999997E+02  0.45594000000E+02  0.51100000000E-03 0.  1.
    9900012    2    1    2    0    0 -0.25305701770E+02  0.11337925835E+02  0.35499104352E+02  0.46142317476E+02  0.99999973973E+01 0.  0.
        -12    1    1    2    0    0  0.25305701770E+02 -0.11337925835E+02 -0.35499104352E+02  0.45045682524E+02  0.00000000000E+00 0.  1.
         11    1    3    3    0    0 -0.65003242215E+01  0.71606934122E+01  0.99834262520E+01  0.13899587948E+02  0.51100000000E-03 0. -1.
        -11    1    3    3    0    0 -0.17084253301E+02  0.48694239484E+01  0.23924306018E+02  0.29798580824E+02  0.51100000000E-03 0.  1.
         12    1    3    3    0    0 -0.17211242467E+01 -0.69219152573E+00  0.15913720824E+01  0.24441487037E+01  0.00000000000E+00 0. -1.
</event>
<event>
 7    1  0.3435408E-009  0.4614232E+02  0.7816164E-02  0.1320468E+00
        -11   -1    0    0    0    0  0.00000000000E+00  0.00000000000E+00  0.45593999997E+02  0.45594000000E+02  0.51100000000E-03 0. -1.
         11   -1    0    0    0    0 -0.00000000000E+00 -0.00000000000E+00 -0.45593999997E+02  0.45594000000E+02  0.51100000000E-03 0.  1.
    9900012    2    1    2    0    0  0.33797000628E+02 -0.34461730040E+01  0.29580400474E+02  0.46142318165E+02  0.10000003685E+02 0.  0.
        -12    1    1    2    0    0 -0.33797000628E+02  0.34461730040E+01 -0.29580400474E+02  0.45045681835E+02  0.00000000000E+00 0.  1.
         11    1    3    3    0    0  0.16357688502E+02 -0.49166232868E+01  0.13541417490E+02  0.21797182056E+02  0.51100000000E-03 0. -1.
        -11    1    3    3    0    0  0.10809114906E+02  0.16273968484E+01  0.64688993880E+01  0.12701655212E+02  0.51100000000E-03 0.  1.
        -12    1    3    3    0    0  0.66301972190E+01 -0.15694656560E+00  0.95700835960E+01  0.11643480898E+02  0.00000000000E+00 0.  1.
</event>
<event>
 7    1  0.3435408E-009  0.4614232E+02  0.7816164E-02  0.1320468E+00
        -11   -1    0    0    0    0  0.00000000000E+00  0.00000000000E+00  0.45593999997E+02  0.45594000000E+02  0.51100000000E-03 0. -1.
         11   -1    0    0    0    0 -0.00000000000E+00 -0.00000000000E+00 -0.45593999997E+02  0.45594000000E+02  0.51100000000E-03 0.  1.
    9900012    2    1    2    0    0  0.20834587075E+02  0.37750556990E+02  0.13035677748E+02  0.46142318010E+02  0.10000002268E+02 0.  0.
        -12    1    1    2    0    0 -0.20834587075E+02 -0.37750556990E+02 -0.13035677748E+02  0.45045681990E+02  0.00000000000E+00 0.  1.
         11    1    3    3    0    0  0.13841875568E+02  0.25306748838E+02  0.81927932748E+01  0.29985845292E+02  0.51100000000E-03 0. -1.
        -11    1    3    3    0    0 -0.84550057890E-01  0.38825806140E+01  0.29765907460E+01  0.48930229580E+01  0.51100000000E-03 0.  1.
         12    1    3    3    0    0  0.70772615654E+01  0.85612275373E+01  0.18662937267E+01  0.11263449760E+02  0.00000000000E+00 0. -1.
</event>
<event>
 7    1  0.3435408E-009  0.4614232E+02  0.7816164E-02  0.1320468E+00
        -11   -1    0    0    0    0  0.00000000000E+00  0.00000000000E+00  0.45593999997E+02  0.45594000000E+02  0.51100000000E-03 0.  1.
         11   -1    0    0    0    0 -0.00000000000E+00 -0.00000000000E+00 -0.45593999997E+02  0.45594000000E+02  0.51100000000E-03 0. -1.
    9900012    2    1    2    0    0 -0.54456893207E+01 -0.35643750336E+02 -0.26999649122E+02  0.46142317377E+02  0.99999965001E+01 0.  0.
        -12    1    1    2    0    0  0.54456893207E+01  0.35643750336E+02  0.26999649122E+02  0.45045682623E+02  0.00000000000E+00 0.  1.
         11    1    3    3    0    0  0.44514459936E+00 -0.12392821948E+02 -0.13965450030E+02  0.18676562434E+02  0.51100000000E-03 0. -1.
        -11    1    3    3    0    0 -0.13257881124E+01 -0.11372489331E+02 -0.60476026637E+01  0.12948541460E+02  0.51100000000E-03 0.  1.
         12    1    3    3    0    0 -0.45650458077E+01 -0.11878439058E+02 -0.69865964289E+01  0.14517213484E+02  0.00000000000E+00 0. -1.
</event>
<event>
 7    1  0.3435408E-009  0.4614232E+02  0.7816164E-02  0.1320468E+00
        -11   -1    0    0    0    0  0.00000000000E+00  0.00000000000E+00  0.45593999997E+02  0.45594000000E+02  0.51100000000E-03 0.  1.
         11   -1    0    0    0    0 -0.00000000000E+00 -0.00000000000E+00 -0.45593999997E+02  0.45594000000E+02  0.51100000000E-03 0. -1.
    9900012    2    1    2    0    0  0.37211374148E+02 -0.12891678844E+02 -0.21868515769E+02  0.46142315064E+02  0.99999754062E+01 0.  0.
        -12    1    1    2    0    0 -0.37211374148E+02  0.12891678844E+02  0.21868515769E+02  0.45045684936E+02  0.00000000000E+00 0.  1.
         11    1    3    3    0    0  0.15045391929E+02 -0.74182419550E+01 -0.47014539171E+01  0.17421188283E+02  0.51100000000E-03 0. -1.
        -11    1    3    3    0    0  0.10466690892E+02 -0.11211951858E+01 -0.84012263487E+01  0.13468084544E+02  0.51100000000E-03 0.  1.
         12    1    3    3    0    0  0.11699291328E+02 -0.43522417037E+01 -0.87658355032E+01  0.15253042237E+02  0.00000000000E+00 0. -1.
</event>
<event>
 7    1  0.3435408E-009  0.4614232E+02  0.7816164E-02  0.1320468E+00
        -11   -1    0    0    0    0  0.00000000000E+00  0.00000000000E+00  0.45593999997E+02  0.45594000000E+02  0.51100000000E-03 0. -1.
         11   -1    0    0    0    0 -0.00000000000E+00 -0.00000000000E+00 -0.45593999997E+02  0.45594000000E+02  0.51100000000E-03 0.  1.
    9900012    2    1    2    0    0  0.21181812635E+02  0.11313693087E+02  0.38110952070E+02  0.46142317572E+02  0.99999982715E+01 0.  0.
        -12    1    1    2    0    0 -0.21181812635E+02 -0.11313693087E+02 -0.38110952070E+02  0.45045682428E+02  0.00000000000E+00 0.  1.
         11    1    3    3    0    0  0.15769417467E+02  0.63364599372E+01  0.30929286885E+02  0.35290877564E+02  0.51100000000E-03 0. -1.
        -11    1    3    3    0    0  0.21605059430E+01  0.30592472978E+01  0.56469546311E+01  0.67760517136E+01  0.51100000000E-03 0.  1.
         12    1    3    3    0    0  0.32518892245E+01  0.19179858525E+01  0.15347105537E+01  0.40753882935E+01  0.00000000000E+00 0. -1.
</event>
<event>
 7    1  0.3435408E-009  0.4614232E+02  0.7816164E-02  0.1320468E+00
        -11   -1    0    0    0    0  0.00000000000E+00  0.00000000000E+00  0.45593999997E+02  0.45594000000E+02  0.51100000000E-03 0.  1.
         11   -1    0    0    0    0 -0.00000000000E+00 -0.00000000000E+00 -0.45593999997E+02  0.45594000000E+02  0.51100000000E-03 0. -1.
    9900012    2    1    2    0    0 -0.43976686689E+02  0.19873076633E+01  0.95506611174E+01  0.46142317725E+02  0.99999996673E+01 0.  0.
        -12    1    1    2    0    0  0.43976686689E+02 -0.19873076633E+01 -0.95506611174E+01  0.45045682275E+02  0.00000000000E+00 0.  1.
         11    1    3    3    0    0 -0.11394848661E+02  0.33967599688E+01  0.22876865335E+01  0.12108429470E+02  0.51100000000E-03 0. -1.
        -11    1    3    3    0    0 -0.11537164786E+02  0.11382619499E+01 -0.98910438614E-01  0.11593601473E+02  0.51100000000E-03 0.  1.
        -12    1    3    3    0    0 -0.21044673241E+02 -0.25477142554E+01  0.73618850225E+01  0.22440286782E+02  0.00000000000E+00 0.  1.
</event>
<event>
 7    1  0.3435408E-009  0.4614232E+02  0.7816164E-02  0.1320468E+00
        -11   -1    0    0    0    0  0.00000000000E+00  0.00000000000E+00  0.45593999997E+02  0.45594000000E+02  0.51100000000E-03 0.  1.
         11   -1    0    0    0    0 -0.00000000000E+00 -0.00000000000E+00 -0.45593999997E+02  0.45594000000E+02  0.51100000000E-03 0. -1.
    9900012    2    1    2    0    0 -0.29254105594E+02 -0.16310802699E+02 -0.30120898154E+02  0.46142317805E+02  0.10000000400E+02 0.  0.
        -12    1    1    2    0    0  0.29254105594E+02  0.16310802699E+02  0.30120898154E+02  0.45045682195E+02  0.00000000000E+00 0.  1.
         11    1    3    3    0    0 -0.16204865021E+02 -0.11705449712E+02 -0.22598299235E+02  0.30171150656E+02  0.51100000000E-03 0. -1.
        -11    1    3    3    0    0 -0.20049112178E+01  0.24507916550E+00 -0.12483807517E+01  0.23744867974E+01  0.51100000000E-03 0.  1.
         12    1    3    3    0    0 -0.11044329355E+02 -0.48504321530E+01 -0.62742181673E+01  0.13596680352E+02  0.00000000000E+00 0. -1.
</event>
<event>
 7    1  0.3435408E-009  0.4614232E+02  0.7816164E-02  0.1320468E+00
        -11   -1    0    0    0    0  0.00000000000E+00  0.00000000000E+00  0.45593999997E+02  0.45594000000E+02  0.51100000000E-03 0.  1.
         11   -1    0    0    0    0 -0.00000000000E+00 -0.00000000000E+00 -0.45593999997E+02  0.45594000000E+02  0.51100000000E-03 0. -1.
    9900012    2    1    2    0    0  0.55089180593E+01 -0.18876250870E+02 -0.40527181761E+02  0.46142317781E+02  0.10000000178E+02 0.  0.
        -12    1    1    2    0    0 -0.55089180593E+01  0.18876250870E+02  0.40527181761E+02  0.45045682219E+02  0.00000000000E+00 0.  1.
         11    1    3    3    0    0  0.77321625137E+01 -0.10314775738E+02 -0.23978934881E+02  0.27224442215E+02  0.51100000000E-03 0. -1.
        -11    1    3    3    0    0  0.80105332260E-01 -0.15533509101E+01 -0.47986530026E+01  0.50444411796E+01  0.51100000000E-03 0.  1.
         12    1    3    3    0    0 -0.23033497867E+01 -0.70081242225E+01 -0.11749593878E+02  0.13873434386E+02  0.00000000000E+00 0. -1.
</event>
<event>
 7    1  0.3435408E-009  0.4614232E+02  0.7816164E-02  0.1320468E+00
        -11   -1    0    0    0    0  0.00000000000E+00  0.00000000000E+00  0.45593999997E+02  0.45594000000E+02  0.51100000000E-03 0.  1.
         11   -1    0    0    0    0 -0.00000000000E+00 -0.00000000000E+00 -0.45593999997E+02  0.45594000000E+02  0.51100000000E-03 0. -1.
    9900012    2    1    2    0    0 -0.33316834856E+02  0.11254364035E+02 -0.28150335281E+02  0.46142316843E+02  0.99999916254E+01 0.  0.
        -12    1    1    2    0    0  0.33316834856E+02 -0.11254364035E+02  0.28150335281E+02  0.45045683157E+02  0.00000000000E+00 0.  1.
         11    1    3    3    0    0 -0.16678416477E+02  0.68652139812E+01 -0.88090724912E+01  0.20072381463E+02  0.51100000000E-03 0. -1.
        -11    1    3    3    0    0 -0.12150348889E+02  0.23319253492E+01 -0.12097645027E+02  0.17303810835E+02  0.51100000000E-03 0.  1.
         12    1    3    3    0    0 -0.44880694905E+01  0.20572247050E+01 -0.72436177630E+01  0.87661245448E+01  0.00000000000E+00 0. -1.
</event>
<event>
 7    1  0.3435408E-009  0.4614232E+02  0.7816164E-02  0.1320468E+00
        -11   -1    0    0    0    0  0.00000000000E+00  0.00000000000E+00  0.45593999997E+02  0.45594000000E+02  0.51100000000E-03 0.  1.
         11   -1    0    0    0    0 -0.00000000000E+00 -0.00000000000E+00 -0.45593999997E+02  0.45594000000E+02  0.51100000000E-03 0. -1.
    9900012    2    1    2    0    0  0.31981513667E+02  0.26747315765E+02 -0.17055126975E+02  0.46142317929E+02  0.10000001535E+02 0.  0.
        -12    1    1    2    0    0 -0.31981513667E+02 -0.26747315765E+02  0.17055126975E+02  0.45045682071E+02  0.00000000000E+00 0.  1.
         11    1    3    3    0    0  0.96900305137E+01  0.53315665563E+01 -0.73147308234E+01  0.13259999268E+02  0.51100000000E-03 0. -1.
        -11    1    3    3    0    0  0.70934593383E+01  0.39010334978E+01 -0.12699231886E+01  0.81943842296E+01  0.51100000000E-03 0.  1.
         12    1    3    3    0    0  0.15198023815E+02  0.17514715711E+02 -0.84704729633E+01  0.24687934432E+02  0.00000000000E+00 0. -1.
</event>
<event>
 7    1  0.3435408E-009  0.4614230E+02  0.7816164E-02  0.1320468E+00
        -11   -1    0    0    0    0  0.00000000000E+00  0.00000000000E+00  0.45593999997E+02  0.45594000000E+02  0.51100000000E-03 0.  1.
         11   -1    0    0    0    0 -0.00000000000E+00 -0.00000000000E+00 -0.45593999997E+02  0.45594000000E+02  0.51100000000E-03 0. -1.
    9900012    2    1    2    0    0  0.44748733668E+02  0.30079776822E+01  0.41973429665E+01  0.46142303395E+02  0.99998689979E+01 0.  0.
        -12    1    1    2    0    0 -0.44748733668E+02 -0.30079776822E+01 -0.41973429665E+01  0.45045696605E+02  0.00000000000E+00 0.  1.
         11    1    3    3    0    0  0.34525493258E+02  0.21286530467E+00 -0.28067145919E+00  0.34527290266E+02  0.51100000000E-03 0. -1.
        -11    1    3    3    0    0  0.91789899777E+01  0.20498737464E+01  0.36523344210E+01  0.10089369969E+02  0.51100000000E-03 0.  1.
         12    1    3    3    0    0  0.10442504323E+01  0.74523863114E+00  0.82568000470E+00  0.15256431604E+01  0.00000000000E+00 0. -1.
</event>
<event>
 7    1  0.3435408E-009  0.4614232E+02  0.7816164E-02  0.1320468E+00
        -11   -1    0    0    0    0  0.00000000000E+00  0.00000000000E+00  0.45593999997E+02  0.45594000000E+02  0.51100000000E-03 0. -1.
         11   -1    0    0    0    0 -0.00000000000E+00 -0.00000000000E+00 -0.45593999997E+02  0.45594000000E+02  0.51100000000E-03 0.  1.
    9900012    2    1    2    0    0  0.36664059455E+02 -0.23713561506E+02 -0.11069200616E+02  0.46142318105E+02  0.10000003139E+02 0.  0.
        -12    1    1    2    0    0 -0.36664059455E+02  0.23713561506E+02  0.11069200616E+02  0.45045681895E+02  0.00000000000E+00 0.  1.
         11    1    3    3    0    0  0.32399737199E+01 -0.10820797543E+01 -0.11638711521E+01  0.36087286709E+01  0.51100000000E-03 0. -1.
        -11    1    3    3    0    0  0.29631702734E+02 -0.19240714061E+02 -0.11576828717E+02  0.37178836021E+02  0.51100000000E-03 0.  1.
        -12    1    3    3    0    0  0.37923830017E+01 -0.33907676910E+01  0.16714992527E+01  0.53547534133E+01  0.00000000000E+00 0.  1.
</event>
<event>
 7    1  0.3435408E-009  0.4614232E+02  0.7816164E-02  0.1320468E+00
        -11   -1    0    0    0    0  0.00000000000E+00  0.00000000000E+00  0.45593999997E+02  0.45594000000E+02  0.51100000000E-03 0. -1.
         11   -1    0    0    0    0 -0.00000000000E+00 -0.00000000000E+00 -0.45593999997E+02  0.45594000000E+02  0.51100000000E-03 0.  1.
    9900012    2    1    2    0    0 -0.21286906593E+01  0.39790016188E+02  0.21008016656E+02  0.46142317898E+02  0.10000001251E+02 0.  0.
        -12    1    1    2    0    0  0.21286906593E+01 -0.39790016188E+02 -0.21008016656E+02  0.45045682102E+02  0.00000000000E+00 0.  1.
         11    1    3    3    0    0 -0.10783523401E+01  0.33819882561E+01  0.19322846636E+01  0.40415854087E+01  0.51100000000E-03 0. -1.
        -11    1    3    3    0    0 -0.85638640864E+00  0.44420739983E+01  0.61154255327E+01  0.76068290893E+01  0.51100000000E-03 0.  1.
        -12    1    3    3    0    0 -0.19395191056E+00  0.31965953934E+02  0.12960306460E+02  0.34493903400E+02  0.00000000000E+00 0.  1.
</event>
<event>
 7    1  0.3435408E-009  0.4614232E+02  0.7816164E-02  0.1320468E+00
        -11   -1    0    0    0    0  0.00000000000E+00  0.00000000000E+00  0.45593999997E+02  0.45594000000E+02  0.51100000000E-03 0.  1.
         11   -1    0    0    0    0 -0.00000000000E+00 -0.00000000000E+00 -0.45593999997E+02  0.45594000000E+02  0.51100000000E-03 0. -1.
    9900012    2    1    2    0    0 -0.13678633393E+01 -0.29333510199E+02 -0.34158273380E+02  0.46142317509E+02  0.99999977053E+01 0.  0.
        -12    1    1    2    0    0  0.13678633393E+01  0.29333510199E+02  0.34158273380E+02  0.45045682491E+02  0.00000000000E+00 0.  1.
         11    1    3    3    0    0  0.21623810039E+01 -0.41586153875E+01 -0.85152382874E+01  0.97200440791E+01  0.51100000000E-03 0. -1.
        -11    1    3    3    0    0 -0.45124030952E+01 -0.17689806357E+02 -0.19243789816E+02  0.26525732363E+02  0.51100000000E-03 0.  1.
        -12    1    3    3    0    0  0.98215875193E+00 -0.74850884547E+01 -0.63992452767E+01  0.98965410674E+01  0.00000000000E+00 0.  1.
</event>
<event>
 7    1  0.3435408E-009  0.4614232E+02  0.7816164E-02  0.1320468E+00
        -11   -1    0    0    0    0  0.00000000000E+00  0.00000000000E+00  0.45593999997E+02  0.45594000000E+02  0.51100000000E-03 0. -1.
         11   -1    0    0    0    0 -0.00000000000E+00 -0.00000000000E+00 -0.45593999997E+02  0.45594000000E+02  0.51100000000E-03 0.  1.
    9900012    2    1    2    0    0  0.43201285513E+02 -0.85869229415E+01  0.94354192977E+01  0.46142318155E+02  0.10000003594E+02 0.  0.
        -12    1    1    2    0    0 -0.43201285513E+02  0.85869229415E+01 -0.94354192977E+01  0.45045681845E+02  0.00000000000E+00 0.  1.
         11    1    3    3    0    0  0.15156849941E+02 -0.30789903502E+01  0.13933195111E+01  0.15529057320E+02  0.51100000000E-03 0. -1.
        -11    1    3    3    0    0  0.28393599007E+02 -0.58902323977E+01  0.80524562122E+01  0.30095404193E+02  0.51100000000E-03 0.  1.
        -12    1    3    3    0    0 -0.34916343521E+00  0.38229980638E+00 -0.10356425559E-01  0.51785664232E+00  0.00000000000E+00 0.  1.
</event>
<event>
 7    1  0.3435408E-009  0.4614232E+02  0.7816164E-02  0.1320468E+00
        -11   -1    0    0    0    0  0.00000000000E+00  0.00000000000E+00  0.45593999997E+02  0.45594000000E+02  0.51100000000E-03 0. -1.
         11   -1    0    0    0    0 -0.00000000000E+00 -0.00000000000E+00 -0.45593999997E+02  0.45594000000E+02  0.51100000000E-03 0.  1.
    9900012    2    1    2    0    0  0.30214316121E+02 -0.71628796259E+01  0.32632831838E+02  0.46142318110E+02  0.10000003182E+02 0.  0.
        -12    1    1    2    0    0 -0.30214316121E+02  0.71628796259E+01 -0.32632831838E+02  0.45045681890E+02  0.00000000000E+00 0.  1.
         11    1    3    3    0    0  0.80149020630E+01 -0.59608244277E+01  0.10185270401E+02  0.14265686676E+02  0.51100000000E-03 0. -1.
        -11    1    3    3    0    0  0.20955966600E+00 -0.47073520499E+00  0.11267598262E+01  0.12389894486E+01  0.51100000000E-03 0.  1.
         12    1    3    3    0    0  0.21989854392E+02 -0.73131999316E+00  0.21320801611E+02  0.30637641985E+02  0.00000000000E+00 0. -1.
</event>
<event>
 7    1  0.3435408E-009  0.4614232E+02  0.7816164E-02  0.1320468E+00
        -11   -1    0    0    0    0  0.00000000000E+00  0.00000000000E+00  0.45593999997E+02  0.45594000000E+02  0.51100000000E-03 0.  1.
         11   -1    0    0    0    0 -0.00000000000E+00 -0.00000000000E+00 -0.45593999997E+02  0.45594000000E+02  0.51100000000E-03 0. -1.
    9900012    2    1    2    0    0  0.24006789644E+02  0.37103877976E+02 -0.87229213255E+01  0.46142322446E+02  0.10000042721E+02 0.  0.
        -12    1    1    2    0    0 -0.24006789644E+02 -0.37103877976E+02  0.87229213255E+01  0.45045677554E+02  0.00000000000E+00 0.  1.
         11    1    3    3    0    0  0.69090575967E+01  0.70946384152E+01 -0.16889355751E+01  0.10045968085E+02  0.51100000000E-03 0. -1.
        -11    1    3    3    0    0  0.14234899138E+02  0.22447025198E+02 -0.21892558388E+01  0.26670098145E+02  0.51100000000E-03 0.  1.
        -12    1    3    3    0    0  0.28628329094E+01  0.75622143627E+01 -0.48447299116E+01  0.94262562161E+01  0.00000000000E+00 0.  1.
</event>
<event>
 7    1  0.3435408E-009  0.4614232E+02  0.7816164E-02  0.1320468E+00
        -11   -1    0    0    0    0  0.00000000000E+00  0.00000000000E+00  0.45593999997E+02  0.45594000000E+02  0.51100000000E-03 0.  1.
         11   -1    0    0    0    0 -0.00000000000E+00 -0.00000000000E+00 -0.45593999997E+02  0.45594000000E+02  0.51100000000E-03 0. -1.
    9900012    2    1    2    0    0 -0.42100844206E+02 -0.65334382069E+01 -0.14626916429E+02  0.46142316724E+02  0.99999905384E+01 0.  0.
        -12    1    1    2    0    0  0.42100844206E+02  0.65334382069E+01  0.14626916429E+02  0.45045683276E+02  0.00000000000E+00 0.  1.
         11    1    3    3    0    0 -0.11169404857E+02  0.28959664899E+00 -0.60161973655E+01  0.12689921280E+02  0.51100000000E-03 0. -1.
        -11    1    3    3    0    0 -0.25577003148E+02 -0.75547699392E+01 -0.86842022156E+01  0.28047691656E+02  0.51100000000E-03 0.  1.
        -12    1    3    3    0    0 -0.53544362002E+01  0.73173508331E+00  0.73483152389E-01  0.54047037873E+01  0.00000000000E+00 0.  1.
</event>
<event>
 7    1  0.3435408E-009  0.4614232E+02  0.7816164E-02  0.1320468E+00
        -11   -1    0    0    0    0  0.00000000000E+00  0.00000000000E+00  0.45593999997E+02  0.45594000000E+02  0.51100000000E-03 0.  1.
         11   -1    0    0    0    0 -0.00000000000E+00 -0.00000000000E+00 -0.45593999997E+02  0.45594000000E+02  0.51100000000E-03 0. -1.
    9900012    2    1    2    0    0 -0.35774902550E+02  0.27357140850E+02 -0.92558358072E+00  0.46142317488E+02  0.99999975141E+01 0.  0.
        -12    1    1    2    0    0  0.35774902550E+02 -0.27357140850E+02  0.92558358072E+00  0.45045682512E+02  0.00000000000E+00 0.  1.
         11    1    3    3    0    0 -0.31206985253E+02  0.21500444818E+02 -0.10110815862E+01  0.37909990005E+02  0.51100000000E-03 0. -1.
        -11    1    3    3    0    0 -0.17740513656E+01  0.47501709041E+01 -0.71932537127E+00  0.51214071422E+01  0.51100000000E-03 0.  1.
        -12    1    3    3    0    0 -0.27938659309E+01  0.11065251283E+01  0.80482337674E+00  0.31109203409E+01  0.00000000000E+00 0.  1.
</event>
<event>
 7    1  0.3435408E-009  0.4614232E+02  0.7816164E-02  0.1320468E+00
        -11   -1    0    0    0    0  0.00000000000E+00  0.00000000000E+00  0.45593999997E+02  0.45594000000E+02  0.51100000000E-03 0. -1.
         11   -1    0    0    0    0 -0.00000000000E+00 -0.00000000000E+00 -0.45593999997E+02  0.45594000000E+02  0.51100000000E-03 0.  1.
    9900012    2    1    2    0    0 -0.54237992063E+01  0.44665451715E+01  0.44494335045E+02  0.46142317912E+02  0.10000001380E+02 0.  0.
        -12    1    1    2    0    0  0.54237992063E+01 -0.44665451715E+01 -0.44494335045E+02  0.45045682088E+02  0.00000000000E+00 0.  1.
         11    1    3    3    0    0 -0.20654468807E+01 -0.14681183618E+01  0.57036612370E+01  0.62412494029E+01  0.51100000000E-03 0. -1.
        -11    1    3    3    0    0 -0.95182875992E+00  0.23488608167E+00  0.47554798678E+00  0.10896309506E+01  0.51100000000E-03 0.  1.
         12    1    3    3    0    0 -0.24065235657E+01  0.56997774517E+01  0.38315125822E+02  0.38811437559E+02  0.00000000000E+00 0. -1.
</event>
<event>
 7    1  0.3435408E-009  0.4614232E+02  0.7816164E-02  0.1320468E+00
        -11   -1    0    0    0    0  0.00000000000E+00  0.00000000000E+00  0.45593999997E+02  0.45594000000E+02  0.51100000000E-03 0. -1.
         11   -1    0    0    0    0 -0.00000000000E+00 -0.00000000000E+00 -0.45593999997E+02  0.45594000000E+02  0.51100000000E-03 0.  1.
    9900012    2    1    2    0    0 -0.23647770983E+02 -0.26548055118E+02  0.27660384747E+02  0.46142321102E+02  0.10000030468E+02 0.  0.
        -12    1    1    2    0    0  0.23647770983E+02  0.26548055118E+02 -0.27660384747E+02  0.45045678898E+02  0.00000000000E+00 0.  1.
         11    1    3    3    0    0 -0.29288248015E+01 -0.48661970472E+01  0.43981661971E+01  0.71834361261E+01  0.51100000000E-03 0. -1.
        -11    1    3    3    0    0 -0.36484310897E+00 -0.15516816136E+01  0.43908953792E+01  0.46712727191E+01  0.51100000000E-03 0.  1.
        -12    1    3    3    0    0 -0.20354103073E+02 -0.20130176457E+02  0.18871323171E+02  0.34287612257E+02  0.00000000000E+00 0.  1.
</event>
<event>
 7    1  0.3435408E-009  0.4614232E+02  0.7816164E-02  0.1320468E+00
        -11   -1    0    0    0    0  0.00000000000E+00  0.00000000000E+00  0.45593999997E+02  0.45594000000E+02  0.51100000000E-03 0.  1.
         11   -1    0    0    0    0 -0.00000000000E+00 -0.00000000000E+00 -0.45593999997E+02  0.45594000000E+02  0.51100000000E-03 0. -1.
    9900012    2    1    2    0    0  0.10420793558E+02 -0.20684267825E+02 -0.38635237711E+02  0.46142318001E+02  0.10000002183E+02 0.  0.
        -12    1    1    2    0    0 -0.10420793558E+02  0.20684267825E+02  0.38635237711E+02  0.45045681999E+02  0.00000000000E+00 0.  1.
         11    1    3    3    0    0  0.74125396836E+01 -0.12811316690E+02 -0.23951145888E+02  0.28155514016E+02  0.51100000000E-03 0. -1.
        -11    1    3    3    0    0  0.18765928011E+01 -0.87494061647E+01 -0.12409839730E+02  0.15299602320E+02  0.51100000000E-03 0.  1.
        -12    1    3    3    0    0  0.11316610734E+01  0.87645502951E+00 -0.22742520922E+01  0.26872016639E+01  0.00000000000E+00 0.  1.
</event>
<event>
 7    1  0.3435408E-009  0.4614232E+02  0.7816164E-02  0.1320468E+00
        -11   -1    0    0    0    0  0.00000000000E+00  0.00000000000E+00  0.45593999997E+02  0.45594000000E+02  0.51100000000E-03 0.  1.
         11   -1    0    0    0    0 -0.00000000000E+00 -0.00000000000E+00 -0.45593999997E+02  0.45594000000E+02  0.51100000000E-03 0. -1.
    9900012    2    1    2    0    0  0.12317851178E+02 -0.17474350917E+02 -0.39648847795E+02  0.46142317309E+02  0.99999958779E+01 0.  0.
        -12    1    1    2    0    0 -0.12317851178E+02  0.17474350917E+02  0.39648847795E+02  0.45045682691E+02  0.00000000000E+00 0.  1.
         11    1    3    3    0    0  0.60403007456E+01 -0.55349017900E+01 -0.17936870347E+02  0.19719322733E+02  0.51100000000E-03 0. -1.
        -11    1    3    3    0    0  0.28163166603E+01 -0.10895748186E+02 -0.14491927468E+02  0.18348431270E+02  0.51100000000E-03 0.  1.
        -12    1    3    3    0    0  0.34612337717E+01 -0.10437009406E+01 -0.72200499800E+01  0.80745633064E+01  0.00000000000E+00 0.  1.
</event>
<event>
 7    1  0.3435408E-009  0.4614231E+02  0.7816164E-02  0.1320468E+00
        -11   -1    0    0    0    0  0.00000000000E+00  0.00000000000E+00  0.45593999997E+02  0.45594000000E+02  0.51100000000E-03 0.  1.
         11   -1    0    0    0    0 -0.00000000000E+00 -0.00000000000E+00 -0.45593999997E+02  0.45594000000E+02  0.51100000000E-03 0. -1.
    9900012    2    1    2    0    0 -0.65669486604E+01 -0.20597698400E+02 -0.39518661799E+02  0.46142305151E+02  0.99998850057E+01 0.  0.
        -12    1    1    2    0    0  0.65669486604E+01  0.20597698400E+02  0.39518661799E+02  0.45045694849E+02  0.00000000000E+00 0.  1.
         11    1    3    3    0    0 -0.27876698088E+01 -0.14748884709E+02 -0.25595276101E+02  0.29671853027E+02  0.51100000000E-03 0. -1.
        -11    1    3    3    0    0 -0.91345942816E+00  0.41117879630E+00 -0.55043672702E+01  0.55947775144E+01  0.51100000000E-03 0.  1.
        -12    1    3    3    0    0 -0.28658194234E+01 -0.62599924874E+01 -0.84190184281E+01  0.10875674609E+02  0.00000000000E+00 0.  1.
</event>
<event>
 7    1  0.3435408E-009  0.4614232E+02  0.7816164E-02  0.1320468E+00
        -11   -1    0    0    0    0  0.00000000000E+00  0.00000000000E+00  0.45593999997E+02  0.45594000000E+02  0.51100000000E-03 0.  1.
         11   -1    0    0    0    0 -0.00000000000E+00 -0.00000000000E+00 -0.45593999997E+02  0.45594000000E+02  0.51100000000E-03 0. -1.
    9900012    2    1    2    0    0 -0.40530186160E+02  0.81936698021E+00  0.19640424990E+02  0.46142316009E+02  0.99999840204E+01 0.  0.
        -12    1    1    2    0    0  0.40530186160E+02 -0.81936698021E+00 -0.19640424990E+02  0.45045683991E+02  0.00000000000E+00 0.  1.
         11    1    3    3    0    0 -0.22981672514E+02  0.85556650193E+00  0.13919645436E+02  0.26882071998E+02  0.51100000000E-03 0. -1.
        -11    1    3    3    0    0 -0.12894116860E+02 -0.21033904663E+01  0.54634942956E+01  0.14160941750E+02  0.51100000000E-03 0.  1.
        -12    1    3    3    0    0 -0.46543967863E+01  0.20671909445E+01  0.25728525846E+00  0.50993022610E+01  0.00000000000E+00 0.  1.
</event>
<event>
 7    1  0.3435408E-009  0.4614232E+02  0.7816164E-02  0.1320468E+00
        -11   -1    0    0    0    0  0.00000000000E+00  0.00000000000E+00  0.45593999997E+02  0.45594000000E+02  0.51100000000E-03 0.  1.
         11   -1    0    0    0    0 -0.00000000000E+00 -0.00000000000E+00 -0.45593999997E+02  0.45594000000E+02  0.51100000000E-03 0. -1.
    9900012    2    1    2    0    0  0.35767342386E+02 -0.27195892239E+02 -0.31928277143E+01  0.46142317800E+02  0.10000000356E+02 0.  0.
        -12    1    1    2    0    0 -0.35767342386E+02  0.27195892239E+02  0.31928277143E+01  0.45045682200E+02  0.00000000000E+00 0.  1.
         11    1    3    3    0    0  0.90929054975E+01 -0.60219487677E+01  0.75837209487E+00  0.10932516903E+02  0.51100000000E-03 0. -1.
        -11    1    3    3    0    0  0.22849495824E+01 -0.16070258759E+01  0.19270607652E+01  0.33936838707E+01  0.51100000000E-03 0.  1.
        -12    1    3    3    0    0  0.24389487306E+02 -0.19566917595E+02 -0.58782605744E+01  0.31816117026E+02  0.00000000000E+00 0.  1.
</event>
<event>
 7    1  0.3435408E-009  0.4614232E+02  0.7816164E-02  0.1320468E+00
        -11   -1    0    0    0    0  0.00000000000E+00  0.00000000000E+00  0.45593999997E+02  0.45594000000E+02  0.51100000000E-03 0. -1.
         11   -1    0    0    0    0 -0.00000000000E+00 -0.00000000000E+00 -0.45593999997E+02  0.45594000000E+02  0.51100000000E-03 0.  1.
    9900012    2    1    2    0    0 -0.35116934780E+02 -0.22191962462E+02  0.17419275261E+02  0.46142318111E+02  0.10000003188E+02 0.  0.
        -12    1    1    2    0    0  0.35116934780E+02  0.22191962462E+02 -0.17419275261E+02  0.45045681889E+02  0.00000000000E+00 0.  1.
         11    1    3    3    0    0 -0.17169190522E+02 -0.13882570258E+02  0.69483945367E+01  0.23147074265E+02  0.51100000000E-03 0. -1.
        -11    1    3    3    0    0 -0.60857287879E+01 -0.27295295095E+01  0.82648341556E+00  0.67208259404E+01  0.51100000000E-03 0.  1.
         12    1    3    3    0    0 -0.11862015471E+02 -0.55798626944E+01  0.96443973087E+01  0.16274417905E+02  0.00000000000E+00 0. -1.
</event>
<event>
 7    1  0.3435408E-009  0.4614232E+02  0.7816164E-02  0.1320468E+00
        -11   -1    0    0    0    0  0.00000000000E+00  0.00000000000E+00  0.45593999997E+02  0.45594000000E+02  0.51100000000E-03 0.  1.
         11   -1    0    0    0    0 -0.00000000000E+00 -0.00000000000E+00 -0.45593999997E+02  0.45594000000E+02  0.51100000000E-03 0. -1.
    9900012    2    1    2    0    0  0.25143169760E+01  0.27518632038E+02 -0.35574099024E+02  0.46142318515E+02  0.10000006875E+02 0.  0.
        -12    1    1    2    0    0 -0.25143169760E+01 -0.27518632038E+02  0.35574099024E+02  0.45045681485E+02  0.00000000000E+00 0.  1.
         11    1    3    3    0    0  0.91810447057E+00  0.24261312393E+02 -0.28052986559E+02  0.37100192048E+02  0.51100000000E-03 0. -1.
        -11    1    3    3    0    0  0.26445959478E+01  0.28574954752E+01 -0.56899586748E+01  0.68945484334E+01  0.51100000000E-03 0.  1.
         12    1    3    3    0    0 -0.10483834425E+01  0.39982416987E+00 -0.18311537895E+01  0.21475780335E+01  0.00000000000E+00 0. -1.
</event>
<event>
 7    1  0.3435408E-009  0.4614232E+02  0.7816164E-02  0.1320468E+00
        -11   -1    0    0    0    0  0.00000000000E+00  0.00000000000E+00  0.45593999997E+02  0.45594000000E+02  0.51100000000E-03 0.  1.
         11   -1    0    0    0    0 -0.00000000000E+00 -0.00000000000E+00 -0.45593999997E+02  0.45594000000E+02  0.51100000000E-03 0. -1.
    9900012    2    1    2    0    0  0.17789343255E+02 -0.15793338538E+02 -0.38252102035E+02  0.46142316680E+02  0.99999901425E+01 0.  0.
        -12    1    1    2    0    0 -0.17789343255E+02  0.15793338538E+02  0.38252102035E+02  0.45045683320E+02  0.00000000000E+00 0.  1.
         11    1    3    3    0    0  0.18226193651E+01 -0.58845776828E+01 -0.10007304841E+02  0.11751440180E+02  0.51100000000E-03 0. -1.
        -11    1    3    3    0    0  0.10982593599E+02 -0.72381009728E+01 -0.14770271548E+02  0.19777977392E+02  0.51100000000E-03 0.  1.
        -12    1    3    3    0    0  0.49841302913E+01 -0.26706598829E+01 -0.13474525646E+02  0.14612899108E+02  0.00000000000E+00 0.  1.
</event>
<event>
 7    1  0.3435408E-009  0.4614232E+02  0.7816164E-02  0.1320468E+00
        -11   -1    0    0    0    0  0.00000000000E+00  0.00000000000E+00  0.45593999997E+02  0.45594000000E+02  0.51100000000E-03 0. -1.
         11   -1    0    0    0    0 -0.00000000000E+00 -0.00000000000E+00 -0.45593999997E+02  0.45594000000E+02  0.51100000000E-03 0.  1.
    9900012    2    1    2    0    0 -0.22986283747E+02 -0.28237771211E+02  0.26521170888E+02  0.46142317979E+02  0.10000001989E+02 0.  0.
        -12    1    1    2    0    0  0.22986283747E+02  0.28237771211E+02 -0.26521170888E+02  0.45045682021E+02  0.00000000000E+00 0.  1.
         11    1    3    3    0    0 -0.12391970283E+02 -0.16440612332E+02  0.19354964402E+02  0.28257199235E+02  0.51100000000E-03 0. -1.
        -11    1    3    3    0    0 -0.76075554425E+01 -0.54155717605E+01  0.42374044607E+01  0.10254702050E+02  0.51100000000E-03 0.  1.
        -12    1    3    3    0    0 -0.29867580209E+01 -0.63815871183E+01  0.29288020250E+01  0.76304166941E+01  0.00000000000E+00 0.  1.
</event>
<event>
 7    1  0.3435408E-009  0.4614232E+02  0.7816164E-02  0.1320468E+00
        -11   -1    0    0    0    0  0.00000000000E+00  0.00000000000E+00  0.45593999997E+02  0.45594000000E+02  0.51100000000E-03 0. -1.
         11   -1    0    0    0    0 -0.00000000000E+00 -0.00000000000E+00 -0.45593999997E+02  0.45594000000E+02  0.51100000000E-03 0.  1.
    9900012    2    1    2    0    0  0.11694885926E+02 -0.23032402682E+02  0.36903272895E+02  0.46142317849E+02  0.10000000799E+02 0.  0.
        -12    1    1    2    0    0 -0.11694885926E+02  0.23032402682E+02 -0.36903272895E+02  0.45045682151E+02  0.00000000000E+00 0.  1.
         11    1    3    3    0    0  0.54558891430E+01 -0.53646120061E+01  0.84998298285E+01  0.11436472170E+02  0.51100000000E-03 0. -1.
        -11    1    3    3    0    0  0.33350782345E+01 -0.67688127630E+01  0.60641643641E+01  0.96805817359E+01  0.51100000000E-03 0.  1.
         12    1    3    3    0    0  0.29039185489E+01 -0.10898977913E+02  0.22339278702E+02  0.25025263943E+02  0.00000000000E+00 0. -1.
</event>
<event>
 7    1  0.3435408E-009  0.4614232E+02  0.7816164E-02  0.1320468E+00
        -11   -1    0    0    0    0  0.00000000000E+00  0.00000000000E+00  0.45593999997E+02  0.45594000000E+02  0.51100000000E-03 0.  1.
         11   -1    0    0    0    0 -0.00000000000E+00 -0.00000000000E+00 -0.45593999997E+02  0.45594000000E+02  0.51100000000E-03 0. -1.
    9900012    2    1    2    0    0 -0.77961440550E+01  0.25448517327E+02 -0.36341527673E+02  0.46142317300E+02  0.99999957978E+01 0.  0.
        -12    1    1    2    0    0  0.77961440550E+01 -0.25448517327E+02  0.36341527673E+02  0.45045682700E+02  0.00000000000E+00 0.  1.
         11    1    3    3    0    0 -0.27496658156E+01  0.11170276037E+01 -0.33519665506E+01  0.44770629639E+01  0.51100000000E-03 0. -1.
        -11    1    3    3    0    0  0.30614684677E+00  0.15444767356E+01 -0.46475163176E+01  0.49069891443E+01  0.51100000000E-03 0.  1.
         12    1    3    3    0    0 -0.53526250862E+01  0.22787012988E+02 -0.28342044805E+02  0.36758265192E+02  0.00000000000E+00 0. -1.
</event>
<event>
 7    1  0.3435408E-009  0.4614231E+02  0.7816164E-02  0.1320468E+00
        -11   -1    0    0    0    0  0.00000000000E+00  0.00000000000E+00  0.45593999997E+02  0.45594000000E+02  0.51100000000E-03 0.  1.
         11   -1    0    0    0    0 -0.00000000000E+00 -0.00000000000E+00 -0.45593999997E+02  0.45594000000E+02  0.51100000000E-03 0. -1.
    9900012    2    1    2    0    0 -0.71625988327E+01 -0.37638096092E+02 -0.23689338928E+02  0.46142313433E+02  0.99999605317E+01 0.  0.
        -12    1    1    2    0    0  0.71625988327E+01  0.37638096092E+02  0.23689338928E+02  0.45045686567E+02  0.00000000000E+00 0.  1.
         11    1    3    3    0    0 -0.38659200429E-01  0.83072969032E-01 -0.14288849731E+01  0.14318198837E+01  0.51100000000E-03 0. -1.
        -11    1    3    3    0    0 -0.48668543703E+01 -0.13906163173E+02 -0.67931103692E+01  0.16223871129E+02  0.51100000000E-03 0.  1.
         12    1    3    3    0    0 -0.22570852620E+01 -0.23815005888E+02 -0.15467343586E+02  0.28486622420E+02  0.00000000000E+00 0. -1.
</event>
<event>
 7    1  0.3435408E-009  0.4614232E+02  0.7816164E-02  0.1320468E+00
        -11   -1    0    0    0    0  0.00000000000E+00  0.00000000000E+00  0.45593999997E+02  0.45594000000E+02  0.51100000000E-03 0. -1.
         11   -1    0    0    0    0 -0.00000000000E+00 -0.00000000000E+00 -0.45593999997E+02  0.45594000000E+02  0.51100000000E-03 0.  1.
    9900012    2    1    2    0    0 -0.12578916211E+02 -0.30704535364E+02  0.30464992629E+02  0.46142318732E+02  0.10000008854E+02 0.  0.
        -12    1    1    2    0    0  0.12578916211E+02  0.30704535364E+02 -0.30464992629E+02  0.45045681268E+02  0.00000000000E+00 0.  1.
         11    1    3    3    0    0 -0.81054809427E+01 -0.13030696278E+02  0.14062911955E+02  0.20814979215E+02  0.51100000000E-03 0. -1.
        -11    1    3    3    0    0 -0.17915640533E+01 -0.42807920697E+01  0.81232611223E+01  0.93553329189E+01  0.51100000000E-03 0.  1.
         12    1    3    3    0    0 -0.26818712155E+01 -0.13393047016E+02  0.82788195521E+01  0.15972006598E+02  0.00000000000E+00 0. -1.
</event>
<event>
 7    1  0.3435408E-009  0.4614232E+02  0.7816164E-02  0.1320468E+00
        -11   -1    0    0    0    0  0.00000000000E+00  0.00000000000E+00  0.45593999997E+02  0.45594000000E+02  0.51100000000E-03 0.  1.
         11   -1    0    0    0    0 -0.00000000000E+00 -0.00000000000E+00 -0.45593999997E+02  0.45594000000E+02  0.51100000000E-03 0. -1.
    9900012    2    1    2    0    0 -0.13618033018E+02  0.41421187627E+02 -0.11311404911E+02  0.46142317757E+02  0.99999999635E+01 0.  0.
        -12    1    1    2    0    0  0.13618033018E+02 -0.41421187627E+02  0.11311404911E+02  0.45045682243E+02  0.00000000000E+00 0.  1.
         11    1    3    3    0    0 -0.50095413909E+01  0.23200271127E+02 -0.53716830480E+01  0.24335222710E+02  0.51100000000E-03 0. -1.
        -11    1    3    3    0    0 -0.18678520400E+01  0.49076158470E+00 -0.11338483640E+01  0.22394933691E+01  0.51100000000E-03 0.  1.
         12    1    3    3    0    0 -0.67406395868E+01  0.17730154915E+02 -0.48058734990E+01  0.19567601678E+02  0.00000000000E+00 0. -1.
</event>
<event>
 7    1  0.3435408E-009  0.4614232E+02  0.7816164E-02  0.1320468E+00
        -11   -1    0    0    0    0  0.00000000000E+00  0.00000000000E+00  0.45593999997E+02  0.45594000000E+02  0.51100000000E-03 0.  1.
         11   -1    0    0    0    0 -0.00000000000E+00 -0.00000000000E+00 -0.45593999997E+02  0.45594000000E+02  0.51100000000E-03 0. -1.
    9900012    2    1    2    0    0  0.33468219273E+01 -0.34420967304E+02  0.28863633485E+02  0.46142317131E+02  0.99999942535E+01 0.  0.
        -12    1    1    2    0    0 -0.33468219273E+01  0.34420967304E+02 -0.28863633485E+02  0.45045682869E+02  0.00000000000E+00 0.  1.
         11    1    3    3    0    0 -0.15616299824E+01 -0.39191348680E+01  0.17366287619E+01  0.45622566821E+01  0.51100000000E-03 0.  1.
        -11    1    3    3    0    0  0.45200859681E+01 -0.14055111543E+02  0.15687518249E+02  0.21542413206E+02  0.51100000000E-03 0. -1.
         12    1    3    3    0    0  0.38836594157E+00 -0.16446720894E+02  0.11439486474E+02  0.20037647243E+02  0.00000000000E+00 0. -1.
</event>
<event>
 7    1  0.3435408E-009  0.4614232E+02  0.7816164E-02  0.1320468E+00
        -11   -1    0    0    0    0  0.00000000000E+00  0.00000000000E+00  0.45593999997E+02  0.45594000000E+02  0.51100000000E-03 0.  1.
         11   -1    0    0    0    0 -0.00000000000E+00 -0.00000000000E+00 -0.45593999997E+02  0.45594000000E+02  0.51100000000E-03 0. -1.
    9900012    2    1    2    0    0  0.39802659698E+02  0.48323967856E+01  0.20530699654E+02  0.46142318675E+02  0.10000008334E+02 0.  0.
        -12    1    1    2    0    0 -0.39802659698E+02 -0.48323967856E+01 -0.20530699654E+02  0.45045681325E+02  0.00000000000E+00 0.  1.
         11    1    3    3    0    0  0.29539460046E+02  0.16462330719E+01  0.11177599900E+02  0.31626389660E+02  0.51100000000E-03 0. -1.
        -11    1    3    3    0    0  0.90158389112E+01  0.29893643849E+01  0.68452060134E+01  0.11708052627E+02  0.51100000000E-03 0.  1.
         12    1    3    3    0    0  0.12473607407E+01  0.19679932873E+00  0.25078937406E+01  0.28078763875E+01  0.00000000000E+00 0. -1.
</event>
<event>
 7    1  0.3435408E-009  0.4614232E+02  0.7816164E-02  0.1320468E+00
        -11   -1    0    0    0    0  0.00000000000E+00  0.00000000000E+00  0.45593999997E+02  0.45594000000E+02  0.51100000000E-03 0.  1.
         11   -1    0    0    0    0 -0.00000000000E+00 -0.00000000000E+00 -0.45593999997E+02  0.45594000000E+02  0.51100000000E-03 0. -1.
    9900012    2    1    2    0    0  0.68446487400E+01 -0.13400870712E+01 -0.44502454854E+02  0.46142317213E+02  0.99999949981E+01 0.  0.
        -12    1    1    2    0    0 -0.68446487400E+01  0.13400870712E+01  0.44502454854E+02  0.45045682787E+02  0.00000000000E+00 0.  1.
         11    1    3    3    0    0  0.12674953380E+01  0.27146086637E+01 -0.14015226703E+02  0.14331860467E+02  0.51100000000E-03 0. -1.
        -11    1    3    3    0    0  0.68247198224E+01 -0.30399324095E+01 -0.25060833712E+02  0.26150781562E+02  0.51100000000E-03 0.  1.
         12    1    3    3    0    0 -0.12475664204E+01 -0.10147633253E+01 -0.54263944394E+01  0.56596751843E+01  0.00000000000E+00 0. -1.
</event>
<event>
 7    1  0.3435408E-009  0.4614232E+02  0.7816164E-02  0.1320468E+00
        -11   -1    0    0    0    0  0.00000000000E+00  0.00000000000E+00  0.45593999997E+02  0.45594000000E+02  0.51100000000E-03 0. -1.
         11   -1    0    0    0    0 -0.00000000000E+00 -0.00000000000E+00 -0.45593999997E+02  0.45594000000E+02  0.51100000000E-03 0.  1.
    9900012    2    1    2    0    0  0.16833425708E+02  0.12206028040E+02  0.39959505992E+02  0.46142318069E+02  0.10000002803E+02 0.  0.
        -12    1    1    2    0    0 -0.16833425708E+02 -0.12206028040E+02 -0.39959505992E+02  0.45045681931E+02  0.00000000000E+00 0.  1.
         11    1    3    3    0    0  0.74030938714E+01  0.68863019498E+01  0.24676588136E+02  0.26667601236E+02  0.51100000000E-03 0. -1.
        -11    1    3    3    0    0  0.62823735193E+00 -0.88229924203E+00  0.27260917009E+01  0.29333786571E+01  0.51100000000E-03 0.  1.
         12    1    3    3    0    0  0.88020944849E+01  0.62020253324E+01  0.12556826155E+02  0.16541338175E+02  0.00000000000E+00 0. -1.
</event>
<event>
 7    1  0.3435408E-009  0.4614232E+02  0.7816164E-02  0.1320468E+00
        -11   -1    0    0    0    0  0.00000000000E+00  0.00000000000E+00  0.45593999997E+02  0.45594000000E+02  0.51100000000E-03 0.  1.
         11   -1    0    0    0    0 -0.00000000000E+00 -0.00000000000E+00 -0.45593999997E+02  0.45594000000E+02  0.51100000000E-03 0. -1.
    9900012    2    1    2    0    0  0.35636352814E+02 -0.27150160731E+02  0.46938867068E+01  0.46142318275E+02  0.10000004687E+02 0.  0.
        -12    1    1    2    0    0 -0.35636352814E+02  0.27150160731E+02 -0.46938867068E+01  0.45045681725E+02  0.00000000000E+00 0.  1.
         11    1    3    3    0    0  0.65161405988E+01 -0.22076678757E+01  0.33956954621E+01  0.76723290912E+01  0.51100000000E-03 0. -1.
        -11    1    3    3    0    0  0.15395351648E+02 -0.11615767751E+02 -0.13075315296E+00  0.19286264788E+02  0.51100000000E-03 0.  1.
         12    1    3    3    0    0  0.13724860568E+02 -0.13326725105E+02  0.14289443976E+01  0.19183724396E+02  0.00000000000E+00 0. -1.
</event>
<event>
 7    1  0.3435408E-009  0.4614232E+02  0.7816164E-02  0.1320468E+00
        -11   -1    0    0    0    0  0.00000000000E+00  0.00000000000E+00  0.45593999997E+02  0.45594000000E+02  0.51100000000E-03 0.  1.
         11   -1    0    0    0    0 -0.00000000000E+00 -0.00000000000E+00 -0.45593999997E+02  0.45594000000E+02  0.51100000000E-03 0. -1.
    9900012    2    1    2    0    0 -0.49272252262E+01 -0.42109383894E+02  0.15219584569E+02  0.46142317467E+02  0.99999973215E+01 0.  0.
        -12    1    1    2    0    0  0.49272252262E+01  0.42109383894E+02 -0.15219584569E+02  0.45045682533E+02  0.00000000000E+00 0.  1.
         11    1    3    3    0    0 -0.12962776117E+01 -0.50787679304E+01  0.41562322805E+00  0.52580378723E+01  0.51100000000E-03 0. -1.
        -11    1    3    3    0    0 -0.43481935180E+01 -0.36480422546E+02  0.15362936635E+02  0.39821449476E+02  0.51100000000E-03 0.  1.
        -12    1    3    3    0    0  0.71724590359E+00 -0.55019341763E+00 -0.55897529447E+00  0.10628301195E+01  0.00000000000E+00 0.  1.
</event>
<event>
 7    1  0.3435408E-009  0.4614232E+02  0.7816164E-02  0.1320468E+00
        -11   -1    0    0    0    0  0.00000000000E+00  0.00000000000E+00  0.45593999997E+02  0.45594000000E+02  0.51100000000E-03 0. -1.
         11   -1    0    0    0    0 -0.00000000000E+00 -0.00000000000E+00 -0.45593999997E+02  0.45594000000E+02  0.51100000000E-03 0.  1.
    9900012    2    1    2    0    0 -0.16688814643E+00  0.11907822731E+02  0.43442944174E+02  0.46142317717E+02  0.99999996003E+01 0.  0.
        -12    1    1    2    0    0  0.16688814643E+00 -0.11907822731E+02 -0.43442944174E+02  0.45045682283E+02  0.00000000000E+00 0.  1.
         11    1    3    3    0    0 -0.39570561819E+00  0.79043049467E+01  0.37856783929E+02  0.38675195014E+02  0.51100000000E-03 0. -1.
        -11    1    3    3    0    0 -0.13433111989E+01  0.18062369112E+01  0.24259748995E+01  0.33094306505E+01  0.51100000000E-03 0.  1.
         12    1    3    3    0    0  0.15721286707E+01  0.21972808734E+01  0.31601853446E+01  0.41576920528E+01  0.00000000000E+00 0. -1.
</event>
<event>
 7    1  0.3435408E-009  0.4614232E+02  0.7816164E-02  0.1320468E+00
        -11   -1    0    0    0    0  0.00000000000E+00  0.00000000000E+00  0.45593999997E+02  0.45594000000E+02  0.51100000000E-03 0.  1.
         11   -1    0    0    0    0 -0.00000000000E+00 -0.00000000000E+00 -0.45593999997E+02  0.45594000000E+02  0.51100000000E-03 0. -1.
    9900012    2    1    2    0    0 -0.11000386438E+02 -0.20292532395E+02 -0.38682271906E+02  0.46142317270E+02  0.99999955230E+01 0.  0.
        -12    1    1    2    0    0  0.11000386438E+02  0.20292532395E+02  0.38682271906E+02  0.45045682730E+02  0.00000000000E+00 0.  1.
         11    1    3    3    0    0  0.87475354328E+00 -0.28719670911E+01 -0.70157383651E+01  0.76311187779E+01  0.51100000000E-03 0. -1.
        -11    1    3    3    0    0 -0.11610796204E+01 -0.64969804589E+01 -0.10226674958E+02  0.12171431383E+02  0.51100000000E-03 0.  1.
         12    1    3    3    0    0 -0.10714060361E+02 -0.10923584845E+02 -0.21439858583E+02  0.26339767109E+02  0.00000000000E+00 0. -1.
</event>
<event>
 7    1  0.3435408E-009  0.4614232E+02  0.7816164E-02  0.1320468E+00
        -11   -1    0    0    0    0  0.00000000000E+00  0.00000000000E+00  0.45593999997E+02  0.45594000000E+02  0.51100000000E-03 0.  1.
         11   -1    0    0    0    0 -0.00000000000E+00 -0.00000000000E+00 -0.45593999997E+02  0.45594000000E+02  0.51100000000E-03 0. -1.
    9900012    2    1    2    0    0  0.22360851715E+02 -0.38707912718E+02  0.55500644202E+01  0.46142318614E+02  0.10000007779E+02 0.  0.
        -12    1    1    2    0    0 -0.22360851715E+02  0.38707912718E+02 -0.55500644202E+01  0.45045681386E+02  0.00000000000E+00 0.  1.
         11    1    3    3    0    0  0.11468282137E+02 -0.14508871653E+02  0.25174793636E+01  0.18664580210E+02  0.51100000000E-03 0. -1.
        -11    1    3    3    0    0  0.12060967660E+01 -0.22332987269E+01 -0.16381403991E+01  0.30208933845E+01  0.51100000000E-03 0.  1.
         12    1    3    3    0    0  0.96864728123E+01 -0.21965742339E+02  0.46707254556E+01  0.24456845020E+02  0.00000000000E+00 0. -1.
</event>
<event>
 7    1  0.3435408E-009  0.4614232E+02  0.7816164E-02  0.1320468E+00
        -11   -1    0    0    0    0  0.00000000000E+00  0.00000000000E+00  0.45593999997E+02  0.45594000000E+02  0.51100000000E-03 0.  1.
         11   -1    0    0    0    0 -0.00000000000E+00 -0.00000000000E+00 -0.45593999997E+02  0.45594000000E+02  0.51100000000E-03 0. -1.
    9900012    2    1    2    0    0 -0.36340451722E+01 -0.29929248314E+02 -0.33468598953E+02  0.46142319799E+02  0.10000018579E+02 0.  0.
        -12    1    1    2    0    0  0.36340451722E+01  0.29929248314E+02  0.33468598953E+02  0.45045680201E+02  0.00000000000E+00 0.  1.
         11    1    3    3    0    0 -0.22436954152E+01 -0.22433689427E+02 -0.22310611153E+02  0.31718574380E+02  0.51100000000E-03 0. -1.
        -11    1    3    3    0    0  0.16653115909E+01 -0.11536859867E+01 -0.33130797526E+01  0.38833943604E+01  0.51100000000E-03 0.  1.
        -12    1    3    3    0    0 -0.30556613478E+01 -0.63418729003E+01 -0.78449080474E+01  0.10540351058E+02  0.00000000000E+00 0.  1.
</event>
<event>
 7    1  0.3435408E-009  0.4614232E+02  0.7816164E-02  0.1320468E+00
        -11   -1    0    0    0    0  0.00000000000E+00  0.00000000000E+00  0.45593999997E+02  0.45594000000E+02  0.51100000000E-03 0.  1.
         11   -1    0    0    0    0 -0.00000000000E+00 -0.00000000000E+00 -0.45593999997E+02  0.45594000000E+02  0.51100000000E-03 0. -1.
    9900012    2    1    2    0    0  0.17652752466E+02 -0.16685990787E+00 -0.41442321556E+02  0.46142317323E+02  0.99999960086E+01 0.  0.
        -12    1    1    2    0    0 -0.17652752466E+02  0.16685990787E+00  0.41442321556E+02  0.45045682677E+02  0.00000000000E+00 0.  1.
         11    1    3    3    0    0  0.16652396462E+02  0.15409361234E+01 -0.37814830081E+02  0.41347770997E+02  0.51100000000E-03 0. -1.
        -11    1    3    3    0    0  0.69224553834E+00 -0.55824089242E+00  0.87491737926E-01  0.89358370881E+00  0.51100000000E-03 0.  1.
         12    1    3    3    0    0  0.30811046589E+00 -0.11495551389E+01 -0.37149832126E+01  0.39009626179E+01  0.00000000000E+00 0. -1.
</event>
<event>
 7    1  0.3435408E-009  0.4614231E+02  0.7816164E-02  0.1320468E+00
        -11   -1    0    0    0    0  0.00000000000E+00  0.00000000000E+00  0.45593999997E+02  0.45594000000E+02  0.51100000000E-03 0.  1.
         11   -1    0    0    0    0 -0.00000000000E+00 -0.00000000000E+00 -0.45593999997E+02  0.45594000000E+02  0.51100000000E-03 0. -1.
    9900012    2    1    2    0    0  0.86957424823E+01  0.80053235333E+01 -0.43467381746E+02  0.46142307442E+02  0.99999058991E+01 0.  0.
        -12    1    1    2    0    0 -0.86957424823E+01 -0.80053235333E+01  0.43467381746E+02  0.45045692558E+02  0.00000000000E+00 0.  1.
         11    1    3    3    0    0 -0.14209746047E+00  0.41660859458E+01 -0.16389683830E+02  0.16911481310E+02  0.51100000000E-03 0. -1.
        -11    1    3    3    0    0 -0.69814229848E+00  0.56611756775E+00 -0.16833628275E+01  0.19082983099E+01  0.51100000000E-03 0.  1.
         12    1    3    3    0    0  0.95359822413E+01  0.32731200198E+01 -0.25394335089E+02  0.27322527822E+02  0.00000000000E+00 0. -1.
</event>
<event>
 7    1  0.3435408E-009  0.4614232E+02  0.7816164E-02  0.1320468E+00
        -11   -1    0    0    0    0  0.00000000000E+00  0.00000000000E+00  0.45593999997E+02  0.45594000000E+02  0.51100000000E-03 0.  1.
         11   -1    0    0    0    0 -0.00000000000E+00 -0.00000000000E+00 -0.45593999997E+02  0.45594000000E+02  0.51100000000E-03 0. -1.
    9900012    2    1    2    0    0  0.25117074165E+02  0.26085392390E+01 -0.37302034303E+02  0.46142315915E+02  0.99999831647E+01 0.  0.
        -12    1    1    2    0    0 -0.25117074165E+02 -0.26085392390E+01  0.37302034303E+02  0.45045684085E+02  0.00000000000E+00 0.  1.
         11    1    3    3    0    0  0.43830551256E+01 -0.25717191955E+01 -0.71624347357E+01  0.87821058670E+01  0.51100000000E-03 0. -1.
        -11    1    3    3    0    0  0.73438671325E+01  0.34204249351E+01 -0.77412130986E+01  0.11205269818E+02  0.51100000000E-03 0.  1.
         12    1    3    3    0    0  0.13390151906E+02  0.17598334994E+01 -0.22398386469E+02  0.26154940230E+02  0.00000000000E+00 0. -1.
</event>
<event>
 7    1  0.3435408E-009  0.4614232E+02  0.7816164E-02  0.1320468E+00
        -11   -1    0    0    0    0  0.00000000000E+00  0.00000000000E+00  0.45593999997E+02  0.45594000000E+02  0.51100000000E-03 0. -1.
         11   -1    0    0    0    0 -0.00000000000E+00 -0.00000000000E+00 -0.45593999997E+02  0.45594000000E+02  0.51100000000E-03 0.  1.
    9900012    2    1    2    0    0 -0.72308336050E+01 -0.23357190431E+02  0.37832131459E+02  0.46142317963E+02  0.10000001843E+02 0.  0.
        -12    1    1    2    0    0  0.72308336050E+01  0.23357190431E+02 -0.37832131459E+02  0.45045682037E+02  0.00000000000E+00 0.  1.
         11    1    3    3    0    0 -0.25289587287E+01 -0.56156205969E+01  0.13939458146E+02  0.15239400271E+02  0.51100000000E-03 0. -1.
        -11    1    3    3    0    0 -0.23578922103E+01 -0.11804210677E+01  0.17994972171E+01  0.31923721694E+01  0.51100000000E-03 0.  1.
        -12    1    3    3    0    0 -0.23439826659E+01 -0.16561148766E+02  0.22093176095E+02  0.27710545523E+02  0.00000000000E+00 0.  1.
</event>
<event>
 7    1  0.3435408E-009  0.4614233E+02  0.7816164E-02  0.1320468E+00
        -11   -1    0    0    0    0  0.00000000000E+00  0.00000000000E+00  0.45593999997E+02  0.45594000000E+02  0.51100000000E-03 0. -1.
         11   -1    0    0    0    0 -0.00000000000E+00 -0.00000000000E+00 -0.45593999997E+02  0.45594000000E+02  0.51100000000E-03 0.  1.
    9900012    2    1    2    0    0 -0.55866360390E+01 -0.38012349768E+02  0.23515174860E+02  0.46142326670E+02  0.10000081234E+02 0.  0.
        -12    1    1    2    0    0  0.55866360390E+01  0.38012349768E+02 -0.23515174860E+02  0.45045673330E+02  0.00000000000E+00 0.  1.
         11    1    3    3    0    0 -0.19238532108E+01 -0.39165917175E+01  0.39955914017E+01  0.59165575100E+01  0.51100000000E-03 0. -1.
        -11    1    3    3    0    0 -0.83797500830E-01 -0.34078571102E+00  0.19933135410E+01  0.20239703693E+01  0.51100000000E-03 0.  1.
        -12    1    3    3    0    0 -0.35789853273E+01 -0.33754972339E+02  0.17526269918E+02  0.38201798790E+02  0.00000000000E+00 0.  1.
</event>
<event>
 7    1  0.3435408E-009  0.4614232E+02  0.7816164E-02  0.1320468E+00
        -11   -1    0    0    0    0  0.00000000000E+00  0.00000000000E+00  0.45593999997E+02  0.45594000000E+02  0.51100000000E-03 0.  1.
         11   -1    0    0    0    0 -0.00000000000E+00 -0.00000000000E+00 -0.45593999997E+02  0.45594000000E+02  0.51100000000E-03 0. -1.
    9900012    2    1    2    0    0 -0.23409711997E+02  0.23870729863E+02 -0.30187530188E+02  0.46142319421E+02  0.10000015138E+02 0.  0.
        -12    1    1    2    0    0  0.23409711997E+02 -0.23870729863E+02  0.30187530188E+02  0.45045680579E+02  0.00000000000E+00 0.  1.
         11    1    3    3    0    0 -0.61972231990E+01  0.60536615797E+01 -0.60852620757E+01  0.10586916864E+02  0.51100000000E-03 0. -1.
        -11    1    3    3    0    0 -0.83822850729E+01  0.47039091964E+01 -0.13293642678E+02  0.16404584745E+02  0.51100000000E-03 0.  1.
        -12    1    3    3    0    0 -0.88302037247E+01  0.13113159087E+02 -0.10808625435E+02  0.19150817811E+02  0.00000000000E+00 0.  1.
</event>
<event>
 7    1  0.3435408E-009  0.4614231E+02  0.7816164E-02  0.1320468E+00
        -11   -1    0    0    0    0  0.00000000000E+00  0.00000000000E+00  0.45593999997E+02  0.45594000000E+02  0.51100000000E-03 0.  1.
         11   -1    0    0    0    0 -0.00000000000E+00 -0.00000000000E+00 -0.45593999997E+02  0.45594000000E+02  0.51100000000E-03 0. -1.
    9900012    2    1    2    0    0 -0.30075365873E+02 -0.59753226232E+01 -0.32998207828E+02  0.46142313939E+02  0.99999651487E+01 0.  0.
        -12    1    1    2    0    0  0.30075365873E+02  0.59753226232E+01  0.32998207828E+02  0.45045686061E+02  0.00000000000E+00 0.  1.
         11    1    3    3    0    0 -0.18640719771E+01 -0.15138753667E+01 -0.65394622771E+01  0.69664302262E+01  0.51100000000E-03 0. -1.
        -11    1    3    3    0    0 -0.46212003707E+01 -0.67464494838E+00 -0.67269783876E+01  0.81891927051E+01  0.51100000000E-03 0.  1.
         12    1    3    3    0    0 -0.23590093525E+02 -0.37868023081E+01 -0.19731767163E+02  0.30986691008E+02  0.00000000000E+00 0. -1.
</event>
<event>
 7    1  0.3435408E-009  0.4614232E+02  0.7816164E-02  0.1320468E+00
        -11   -1    0    0    0    0  0.00000000000E+00  0.00000000000E+00  0.45593999997E+02  0.45594000000E+02  0.51100000000E-03 0.  1.
         11   -1    0    0    0    0 -0.00000000000E+00 -0.00000000000E+00 -0.45593999997E+02  0.45594000000E+02  0.51100000000E-03 0. -1.
    9900012    2    1    2    0    0  0.36124953758E+02  0.69470428212E+01 -0.25996919620E+02  0.46142317435E+02  0.99999970295E+01 0.  0.
        -12    1    1    2    0    0 -0.36124953758E+02 -0.69470428212E+01  0.25996919620E+02  0.45045682565E+02  0.00000000000E+00 0.  1.
         11    1    3    3    0    0  0.18462836722E+01  0.64247733289E+00 -0.18620444152E+01  0.26997685432E+01  0.51100000000E-03 0.  1.
        -11    1    3    3    0    0  0.27411287715E+02  0.42991753175E+01 -0.23314932355E+02  0.36241518643E+02  0.51100000000E-03 0. -1.
        -12    1    3    3    0    0  0.68673823712E+01  0.20053901707E+01 -0.81994284985E+00  0.72010302489E+01  0.00000000000E+00 0.  1.
</event>
<event>
 7    1  0.3435408E-009  0.4614232E+02  0.7816164E-02  0.1320468E+00
        -11   -1    0    0    0    0  0.00000000000E+00  0.00000000000E+00  0.45593999997E+02  0.45594000000E+02  0.51100000000E-03 0.  1.
         11   -1    0    0    0    0 -0.00000000000E+00 -0.00000000000E+00 -0.45593999997E+02  0.45594000000E+02  0.51100000000E-03 0. -1.
    9900012    2    1    2    0    0  0.44067038717E+02  0.40525637950E+01 -0.84134728224E+01  0.46142315417E+02  0.99999786266E+01 0.  0.
        -12    1    1    2    0    0 -0.44067038717E+02 -0.40525637950E+01  0.84134728224E+01  0.45045684583E+02  0.00000000000E+00 0.  1.
         11    1    3    3    0    0  0.10640950087E+02 -0.19866939220E+01 -0.38901044650E+01  0.11502594685E+02  0.51100000000E-03 0. -1.
        -11    1    3    3    0    0  0.95270036528E+01 -0.56244089752E+00 -0.15325715172E+01  0.96658633386E+01  0.51100000000E-03 0.  1.
         12    1    3    3    0    0  0.23899084977E+02  0.66016986145E+01 -0.29907968402E+01  0.24973857393E+02  0.00000000000E+00 0. -1.
</event>
<event>
 7    1  0.3435408E-009  0.4614232E+02  0.7816164E-02  0.1320468E+00
        -11   -1    0    0    0    0  0.00000000000E+00  0.00000000000E+00  0.45593999997E+02  0.45594000000E+02  0.51100000000E-03 0. -1.
         11   -1    0    0    0    0 -0.00000000000E+00 -0.00000000000E+00 -0.45593999997E+02  0.45594000000E+02  0.51100000000E-03 0.  1.
    9900012    2    1    2    0    0 -0.35351874689E+02  0.26554713328E+02  0.86142731688E+01  0.46142317120E+02  0.99999941506E+01 0.  0.
        -12    1    1    2    0    0  0.35351874689E+02 -0.26554713328E+02 -0.86142731688E+01  0.45045682880E+02  0.00000000000E+00 0.  1.
         11    1    3    3    0    0 -0.18558919472E+02  0.12687329815E+02  0.23709478889E+01  0.22605822789E+02  0.51100000000E-03 0. -1.
        -11    1    3    3    0    0 -0.10244337873E+02  0.12166666235E+02  0.48551802932E+01  0.16629702393E+02  0.51100000000E-03 0.  1.
        -12    1    3    3    0    0 -0.65486173437E+01  0.17007172778E+01  0.13881449866E+01  0.69067919381E+01  0.00000000000E+00 0.  1.
</event>
<event>
 7    1  0.3435408E-009  0.4614232E+02  0.7816164E-02  0.1320468E+00
        -11   -1    0    0    0    0  0.00000000000E+00  0.00000000000E+00  0.45593999997E+02  0.45594000000E+02  0.51100000000E-03 0.  1.
         11   -1    0    0    0    0 -0.00000000000E+00 -0.00000000000E+00 -0.45593999997E+02  0.45594000000E+02  0.51100000000E-03 0. -1.
    9900012    2    1    2    0    0  0.62527142627E+01  0.21699082863E+02 -0.38976490048E+02  0.46142318640E+02  0.10000008015E+02 0.  0.
        -12    1    1    2    0    0 -0.62527142627E+01 -0.21699082863E+02  0.38976490048E+02  0.45045681360E+02  0.00000000000E+00 0.  1.
         11    1    3    3    0    0  0.63700728707E+01  0.14657605344E+02 -0.28445200694E+02  0.32627483286E+02  0.51100000000E-03 0. -1.
        -11    1    3    3    0    0  0.21483629313E+01  0.31622871600E+01 -0.61386363253E+01  0.72317618574E+01  0.51100000000E-03 0.  1.
         12    1    3    3    0    0 -0.22657215393E+01  0.38791903594E+01 -0.43926530277E+01  0.62830734963E+01  0.00000000000E+00 0. -1.
</event>
<event>
 7    1  0.3435408E-009  0.4614232E+02  0.7816164E-02  0.1320468E+00
        -11   -1    0    0    0    0  0.00000000000E+00  0.00000000000E+00  0.45593999997E+02  0.45594000000E+02  0.51100000000E-03 0.  1.
         11   -1    0    0    0    0 -0.00000000000E+00 -0.00000000000E+00 -0.45593999997E+02  0.45594000000E+02  0.51100000000E-03 0. -1.
    9900012    2    1    2    0    0  0.34088995092E+01  0.73070878947E+01 -0.44318160619E+02  0.46142317743E+02  0.99999998373E+01 0.  0.
        -12    1    1    2    0    0 -0.34088995092E+01 -0.73070878947E+01  0.44318160619E+02  0.45045682257E+02  0.00000000000E+00 0.  1.
         11    1    3    3    0    0 -0.23188166834E+01  0.28706558958E+01 -0.24864433998E+02  0.25136778918E+02  0.51100000000E-03 0. -1.
        -11    1    3    3    0    0  0.24274424237E+00 -0.47998414923E+00 -0.17442156405E+01  0.18252665593E+01  0.51100000000E-03 0.  1.
         12    1    3    3    0    0  0.54849719502E+01  0.49164161481E+01 -0.17709510980E+02  0.19180272266E+02  0.00000000000E+00 0. -1.
</event>
<event>
 7    1  0.3435408E-009  0.4614232E+02  0.7816164E-02  0.1320468E+00
        -11   -1    0    0    0    0  0.00000000000E+00  0.00000000000E+00  0.45593999997E+02  0.45594000000E+02  0.51100000000E-03 0. -1.
         11   -1    0    0    0    0 -0.00000000000E+00 -0.00000000000E+00 -0.45593999997E+02  0.45594000000E+02  0.51100000000E-03 0.  1.
    9900012    2    1    2    0    0 -0.29036253239E+02 -0.66842357727E+01  0.33783582412E+02  0.46142318180E+02  0.10000003819E+02 0.  0.
        -12    1    1    2    0    0  0.29036253239E+02  0.66842357727E+01 -0.33783582412E+02  0.45045681820E+02  0.00000000000E+00 0.  1.
         11    1    3    3    0    0 -0.17860247421E+02 -0.75195280132E+01  0.19975031830E+02  0.27830444415E+02  0.51100000000E-03 0. -1.
        -11    1    3    3    0    0 -0.19723350799E+01 -0.17160405294E+00  0.55956575728E+01  0.59355654787E+01  0.51100000000E-03 0.  1.
         12    1    3    3    0    0 -0.92036707387E+01  0.10068962934E+01  0.82128930094E+01  0.12376308286E+02  0.00000000000E+00 0. -1.
</event>
<event>
 7    1  0.3435408E-009  0.4614231E+02  0.7816164E-02  0.1320468E+00
        -11   -1    0    0    0    0  0.00000000000E+00  0.00000000000E+00  0.45593999997E+02  0.45594000000E+02  0.51100000000E-03 0.  1.
         11   -1    0    0    0    0 -0.00000000000E+00 -0.00000000000E+00 -0.45593999997E+02  0.45594000000E+02  0.51100000000E-03 0. -1.
    9900012    2    1    2    0    0 -0.23065465712E+02  0.19242671338E+02 -0.33568106025E+02  0.46142313738E+02  0.99999633131E+01 0.  0.
        -12    1    1    2    0    0  0.23065465712E+02 -0.19242671338E+02  0.33568106025E+02  0.45045686262E+02  0.00000000000E+00 0.  1.
         11    1    3    3    0    0 -0.52251855031E+01  0.18382972560E+01 -0.99498900290E+01  0.11387809807E+02  0.51100000000E-03 0. -1.
        -11    1    3    3    0    0 -0.23171381536E+01  0.34446219659E+00 -0.14024901611E+01  0.27303410668E+01  0.51100000000E-03 0.  1.
         12    1    3    3    0    0 -0.15523142055E+02  0.17059911885E+02 -0.22215725835E+02  0.32024162864E+02  0.00000000000E+00 0. -1.
</event>
<event>
 7    1  0.3435408E-009  0.4614232E+02  0.7816164E-02  0.1320468E+00
        -11   -1    0    0    0    0  0.00000000000E+00  0.00000000000E+00  0.45593999997E+02  0.45594000000E+02  0.51100000000E-03 0.  1.
         11   -1    0    0    0    0 -0.00000000000E+00 -0.00000000000E+00 -0.45593999997E+02  0.45594000000E+02  0.51100000000E-03 0. -1.
    9900012    2    1    2    0    0 -0.23809384131E+02  0.27464782902E+02 -0.26606623667E+02  0.46142317682E+02  0.99999992744E+01 0.  0.
        -12    1    1    2    0    0  0.23809384131E+02 -0.27464782902E+02  0.26606623667E+02  0.45045682318E+02  0.00000000000E+00 0.  1.
         11    1    3    3    0    0 -0.84042798157E+01  0.94971418440E+01 -0.84723212860E+01  0.15251486834E+02  0.51100000000E-03 0. -1.
        -11    1    3    3    0    0 -0.14783822345E+02  0.16719291874E+02 -0.13573347445E+02  0.26121483208E+02  0.51100000000E-03 0.  1.
        -12    1    3    3    0    0 -0.62128197101E+00  0.12483491845E+01 -0.45609549356E+01  0.47693476387E+01  0.00000000000E+00 0.  1.
</event>
<event>
 7    1  0.3435408E-009  0.4614232E+02  0.7816164E-02  0.1320468E+00
        -11   -1    0    0    0    0  0.00000000000E+00  0.00000000000E+00  0.45593999997E+02  0.45594000000E+02  0.51100000000E-03 0.  1.
         11   -1    0    0    0    0 -0.00000000000E+00 -0.00000000000E+00 -0.45593999997E+02  0.45594000000E+02  0.51100000000E-03 0. -1.
    9900012    2    1    2    0    0 -0.11795480757E+02 -0.40721539704E+02 -0.15222878533E+02  0.46142321040E+02  0.10000029898E+02 0.  0.
        -12    1    1    2    0    0  0.11795480757E+02  0.40721539704E+02  0.15222878533E+02  0.45045678960E+02  0.00000000000E+00 0.  1.
         11    1    3    3    0    0 -0.31099598513E+01 -0.13985899385E+02 -0.36351707034E+01  0.14781464683E+02  0.51100000000E-03 0. -1.
        -11    1    3    3    0    0 -0.59308533108E+01 -0.13519447022E+02 -0.22205935328E+01  0.14929216479E+02  0.51100000000E-03 0.  1.
         12    1    3    3    0    0 -0.27546675952E+01 -0.13216193298E+02 -0.93671142965E+01  0.16431639878E+02  0.00000000000E+00 0. -1.
</event>
<event>
 7    1  0.3435408E-009  0.4614232E+02  0.7816164E-02  0.1320468E+00
        -11   -1    0    0    0    0  0.00000000000E+00  0.00000000000E+00  0.45593999997E+02  0.45594000000E+02  0.51100000000E-03 0.  1.
         11   -1    0    0    0    0 -0.00000000000E+00 -0.00000000000E+00 -0.45593999997E+02  0.45594000000E+02  0.51100000000E-03 0. -1.
    9900012    2    1    2    0    0 -0.21367386294E+02  0.68721962966E+01 -0.39055361455E+02  0.46142317218E+02  0.99999950467E+01 0.  0.
        -12    1    1    2    0    0  0.21367386294E+02 -0.68721962966E+01  0.39055361455E+02  0.45045682782E+02  0.00000000000E+00 0.  1.
         11    1    3    3    0    0 -0.24150223357E+01 -0.86882231627E+00 -0.45680459649E+01  0.52396783582E+01  0.51100000000E-03 0. -1.
        -11    1    3    3    0    0 -0.17843943688E+02  0.44460213220E+01 -0.27262148261E+02  0.32884618897E+02  0.51100000000E-03 0.  1.
        -12    1    3    3    0    0 -0.11084202702E+01  0.32949972908E+01 -0.72251672290E+01  0.80180199631E+01  0.00000000000E+00 0.  1.
</event>
<event>
 7    1  0.3435408E-009  0.4614232E+02  0.7816164E-02  0.1320468E+00
        -11   -1    0    0    0    0  0.00000000000E+00  0.00000000000E+00  0.45593999997E+02  0.45594000000E+02  0.51100000000E-03 0. -1.
         11   -1    0    0    0    0 -0.00000000000E+00 -0.00000000000E+00 -0.45593999997E+02  0.45594000000E+02  0.51100000000E-03 0.  1.
    9900012    2    1    2    0    0 -0.47017166726E+01 -0.39236214687E+02  0.21622367614E+02  0.46142318033E+02  0.10000002478E+02 0.  0.
        -12    1    1    2    0    0  0.47017166726E+01  0.39236214687E+02 -0.21622367614E+02  0.45045681967E+02  0.00000000000E+00 0.  1.
         11    1    3    3    0    0 -0.19827602757E+01 -0.21785660806E+02  0.16869016971E+02  0.27624447305E+02  0.51100000000E-03 0. -1.
        -11    1    3    3    0    0 -0.45099011442E+00 -0.28548441135E+01 -0.30170686364E+00  0.29059515289E+01  0.51100000000E-03 0.  1.
         12    1    3    3    0    0 -0.22679662825E+01 -0.14595709768E+02  0.50550575061E+01  0.15611919199E+02  0.00000000000E+00 0. -1.
</event>
<event>
 7    1  0.3435408E-009  0.4614232E+02  0.7816164E-02  0.1320468E+00
        -11   -1    0    0    0    0  0.00000000000E+00  0.00000000000E+00  0.45593999997E+02  0.45594000000E+02  0.51100000000E-03 0. -1.
         11   -1    0    0    0    0 -0.00000000000E+00 -0.00000000000E+00 -0.45593999997E+02  0.45594000000E+02  0.51100000000E-03 0.  1.
    9900012    2    1    2    0    0  0.23749325347E+01 -0.42444570005E+02  0.14897370928E+02  0.46142317765E+02  0.10000000035E+02 0.  0.
        -12    1    1    2    0    0 -0.23749325347E+01  0.42444570005E+02 -0.14897370928E+02  0.45045682235E+02  0.00000000000E+00 0.  1.
         11    1    3    3    0    0  0.32048251561E+01 -0.31337893092E+02  0.11523136192E+02  0.33542765475E+02  0.51100000000E-03 0. -1.
        -11    1    3    3    0    0  0.19685853542E+01 -0.59798339408E+01  0.16126144261E+01  0.64987897185E+01  0.51100000000E-03 0.  1.
        -12    1    3    3    0    0 -0.27984779755E+01 -0.51268429718E+01  0.17616203104E+01  0.61007625716E+01  0.00000000000E+00 0.  1.
</event>
<event>
 7    1  0.3435408E-009  0.4614232E+02  0.7816164E-02  0.1320468E+00
        -11   -1    0    0    0    0  0.00000000000E+00  0.00000000000E+00  0.45593999997E+02  0.45594000000E+02  0.51100000000E-03 0. -1.
         11   -1    0    0    0    0 -0.00000000000E+00 -0.00000000000E+00 -0.45593999997E+02  0.45594000000E+02  0.51100000000E-03 0.  1.
    9900012    2    1    2    0    0  0.15220155503E+02 -0.62294174393E+00  0.42391889896E+02  0.46142317422E+02  0.99999969090E+01 0.  0.
        -12    1    1    2    0    0 -0.15220155503E+02  0.62294174393E+00 -0.42391889896E+02  0.45045682578E+02  0.00000000000E+00 0.  1.
         11    1    3    3    0    0  0.26385949304E+01 -0.21827870584E+01  0.91008484649E+01  0.97237948144E+01  0.51100000000E-03 0. -1.
        -11    1    3    3    0    0  0.11939468985E+02 -0.23753646232E+00  0.22626003532E+02  0.25584045405E+02  0.51100000000E-03 0.  1.
        -12    1    3    3    0    0  0.64209158736E+00  0.17973817768E+01  0.10665037899E+02  0.10834477203E+02  0.00000000000E+00 0.  1.
</event>
<event>
 7    1  0.3435408E-009  0.4614232E+02  0.7816164E-02  0.1320468E+00
        -11   -1    0    0    0    0  0.00000000000E+00  0.00000000000E+00  0.45593999997E+02  0.45594000000E+02  0.51100000000E-03 0.  1.
         11   -1    0    0    0    0 -0.00000000000E+00 -0.00000000000E+00 -0.45593999997E+02  0.45594000000E+02  0.51100000000E-03 0. -1.
    9900012    2    1    2    0    0  0.27312060155E+02  0.90840876333E+01 -0.34650311550E+02  0.46142319091E+02  0.10000012132E+02 0.  0.
        -12    1    1    2    0    0 -0.27312060155E+02 -0.90840876333E+01  0.34650311550E+02  0.45045680909E+02  0.00000000000E+00 0.  1.
         11    1    3    3    0    0  0.75596301141E+01  0.22161963629E+01 -0.11714860717E+02  0.14117276496E+02  0.51100000000E-03 0. -1.
        -11    1    3    3    0    0  0.65253421736E+01  0.44073060533E+00 -0.28566945874E+01  0.71368787419E+01  0.51100000000E-03 0.  1.
        -12    1    3    3    0    0  0.13227087867E+02  0.64271606651E+01 -0.20078756245E+02  0.24888163854E+02  0.00000000000E+00 0.  1.
</event>
<event>
 7    1  0.3435408E-009  0.4614232E+02  0.7816164E-02  0.1320468E+00
        -11   -1    0    0    0    0  0.00000000000E+00  0.00000000000E+00  0.45593999997E+02  0.45594000000E+02  0.51100000000E-03 0.  1.
         11   -1    0    0    0    0 -0.00000000000E+00 -0.00000000000E+00 -0.45593999997E+02  0.45594000000E+02  0.51100000000E-03 0. -1.
    9900012    2    1    2    0    0  0.46192445608E+00  0.33289486501E+01 -0.44920130941E+02  0.46142318330E+02  0.10000005191E+02 0.  0.
        -12    1    1    2    0    0 -0.46192445608E+00 -0.33289486501E+01  0.44920130941E+02  0.45045681670E+02  0.00000000000E+00 0.  1.
         11    1    3    3    0    0  0.23794700389E+01  0.47133298124E+01 -0.14453526956E+02  0.15387715792E+02  0.51100000000E-03 0. -1.
        -11    1    3    3    0    0 -0.11984930016E+01  0.11422156612E+00 -0.25269486948E+02  0.25298150188E+02  0.51100000000E-03 0.  1.
         12    1    3    3    0    0 -0.71905258128E+00 -0.14986027284E+01 -0.51971170372E+01  0.54564523503E+01  0.00000000000E+00 0. -1.
</event>
<event>
 7    1  0.3538041E-009  0.4614232E+02  0.7816164E-02  0.1320468E+00
        -11   -1    0    0    0    0  0.00000000000E+00  0.00000000000E+00  0.45593999997E+02  0.45594000000E+02  0.51100000000E-03 0. -1.
         11   -1    0    0    0    0 -0.00000000000E+00 -0.00000000000E+00 -0.45593999997E+02  0.45594000000E+02  0.51100000000E-03 0.  1.
    9900012    2    1    2    0    0  0.22084926909E+01  0.24007317014E+02  0.38051082269E+02  0.46142316833E+02  0.99999915378E+01 0.  0.
        -12    1    1    2    0    0 -0.22084926909E+01 -0.24007317014E+02 -0.38051082269E+02  0.45045683167E+02  0.00000000000E+00 0.  1.
         11    1    3    3    0    0  0.24538406556E+01  0.97012070633E+01  0.18505680640E+02  0.21037941169E+02  0.51100000000E-03 0. -1.
        -11    1    3    3    0    0 -0.13682736023E+01  0.14467019121E+02  0.17336823099E+02  0.22621499737E+02  0.51100000000E-03 0.  1.
        -12    1    3    3    0    0  0.11229256376E+01 -0.16090917035E+00  0.22085785295E+01  0.24828759271E+01  0.00000000000E+00 0.  1.
</event>
<event>
 7    1  0.3435408E-009  0.4614232E+02  0.7816164E-02  0.1320468E+00
        -11   -1    0    0    0    0  0.00000000000E+00  0.00000000000E+00  0.45593999997E+02  0.45594000000E+02  0.51100000000E-03 0.  1.
         11   -1    0    0    0    0 -0.00000000000E+00 -0.00000000000E+00 -0.45593999997E+02  0.45594000000E+02  0.51100000000E-03 0. -1.
    9900012    2    1    2    0    0  0.22591746469E+02 -0.32914930169E+02 -0.20864647021E+02  0.46142321719E+02  0.10000036087E+02 0.  0.
        -12    1    1    2    0    0 -0.22591746469E+02  0.32914930169E+02  0.20864647021E+02  0.45045678281E+02  0.00000000000E+00 0.  1.
         11    1    3    3    0    0  0.83268562583E+01 -0.15124193836E+02 -0.52292112400E+01  0.18039468528E+02  0.51100000000E-03 0. -1.
        -11    1    3    3    0    0  0.31138057026E+01 -0.12822072021E+01 -0.30148529648E+01  0.45198650338E+01  0.51100000000E-03 0.  1.
         12    1    3    3    0    0  0.11151084508E+02 -0.16508529131E+02 -0.12620582816E+02  0.23582988156E+02  0.00000000000E+00 0. -1.
</event>
<event>
 7    1  0.3435408E-009  0.4614232E+02  0.7816164E-02  0.1320468E+00
        -11   -1    0    0    0    0  0.00000000000E+00  0.00000000000E+00  0.45593999997E+02  0.45594000000E+02  0.51100000000E-03 0. -1.
         11   -1    0    0    0    0 -0.00000000000E+00 -0.00000000000E+00 -0.45593999997E+02  0.45594000000E+02  0.51100000000E-03 0.  1.
    9900012    2    1    2    0    0 -0.13575559192E+02  0.26584311263E+02  0.33735619706E+02  0.46142318191E+02  0.10000003917E+02 0.  0.
        -12    1    1    2    0    0  0.13575559192E+02 -0.26584311263E+02 -0.33735619706E+02  0.45045681809E+02  0.00000000000E+00 0.  1.
         11    1    3    3    0    0 -0.32873564111E+00  0.71513931540E+01  0.46797332181E+01  0.85528003846E+01  0.51100000000E-03 0. -1.
        -11    1    3    3    0    0 -0.36867544885E+00  0.25775784274E-01  0.13224537667E+01  0.13731242492E+01  0.51100000000E-03 0.  1.
         12    1    3    3    0    0 -0.12878148102E+02  0.19407142325E+02  0.27733432722E+02  0.36216393557E+02  0.00000000000E+00 0. -1.
</event>
<event>
 7    1  0.3435408E-009  0.4614231E+02  0.7816164E-02  0.1320468E+00
        -11   -1    0    0    0    0  0.00000000000E+00  0.00000000000E+00  0.45593999997E+02  0.45594000000E+02  0.51100000000E-03 0.  1.
         11   -1    0    0    0    0 -0.00000000000E+00 -0.00000000000E+00 -0.45593999997E+02  0.45594000000E+02  0.51100000000E-03 0. -1.
    9900012    2    1    2    0    0  0.25973761704E+00 -0.10041654969E+02 -0.43911405456E+02  0.46142313999E+02  0.99999656980E+01 0.  0.
        -12    1    1    2    0    0 -0.25973761704E+00  0.10041654969E+02  0.43911405456E+02  0.45045686001E+02  0.00000000000E+00 0.  1.
         11    1    3    3    0    0 -0.95523733341E+00 -0.47912643006E+01 -0.22079881108E+02  0.22613930264E+02  0.51100000000E-03 0. -1.
        -11    1    3    3    0    0  0.32110511698E+01 -0.30691754755E+01 -0.62431745105E+01  0.76621091054E+01  0.51100000000E-03 0.  1.
        -12    1    3    3    0    0 -0.19960762194E+01 -0.21812151927E+01 -0.15588349837E+02  0.15866274630E+02  0.00000000000E+00 0.  1.
</event>
<event>
 7    1  0.3435408E-009  0.4614232E+02  0.7816164E-02  0.1320468E+00
        -11   -1    0    0    0    0  0.00000000000E+00  0.00000000000E+00  0.45593999997E+02  0.45594000000E+02  0.51100000000E-03 0.  1.
         11   -1    0    0    0    0 -0.00000000000E+00 -0.00000000000E+00 -0.45593999997E+02  0.45594000000E+02  0.51100000000E-03 0. -1.
    9900012    2    1    2    0    0 -0.34127981991E+02  0.13905555850E+02 -0.25904244277E+02  0.46142317522E+02  0.99999978236E+01 0.  0.
        -12    1    1    2    0    0  0.34127981991E+02 -0.13905555850E+02  0.25904244277E+02  0.45045682478E+02  0.00000000000E+00 0.  1.
         11    1    3    3    0    0 -0.54151078741E+01  0.80740113141E+00 -0.25023617460E+01  0.60197262765E+01  0.51100000000E-03 0. -1.
        -11    1    3    3    0    0 -0.89430731299E+01  0.83861695699E+01 -0.83900077970E+01  0.14855929057E+02  0.51100000000E-03 0.  1.
        -12    1    3    3    0    0 -0.19769800987E+02  0.47119851490E+01 -0.15011874734E+02  0.25266662189E+02  0.00000000000E+00 0.  1.
</event>
<event>
 7    1  0.3435408E-009  0.4614232E+02  0.7816164E-02  0.1320468E+00
        -11   -1    0    0    0    0  0.00000000000E+00  0.00000000000E+00  0.45593999997E+02  0.45594000000E+02  0.51100000000E-03 0.  1.
         11   -1    0    0    0    0 -0.00000000000E+00 -0.00000000000E+00 -0.45593999997E+02  0.45594000000E+02  0.51100000000E-03 0. -1.
    9900012    2    1    2    0    0  0.32516037507E+02  0.19453973167E+02 -0.24359059629E+02  0.46142317043E+02  0.99999934473E+01 0.  0.
        -12    1    1    2    0    0 -0.32516037507E+02 -0.19453973167E+02  0.24359059629E+02  0.45045682957E+02  0.00000000000E+00 0.  1.
         11    1    3    3    0    0  0.25007112029E+02  0.16639466720E+02 -0.19628995346E+02  0.35882098089E+02  0.51100000000E-03 0. -1.
        -11    1    3    3    0    0  0.82256272796E+00  0.17290750365E+01 -0.24572788342E+01  0.31152093755E+01  0.51100000000E-03 0.  1.
         12    1    3    3    0    0  0.66863627497E+01  0.10854314104E+01 -0.22727854487E+01  0.71450095775E+01  0.00000000000E+00 0. -1.
</event>
<event>
 7    1  0.3435408E-009  0.4614232E+02  0.7816164E-02  0.1320468E+00
        -11   -1    0    0    0    0  0.00000000000E+00  0.00000000000E+00  0.45593999997E+02  0.45594000000E+02  0.51100000000E-03 0.  1.
         11   -1    0    0    0    0 -0.00000000000E+00 -0.00000000000E+00 -0.45593999997E+02  0.45594000000E+02  0.51100000000E-03 0. -1.
    9900012    2    1    2    0    0  0.96831847370E+01 -0.83297519904E+00 -0.43984719455E+02  0.46142318077E+02  0.10000002885E+02 0.  0.
        -12    1    1    2    0    0 -0.96831847370E+01  0.83297519904E+00  0.43984719455E+02  0.45045681923E+02  0.00000000000E+00 0.  1.
         11    1    3    3    0    0 -0.63652403095E+00  0.18668231605E+01 -0.73791247287E+01  0.76381721359E+01  0.51100000000E-03 0. -1.
        -11    1    3    3    0    0  0.67456082762E+01  0.71082852945E+00 -0.17455356249E+02  0.18726931683E+02  0.51100000000E-03 0.  1.
         12    1    3    3    0    0  0.35741004918E+01 -0.34106268890E+01 -0.19150238477E+02  0.19777214259E+02  0.00000000000E+00 0. -1.
</event>
<event>
 7    1  0.3435408E-009  0.4614232E+02  0.7816164E-02  0.1320468E+00
        -11   -1    0    0    0    0  0.00000000000E+00  0.00000000000E+00  0.45593999997E+02  0.45594000000E+02  0.51100000000E-03 0.  1.
         11   -1    0    0    0    0 -0.00000000000E+00 -0.00000000000E+00 -0.45593999997E+02  0.45594000000E+02  0.51100000000E-03 0. -1.
    9900012    2    1    2    0    0 -0.69631521185E+01  0.30014104386E+02 -0.32860030272E+02  0.46142317199E+02  0.99999948735E+01 0.  0.
        -12    1    1    2    0    0  0.69631521185E+01 -0.30014104386E+02  0.32860030272E+02  0.45045682801E+02  0.00000000000E+00 0.  1.
         11    1    3    3    0    0 -0.36172880405E+01  0.19968914135E+02 -0.26854933244E+02  0.33660507190E+02  0.51100000000E-03 0. -1.
        -11    1    3    3    0    0 -0.19353329753E+01  0.77137349275E+01 -0.32040581594E+01  0.85739844417E+01  0.51100000000E-03 0.  1.
        -12    1    3    3    0    0 -0.14105311027E+01  0.23314553230E+01 -0.28010388693E+01  0.39078255670E+01  0.00000000000E+00 0.  1.
</event>
<event>
 7    1  0.3435408E-009  0.4614232E+02  0.7816164E-02  0.1320468E+00
        -11   -1    0    0    0    0  0.00000000000E+00  0.00000000000E+00  0.45593999997E+02  0.45594000000E+02  0.51100000000E-03 0. -1.
         11   -1    0    0    0    0 -0.00000000000E+00 -0.00000000000E+00 -0.45593999997E+02  0.45594000000E+02  0.51100000000E-03 0.  1.
    9900012    2    1    2    0    0 -0.89032828444E+01  0.24071927083E+02  0.37018743370E+02  0.46142317859E+02  0.10000000890E+02 0.  0.
        -12    1    1    2    0    0  0.89032828444E+01 -0.24071927083E+02 -0.37018743370E+02  0.45045682141E+02  0.00000000000E+00 0.  1.
         11    1    3    3    0    0 -0.26588239356E+01  0.77610677724E+01  0.10501215172E+02  0.13325878509E+02  0.51100000000E-03 0. -1.
        -11    1    3    3    0    0 -0.75837787170E+01  0.11075018252E+02  0.15223413344E+02  0.20295862707E+02  0.51100000000E-03 0.  1.
        -12    1    3    3    0    0  0.13393198082E+01  0.52358410586E+01  0.11294114854E+02  0.12520576643E+02  0.00000000000E+00 0.  1.
</event>
<event>
 7    1  0.3435408E-009  0.4614232E+02  0.7816164E-02  0.1320468E+00
        -11   -1    0    0    0    0  0.00000000000E+00  0.00000000000E+00  0.45593999997E+02  0.45594000000E+02  0.51100000000E-03 0.  1.
         11   -1    0    0    0    0 -0.00000000000E+00 -0.00000000000E+00 -0.45593999997E+02  0.45594000000E+02  0.51100000000E-03 0. -1.
    9900012    2    1    2    0    0  0.34050502649E+02 -0.26431151570E+01 -0.29371597234E+02  0.46142317494E+02  0.99999975606E+01 0.  0.
        -12    1    1    2    0    0 -0.34050502649E+02  0.26431151570E+01  0.29371597234E+02  0.45045682506E+02  0.00000000000E+00 0.  1.
         11    1    3    3    0    0  0.21940383939E+02 -0.11277819916E-01 -0.19725864393E+02  0.29504072615E+02  0.51100000000E-03 0. -1.
        -11    1    3    3    0    0 -0.20310402175E+00  0.12884720241E+00 -0.17200645876E+01  0.17368003028E+01  0.51100000000E-03 0.  1.
        -12    1    3    3    0    0  0.12313222732E+02 -0.27606845395E+01 -0.79256682534E+01  0.14901444575E+02  0.00000000000E+00 0.  1.
</event>
<event>
 7    1  0.3435408E-009  0.4614232E+02  0.7816164E-02  0.1320468E+00
        -11   -1    0    0    0    0  0.00000000000E+00  0.00000000000E+00  0.45593999997E+02  0.45594000000E+02  0.51100000000E-03 0.  1.
         11   -1    0    0    0    0 -0.00000000000E+00 -0.00000000000E+00 -0.45593999997E+02  0.45594000000E+02  0.51100000000E-03 0. -1.
    9900012    2    1    2    0    0  0.20775493719E+02 -0.27490297900E+01 -0.39873991896E+02  0.46142317257E+02  0.99999954044E+01 0.  0.
        -12    1    1    2    0    0 -0.20775493719E+02  0.27490297900E+01  0.39873991896E+02  0.45045682743E+02  0.00000000000E+00 0.  1.
         11    1    3    3    0    0  0.77506529420E+01 -0.40552784075E+01 -0.16113631220E+02  0.18334857931E+02  0.51100000000E-03 0. -1.
        -11    1    3    3    0    0  0.62205064080E+01  0.86809499570E+00 -0.56203495350E+01  0.84283223746E+01  0.51100000000E-03 0.  1.
         12    1    3    3    0    0  0.68043343694E+01  0.43815362183E+00 -0.18140011140E+02  0.19379136951E+02  0.00000000000E+00 0. -1.
</event>
<event>
 7    1  0.3435408E-009  0.4614231E+02  0.7816164E-02  0.1320468E+00
        -11   -1    0    0    0    0  0.00000000000E+00  0.00000000000E+00  0.45593999997E+02  0.45594000000E+02  0.51100000000E-03 0.  1.
         11   -1    0    0    0    0 -0.00000000000E+00 -0.00000000000E+00 -0.45593999997E+02  0.45594000000E+02  0.51100000000E-03 0. -1.
    9900012    2    1    2    0    0  0.38600620741E+02 -0.70377957645E+01 -0.22126365274E+02  0.46142306187E+02  0.99998944571E+01 0.  0.
        -12    1    1    2    0    0 -0.38600620741E+02  0.70377957645E+01  0.22126365274E+02  0.45045693813E+02  0.00000000000E+00 0.  1.
         11    1    3    3    0    0  0.60631200193E+01 -0.14203517591E+01 -0.37759706904E+01  0.72826354024E+01  0.51100000000E-03 0. -1.
        -11    1    3    3    0    0  0.27060746734E+02 -0.10169407939E+01 -0.13948688733E+02  0.30461190062E+02  0.51100000000E-03 0.  1.
        -12    1    3    3    0    0  0.54767539884E+01 -0.46005032115E+01 -0.44017058513E+01  0.83984807227E+01  0.00000000000E+00 0.  1.
</event>
<event>
 7    1  0.3435408E-009  0.4614232E+02  0.7816164E-02  0.1320468E+00
        -11   -1    0    0    0    0  0.00000000000E+00  0.00000000000E+00  0.45593999997E+02  0.45594000000E+02  0.51100000000E-03 0.  1.
         11   -1    0    0    0    0 -0.00000000000E+00 -0.00000000000E+00 -0.45593999997E+02  0.45594000000E+02  0.51100000000E-03 0. -1.
    9900012    2    1    2    0    0 -0.33063752739E+02 -0.28009619070E+02 -0.12302965109E+02  0.46142318119E+02  0.10000003266E+02 0.  0.
        -12    1    1    2    0    0  0.33063752739E+02  0.28009619070E+02  0.12302965109E+02  0.45045681881E+02  0.00000000000E+00 0.  1.
         11    1    3    3    0    0 -0.22337607964E+02 -0.15930425023E+02 -0.50843912399E+01  0.27903372654E+02  0.51100000000E-03 0. -1.
        -11    1    3    3    0    0 -0.62766323950E+01 -0.73531875219E+01 -0.19123605081E+01  0.98550801077E+01  0.51100000000E-03 0.  1.
         12    1    3    3    0    0 -0.44495123805E+01 -0.47260065253E+01 -0.53062133607E+01  0.83838653574E+01  0.00000000000E+00 0. -1.
</event>
<event>
 7    1  0.3435408E-009  0.4614232E+02  0.7816164E-02  0.1320468E+00
        -11   -1    0    0    0    0  0.00000000000E+00  0.00000000000E+00  0.45593999997E+02  0.45594000000E+02  0.51100000000E-03 0.  1.
         11   -1    0    0    0    0 -0.00000000000E+00 -0.00000000000E+00 -0.45593999997E+02  0.45594000000E+02  0.51100000000E-03 0. -1.
    9900012    2    1    2    0    0 -0.41785617306E+02 -0.95073305298E+01  0.13881150328E+02  0.46142317833E+02  0.10000000658E+02 0.  0.
        -12    1    1    2    0    0  0.41785617306E+02  0.95073305298E+01 -0.13881150328E+02  0.45045682167E+02  0.00000000000E+00 0.  1.
         11    1    3    3    0    0 -0.15456947328E+02 -0.39425057283E+01  0.27057959559E+01  0.16179675650E+02  0.51100000000E-03 0. -1.
        -11    1    3    3    0    0 -0.23329392950E+02 -0.66113436113E+01  0.11367111467E+02  0.26780247630E+02  0.51100000000E-03 0.  1.
        -12    1    3    3    0    0 -0.29992770273E+01  0.10465188098E+01 -0.19175709516E+00  0.31823945527E+01  0.00000000000E+00 0.  1.
</event>
<event>
 7    1  0.3435408E-009  0.4614232E+02  0.7816164E-02  0.1320468E+00
        -11   -1    0    0    0    0  0.00000000000E+00  0.00000000000E+00  0.45593999997E+02  0.45594000000E+02  0.51100000000E-03 0.  1.
         11   -1    0    0    0    0 -0.00000000000E+00 -0.00000000000E+00 -0.45593999997E+02  0.45594000000E+02  0.51100000000E-03 0. -1.
    9900012    2    1    2    0    0  0.25551526225E+02  0.11146224107E+02 -0.35383537411E+02  0.46142317366E+02  0.99999963967E+01 0.  0.
        -12    1    1    2    0    0 -0.25551526225E+02 -0.11146224107E+02  0.35383537411E+02  0.45045682634E+02  0.00000000000E+00 0.  1.
         11    1    3    3    0    0  0.76714749019E+01  0.33952183360E+01 -0.91284621983E+01  0.12397897285E+02  0.51100000000E-03 0. -1.
        -11    1    3    3    0    0  0.28973611950E+01  0.88430194955E+00 -0.36175803208E+00  0.30508295539E+01  0.51100000000E-03 0.  1.
        -12    1    3    3    0    0  0.14982690128E+02  0.68667038215E+01 -0.25893317180E+02  0.30693590527E+02  0.00000000000E+00 0.  1.
</event>
<event>
 7    1  0.3435408E-009  0.4614232E+02  0.7816164E-02  0.1320468E+00
        -11   -1    0    0    0    0  0.00000000000E+00  0.00000000000E+00  0.45593999997E+02  0.45594000000E+02  0.51100000000E-03 0. -1.
         11   -1    0    0    0    0 -0.00000000000E+00 -0.00000000000E+00 -0.45593999997E+02  0.45594000000E+02  0.51100000000E-03 0.  1.
    9900012    2    1    2    0    0  0.12846219924E+02 -0.20784244712E+02  0.37843140648E+02  0.46142317757E+02  0.99999999660E+01 0.  0.
        -12    1    1    2    0    0 -0.12846219924E+02  0.20784244712E+02 -0.37843140648E+02  0.45045682243E+02  0.00000000000E+00 0.  1.
         11    1    3    3    0    0  0.50067543867E+01 -0.41182758058E+01  0.13367009569E+02  0.14856134429E+02  0.51100000000E-03 0. -1.
        -11    1    3    3    0    0  0.32898779371E+01 -0.13607544678E+02  0.17254444605E+02  0.22219460568E+02  0.51100000000E-03 0.  1.
        -12    1    3    3    0    0  0.45495876003E+01 -0.30584242275E+01  0.72216864743E+01  0.90667227607E+01  0.00000000000E+00 0.  1.
</event>
<event>
 7    1  0.3435408E-009  0.4614232E+02  0.7816164E-02  0.1320468E+00
        -11   -1    0    0    0    0  0.00000000000E+00  0.00000000000E+00  0.45593999997E+02  0.45594000000E+02  0.51100000000E-03 0.  1.
         11   -1    0    0    0    0 -0.00000000000E+00 -0.00000000000E+00 -0.45593999997E+02  0.45594000000E+02  0.51100000000E-03 0. -1.
    9900012    2    1    2    0    0 -0.65801287295E+01  0.28227535892E+01 -0.44472998433E+02  0.46142316283E+02  0.99999865171E+01 0.  0.
        -12    1    1    2    0    0  0.65801287295E+01 -0.28227535892E+01  0.44472998433E+02  0.45045683717E+02  0.00000000000E+00 0.  1.
         11    1    3    3    0    0 -0.14973549413E+01 -0.17518347438E+01 -0.12023707623E+02  0.12242570892E+02  0.51100000000E-03 0. -1.
        -11    1    3    3    0    0 -0.51086445064E+01  0.17679777801E+00 -0.21520746085E+02  0.22119494082E+02  0.51100000000E-03 0.  1.
        -12    1    3    3    0    0  0.25870718142E-01  0.43977905551E+01 -0.10928544726E+02  0.11780251308E+02  0.00000000000E+00 0.  1.
</event>
<event>
 7    1  0.3435408E-009  0.4614231E+02  0.7816164E-02  0.1320468E+00
        -11   -1    0    0    0    0  0.00000000000E+00  0.00000000000E+00  0.45593999997E+02  0.45594000000E+02  0.51100000000E-03 0.  1.
         11   -1    0    0    0    0 -0.00000000000E+00 -0.00000000000E+00 -0.45593999997E+02  0.45594000000E+02  0.51100000000E-03 0. -1.
    9900012    2    1    2    0    0  0.16563925176E+02  0.32084175910E+02 -0.26932433151E+02  0.46142313009E+02  0.99999566647E+01 0.  0.
        -12    1    1    2    0    0 -0.16563925176E+02 -0.32084175910E+02  0.26932433151E+02  0.45045686991E+02  0.00000000000E+00 0.  1.
         11    1    3    3    0    0  0.25583446378E+01  0.57859448942E+01 -0.83851109900E+01  0.10503921752E+02  0.51100000000E-03 0. -1.
        -11    1    3    3    0    0  0.63115284799E+01  0.18175893305E+02 -0.11476672858E+02  0.22403403968E+02  0.51100000000E-03 0.  1.
        -12    1    3    3    0    0  0.76940520581E+01  0.81223377108E+01 -0.70706493024E+01  0.13234987288E+02  0.00000000000E+00 0.  1.
</event>
<event>
 7    1  0.3435408E-009  0.4614232E+02  0.7816164E-02  0.1320468E+00
        -11   -1    0    0    0    0  0.00000000000E+00  0.00000000000E+00  0.45593999997E+02  0.45594000000E+02  0.51100000000E-03 0.  1.
         11   -1    0    0    0    0 -0.00000000000E+00 -0.00000000000E+00 -0.45593999997E+02  0.45594000000E+02  0.51100000000E-03 0. -1.
    9900012    2    1    2    0    0 -0.37944855650E+02 -0.13202124531E+02 -0.20371679892E+02  0.46142317588E+02  0.99999984174E+01 0.  0.
        -12    1    1    2    0    0  0.37944855650E+02  0.13202124531E+02  0.20371679892E+02  0.45045682412E+02  0.00000000000E+00 0.  1.
         11    1    3    3    0    0 -0.13875877311E+02 -0.36625061222E+01 -0.89873869740E+01  0.16933016480E+02  0.51100000000E-03 0. -1.
        -11    1    3    3    0    0 -0.16592909830E+02 -0.39042778062E+01 -0.46256243172E+01  0.17662515178E+02  0.51100000000E-03 0.  1.
        -12    1    3    3    0    0 -0.74760685087E+01 -0.56353406026E+01 -0.67586686004E+01  0.11546785930E+02  0.00000000000E+00 0.  1.
</event>
<event>
 7    1  0.3435408E-009  0.4614232E+02  0.7816164E-02  0.1320468E+00
        -11   -1    0    0    0    0  0.00000000000E+00  0.00000000000E+00  0.45593999997E+02  0.45594000000E+02  0.51100000000E-03 0.  1.
         11   -1    0    0    0    0 -0.00000000000E+00 -0.00000000000E+00 -0.45593999997E+02  0.45594000000E+02  0.51100000000E-03 0. -1.
    9900012    2    1    2    0    0 -0.37549682693E+02 -0.12049376252E+02 -0.21770333384E+02  0.46142317032E+02  0.99999933532E+01 0.  0.
        -12    1    1    2    0    0  0.37549682693E+02  0.12049376252E+02  0.21770333384E+02  0.45045682968E+02  0.00000000000E+00 0.  1.
         11    1    3    3    0    0 -0.87487162258E+01 -0.58478321250E+01 -0.39043547257E+01  0.11224133029E+02  0.51100000000E-03 0. -1.
        -11    1    3    3    0    0 -0.14318608642E+02 -0.25727418995E+00 -0.92581067591E+01  0.17052896659E+02  0.51100000000E-03 0.  1.
         12    1    3    3    0    0 -0.14482357825E+02 -0.59442699372E+01 -0.86078718987E+01  0.17865287344E+02  0.00000000000E+00 0. -1.
</event>
<event>
 7    1  0.3435408E-009  0.4614232E+02  0.7816164E-02  0.1320468E+00
        -11   -1    0    0    0    0  0.00000000000E+00  0.00000000000E+00  0.45593999997E+02  0.45594000000E+02  0.51100000000E-03 0. -1.
         11   -1    0    0    0    0 -0.00000000000E+00 -0.00000000000E+00 -0.45593999997E+02  0.45594000000E+02  0.51100000000E-03 0.  1.
    9900012    2    1    2    0    0 -0.29590203314E+02 -0.54940077609E+01  0.33516402990E+02  0.46142317378E+02  0.99999965078E+01 0.  0.
        -12    1    1    2    0    0  0.29590203314E+02  0.54940077609E+01 -0.33516402990E+02  0.45045682622E+02  0.00000000000E+00 0.  1.
         11    1    3    3    0    0 -0.47459405920E+01  0.17434305296E+00  0.31221540428E+01  0.56835018898E+01  0.51100000000E-03 0.  1.
        -11    1    3    3    0    0 -0.13555562766E+02  0.50504903941E-02  0.19660123798E+02  0.23880405679E+02  0.51100000000E-03 0. -1.
        -12    1    3    3    0    0 -0.11288699956E+02 -0.56734013042E+01  0.10734125150E+02  0.16578409809E+02  0.00000000000E+00 0.  1.
</event>
<event>
 7    1  0.3435408E-009  0.4614232E+02  0.7816164E-02  0.1320468E+00
        -11   -1    0    0    0    0  0.00000000000E+00  0.00000000000E+00  0.45593999997E+02  0.45594000000E+02  0.51100000000E-03 0.  1.
         11   -1    0    0    0    0 -0.00000000000E+00 -0.00000000000E+00 -0.45593999997E+02  0.45594000000E+02  0.51100000000E-03 0. -1.
    9900012    2    1    2    0    0 -0.35734256984E+02 -0.13737458550E+02  0.23737280037E+02  0.46142319262E+02  0.10000013682E+02 0.  0.
        -12    1    1    2    0    0  0.35734256984E+02  0.13737458550E+02 -0.23737280037E+02  0.45045680738E+02  0.00000000000E+00 0.  1.
         11    1    3    3    0    0 -0.66879754250E+01 -0.47628328017E+01  0.76619517290E+01  0.11230275871E+02  0.51100000000E-03 0. -1.
        -11    1    3    3    0    0 -0.10983644791E+02 -0.58312113142E+01  0.44749769450E+01  0.13216236121E+02  0.51100000000E-03 0.  1.
        -12    1    3    3    0    0 -0.18062636769E+02 -0.31434144340E+01  0.11600351363E+02  0.21695807270E+02  0.00000000000E+00 0.  1.
</event>
<event>
 7    1  0.3435408E-009  0.4614232E+02  0.7816164E-02  0.1320468E+00
        -11   -1    0    0    0    0  0.00000000000E+00  0.00000000000E+00  0.45593999997E+02  0.45594000000E+02  0.51100000000E-03 0.  1.
         11   -1    0    0    0    0 -0.00000000000E+00 -0.00000000000E+00 -0.45593999997E+02  0.45594000000E+02  0.51100000000E-03 0. -1.
    9900012    2    1    2    0    0  0.40275166539E+02  0.18993748173E+02  0.68016152405E+01  0.46142317862E+02  0.10000000916E+02 0.  0.
        -12    1    1    2    0    0 -0.40275166539E+02 -0.18993748173E+02 -0.68016152405E+01  0.45045682138E+02  0.00000000000E+00 0.  1.
         11    1    3    3    0    0  0.72562524200E+01  0.17723779238E+01 -0.95780725949E+00  0.75307315511E+01  0.51100000000E-03 0. -1.
        -11    1    3    3    0    0  0.75196549969E+01  0.19833481813E+01 -0.45882906583E+00  0.77903405351E+01  0.51100000000E-03 0.  1.
        -12    1    3    3    0    0  0.25499259123E+02  0.15238022068E+02  0.82182515658E+01  0.30821245775E+02  0.00000000000E+00 0.  1.
</event>
<event>
 7    1  0.3435408E-009  0.4614232E+02  0.7816164E-02  0.1320468E+00
        -11   -1    0    0    0    0  0.00000000000E+00  0.00000000000E+00  0.45593999997E+02  0.45594000000E+02  0.51100000000E-03 0.  1.
         11   -1    0    0    0    0 -0.00000000000E+00 -0.00000000000E+00 -0.45593999997E+02  0.45594000000E+02  0.51100000000E-03 0. -1.
    9900012    2    1    2    0    0 -0.18803837331E+02  0.33204554675E+02 -0.23937139469E+02  0.46142318792E+02  0.10000009401E+02 0.  0.
        -12    1    1    2    0    0  0.18803837331E+02 -0.33204554675E+02  0.23937139469E+02  0.45045681208E+02  0.00000000000E+00 0.  1.
         11    1    3    3    0    0 -0.59965735464E+01  0.65729739452E+01 -0.81665778721E+01  0.12077080574E+02  0.51100000000E-03 0. -1.
        -11    1    3    3    0    0 -0.41252658550E+01  0.15681338603E+02 -0.87959574634E+01  0.18446979880E+02  0.51100000000E-03 0.  1.
        -12    1    3    3    0    0 -0.86819979300E+01  0.10950242127E+02 -0.69746041335E+01  0.15618258338E+02  0.00000000000E+00 0.  1.
</event>
<event>
 7    1  0.3435408E-009  0.4614232E+02  0.7816164E-02  0.1320468E+00
        -11   -1    0    0    0    0  0.00000000000E+00  0.00000000000E+00  0.45593999997E+02  0.45594000000E+02  0.51100000000E-03 0.  1.
         11   -1    0    0    0    0 -0.00000000000E+00 -0.00000000000E+00 -0.45593999997E+02  0.45594000000E+02  0.51100000000E-03 0. -1.
    9900012    2    1    2    0    0 -0.33722125451E+02  0.36538243846E-01 -0.29865203877E+02  0.46142317825E+02  0.10000000585E+02 0.  0.
        -12    1    1    2    0    0  0.33722125451E+02 -0.36538243846E-01  0.29865203877E+02  0.45045682175E+02  0.00000000000E+00 0.  1.
         11    1    3    3    0    0 -0.94976894263E+01  0.33231347593E+01 -0.90468063925E+01  0.13531224454E+02  0.51100000000E-03 0. -1.
        -11    1    3    3    0    0 -0.13996005886E+02 -0.42186326816E+01 -0.14282197667E+02  0.20436883640E+02  0.51100000000E-03 0.  1.
        -12    1    3    3    0    0 -0.10228430138E+02  0.93203616616E+00 -0.65361998177E+01  0.12174209731E+02  0.00000000000E+00 0.  1.
</event>
<event>
 7    1  0.3435408E-009  0.4614232E+02  0.7816164E-02  0.1320468E+00
        -11   -1    0    0    0    0  0.00000000000E+00  0.00000000000E+00  0.45593999997E+02  0.45594000000E+02  0.51100000000E-03 0.  1.
         11   -1    0    0    0    0 -0.00000000000E+00 -0.00000000000E+00 -0.45593999997E+02  0.45594000000E+02  0.51100000000E-03 0. -1.
    9900012    2    1    2    0    0 -0.17246899197E+02 -0.18688118786E+02 -0.37180805669E+02  0.46142316235E+02  0.99999860849E+01 0.  0.
        -12    1    1    2    0    0  0.17246899197E+02  0.18688118786E+02  0.37180805669E+02  0.45045683765E+02  0.00000000000E+00 0.  1.
         11    1    3    3    0    0 -0.17141703425E+01 -0.18184576582E+01 -0.97432217926E+00  0.26822513283E+01  0.51100000000E-03 0. -1.
        -11    1    3    3    0    0 -0.47573731017E+00 -0.14266322227E+01 -0.24105232748E+00  0.15230600687E+01  0.51100000000E-03 0.  1.
         12    1    3    3    0    0 -0.15056991544E+02 -0.15443028905E+02 -0.35965431162E+02  0.41937004838E+02  0.00000000000E+00 0. -1.
</event>
<event>
 7    1  0.3435408E-009  0.4614232E+02  0.7816164E-02  0.1320468E+00
        -11   -1    0    0    0    0  0.00000000000E+00  0.00000000000E+00  0.45593999997E+02  0.45594000000E+02  0.51100000000E-03 0.  1.
         11   -1    0    0    0    0 -0.00000000000E+00 -0.00000000000E+00 -0.45593999997E+02  0.45594000000E+02  0.51100000000E-03 0. -1.
    9900012    2    1    2    0    0 -0.29546229566E+01 -0.21437918688E+02 -0.39506953198E+02  0.46142317572E+02  0.99999982726E+01 0.  0.
        -12    1    1    2    0    0  0.29546229566E+01  0.21437918688E+02  0.39506953198E+02  0.45045682428E+02  0.00000000000E+00 0.  1.
         11    1    3    3    0    0 -0.49669835132E+01 -0.48463379197E+01 -0.11293277214E+02  0.13255037795E+02  0.51100000000E-03 0. -1.
        -11    1    3    3    0    0  0.17825273032E+01 -0.75931013430E+01 -0.11348741691E+02  0.13770494901E+02  0.51100000000E-03 0.  1.
         12    1    3    3    0    0  0.22983325339E+00 -0.89984794249E+01 -0.16864934292E+02  0.19116784875E+02  0.00000000000E+00 0. -1.
</event>
<event>
 7    1  0.3435408E-009  0.4614232E+02  0.7816164E-02  0.1320468E+00
        -11   -1    0    0    0    0  0.00000000000E+00  0.00000000000E+00  0.45593999997E+02  0.45594000000E+02  0.51100000000E-03 0.  1.
         11   -1    0    0    0    0 -0.00000000000E+00 -0.00000000000E+00 -0.45593999997E+02  0.45594000000E+02  0.51100000000E-03 0. -1.
    9900012    2    1    2    0    0 -0.14435521727E+02  0.15116074827E+02 -0.39902799209E+02  0.46142318849E+02  0.10000009918E+02 0.  0.
        -12    1    1    2    0    0  0.14435521727E+02 -0.15116074827E+02  0.39902799209E+02  0.45045681151E+02  0.00000000000E+00 0.  1.
         11    1    3    3    0    0 -0.13097404105E+01 -0.68738304699E+00 -0.62381188701E+00  0.16053214406E+01  0.51100000000E-03 0. -1.
        -11    1    3    3    0    0 -0.21762493512E+01  0.17639312842E+01 -0.28849992564E+01  0.40212853399E+01  0.51100000000E-03 0.  1.
         12    1    3    3    0    0 -0.10949531965E+02  0.14039526590E+02 -0.36393988065E+02  0.40515712068E+02  0.00000000000E+00 0. -1.
</event>
<event>
 7    1  0.3435408E-009  0.4614232E+02  0.7816164E-02  0.1320468E+00
        -11   -1    0    0    0    0  0.00000000000E+00  0.00000000000E+00  0.45593999997E+02  0.45594000000E+02  0.51100000000E-03 0.  1.
         11   -1    0    0    0    0 -0.00000000000E+00 -0.00000000000E+00 -0.45593999997E+02  0.45594000000E+02  0.51100000000E-03 0. -1.
    9900012    2    1    2    0    0  0.51214327056E+00  0.29044477678E+02 -0.34427743157E+02  0.46142317929E+02  0.10000001535E+02 0.  0.
        -12    1    1    2    0    0 -0.51214327056E+00 -0.29044477678E+02  0.34427743157E+02  0.45045682071E+02  0.00000000000E+00 0.  1.
         11    1    3    3    0    0  0.21905120289E+01  0.68683219429E+01 -0.14329423833E+02  0.16040716221E+02  0.51100000000E-03 0. -1.
        -11    1    3    3    0    0  0.64637577750E-01  0.91787969967E+01 -0.67863507811E+01  0.11415298923E+02  0.51100000000E-03 0.  1.
         12    1    3    3    0    0 -0.17430063361E+01  0.12997358739E+02 -0.13311968543E+02  0.18686302785E+02  0.00000000000E+00 0. -1.
</event>
<event>
 7    1  0.3435408E-009  0.4614232E+02  0.7816164E-02  0.1320468E+00
        -11   -1    0    0    0    0  0.00000000000E+00  0.00000000000E+00  0.45593999997E+02  0.45594000000E+02  0.51100000000E-03 0.  1.
         11   -1    0    0    0    0 -0.00000000000E+00 -0.00000000000E+00 -0.45593999997E+02  0.45594000000E+02  0.51100000000E-03 0. -1.
    9900012    2    1    2    0    0 -0.34463929404E+02  0.17284592789E+02 -0.23293645341E+02  0.46142317731E+02  0.99999997275E+01 0.  0.
        -12    1    1    2    0    0  0.34463929404E+02 -0.17284592789E+02  0.23293645341E+02  0.45045682269E+02  0.00000000000E+00 0.  1.
         11    1    3    3    0    0 -0.13315306697E+02  0.35601910910E+01 -0.10243928790E+02  0.17172956367E+02  0.51100000000E-03 0. -1.
        -11    1    3    3    0    0 -0.15394668801E+01  0.33082812275E+01 -0.15542271794E+01  0.39661448967E+01  0.51100000000E-03 0.  1.
         12    1    3    3    0    0 -0.19609155826E+02  0.10416120470E+02 -0.11495489371E+02  0.25003216468E+02  0.00000000000E+00 0. -1.
</event>
<event>
 7    1  0.3435408E-009  0.4614230E+02  0.7816164E-02  0.1320468E+00
        -11   -1    0    0    0    0  0.00000000000E+00  0.00000000000E+00  0.45593999997E+02  0.45594000000E+02  0.51100000000E-03 0.  1.
         11   -1    0    0    0    0 -0.00000000000E+00 -0.00000000000E+00 -0.45593999997E+02  0.45594000000E+02  0.51100000000E-03 0. -1.
    9900012    2    1    2    0    0  0.17787910293E+01  0.45009700659E+02  0.27833433829E+00  0.46142304080E+02  0.99998752424E+01 0.  0.
        -12    1    1    2    0    0 -0.17787910293E+01 -0.45009700659E+02 -0.27833433829E+00  0.45045695920E+02  0.00000000000E+00 0.  1.
         11    1    3    3    0    0 -0.22439926188E+01  0.22823905931E+02  0.84497584626E+00  0.22949513486E+02  0.51100000000E-03 0. -1.
        -11    1    3    3    0    0 -0.98464649342E-02  0.54045434080E+00 -0.10376121154E+01  0.11699688075E+01  0.51100000000E-03 0.  1.
        -12    1    3    3    0    0  0.40326301130E+01  0.21645340387E+02  0.47097060747E+00  0.22022821786E+02  0.00000000000E+00 0.  1.
</event>
<event>
 7    1  0.3435408E-009  0.4614232E+02  0.7816164E-02  0.1320468E+00
        -11   -1    0    0    0    0  0.00000000000E+00  0.00000000000E+00  0.45593999997E+02  0.45594000000E+02  0.51100000000E-03 0. -1.
         11   -1    0    0    0    0 -0.00000000000E+00 -0.00000000000E+00 -0.45593999997E+02  0.45594000000E+02  0.51100000000E-03 0.  1.
    9900012    2    1    2    0    0 -0.13902096860E+02 -0.12857937092E+02  0.40871980032E+02  0.46142316576E+02  0.99999891925E+01 0.  0.
        -12    1    1    2    0    0  0.13902096860E+02  0.12857937092E+02 -0.40871980032E+02  0.45045683424E+02  0.00000000000E+00 0.  1.
         11    1    3    3    0    0 -0.92877639331E+01 -0.60626473842E+01  0.16176914065E+02  0.19614046016E+02  0.51100000000E-03 0. -1.
        -11    1    3    3    0    0 -0.13947781377E+00 -0.47500510430E+01  0.12945322853E+02  0.13789989957E+02  0.51100000000E-03 0.  1.
        -12    1    3    3    0    0 -0.44748551132E+01 -0.20452386648E+01  0.11749743115E+02  0.12738280604E+02  0.00000000000E+00 0.  1.
</event>
<event>
 7    1  0.3435408E-009  0.4614232E+02  0.7816164E-02  0.1320468E+00
        -11   -1    0    0    0    0  0.00000000000E+00  0.00000000000E+00  0.45593999997E+02  0.45594000000E+02  0.51100000000E-03 0.  1.
         11   -1    0    0    0    0 -0.00000000000E+00 -0.00000000000E+00 -0.45593999997E+02  0.45594000000E+02  0.51100000000E-03 0. -1.
    9900012    2    1    2    0    0  0.12651465292E+02 -0.52213279963E+00 -0.43229403913E+02  0.46142316973E+02  0.99999928124E+01 0.  0.
        -12    1    1    2    0    0 -0.12651465292E+02  0.52213279963E+00  0.43229403913E+02  0.45045683027E+02  0.00000000000E+00 0.  1.
         11    1    3    3    0    0  0.15933452661E+01  0.27927780307E+01 -0.17354104593E+02  0.17649456217E+02  0.51100000000E-03 0. -1.
        -11    1    3    3    0    0  0.23124894701E+01 -0.92782434535E+00 -0.30841442374E+01  0.39648974140E+01  0.51100000000E-03 0.  1.
         12    1    3    3    0    0  0.87456305555E+01 -0.23870864850E+01 -0.22791155083E+02  0.24527963342E+02  0.00000000000E+00 0. -1.
</event>
<event>
 7    1  0.3435408E-009  0.4614232E+02  0.7816164E-02  0.1320468E+00
        -11   -1    0    0    0    0  0.00000000000E+00  0.00000000000E+00  0.45593999997E+02  0.45594000000E+02  0.51100000000E-03 0.  1.
         11   -1    0    0    0    0 -0.00000000000E+00 -0.00000000000E+00 -0.45593999997E+02  0.45594000000E+02  0.51100000000E-03 0. -1.
    9900012    2    1    2    0    0 -0.41183741751E+02 -0.16438030704E+02 -0.79248800697E+01  0.46142321382E+02  0.10000033015E+02 0.  0.
        -12    1    1    2    0    0  0.41183741751E+02  0.16438030704E+02  0.79248800697E+01  0.45045678618E+02  0.00000000000E+00 0.  1.
         11    1    3    3    0    0 -0.31614535813E+02 -0.87887287729E+01 -0.45032503503E+01  0.33120988694E+02  0.51100000000E-03 0. -1.
        -11    1    3    3    0    0 -0.75787653424E+01 -0.62210060532E+01 -0.38508959245E+01  0.10534134996E+02  0.51100000000E-03 0.  1.
         12    1    3    3    0    0 -0.19904405958E+01 -0.14282958782E+01  0.42926620517E+00  0.24871976914E+01  0.00000000000E+00 0. -1.
</event>
<event>
 7    1  0.3435408E-009  0.4614232E+02  0.7816164E-02  0.1320468E+00
        -11   -1    0    0    0    0  0.00000000000E+00  0.00000000000E+00  0.45593999997E+02  0.45594000000E+02  0.51100000000E-03 0.  1.
         11   -1    0    0    0    0 -0.00000000000E+00 -0.00000000000E+00 -0.45593999997E+02  0.45594000000E+02  0.51100000000E-03 0. -1.
    9900012    2    1    2    0    0 -0.26135656924E+02 -0.33943661555E+02 -0.13923664157E+02  0.46142321560E+02  0.10000034640E+02 0.  0.
        -12    1    1    2    0    0  0.26135656924E+02  0.33943661555E+02  0.13923664157E+02  0.45045678440E+02  0.00000000000E+00 0.  1.
         11    1    3    3    0    0 -0.14646136681E+02 -0.22380299938E+02 -0.85676388765E+01  0.28085433612E+02  0.51100000000E-03 0. -1.
        -11    1    3    3    0    0 -0.79506030090E+01 -0.41144933477E+01 -0.34407130527E+01  0.95906021859E+01  0.51100000000E-03 0.  1.
        -12    1    3    3    0    0 -0.35389172337E+01 -0.74488682692E+01 -0.19153122280E+01  0.84662857624E+01  0.00000000000E+00 0.  1.
</event>
<event>
 7    1  0.3435408E-009  0.4614232E+02  0.7816164E-02  0.1320468E+00
        -11   -1    0    0    0    0  0.00000000000E+00  0.00000000000E+00  0.45593999997E+02  0.45594000000E+02  0.51100000000E-03 0. -1.
         11   -1    0    0    0    0 -0.00000000000E+00 -0.00000000000E+00 -0.45593999997E+02  0.45594000000E+02  0.51100000000E-03 0.  1.
    9900012    2    1    2    0    0  0.44379068028E+02 -0.61855031836E+01  0.46207631654E+01  0.46142316734E+02  0.99999906375E+01 0.  0.
        -12    1    1    2    0    0 -0.44379068028E+02  0.61855031836E+01 -0.46207631654E+01  0.45045683266E+02  0.00000000000E+00 0.  1.
         11    1    3    3    0    0  0.33573462875E+02 -0.65965341697E+01  0.40581104459E+01  0.34455187318E+02  0.51100000000E-03 0. -1.
        -11    1    3    3    0    0  0.60812398583E+01  0.55946904575E+00  0.24734547693E+01  0.65888134428E+01  0.51100000000E-03 0.  1.
        -12    1    3    3    0    0  0.47243652941E+01 -0.14843805963E+00 -0.19108020498E+01  0.50983159733E+01  0.00000000000E+00 0.  1.
</event>
<event>
 7    1  0.3435408E-009  0.4614232E+02  0.7816164E-02  0.1320468E+00
        -11   -1    0    0    0    0  0.00000000000E+00  0.00000000000E+00  0.45593999997E+02  0.45594000000E+02  0.51100000000E-03 0.  1.
         11   -1    0    0    0    0 -0.00000000000E+00 -0.00000000000E+00 -0.45593999997E+02  0.45594000000E+02  0.51100000000E-03 0. -1.
    9900012    2    1    2    0    0 -0.39629992749E+02 -0.10442055140E+02 -0.18696006247E+02  0.46142317738E+02  0.99999997891E+01 0.  0.
        -12    1    1    2    0    0  0.39629992749E+02  0.10442055140E+02  0.18696006247E+02  0.45045682262E+02  0.00000000000E+00 0.  1.
         11    1    3    3    0    0 -0.31116661071E+02 -0.10507667153E+02 -0.15141017351E+02  0.36165011709E+02  0.51100000000E-03 0. -1.
        -11    1    3    3    0    0 -0.63333575599E+01  0.29250149201E+00 -0.70087202074E+00  0.63787300425E+01  0.51100000000E-03 0.  1.
        -12    1    3    3    0    0 -0.21799741181E+01 -0.22688947907E+00 -0.28541168758E+01  0.35985759867E+01  0.00000000000E+00 0.  1.
</event>
<event>
 7    1  0.3435408E-009  0.4614232E+02  0.7816164E-02  0.1320468E+00
        -11   -1    0    0    0    0  0.00000000000E+00  0.00000000000E+00  0.45593999997E+02  0.45594000000E+02  0.51100000000E-03 0.  1.
         11   -1    0    0    0    0 -0.00000000000E+00 -0.00000000000E+00 -0.45593999997E+02  0.45594000000E+02  0.51100000000E-03 0. -1.
    9900012    2    1    2    0    0  0.26548349574E+02 -0.35390442279E+02 -0.84743920506E+01  0.46142316628E+02  0.99999896658E+01 0.  0.
        -12    1    1    2    0    0 -0.26548349574E+02  0.35390442279E+02  0.84743920506E+01  0.45045683372E+02  0.00000000000E+00 0.  1.
         11    1    3    3    0    0  0.82401426943E+01 -0.18442421023E+02 -0.17763310557E+01  0.20277529364E+02  0.51100000000E-03 0. -1.
        -11    1    3    3    0    0  0.39175373709E+01 -0.29231534083E+01 -0.13282067917E+01  0.50651809882E+01  0.51100000000E-03 0.  1.
         12    1    3    3    0    0  0.14390669509E+02 -0.14024867848E+02 -0.53698542032E+01  0.20799606276E+02  0.00000000000E+00 0. -1.
</event>
<event>
 7    1  0.3435408E-009  0.4614232E+02  0.7816164E-02  0.1320468E+00
        -11   -1    0    0    0    0  0.00000000000E+00  0.00000000000E+00  0.45593999997E+02  0.45594000000E+02  0.51100000000E-03 0.  1.
         11   -1    0    0    0    0 -0.00000000000E+00 -0.00000000000E+00 -0.45593999997E+02  0.45594000000E+02  0.51100000000E-03 0. -1.
    9900012    2    1    2    0    0 -0.23252070334E+02 -0.23963443169E+02 -0.30235874845E+02  0.46142317510E+02  0.99999977063E+01 0.  0.
        -12    1    1    2    0    0  0.23252070334E+02  0.23963443169E+02  0.30235874845E+02  0.45045682490E+02  0.00000000000E+00 0.  1.
         11    1    3    3    0    0 -0.13321482783E+02 -0.11951351761E+02 -0.20438105692E+02  0.27166392418E+02  0.51100000000E-03 0. -1.
        -11    1    3    3    0    0 -0.45977622193E+01 -0.28325868641E+01 -0.18284371562E+01  0.57014163559E+01  0.51100000000E-03 0.  1.
         12    1    3    3    0    0 -0.53328253325E+01 -0.91795045443E+01 -0.79693319967E+01  0.13274508736E+02  0.00000000000E+00 0. -1.
</event>
<event>
 7    1  0.3435408E-009  0.4614232E+02  0.7816164E-02  0.1320468E+00
        -11   -1    0    0    0    0  0.00000000000E+00  0.00000000000E+00  0.45593999997E+02  0.45594000000E+02  0.51100000000E-03 0. -1.
         11   -1    0    0    0    0 -0.00000000000E+00 -0.00000000000E+00 -0.45593999997E+02  0.45594000000E+02  0.51100000000E-03 0.  1.
    9900012    2    1    2    0    0  0.87752974140E+01  0.19022860550E+02  0.39877793502E+02  0.46142317823E+02  0.10000000562E+02 0.  0.
        -12    1    1    2    0    0 -0.87752974140E+01 -0.19022860550E+02 -0.39877793502E+02  0.45045682177E+02  0.00000000000E+00 0.  1.
         11    1    3    3    0    0  0.38670823988E+01  0.95548031244E+01  0.22197962841E+02  0.24474438575E+02  0.51100000000E-03 0. -1.
        -11    1    3    3    0    0  0.24283589588E+01  0.39136310952E+01  0.23402829627E+01  0.51662714010E+01  0.51100000000E-03 0.  1.
        -12    1    3    3    0    0  0.24798560564E+01  0.55544263300E+01  0.15339547699E+02  0.16501607846E+02  0.00000000000E+00 0.  1.
</event>
<event>
 7    1  0.3435408E-009  0.4614232E+02  0.7816164E-02  0.1320468E+00
        -11   -1    0    0    0    0  0.00000000000E+00  0.00000000000E+00  0.45593999997E+02  0.45594000000E+02  0.51100000000E-03 0. -1.
         11   -1    0    0    0    0 -0.00000000000E+00 -0.00000000000E+00 -0.45593999997E+02  0.45594000000E+02  0.51100000000E-03 0.  1.
    9900012    2    1    2    0    0  0.12641095866E+01  0.41533038059E+02 -0.17393168756E+02  0.46142317157E+02  0.99999944909E+01 0.  0.
        -12    1    1    2    0    0 -0.12641095866E+01 -0.41533038059E+02  0.17393168756E+02  0.45045682843E+02  0.00000000000E+00 0.  1.
         11    1    3    3    0    0 -0.18282455930E+01  0.17111157265E+02 -0.70756616427E+01  0.18606428267E+02  0.51100000000E-03 0. -1.
        -11    1    3    3    0    0  0.33843913583E+01  0.13174470372E+02 -0.87561585048E+01  0.16176868871E+02  0.51100000000E-03 0.  1.
        -12    1    3    3    0    0 -0.29203617874E+00  0.11247410422E+02 -0.15613486084E+01  0.11359020019E+02  0.00000000000E+00 0.  1.
</event>
<event>
 7    1  0.3435408E-009  0.4614232E+02  0.7816164E-02  0.1320468E+00
        -11   -1    0    0    0    0  0.00000000000E+00  0.00000000000E+00  0.45593999997E+02  0.45594000000E+02  0.51100000000E-03 0.  1.
         11   -1    0    0    0    0 -0.00000000000E+00 -0.00000000000E+00 -0.45593999997E+02  0.45594000000E+02  0.51100000000E-03 0. -1.
    9900012    2    1    2    0    0 -0.43169101991E+02 -0.12107872571E+01  0.12809211197E+02  0.46142320252E+02  0.10000022711E+02 0.  0.
        -12    1    1    2    0    0  0.43169101991E+02  0.12107872571E+01 -0.12809211197E+02  0.45045679748E+02  0.00000000000E+00 0.  1.
         11    1    3    3    0    0 -0.12905165039E+02 -0.20715011940E+01  0.44676309491E+00  0.13077996766E+02  0.51100000000E-03 0. -1.
        -11    1    3    3    0    0 -0.37845751955E+01  0.17392479687E+01  0.19277059110E+01  0.45895580667E+01  0.51100000000E-03 0.  1.
         12    1    3    3    0    0 -0.26479361756E+02 -0.87853403181E+00  0.10434742191E+02  0.28474765419E+02  0.00000000000E+00 0. -1.
</event>
<event>
 7    1  0.3435408E-009  0.4614232E+02  0.7816164E-02  0.1320468E+00
        -11   -1    0    0    0    0  0.00000000000E+00  0.00000000000E+00  0.45593999997E+02  0.45594000000E+02  0.51100000000E-03 0.  1.
         11   -1    0    0    0    0 -0.00000000000E+00 -0.00000000000E+00 -0.45593999997E+02  0.45594000000E+02  0.51100000000E-03 0. -1.
    9900012    2    1    2    0    0  0.26429801874E+02 -0.27034472633E+02 -0.24489106296E+02  0.46142318023E+02  0.10000002387E+02 0.  0.
        -12    1    1    2    0    0 -0.26429801874E+02  0.27034472633E+02  0.24489106296E+02  0.45045681977E+02  0.00000000000E+00 0.  1.
         11    1    3    3    0    0  0.14070452488E+02 -0.16139099972E+02 -0.14861503625E+02  0.26063623527E+02  0.51100000000E-03 0. -1.
        -11    1    3    3    0    0  0.24313683766E+01 -0.48204452589E+01 -0.77233156589E+00  0.54538739430E+01  0.51100000000E-03 0.  1.
         12    1    3    3    0    0  0.99279810090E+01 -0.60749274025E+01 -0.88552711043E+01  0.14624820552E+02  0.00000000000E+00 0. -1.
</event>
<event>
 7    1  0.3435408E-009  0.4614232E+02  0.7816164E-02  0.1320468E+00
        -11   -1    0    0    0    0  0.00000000000E+00  0.00000000000E+00  0.45593999997E+02  0.45594000000E+02  0.51100000000E-03 0.  1.
         11   -1    0    0    0    0 -0.00000000000E+00 -0.00000000000E+00 -0.45593999997E+02  0.45594000000E+02  0.51100000000E-03 0. -1.
    9900012    2    1    2    0    0 -0.22608606501E+02 -0.12900377875E+02 -0.36763359434E+02  0.46142318363E+02  0.10000005488E+02 0.  0.
        -12    1    1    2    0    0  0.22608606501E+02  0.12900377875E+02  0.36763359434E+02  0.45045681637E+02  0.00000000000E+00 0.  1.
         11    1    3    3    0    0 -0.42012844398E+01 -0.56187579906E+01 -0.98140676836E+01  0.12063878193E+02  0.51100000000E-03 0. -1.
        -11    1    3    3    0    0 -0.13108465308E+02 -0.78677936797E+01 -0.17573641773E+02  0.23293066040E+02  0.51100000000E-03 0.  1.
        -12    1    3    3    0    0 -0.52988567539E+01  0.58617379574E+00 -0.93756499776E+01  0.10785374130E+02  0.00000000000E+00 0.  1.
</event>
<event>
 7    1  0.3435408E-009  0.4614232E+02  0.7816164E-02  0.1320468E+00
        -11   -1    0    0    0    0  0.00000000000E+00  0.00000000000E+00  0.45593999997E+02  0.45594000000E+02  0.51100000000E-03 0.  1.
         11   -1    0    0    0    0 -0.00000000000E+00 -0.00000000000E+00 -0.45593999997E+02  0.45594000000E+02  0.51100000000E-03 0. -1.
    9900012    2    1    2    0    0  0.24229248615E+02  0.35541745824E+02 -0.13373159053E+02  0.46142316880E+02  0.99999919663E+01 0.  0.
        -12    1    1    2    0    0 -0.24229248615E+02 -0.35541745824E+02  0.13373159053E+02  0.45045683120E+02  0.00000000000E+00 0.  1.
         11    1    3    3    0    0  0.12637097888E+02  0.14719154833E+02 -0.53221511094E+01  0.20116536847E+02  0.51100000000E-03 0. -1.
        -11    1    3    3    0    0  0.64984111551E+01  0.11025979874E+02 -0.81529192559E+00  0.12824440764E+02  0.51100000000E-03 0.  1.
         12    1    3    3    0    0  0.50937395723E+01  0.97966111170E+01 -0.72357160178E+01  0.13201339269E+02  0.00000000000E+00 0. -1.
</event>
<event>
 7    1  0.3435408E-009  0.4614232E+02  0.7816164E-02  0.1320468E+00
        -11   -1    0    0    0    0  0.00000000000E+00  0.00000000000E+00  0.45593999997E+02  0.45594000000E+02  0.51100000000E-03 0. -1.
         11   -1    0    0    0    0 -0.00000000000E+00 -0.00000000000E+00 -0.45593999997E+02  0.45594000000E+02  0.51100000000E-03 0.  1.
    9900012    2    1    2    0    0  0.30155039607E+02  0.26709415895E+02  0.20159220188E+02  0.46142317968E+02  0.10000001882E+02 0.  0.
        -12    1    1    2    0    0 -0.30155039607E+02 -0.26709415895E+02 -0.20159220188E+02  0.45045682032E+02  0.00000000000E+00 0.  1.
         11    1    3    3    0    0  0.16062799410E+02  0.12289541693E+02  0.10541927568E+02  0.22807424165E+02  0.51100000000E-03 0. -1.
        -11    1    3    3    0    0  0.82397968822E+01  0.12739351926E+02  0.68907015480E+01  0.16663346250E+02  0.51100000000E-03 0.  1.
        -12    1    3    3    0    0  0.58524433148E+01  0.16805222752E+01  0.27265910726E+01  0.66715475527E+01  0.00000000000E+00 0.  1.
</event>
<event>
 7    1  0.3435408E-009  0.4614232E+02  0.7816164E-02  0.1320468E+00
        -11   -1    0    0    0    0  0.00000000000E+00  0.00000000000E+00  0.45593999997E+02  0.45594000000E+02  0.51100000000E-03 0.  1.
         11   -1    0    0    0    0 -0.00000000000E+00 -0.00000000000E+00 -0.45593999997E+02  0.45594000000E+02  0.51100000000E-03 0. -1.
    9900012    2    1    2    0    0 -0.24729046982E+02 -0.34972930964E+02  0.13945673159E+02  0.46142318023E+02  0.10000002392E+02 0.  0.
        -12    1    1    2    0    0  0.24729046982E+02  0.34972930964E+02 -0.13945673159E+02  0.45045681977E+02  0.00000000000E+00 0.  1.
         11    1    3    3    0    0 -0.15443312336E+02 -0.23719731788E+02  0.82657521126E+01  0.29486339723E+02  0.51100000000E-03 0. -1.
        -11    1    3    3    0    0 -0.28979790478E+01 -0.15065416920E+01 -0.74323049624E+00  0.33496779342E+01  0.51100000000E-03 0.  1.
         12    1    3    3    0    0 -0.63877555973E+01 -0.97466574849E+01  0.64231515432E+01  0.13306300367E+02  0.00000000000E+00 0. -1.
</event>
<event>
 7    1  0.3435408E-009  0.4614232E+02  0.7816164E-02  0.1320468E+00
        -11   -1    0    0    0    0  0.00000000000E+00  0.00000000000E+00  0.45593999997E+02  0.45594000000E+02  0.51100000000E-03 0.  1.
         11   -1    0    0    0    0 -0.00000000000E+00 -0.00000000000E+00 -0.45593999997E+02  0.45594000000E+02  0.51100000000E-03 0. -1.
    9900012    2    1    2    0    0  0.12422785502E+02  0.21995562691E+02 -0.37295884619E+02  0.46142318883E+02  0.10000010235E+02 0.  0.
        -12    1    1    2    0    0 -0.12422785502E+02 -0.21995562691E+02  0.37295884619E+02  0.45045681117E+02  0.00000000000E+00 0.  1.
         11    1    3    3    0    0  0.51838668955E+01  0.17040859442E+02 -0.25709303514E+02  0.31276695061E+02  0.51100000000E-03 0. -1.
        -11    1    3    3    0    0  0.39970547309E+01  0.31539948057E+01 -0.41996351327E+01  0.66000807014E+01  0.51100000000E-03 0.  1.
        -12    1    3    3    0    0  0.32418638751E+01  0.18007084437E+01 -0.73869459726E+01  0.82655431211E+01  0.00000000000E+00 0.  1.
</event>
<event>
 7    1  0.3435408E-009  0.4614232E+02  0.7816164E-02  0.1320468E+00
        -11   -1    0    0    0    0  0.00000000000E+00  0.00000000000E+00  0.45593999997E+02  0.45594000000E+02  0.51100000000E-03 0.  1.
         11   -1    0    0    0    0 -0.00000000000E+00 -0.00000000000E+00 -0.45593999997E+02  0.45594000000E+02  0.51100000000E-03 0. -1.
    9900012    2    1    2    0    0  0.35776994583E+00  0.34669524571E+02 -0.28757771727E+02  0.46142319097E+02  0.10000012181E+02 0.  0.
        -12    1    1    2    0    0 -0.35776994583E+00 -0.34669524571E+02  0.28757771727E+02  0.45045680903E+02  0.00000000000E+00 0.  1.
         11    1    3    3    0    0  0.15865276174E+01  0.33977296811E+01 -0.18312789307E+01  0.41731546400E+01  0.51100000000E-03 0. -1.
        -11    1    3    3    0    0  0.13997959772E+01  0.20782105337E+01 -0.61400446677E+00  0.25798041682E+01  0.51100000000E-03 0.  1.
        -12    1    3    3    0    0 -0.26285536488E+01  0.29193584356E+02 -0.26312488330E+02  0.39389360289E+02  0.00000000000E+00 0.  1.
</event>
<event>
 7    1  0.3435408E-009  0.4614232E+02  0.7816164E-02  0.1320468E+00
        -11   -1    0    0    0    0  0.00000000000E+00  0.00000000000E+00  0.45593999997E+02  0.45594000000E+02  0.51100000000E-03 0.  1.
         11   -1    0    0    0    0 -0.00000000000E+00 -0.00000000000E+00 -0.45593999997E+02  0.45594000000E+02  0.51100000000E-03 0. -1.
    9900012    2    1    2    0    0  0.10930632058E+02 -0.43656845706E+02 -0.19273269820E+01  0.46142317815E+02  0.10000000493E+02 0.  0.
        -12    1    1    2    0    0 -0.10930632058E+02  0.43656845706E+02  0.19273269820E+01  0.45045682185E+02  0.00000000000E+00 0.  1.
         11    1    3    3    0    0  0.18147605181E+01 -0.20834133249E+02 -0.14380253363E+01  0.20962403992E+02  0.51100000000E-03 0. -1.
        -11    1    3    3    0    0  0.52466569988E+00 -0.38139487376E+00  0.90092296035E+00  0.11101344909E+01  0.51100000000E-03 0.  1.
         12    1    3    3    0    0  0.85912058399E+01 -0.22441317583E+02 -0.13902246061E+01  0.24069779332E+02  0.00000000000E+00 0. -1.
</event>
<event>
 7    1  0.3435408E-009  0.4614232E+02  0.7816164E-02  0.1320468E+00
        -11   -1    0    0    0    0  0.00000000000E+00  0.00000000000E+00  0.45593999997E+02  0.45594000000E+02  0.51100000000E-03 0.  1.
         11   -1    0    0    0    0 -0.00000000000E+00 -0.00000000000E+00 -0.45593999997E+02  0.45594000000E+02  0.51100000000E-03 0. -1.
    9900012    2    1    2    0    0  0.43575001721E+02 -0.34396414067E+01  0.10885847279E+02  0.46142316756E+02  0.99999908323E+01 0.  0.
        -12    1    1    2    0    0 -0.43575001721E+02  0.34396414067E+01 -0.10885847279E+02  0.45045683244E+02  0.00000000000E+00 0.  1.
         11    1    3    3    0    0  0.12379696162E+01  0.63164095518E+00 -0.69409979689E+00  0.15534844241E+01  0.51100000000E-03 0. -1.
        -11    1    3    3    0    0  0.17021352603E+02 -0.48570585432E+01  0.55874577080E+01  0.18561711829E+02  0.51100000000E-03 0.  1.
         12    1    3    3    0    0  0.25315679502E+02  0.78577618131E+00  0.59924893680E+01  0.26027120503E+02  0.00000000000E+00 0. -1.
</event>
<event>
 7    1  0.3435408E-009  0.4614232E+02  0.7816164E-02  0.1320468E+00
        -11   -1    0    0    0    0  0.00000000000E+00  0.00000000000E+00  0.45593999997E+02  0.45594000000E+02  0.51100000000E-03 0.  1.
         11   -1    0    0    0    0 -0.00000000000E+00 -0.00000000000E+00 -0.45593999997E+02  0.45594000000E+02  0.51100000000E-03 0. -1.
    9900012    2    1    2    0    0 -0.24248208203E+01 -0.18357971267E+02 -0.41063592304E+02  0.46142317877E+02  0.10000001057E+02 0.  0.
        -12    1    1    2    0    0  0.24248208203E+01  0.18357971267E+02  0.41063592304E+02  0.45045682123E+02  0.00000000000E+00 0.  1.
         11    1    3    3    0    0  0.27989726929E+01 -0.44657972435E+01 -0.11493108016E+02  0.12643936305E+02  0.51100000000E-03 0. -1.
        -11    1    3    3    0    0 -0.49513431885E+01 -0.14363181470E+02 -0.28654702476E+02  0.32433142857E+02  0.51100000000E-03 0.  1.
        -12    1    3    3    0    0 -0.27245032471E+00  0.47100744663E+00 -0.91578181099E+00  0.10652387148E+01  0.00000000000E+00 0.  1.
</event>
<event>
 7    1  0.3435408E-009  0.4614232E+02  0.7816164E-02  0.1320468E+00
        -11   -1    0    0    0    0  0.00000000000E+00  0.00000000000E+00  0.45593999997E+02  0.45594000000E+02  0.51100000000E-03 0.  1.
         11   -1    0    0    0    0 -0.00000000000E+00 -0.00000000000E+00 -0.45593999997E+02  0.45594000000E+02  0.51100000000E-03 0. -1.
    9900012    2    1    2    0    0 -0.14946958552E+01  0.36458365035E+02 -0.26413387681E+02  0.46142317127E+02  0.99999942141E+01 0.  0.
        -12    1    1    2    0    0  0.14946958552E+01 -0.36458365035E+02  0.26413387681E+02  0.45045682873E+02  0.00000000000E+00 0.  1.
         11    1    3    3    0    0  0.33528524561E+01  0.10489373675E+02 -0.81649170674E+01  0.13708918654E+02  0.51100000000E-03 0. -1.
        -11    1    3    3    0    0 -0.19203295721E+01  0.74970285346E+01 -0.78988729616E+01  0.11058268257E+02  0.51100000000E-03 0.  1.
         12    1    3    3    0    0 -0.29272187392E+01  0.18471962826E+02 -0.10349597652E+02  0.21375130216E+02  0.00000000000E+00 0. -1.
</event>
<event>
 7    1  0.3435408E-009  0.4614232E+02  0.7816164E-02  0.1320468E+00
        -11   -1    0    0    0    0  0.00000000000E+00  0.00000000000E+00  0.45593999997E+02  0.45594000000E+02  0.51100000000E-03 0.  1.
         11   -1    0    0    0    0 -0.00000000000E+00 -0.00000000000E+00 -0.45593999997E+02  0.45594000000E+02  0.51100000000E-03 0. -1.
    9900012    2    1    2    0    0 -0.13073594380E+02  0.39942782970E+02 -0.16210141660E+02  0.46142317920E+02  0.10000001450E+02 0.  0.
        -12    1    1    2    0    0  0.13073594380E+02 -0.39942782970E+02  0.16210141660E+02  0.45045682080E+02  0.00000000000E+00 0.  1.
         11    1    3    3    0    0 -0.18427582721E+01  0.13596188496E+02 -0.44932785659E+01  0.14437508517E+02  0.51100000000E-03 0. -1.
        -11    1    3    3    0    0 -0.63183505563E+01  0.16666008105E+02 -0.36840125083E+01  0.18200256271E+02  0.51100000000E-03 0.  1.
        -12    1    3    3    0    0 -0.49124855519E+01  0.96805863686E+01 -0.80328505859E+01  0.13504553131E+02  0.00000000000E+00 0.  1.
</event>
<event>
 7    1  0.3435408E-009  0.4614232E+02  0.7816164E-02  0.1320468E+00
        -11   -1    0    0    0    0  0.00000000000E+00  0.00000000000E+00  0.45593999997E+02  0.45594000000E+02  0.51100000000E-03 0.  1.
         11   -1    0    0    0    0 -0.00000000000E+00 -0.00000000000E+00 -0.45593999997E+02  0.45594000000E+02  0.51100000000E-03 0. -1.
    9900012    2    1    2    0    0 -0.18646747723E+02  0.11901840076E+02 -0.39239754397E+02  0.46142319597E+02  0.10000016741E+02 0.  0.
        -12    1    1    2    0    0  0.18646747723E+02 -0.11901840076E+02  0.39239754397E+02  0.45045680403E+02  0.00000000000E+00 0.  1.
         11    1    3    3    0    0 -0.18491004444E+02  0.12832069045E+02 -0.35379511936E+02  0.41931958056E+02  0.51100000000E-03 0. -1.
        -11    1    3    3    0    0  0.60717995602E+00 -0.27534101390E+00 -0.17542682022E+01  0.18766825409E+01  0.51100000000E-03 0.  1.
         12    1    3    3    0    0 -0.76292323494E+00 -0.65488795526E+00 -0.21059742588E+01  0.23336790000E+01  0.00000000000E+00 0. -1.
</event>
<event>
 7    1  0.3435408E-009  0.4614232E+02  0.7816164E-02  0.1320468E+00
        -11   -1    0    0    0    0  0.00000000000E+00  0.00000000000E+00  0.45593999997E+02  0.45594000000E+02  0.51100000000E-03 0. -1.
         11   -1    0    0    0    0 -0.00000000000E+00 -0.00000000000E+00 -0.45593999997E+02  0.45594000000E+02  0.51100000000E-03 0.  1.
    9900012    2    1    2    0    0  0.17494970012E+02  0.33566749720E+02  0.24419518789E+02  0.46142316962E+02  0.99999927147E+01 0.  0.
        -12    1    1    2    0    0 -0.17494970012E+02 -0.33566749720E+02 -0.24419518789E+02  0.45045683038E+02  0.00000000000E+00 0.  1.
         11    1    3    3    0    0  0.66522921400E+01  0.79436807457E+01  0.50694625092E+01  0.11534925440E+02  0.51100000000E-03 0. -1.
        -11    1    3    3    0    0  0.11847075797E+01 -0.12554290652E+00  0.84928834877E+00  0.14630734880E+01  0.51100000000E-03 0.  1.
        -12    1    3    3    0    0  0.96579702922E+01  0.25748611880E+02  0.18500767931E+02  0.33144318035E+02  0.00000000000E+00 0.  1.
</event>
<event>
 7    1  0.3435408E-009  0.4614232E+02  0.7816164E-02  0.1320468E+00
        -11   -1    0    0    0    0  0.00000000000E+00  0.00000000000E+00  0.45593999997E+02  0.45594000000E+02  0.51100000000E-03 0.  1.
         11   -1    0    0    0    0 -0.00000000000E+00 -0.00000000000E+00 -0.45593999997E+02  0.45594000000E+02  0.51100000000E-03 0. -1.
    9900012    2    1    2    0    0  0.27632629803E+02  0.18861752273E+02 -0.30162652281E+02  0.46142317396E+02  0.99999966698E+01 0.  0.
        -12    1    1    2    0    0 -0.27632629803E+02 -0.18861752273E+02  0.30162652281E+02  0.45045682604E+02  0.00000000000E+00 0.  1.
         11    1    3    3    0    0  0.14280605559E+02  0.11057226957E+02 -0.18725768464E+02  0.26016386528E+02  0.51100000000E-03 0.  1.
        -11    1    3    3    0    0  0.69051431494E+01  0.42345015317E+01 -0.95427829855E+01  0.12517056863E+02  0.51100000000E-03 0. -1.
         12    1    3    3    0    0  0.64468810948E+01  0.35700237851E+01 -0.18941008306E+01  0.76088740056E+01  0.00000000000E+00 0. -1.
</event>
<event>
 7    1  0.3435408E-009  0.4614232E+02  0.7816164E-02  0.1320468E+00
        -11   -1    0    0    0    0  0.00000000000E+00  0.00000000000E+00  0.45593999997E+02  0.45594000000E+02  0.51100000000E-03 0. -1.
         11   -1    0    0    0    0 -0.00000000000E+00 -0.00000000000E+00 -0.45593999997E+02  0.45594000000E+02  0.51100000000E-03 0.  1.
    9900012    2    1    2    0    0 -0.82414221564E+01  0.41584202346E+02  0.15229788501E+02  0.46142318946E+02  0.10000010800E+02 0.  0.
        -12    1    1    2    0    0  0.82414221564E+01 -0.41584202346E+02 -0.15229788501E+02  0.45045681054E+02  0.00000000000E+00 0.  1.
         11    1    3    3    0    0 -0.96759961822E+01  0.28267897633E+02  0.90714779173E+01  0.31224840281E+02  0.51100000000E-03 0. -1.
        -11    1    3    3    0    0  0.18739238215E+01  0.78091582230E+01  0.31469199444E+01  0.86254071230E+01  0.51100000000E-03 0.  1.
        -12    1    3    3    0    0 -0.43934979560E+00  0.55071464897E+01  0.30113906393E+01  0.62920715416E+01  0.00000000000E+00 0.  1.
</event>
<event>
 7    1  0.3435408E-009  0.4614232E+02  0.7816164E-02  0.1320468E+00
        -11   -1    0    0    0    0  0.00000000000E+00  0.00000000000E+00  0.45593999997E+02  0.45594000000E+02  0.51100000000E-03 0.  1.
         11   -1    0    0    0    0 -0.00000000000E+00 -0.00000000000E+00 -0.45593999997E+02  0.45594000000E+02  0.51100000000E-03 0. -1.
    9900012    2    1    2    0    0 -0.93203576931E+01 -0.98805026825E+01 -0.42949040955E+02  0.46142317413E+02  0.99999968266E+01 0.  0.
        -12    1    1    2    0    0  0.93203576931E+01  0.98805026825E+01  0.42949040955E+02  0.45045682587E+02  0.00000000000E+00 0.  1.
         11    1    3    3    0    0 -0.21831030566E+01 -0.15101649913E+01 -0.15984160289E+02  0.16203083585E+02  0.51100000000E-03 0. -1.
        -11    1    3    3    0    0 -0.63088019775E+01 -0.34648930594E+01 -0.10432301246E+02  0.12674358992E+02  0.51100000000E-03 0.  1.
        -12    1    3    3    0    0 -0.82845265899E+00 -0.49054446318E+01 -0.16532579419E+02  0.17264874836E+02  0.00000000000E+00 0.  1.
</event>
<event>
 7    1  0.3435408E-009  0.4614232E+02  0.7816164E-02  0.1320468E+00
        -11   -1    0    0    0    0  0.00000000000E+00  0.00000000000E+00  0.45593999997E+02  0.45594000000E+02  0.51100000000E-03 0.  1.
         11   -1    0    0    0    0 -0.00000000000E+00 -0.00000000000E+00 -0.45593999997E+02  0.45594000000E+02  0.51100000000E-03 0. -1.
    9900012    2    1    2    0    0 -0.32970355526E+02 -0.14134746583E+02 -0.27244782138E+02  0.46142316985E+02  0.99999929255E+01 0.  0.
        -12    1    1    2    0    0  0.32970355526E+02  0.14134746583E+02  0.27244782138E+02  0.45045683015E+02  0.00000000000E+00 0.  1.
         11    1    3    3    0    0 -0.69916595359E+01 -0.32106812633E+01 -0.53750453322E+01  0.93852485223E+01  0.51100000000E-03 0. -1.
        -11    1    3    3    0    0 -0.13797233977E+02 -0.32464301431E+01 -0.61836375388E+01  0.15464163332E+02  0.51100000000E-03 0.  1.
        -12    1    3    3    0    0 -0.12181462013E+02 -0.76776351769E+01 -0.15686099267E+02  0.21292905131E+02  0.00000000000E+00 0.  1.
</event>
<event>
 7    1  0.3435408E-009  0.4614232E+02  0.7816164E-02  0.1320468E+00
        -11   -1    0    0    0    0  0.00000000000E+00  0.00000000000E+00  0.45593999997E+02  0.45594000000E+02  0.51100000000E-03 0. -1.
         11   -1    0    0    0    0 -0.00000000000E+00 -0.00000000000E+00 -0.45593999997E+02  0.45594000000E+02  0.51100000000E-03 0.  1.
    9900012    2    1    2    0    0  0.16360396928E+02 -0.23884957460E+02  0.34510283235E+02  0.46142318415E+02  0.10000005964E+02 0.  0.
        -12    1    1    2    0    0 -0.16360396928E+02  0.23884957460E+02 -0.34510283235E+02  0.45045681585E+02  0.00000000000E+00 0.  1.
         11    1    3    3    0    0  0.16609503145E+01 -0.17406623799E+01  0.42323134678E+01  0.48683815605E+01  0.51100000000E-03 0. -1.
        -11    1    3    3    0    0  0.26759675295E+01 -0.12070431828E+02  0.13434759496E+02  0.18257844607E+02  0.51100000000E-03 0.  1.
        -12    1    3    3    0    0  0.12023479084E+02 -0.10073863252E+02  0.16843210271E+02  0.23016092247E+02  0.00000000000E+00 0.  1.
</event>
<event>
 7    1  0.3435408E-009  0.4614232E+02  0.7816164E-02  0.1320468E+00
        -11   -1    0    0    0    0  0.00000000000E+00  0.00000000000E+00  0.45593999997E+02  0.45594000000E+02  0.51100000000E-03 0.  1.
         11   -1    0    0    0    0 -0.00000000000E+00 -0.00000000000E+00 -0.45593999997E+02  0.45594000000E+02  0.51100000000E-03 0. -1.
    9900012    2    1    2    0    0 -0.37017302467E+02 -0.89267110792E+01 -0.24065464149E+02  0.46142318550E+02  0.10000007192E+02 0.  0.
        -12    1    1    2    0    0  0.37017302467E+02  0.89267110792E+01  0.24065464149E+02  0.45045681450E+02  0.00000000000E+00 0.  1.
         11    1    3    3    0    0 -0.23647285095E+01  0.17820386624E+01 -0.22775436400E+01  0.37356134718E+01  0.51100000000E-03 0. -1.
        -11    1    3    3    0    0 -0.80184381181E+01 -0.20953250422E+01 -0.36793466487E+01  0.90677080295E+01  0.51100000000E-03 0.  1.
         12    1    3    3    0    0 -0.26634135839E+02 -0.86134246994E+01 -0.18108573860E+02  0.33338997049E+02  0.00000000000E+00 0. -1.
</event>
<event>
 7    1  0.3435408E-009  0.4614232E+02  0.7816164E-02  0.1320468E+00
        -11   -1    0    0    0    0  0.00000000000E+00  0.00000000000E+00  0.45593999997E+02  0.45594000000E+02  0.51100000000E-03 0.  1.
         11   -1    0    0    0    0 -0.00000000000E+00 -0.00000000000E+00 -0.45593999997E+02  0.45594000000E+02  0.51100000000E-03 0. -1.
    9900012    2    1    2    0    0  0.78742897428E+01  0.31455436759E+02 -0.31267627762E+02  0.46142317781E+02  0.10000000184E+02 0.  0.
        -12    1    1    2    0    0 -0.78742897428E+01 -0.31455436759E+02  0.31267627762E+02  0.45045682219E+02  0.00000000000E+00 0.  1.
         11    1    3    3    0    0  0.33667815900E+01  0.54082527014E+01 -0.42560642198E+01  0.76614945318E+01  0.51100000000E-03 0. -1.
        -11    1    3    3    0    0 -0.12243106890E+01  0.12497266777E+01 -0.30970222213E+01  0.35570072157E+01  0.51100000000E-03 0.  1.
        -12    1    3    3    0    0  0.57318188418E+01  0.24797457380E+02 -0.23914541321E+02  0.34923816034E+02  0.00000000000E+00 0.  1.
</event>
<event>
 7    1  0.3435408E-009  0.4614232E+02  0.7816164E-02  0.1320468E+00
        -11   -1    0    0    0    0  0.00000000000E+00  0.00000000000E+00  0.45593999997E+02  0.45594000000E+02  0.51100000000E-03 0. -1.
         11   -1    0    0    0    0 -0.00000000000E+00 -0.00000000000E+00 -0.45593999997E+02  0.45594000000E+02  0.51100000000E-03 0.  1.
    9900012    2    1    2    0    0 -0.35280846491E+02  0.18286912906E+02  0.21212356915E+02  0.46142318757E+02  0.10000009081E+02 0.  0.
        -12    1    1    2    0    0  0.35280846491E+02 -0.18286912906E+02 -0.21212356915E+02  0.45045681243E+02  0.00000000000E+00 0.  1.
         11    1    3    3    0    0 -0.11265519351E+02  0.22230494723E+01  0.53170486231E+01  0.12654046054E+02  0.51100000000E-03 0. -1.
        -11    1    3    3    0    0 -0.56031604839E-01  0.83679768544E-01  0.11110848701E+01  0.11156395897E+01  0.51100000000E-03 0.  1.
         12    1    3    3    0    0 -0.23959295535E+02  0.15980183665E+02  0.14784223421E+02  0.32372633113E+02  0.00000000000E+00 0. -1.
</event>
<event>
 7    1  0.3435408E-009  0.4614232E+02  0.7816164E-02  0.1320468E+00
        -11   -1    0    0    0    0  0.00000000000E+00  0.00000000000E+00  0.45593999997E+02  0.45594000000E+02  0.51100000000E-03 0.  1.
         11   -1    0    0    0    0 -0.00000000000E+00 -0.00000000000E+00 -0.45593999997E+02  0.45594000000E+02  0.51100000000E-03 0. -1.
    9900012    2    1    2    0    0  0.35906084037E+01  0.43961729845E+02 -0.91426095086E+01  0.46142317984E+02  0.10000002030E+02 0.  0.
        -12    1    1    2    0    0 -0.35906084037E+01 -0.43961729845E+02  0.91426095086E+01  0.45045682016E+02  0.00000000000E+00 0.  1.
         11    1    3    3    0    0  0.17876928703E+01  0.86087252798E+01 -0.46658641703E+01  0.99537071214E+01  0.51100000000E-03 0. -1.
        -11    1    3    3    0    0  0.32476256992E+01  0.23529662828E+02 -0.49700169781E+01  0.24267121266E+02  0.51100000000E-03 0.  1.
        -12    1    3    3    0    0 -0.14447101658E+01  0.11823341737E+02  0.49327163981E+00  0.11921489597E+02  0.00000000000E+00 0.  1.
</event>
<event>
 7    1  0.3435408E-009  0.4614231E+02  0.7816164E-02  0.1320468E+00
        -11   -1    0    0    0    0  0.00000000000E+00  0.00000000000E+00  0.45593999997E+02  0.45594000000E+02  0.51100000000E-03 0. -1.
         11   -1    0    0    0    0 -0.00000000000E+00 -0.00000000000E+00 -0.45593999997E+02  0.45594000000E+02  0.51100000000E-03 0.  1.
    9900012    2    1    2    0    0 -0.17148518276E+02 -0.41122880140E+02  0.66295770504E+01  0.46142309397E+02  0.99999237267E+01 0.  0.
        -12    1    1    2    0    0  0.17148518276E+02  0.41122880140E+02 -0.66295770504E+01  0.45045690603E+02  0.00000000000E+00 0.  1.
         11    1    3    3    0    0 -0.28631003213E+01 -0.52752450742E+01 -0.10753314824E+01  0.60976956386E+01  0.51100000000E-03 0. -1.
        -11    1    3    3    0    0 -0.97628498188E+01 -0.19559129948E+02  0.75870685368E+01  0.23139498917E+02  0.51100000000E-03 0.  1.
         12    1    3    3    0    0 -0.45225681360E+01 -0.16288505118E+02  0.11783999601E+00  0.16905114841E+02  0.00000000000E+00 0. -1.
</event>
<event>
 7    1  0.3435408E-009  0.4614232E+02  0.7816164E-02  0.1320468E+00
        -11   -1    0    0    0    0  0.00000000000E+00  0.00000000000E+00  0.45593999997E+02  0.45594000000E+02  0.51100000000E-03 0. -1.
         11   -1    0    0    0    0 -0.00000000000E+00 -0.00000000000E+00 -0.45593999997E+02  0.45594000000E+02  0.51100000000E-03 0.  1.
    9900012    2    1    2    0    0  0.60023726413E+01 -0.24131931800E+02  0.37559750113E+02  0.46142318317E+02  0.10000005067E+02 0.  0.
        -12    1    1    2    0    0 -0.60023726413E+01  0.24131931800E+02 -0.37559750113E+02  0.45045681683E+02  0.00000000000E+00 0.  1.
         11    1    3    3    0    0  0.45838739648E+01 -0.16720860715E+02  0.26643068000E+02  0.31787610107E+02  0.51100000000E-03 0. -1.
        -11    1    3    3    0    0  0.97732635387E+00 -0.81519857804E+01  0.10659369858E+02  0.13454820883E+02  0.51100000000E-03 0.  1.
         12    1    3    3    0    0  0.44117232267E+00  0.74091469542E+00  0.25731225513E+00  0.89988732674E+00  0.00000000000E+00 0. -1.
</event>
<event>
 7    1  0.3435408E-009  0.4614231E+02  0.7816164E-02  0.1320468E+00
        -11   -1    0    0    0    0  0.00000000000E+00  0.00000000000E+00  0.45593999997E+02  0.45594000000E+02  0.51100000000E-03 0. -1.
         11   -1    0    0    0    0 -0.00000000000E+00 -0.00000000000E+00 -0.45593999997E+02  0.45594000000E+02  0.51100000000E-03 0.  1.
    9900012    2    1    2    0    0  0.35081455165E+01 -0.33983154387E+02  0.29359018155E+02  0.46142314145E+02  0.99999670275E+01 0.  0.
        -12    1    1    2    0    0 -0.35081455165E+01  0.33983154387E+02 -0.29359018155E+02  0.45045685855E+02  0.00000000000E+00 0.  1.
         11    1    3    3    0    0  0.13806897458E+01 -0.97770187008E+01  0.95566844293E+01  0.13741419737E+02  0.51100000000E-03 0. -1.
        -11    1    3    3    0    0 -0.20067310181E+01 -0.13508370406E+01  0.18356481366E+01  0.30366650180E+01  0.51100000000E-03 0.  1.
        -12    1    3    3    0    0  0.41341867888E+01 -0.22855298646E+02  0.17966685590E+02  0.29364229390E+02  0.00000000000E+00 0.  1.
</event>
<event>
 7    1  0.3435408E-009  0.4614232E+02  0.7816164E-02  0.1320468E+00
        -11   -1    0    0    0    0  0.00000000000E+00  0.00000000000E+00  0.45593999997E+02  0.45594000000E+02  0.51100000000E-03 0. -1.
         11   -1    0    0    0    0 -0.00000000000E+00 -0.00000000000E+00 -0.45593999997E+02  0.45594000000E+02  0.51100000000E-03 0.  1.
    9900012    2    1    2    0    0 -0.14368905786E+02 -0.71407064908E+01  0.42091072038E+02  0.46142317765E+02  0.10000000034E+02 0.  0.
        -12    1    1    2    0    0  0.14368905786E+02  0.71407064908E+01 -0.42091072038E+02  0.45045682235E+02  0.00000000000E+00 0.  1.
         11    1    3    3    0    0 -0.55610911519E+01 -0.76410543051E+01  0.26338649136E+02  0.27982778351E+02  0.51100000000E-03 0. -1.
        -11    1    3    3    0    0 -0.41114368049E+01 -0.12486565688E+00  0.55251655764E+01  0.68881752984E+01  0.51100000000E-03 0.  1.
         12    1    3    3    0    0 -0.46963778296E+01  0.62521347118E+00  0.10227257326E+02  0.11271364115E+02  0.00000000000E+00 0. -1.
</event>
<event>
 7    1  0.3435408E-009  0.4614232E+02  0.7816164E-02  0.1320468E+00
        -11   -1    0    0    0    0  0.00000000000E+00  0.00000000000E+00  0.45593999997E+02  0.45594000000E+02  0.51100000000E-03 0.  1.
         11   -1    0    0    0    0 -0.00000000000E+00 -0.00000000000E+00 -0.45593999997E+02  0.45594000000E+02  0.51100000000E-03 0. -1.
    9900012    2    1    2    0    0  0.14645491406E+02 -0.10855162034E+01 -0.42584562597E+02  0.46142315018E+02  0.99999749828E+01 0.  0.
        -12    1    1    2    0    0 -0.14645491406E+02  0.10855162034E+01  0.42584562597E+02  0.45045684982E+02  0.00000000000E+00 0.  1.
         11    1    3    3    0    0  0.67267375957E+01 -0.17100630931E+01 -0.10697466593E+02  0.12751827564E+02  0.51100000000E-03 0. -1.
        -11    1    3    3    0    0  0.32156912771E+01  0.97441981375E-01 -0.41418816474E+01  0.52445542396E+01  0.51100000000E-03 0.  1.
         12    1    3    3    0    0  0.47030625335E+01  0.52710490836E+00 -0.27745214357E+02  0.28145933214E+02  0.00000000000E+00 0. -1.
</event>
<event>
 7    1  0.3435408E-009  0.4614232E+02  0.7816164E-02  0.1320468E+00
        -11   -1    0    0    0    0  0.00000000000E+00  0.00000000000E+00  0.45593999997E+02  0.45594000000E+02  0.51100000000E-03 0.  1.
         11   -1    0    0    0    0 -0.00000000000E+00 -0.00000000000E+00 -0.45593999997E+02  0.45594000000E+02  0.51100000000E-03 0. -1.
    9900012    2    1    2    0    0 -0.31380884183E+02 -0.12802400027E+02 -0.29672414349E+02  0.46142317500E+02  0.99999976220E+01 0.  0.
        -12    1    1    2    0    0  0.31380884183E+02  0.12802400027E+02  0.29672414349E+02  0.45045682500E+02  0.00000000000E+00 0.  1.
         11    1    3    3    0    0 -0.13443781127E+02 -0.67147454216E+01 -0.12123503561E+02  0.19308091462E+02  0.51100000000E-03 0. -1.
        -11    1    3    3    0    0 -0.86782643429E+01 -0.35117257939E+01 -0.13447042157E+02  0.16384975834E+02  0.51100000000E-03 0.  1.
        -12    1    3    3    0    0 -0.92588387128E+01 -0.25759288113E+01 -0.41018686320E+01  0.10449250204E+02  0.00000000000E+00 0.  1.
</event>
<event>
 7    1  0.3435408E-009  0.4614232E+02  0.7816164E-02  0.1320468E+00
        -11   -1    0    0    0    0  0.00000000000E+00  0.00000000000E+00  0.45593999997E+02  0.45594000000E+02  0.51100000000E-03 0.  1.
         11   -1    0    0    0    0 -0.00000000000E+00 -0.00000000000E+00 -0.45593999997E+02  0.45594000000E+02  0.51100000000E-03 0. -1.
    9900012    2    1    2    0    0 -0.19390742236E+01  0.34344352405E+02 -0.29082966357E+02  0.46142317820E+02  0.10000000536E+02 0.  0.
        -12    1    1    2    0    0  0.19390742236E+01 -0.34344352405E+02  0.29082966357E+02  0.45045682180E+02  0.00000000000E+00 0.  1.
         11    1    3    3    0    0  0.80239707517E+00  0.77598875274E+01 -0.35980374065E+01  0.85910167585E+01  0.51100000000E-03 0. -1.
        -11    1    3    3    0    0 -0.31332309982E+01  0.12326706521E+02 -0.15925290020E+02  0.20380865846E+02  0.51100000000E-03 0.  1.
        -12    1    3    3    0    0  0.39175969936E+00  0.14257758356E+02 -0.95596389302E+01  0.17170435215E+02  0.00000000000E+00 0.  1.
</event>
<event>
 7    1  0.3435408E-009  0.4614232E+02  0.7816164E-02  0.1320468E+00
        -11   -1    0    0    0    0  0.00000000000E+00  0.00000000000E+00  0.45593999997E+02  0.45594000000E+02  0.51100000000E-03 0.  1.
         11   -1    0    0    0    0 -0.00000000000E+00 -0.00000000000E+00 -0.45593999997E+02  0.45594000000E+02  0.51100000000E-03 0. -1.
    9900012    2    1    2    0    0  0.36720581603E+02  0.34559611020E+01 -0.25860560336E+02  0.46142319171E+02  0.10000012861E+02 0.  0.
        -12    1    1    2    0    0 -0.36720581603E+02 -0.34559611020E+01  0.25860560336E+02  0.45045680829E+02  0.00000000000E+00 0.  1.
         11    1    3    3    0    0  0.21437527814E+02 -0.15032031889E+01 -0.18822899676E+02  0.28567967570E+02  0.51100000000E-03 0. -1.
        -11    1    3    3    0    0  0.59711445288E+01  0.16221547753E+01 -0.22404829341E+01  0.65807079511E+01  0.51100000000E-03 0.  1.
         12    1    3    3    0    0  0.93119092604E+01  0.33370095156E+01 -0.47971777263E+01  0.10993643651E+02  0.00000000000E+00 0. -1.
</event>
<event>
 7    1  0.3435408E-009  0.4614232E+02  0.7816164E-02  0.1320468E+00
        -11   -1    0    0    0    0  0.00000000000E+00  0.00000000000E+00  0.45593999997E+02  0.45594000000E+02  0.51100000000E-03 0. -1.
         11   -1    0    0    0    0 -0.00000000000E+00 -0.00000000000E+00 -0.45593999997E+02  0.45594000000E+02  0.51100000000E-03 0.  1.
    9900012    2    1    2    0    0  0.24694125542E+02  0.11695639421E+01  0.37655618048E+02  0.46142320000E+02  0.10000020414E+02 0.  0.
        -12    1    1    2    0    0 -0.24694125542E+02 -0.11695639421E+01 -0.37655618048E+02  0.45045680000E+02  0.00000000000E+00 0.  1.
         11    1    3    3    0    0  0.13937178739E+02  0.25623069918E+01  0.18426031925E+02  0.23244978406E+02  0.51100000000E-03 0. -1.
        -11    1    3    3    0    0 -0.29312506816E+00  0.34205766408E+00 -0.18829464627E+00  0.48824265081E+00  0.51100000000E-03 0.  1.
        -12    1    3    3    0    0  0.11050071871E+02 -0.17348007137E+01  0.19417880770E+02  0.22409098943E+02  0.00000000000E+00 0.  1.
</event>
<event>
 7    1  0.3435408E-009  0.4614232E+02  0.7816164E-02  0.1320468E+00
        -11   -1    0    0    0    0  0.00000000000E+00  0.00000000000E+00  0.45593999997E+02  0.45594000000E+02  0.51100000000E-03 0. -1.
         11   -1    0    0    0    0 -0.00000000000E+00 -0.00000000000E+00 -0.45593999997E+02  0.45594000000E+02  0.51100000000E-03 0.  1.
    9900012    2    1    2    0    0 -0.43004992667E+02 -0.11288110926E+02  0.72293008881E+01  0.46142316146E+02  0.99999852705E+01 0.  0.
        -12    1    1    2    0    0  0.43004992667E+02  0.11288110926E+02 -0.72293008881E+01  0.45045683854E+02  0.00000000000E+00 0.  1.
         11    1    3    3    0    0 -0.33116481525E+01 -0.71979021549E+00  0.41377327008E+00  0.34141353254E+01  0.51100000000E-03 0. -1.
        -11    1    3    3    0    0 -0.18529918090E+01 -0.50115723068E+00  0.27603022926E+01  0.33621430995E+01  0.51100000000E-03 0.  1.
        -12    1    3    3    0    0 -0.37840352705E+02 -0.10067163480E+02  0.40552253255E+01  0.39366037721E+02  0.00000000000E+00 0.  1.
</event>
<event>
 7    1  0.3435408E-009  0.4614232E+02  0.7816164E-02  0.1320468E+00
        -11   -1    0    0    0    0  0.00000000000E+00  0.00000000000E+00  0.45593999997E+02  0.45594000000E+02  0.51100000000E-03 0. -1.
         11   -1    0    0    0    0 -0.00000000000E+00 -0.00000000000E+00 -0.45593999997E+02  0.45594000000E+02  0.51100000000E-03 0.  1.
    9900012    2    1    2    0    0  0.34560433389E+02  0.20342795869E+02  0.20514887581E+02  0.46142317496E+02  0.99999975784E+01 0.  0.
        -12    1    1    2    0    0 -0.34560433389E+02 -0.20342795869E+02 -0.20514887581E+02  0.45045682504E+02  0.00000000000E+00 0.  1.
         11    1    3    3    0    0  0.53841032674E+01  0.18963052942E+01  0.22284429332E+00  0.57126352590E+01  0.51100000000E-03 0. -1.
        -11    1    3    3    0    0  0.19014474673E+02  0.11181650520E+02  0.98903750622E+01  0.24174347449E+02  0.51100000000E-03 0.  1.
        -12    1    3    3    0    0  0.10161855449E+02  0.72648400547E+01  0.10401668226E+02  0.16255334788E+02  0.00000000000E+00 0.  1.
</event>
<event>
 7    1  0.3435408E-009  0.4614232E+02  0.7816164E-02  0.1320468E+00
        -11   -1    0    0    0    0  0.00000000000E+00  0.00000000000E+00  0.45593999997E+02  0.45594000000E+02  0.51100000000E-03 0.  1.
         11   -1    0    0    0    0 -0.00000000000E+00 -0.00000000000E+00 -0.45593999997E+02  0.45594000000E+02  0.51100000000E-03 0. -1.
    9900012    2    1    2    0    0 -0.15038123155E+02 -0.23764650284E+02 -0.35188204452E+02  0.46142317813E+02  0.10000000470E+02 0.  0.
        -12    1    1    2    0    0  0.15038123155E+02  0.23764650284E+02  0.35188204452E+02  0.45045682187E+02  0.00000000000E+00 0.  1.
         11    1    3    3    0    0 -0.13718507472E+02 -0.17908457245E+02 -0.25408681150E+02  0.33978101274E+02  0.51100000000E-03 0. -1.
        -11    1    3    3    0    0  0.36547879768E+00 -0.45404496801E+00  0.26114259862E+00  0.63869186817E+00  0.51100000000E-03 0.  1.
         12    1    3    3    0    0 -0.16850944801E+01 -0.54021480713E+01 -0.10040665901E+02  0.11525524671E+02  0.00000000000E+00 0. -1.
</event>
<event>
 7    1  0.3435408E-009  0.4614232E+02  0.7816164E-02  0.1320468E+00
        -11   -1    0    0    0    0  0.00000000000E+00  0.00000000000E+00  0.45593999997E+02  0.45594000000E+02  0.51100000000E-03 0.  1.
         11   -1    0    0    0    0 -0.00000000000E+00 -0.00000000000E+00 -0.45593999997E+02  0.45594000000E+02  0.51100000000E-03 0. -1.
    9900012    2    1    2    0    0  0.37423107708E+02  0.72622614961E+01 -0.23997589491E+02  0.46142315036E+02  0.99999751476E+01 0.  0.
        -12    1    1    2    0    0 -0.37423107708E+02 -0.72622614961E+01  0.23997589491E+02  0.45045684964E+02  0.00000000000E+00 0.  1.
         11    1    3    3    0    0  0.71255012680E+01  0.44177786291E+01 -0.31810172229E+01  0.89670735008E+01  0.51100000000E-03 0. -1.
        -11    1    3    3    0    0  0.13248140311E+02 -0.44355176449E+00 -0.70325195224E+01  0.15005542008E+02  0.51100000000E-03 0.  1.
         12    1    3    3    0    0  0.17049466129E+02  0.32880346315E+01 -0.13784052746E+02  0.22169699527E+02  0.00000000000E+00 0. -1.
</event>
<event>
 7    1  0.3435408E-009  0.4614232E+02  0.7816164E-02  0.1320468E+00
        -11   -1    0    0    0    0  0.00000000000E+00  0.00000000000E+00  0.45593999997E+02  0.45594000000E+02  0.51100000000E-03 0. -1.
         11   -1    0    0    0    0 -0.00000000000E+00 -0.00000000000E+00 -0.45593999997E+02  0.45594000000E+02  0.51100000000E-03 0.  1.
    9900012    2    1    2    0    0 -0.40797846807E+02  0.13080996512E+02  0.13911748929E+02  0.46142317276E+02  0.99999955734E+01 0.  0.
        -12    1    1    2    0    0  0.40797846807E+02 -0.13080996512E+02 -0.13911748929E+02  0.45045682724E+02  0.00000000000E+00 0.  1.
         11    1    3    3    0    0 -0.18955152971E+02  0.56456276953E+01  0.22895014226E+01  0.19910116857E+02  0.51100000000E-03 0. -1.
        -11    1    3    3    0    0 -0.23587075020E+01  0.12234882497E+01  0.30847539447E+01  0.40713795866E+01  0.51100000000E-03 0.  1.
         12    1    3    3    0    0 -0.19483986333E+02  0.62118805674E+01  0.85374935617E+01  0.22160820832E+02  0.00000000000E+00 0. -1.
</event>
<event>
 7    1  0.3435408E-009  0.4614232E+02  0.7816164E-02  0.1320468E+00
        -11   -1    0    0    0    0  0.00000000000E+00  0.00000000000E+00  0.45593999997E+02  0.45594000000E+02  0.51100000000E-03 0. -1.
         11   -1    0    0    0    0 -0.00000000000E+00 -0.00000000000E+00 -0.45593999997E+02  0.45594000000E+02  0.51100000000E-03 0.  1.
    9900012    2    1    2    0    0  0.25582665960E+02 -0.29488171797E+02  0.22474171814E+02  0.46142317940E+02  0.10000001630E+02 0.  0.
        -12    1    1    2    0    0 -0.25582665960E+02  0.29488171797E+02 -0.22474171814E+02  0.45045682060E+02  0.00000000000E+00 0.  1.
         11    1    3    3    0    0  0.38796954141E+01 -0.68965634068E+01  0.83692185344E+01  0.11517744678E+02  0.51100000000E-03 0.  1.
        -11    1    3    3    0    0  0.71189933864E+01 -0.96453586796E+01  0.69194316927E+01  0.13841659803E+02  0.51100000000E-03 0. -1.
         12    1    3    3    0    0  0.14583977160E+02 -0.12946249710E+02  0.71855215866E+01  0.20782913459E+02  0.00000000000E+00 0. -1.
</event>
<event>
 7    1  0.3435408E-009  0.4614232E+02  0.7816164E-02  0.1320468E+00
        -11   -1    0    0    0    0  0.00000000000E+00  0.00000000000E+00  0.45593999997E+02  0.45594000000E+02  0.51100000000E-03 0.  1.
         11   -1    0    0    0    0 -0.00000000000E+00 -0.00000000000E+00 -0.45593999997E+02  0.45594000000E+02  0.51100000000E-03 0. -1.
    9900012    2    1    2    0    0  0.77884297197E+01  0.43147152962E+02 -0.10333298815E+02  0.46142317515E+02  0.99999977518E+01 0.  0.
        -12    1    1    2    0    0 -0.77884297197E+01 -0.43147152962E+02  0.10333298815E+02  0.45045682485E+02  0.00000000000E+00 0.  1.
         11    1    3    3    0    0  0.41438651840E+01  0.19179668311E+02 -0.48839394270E+01  0.20220884248E+02  0.51100000000E-03 0. -1.
        -11    1    3    3    0    0  0.31466286946E+01  0.11602666073E+02  0.81883086395E+00  0.12049631380E+02  0.51100000000E-03 0.  1.
        -12    1    3    3    0    0  0.49793584106E+00  0.12364818578E+02 -0.62681902514E+01  0.13871801887E+02  0.00000000000E+00 0.  1.
</event>
<event>
 7    1  0.3435408E-009  0.4614232E+02  0.7816164E-02  0.1320468E+00
        -11   -1    0    0    0    0  0.00000000000E+00  0.00000000000E+00  0.45593999997E+02  0.45594000000E+02  0.51100000000E-03 0.  1.
         11   -1    0    0    0    0 -0.00000000000E+00 -0.00000000000E+00 -0.45593999997E+02  0.45594000000E+02  0.51100000000E-03 0. -1.
    9900012    2    1    2    0    0  0.25562068168E+02  0.28027928468E+02 -0.24292571951E+02  0.46142321458E+02  0.10000033713E+02 0.  0.
        -12    1    1    2    0    0 -0.25562068168E+02 -0.28027928468E+02  0.24292571951E+02  0.45045678542E+02  0.00000000000E+00 0.  1.
         11    1    3    3    0    0  0.49510454846E+01  0.12293366710E+01 -0.50346610440E+01  0.71674215817E+01  0.51100000000E-03 0. -1.
        -11    1    3    3    0    0  0.68634465593E+01  0.10703524730E+02 -0.69946430243E+01  0.14511973388E+02  0.51100000000E-03 0.  1.
         12    1    3    3    0    0  0.13747576124E+02  0.16095067067E+02 -0.12263267883E+02  0.24462926488E+02  0.00000000000E+00 0. -1.
</event>
<event>
 7    1  0.3435408E-009  0.4614232E+02  0.7816164E-02  0.1320468E+00
        -11   -1    0    0    0    0  0.00000000000E+00  0.00000000000E+00  0.45593999997E+02  0.45594000000E+02  0.51100000000E-03 0.  1.
         11   -1    0    0    0    0 -0.00000000000E+00 -0.00000000000E+00 -0.45593999997E+02  0.45594000000E+02  0.51100000000E-03 0. -1.
    9900012    2    1    2    0    0  0.45931442089E+01 -0.39015234608E+02 -0.22041506089E+02  0.46142317677E+02  0.99999992350E+01 0.  0.
        -12    1    1    2    0    0 -0.45931442089E+01  0.39015234608E+02  0.22041506089E+02  0.45045682323E+02  0.00000000000E+00 0.  1.
         11    1    3    3    0    0  0.59930997544E+01 -0.27035128970E+02 -0.14036706687E+02  0.31045846389E+02  0.51100000000E-03 0. -1.
        -11    1    3    3    0    0  0.67558170871E+00 -0.44940125740E+01 -0.10377907089E+01  0.46614986300E+01  0.51100000000E-03 0.  1.
         12    1    3    3    0    0 -0.20755372542E+01 -0.74860930635E+01 -0.69670086934E+01  0.10434972659E+02  0.00000000000E+00 0. -1.
</event>
<event>
 7    1  0.3435408E-009  0.4614232E+02  0.7816164E-02  0.1320468E+00
        -11   -1    0    0    0    0  0.00000000000E+00  0.00000000000E+00  0.45593999997E+02  0.45594000000E+02  0.51100000000E-03 0.  1.
         11   -1    0    0    0    0 -0.00000000000E+00 -0.00000000000E+00 -0.45593999997E+02  0.45594000000E+02  0.51100000000E-03 0. -1.
    9900012    2    1    2    0    0  0.38187859118E+02  0.99471525617E+01 -0.21722225483E+02  0.46142317543E+02  0.99999980123E+01 0.  0.
        -12    1    1    2    0    0 -0.38187859118E+02 -0.99471525617E+01  0.21722225483E+02  0.45045682457E+02  0.00000000000E+00 0.  1.
         11    1    3    3    0    0  0.14481718401E+02  0.51507584272E+01 -0.90290545226E+01  0.17826225233E+02  0.51100000000E-03 0. -1.
        -11    1    3    3    0    0  0.66834423037E+01 -0.13017326566E+01 -0.58685672232E+01  0.89890483617E+01  0.51100000000E-03 0.  1.
        -12    1    3    3    0    0  0.17022698412E+02  0.60981267910E+01 -0.68246037373E+01  0.19327043948E+02  0.00000000000E+00 0.  1.
</event>
<event>
 7    1  0.3435408E-009  0.4614232E+02  0.7816164E-02  0.1320468E+00
        -11   -1    0    0    0    0  0.00000000000E+00  0.00000000000E+00  0.45593999997E+02  0.45594000000E+02  0.51100000000E-03 0.  1.
         11   -1    0    0    0    0 -0.00000000000E+00 -0.00000000000E+00 -0.45593999997E+02  0.45594000000E+02  0.51100000000E-03 0. -1.
    9900012    2    1    2    0    0  0.12533339705E+02 -0.43266936627E+02 -0.32575880469E-01  0.46142317960E+02  0.10000001818E+02 0.  0.
        -12    1    1    2    0    0 -0.12533339705E+02  0.43266936627E+02  0.32575880469E-01  0.45045682040E+02  0.00000000000E+00 0.  1.
         11    1    3    3    0    0  0.49070446035E+01 -0.18182691994E+02 -0.28255768398E+01  0.19043982242E+02  0.51100000000E-03 0. -1.
        -11    1    3    3    0    0  0.23527564900E+01 -0.38075769679E+01  0.26016512031E+01  0.51770353206E+01  0.51100000000E-03 0.  1.
        -12    1    3    3    0    0  0.52735386110E+01 -0.21276667665E+02  0.19134975632E+00  0.21921300398E+02  0.00000000000E+00 0.  1.
</event>
<event>
 7    1  0.3435408E-009  0.4614232E+02  0.7816164E-02  0.1320468E+00
        -11   -1    0    0    0    0  0.00000000000E+00  0.00000000000E+00  0.45593999997E+02  0.45594000000E+02  0.51100000000E-03 0. -1.
         11   -1    0    0    0    0 -0.00000000000E+00 -0.00000000000E+00 -0.45593999997E+02  0.45594000000E+02  0.51100000000E-03 0.  1.
    9900012    2    1    2    0    0  0.37171670263E+00 -0.40909235467E+02  0.18852314950E+02  0.46142317646E+02  0.99999989463E+01 0.  0.
        -12    1    1    2    0    0 -0.37171670263E+00  0.40909235467E+02 -0.18852314950E+02  0.45045682354E+02  0.00000000000E+00 0.  1.
         11    1    3    3    0    0  0.48270580430E+00 -0.20657623786E+02  0.97241011018E+01  0.22836999975E+02  0.51100000000E-03 0. -1.
        -11    1    3    3    0    0 -0.31172644795E+00 -0.46625375829E+01  0.56493114670E+01  0.73315176057E+01  0.51100000000E-03 0.  1.
         12    1    3    3    0    0  0.20073734627E+00 -0.15589074099E+02  0.34789023810E+01  0.15973800065E+02  0.00000000000E+00 0. -1.
</event>
<event>
 7    1  0.3435408E-009  0.4614232E+02  0.7816164E-02  0.1320468E+00
        -11   -1    0    0    0    0  0.00000000000E+00  0.00000000000E+00  0.45593999997E+02  0.45594000000E+02  0.51100000000E-03 0.  1.
         11   -1    0    0    0    0 -0.00000000000E+00 -0.00000000000E+00 -0.45593999997E+02  0.45594000000E+02  0.51100000000E-03 0. -1.
    9900012    2    1    2    0    0 -0.13256631270E+02  0.33679749595E+02 -0.26815100254E+02  0.46142318664E+02  0.10000008232E+02 0.  0.
        -12    1    1    2    0    0  0.13256631270E+02 -0.33679749595E+02  0.26815100254E+02  0.45045681336E+02  0.00000000000E+00 0.  1.
         11    1    3    3    0    0 -0.47234036064E+01  0.45256812441E+01 -0.42449900017E+01  0.77982224082E+01  0.51100000000E-03 0. -1.
        -11    1    3    3    0    0 -0.77815318351E+01  0.17552744382E+02 -0.12072799648E+02  0.22680466587E+02  0.51100000000E-03 0.  1.
        -12    1    3    3    0    0 -0.75169582840E+00  0.11601323969E+02 -0.10497310605E+02  0.15663629668E+02  0.00000000000E+00 0.  1.
</event>
<event>
 7    1  0.3435408E-009  0.4614233E+02  0.7816164E-02  0.1320468E+00
        -11   -1    0    0    0    0  0.00000000000E+00  0.00000000000E+00  0.45593999997E+02  0.45594000000E+02  0.51100000000E-03 0. -1.
         11   -1    0    0    0    0 -0.00000000000E+00 -0.00000000000E+00 -0.45593999997E+02  0.45594000000E+02  0.51100000000E-03 0.  1.
    9900012    2    1    2    0    0 -0.38290960204E+02  0.20402621433E+02  0.12109835366E+02  0.46142326431E+02  0.10000079056E+02 0.  0.
        -12    1    1    2    0    0  0.38290960204E+02 -0.20402621433E+02 -0.12109835366E+02  0.45045673569E+02  0.00000000000E+00 0.  1.
         11    1    3    3    0    0 -0.33245661266E+01  0.39578189352E+00  0.22256948832E+01  0.40203359575E+01  0.51100000000E-03 0. -1.
        -11    1    3    3    0    0  0.15215182980E+00  0.20693015626E+00  0.73870812605E+00  0.78208709585E+00  0.51100000000E-03 0.  1.
         12    1    3    3    0    0 -0.35118545908E+02  0.19799909383E+02  0.91454323571E+01  0.41339903377E+02  0.00000000000E+00 0. -1.
</event>
<event>
 7    1  0.3435408E-009  0.4614232E+02  0.7816164E-02  0.1320468E+00
        -11   -1    0    0    0    0  0.00000000000E+00  0.00000000000E+00  0.45593999997E+02  0.45594000000E+02  0.51100000000E-03 0.  1.
         11   -1    0    0    0    0 -0.00000000000E+00 -0.00000000000E+00 -0.45593999997E+02  0.45594000000E+02  0.51100000000E-03 0. -1.
    9900012    2    1    2    0    0 -0.13600322721E+02 -0.19776175643E+02 -0.38118861409E+02  0.46142317673E+02  0.99999991933E+01 0.  0.
        -12    1    1    2    0    0  0.13600322721E+02  0.19776175643E+02  0.38118861409E+02  0.45045682327E+02  0.00000000000E+00 0.  1.
         11    1    3    3    0    0  0.50927707938E+00 -0.49858439348E+01 -0.65203383247E+01  0.82239172549E+01  0.51100000000E-03 0. -1.
        -11    1    3    3    0    0 -0.32685307341E+01 -0.16548527299E+01 -0.81670263335E+01  0.89510977043E+01  0.51100000000E-03 0.  1.
         12    1    3    3    0    0 -0.10841069066E+02 -0.13135478979E+02 -0.23431496751E+02  0.28967302714E+02  0.00000000000E+00 0. -1.
</event>
<event>
 7    1  0.3435408E-009  0.4614232E+02  0.7816164E-02  0.1320468E+00
        -11   -1    0    0    0    0  0.00000000000E+00  0.00000000000E+00  0.45593999997E+02  0.45594000000E+02  0.51100000000E-03 0.  1.
         11   -1    0    0    0    0 -0.00000000000E+00 -0.00000000000E+00 -0.45593999997E+02  0.45594000000E+02  0.51100000000E-03 0. -1.
    9900012    2    1    2    0    0  0.24247228669E+02  0.21673378845E+02 -0.31168095719E+02  0.46142316084E+02  0.99999847082E+01 0.  0.
        -12    1    1    2    0    0 -0.24247228669E+02 -0.21673378845E+02  0.31168095719E+02  0.45045683916E+02  0.00000000000E+00 0.  1.
         11    1    3    3    0    0  0.16898417989E+02  0.14364210742E+02 -0.20834732584E+02  0.30429807145E+02  0.51100000000E-03 0. -1.
        -11    1    3    3    0    0  0.22413122170E+01  0.51541045051E+01 -0.78089988590E+01  0.96212648412E+01  0.51100000000E-03 0.  1.
         12    1    3    3    0    0  0.51074984636E+01  0.21550635979E+01 -0.25243642762E+01  0.60912440983E+01  0.00000000000E+00 0. -1.
</event>
<event>
 7    1  0.3435408E-009  0.4614232E+02  0.7816164E-02  0.1320468E+00
        -11   -1    0    0    0    0  0.00000000000E+00  0.00000000000E+00  0.45593999997E+02  0.45594000000E+02  0.51100000000E-03 0.  1.
         11   -1    0    0    0    0 -0.00000000000E+00 -0.00000000000E+00 -0.45593999997E+02  0.45594000000E+02  0.51100000000E-03 0. -1.
    9900012    2    1    2    0    0 -0.25744608401E+02 -0.36910547557E+02 -0.19849509868E+01  0.46142318597E+02  0.10000007619E+02 0.  0.
        -12    1    1    2    0    0  0.25744608401E+02  0.36910547557E+02  0.19849509868E+01  0.45045681403E+02  0.00000000000E+00 0.  1.
         11    1    3    3    0    0 -0.34392556944E+01 -0.52439989433E+01  0.17760146841E+01  0.65178396013E+01  0.51100000000E-03 0. -1.
        -11    1    3    3    0    0 -0.57979909860E+01 -0.35120153301E+01 -0.12313240087E+01  0.68896378880E+01  0.51100000000E-03 0.  1.
         12    1    3    3    0    0 -0.16507361721E+02 -0.28154533284E+02 -0.25296416621E+01  0.32734841107E+02  0.00000000000E+00 0. -1.
</event>
<event>
 7    1  0.3435408E-009  0.4614232E+02  0.7816164E-02  0.1320468E+00
        -11   -1    0    0    0    0  0.00000000000E+00  0.00000000000E+00  0.45593999997E+02  0.45594000000E+02  0.51100000000E-03 0.  1.
         11   -1    0    0    0    0 -0.00000000000E+00 -0.00000000000E+00 -0.45593999997E+02  0.45594000000E+02  0.51100000000E-03 0. -1.
    9900012    2    1    2    0    0 -0.27679935222E+02 -0.35039986149E+02  0.59274080262E+01  0.46142316421E+02  0.99999877766E+01 0.  0.
        -12    1    1    2    0    0  0.27679935222E+02  0.35039986149E+02 -0.59274080262E+01  0.45045683579E+02  0.00000000000E+00 0.  1.
         11    1    3    3    0    0 -0.23984001333E+02 -0.32859424982E+02  0.70663642903E+01  0.41290527178E+02  0.51100000000E-03 0. -1.
        -11    1    3    3    0    0 -0.37132705776E-01 -0.79563507947E+00 -0.90742216764E-01  0.80165355893E+00  0.51100000000E-03 0.  1.
         12    1    3    3    0    0 -0.36588011833E+01 -0.13849260873E+01 -0.10482140473E+01  0.40501356835E+01  0.00000000000E+00 0. -1.
</event>
<event>
 7    1  0.3435408E-009  0.4614232E+02  0.7816164E-02  0.1320468E+00
        -11   -1    0    0    0    0  0.00000000000E+00  0.00000000000E+00  0.45593999997E+02  0.45594000000E+02  0.51100000000E-03 0.  1.
         11   -1    0    0    0    0 -0.00000000000E+00 -0.00000000000E+00 -0.45593999997E+02  0.45594000000E+02  0.51100000000E-03 0. -1.
    9900012    2    1    2    0    0 -0.19621705912E+02 -0.33781522069E+02 -0.22425675163E+02  0.46142317824E+02  0.10000000575E+02 0.  0.
        -12    1    1    2    0    0  0.19621705912E+02  0.33781522069E+02  0.22425675163E+02  0.45045682176E+02  0.00000000000E+00 0.  1.
         11    1    3    3    0    0 -0.62272616341E+01 -0.14135047700E+02 -0.45495616959E+01  0.16102076662E+02  0.51100000000E-03 0. -1.
        -11    1    3    3    0    0 -0.12577579021E+02 -0.15830198001E+02 -0.15437216763E+02  0.25438127376E+02  0.51100000000E-03 0.  1.
         12    1    3    3    0    0 -0.81686525667E+00 -0.38162763679E+01 -0.24388967044E+01  0.46021137859E+01  0.00000000000E+00 0. -1.
</event>
<event>
 7    1  0.3435408E-009  0.4614232E+02  0.7816164E-02  0.1320468E+00
        -11   -1    0    0    0    0  0.00000000000E+00  0.00000000000E+00  0.45593999997E+02  0.45594000000E+02  0.51100000000E-03 0.  1.
         11   -1    0    0    0    0 -0.00000000000E+00 -0.00000000000E+00 -0.45593999997E+02  0.45594000000E+02  0.51100000000E-03 0. -1.
    9900012    2    1    2    0    0  0.77295348643E+01 -0.23610504261E+02 -0.37575417469E+02  0.46142316316E+02  0.99999868181E+01 0.  0.
        -12    1    1    2    0    0 -0.77295348643E+01  0.23610504261E+02  0.37575417469E+02  0.45045683684E+02  0.00000000000E+00 0.  1.
         11    1    3    3    0    0  0.82140698975E+01 -0.18008333895E+02 -0.30284671929E+02  0.36179170638E+02  0.51100000000E-03 0. -1.
        -11    1    3    3    0    0  0.87187618550E+00 -0.91086462889E+00 -0.91939488593E-01  0.12642371556E+01  0.51100000000E-03 0.  1.
         12    1    3    3    0    0 -0.13564112187E+01 -0.46913057370E+01 -0.71988060507E+01  0.86989085217E+01  0.00000000000E+00 0. -1.
</event>
<event>
 7    1  0.3435408E-009  0.4614232E+02  0.7816164E-02  0.1320468E+00
        -11   -1    0    0    0    0  0.00000000000E+00  0.00000000000E+00  0.45593999997E+02  0.45594000000E+02  0.51100000000E-03 0.  1.
         11   -1    0    0    0    0 -0.00000000000E+00 -0.00000000000E+00 -0.45593999997E+02  0.45594000000E+02  0.51100000000E-03 0. -1.
    9900012    2    1    2    0    0 -0.35202272122E+02 -0.21231014003E+02 -0.18416233829E+02  0.46142316670E+02  0.99999900522E+01 0.  0.
        -12    1    1    2    0    0  0.35202272122E+02  0.21231014003E+02  0.18416233829E+02  0.45045683330E+02  0.00000000000E+00 0.  1.
         11    1    3    3    0    0 -0.31534290661E+02 -0.16072198417E+02 -0.17672028189E+02  0.39560430104E+02  0.51100000000E-03 0. -1.
        -11    1    3    3    0    0 -0.10916267903E+01 -0.26394619158E+01  0.17955071356E+00  0.28619306375E+01  0.51100000000E-03 0.  1.
        -12    1    3    3    0    0 -0.25763546712E+01 -0.25193536706E+01 -0.92375635372E+00  0.37199559286E+01  0.00000000000E+00 0.  1.
</event>
<event>
 7    1  0.3435408E-009  0.4614232E+02  0.7816164E-02  0.1320468E+00
        -11   -1    0    0    0    0  0.00000000000E+00  0.00000000000E+00  0.45593999997E+02  0.45594000000E+02  0.51100000000E-03 0.  1.
         11   -1    0    0    0    0 -0.00000000000E+00 -0.00000000000E+00 -0.45593999997E+02  0.45594000000E+02  0.51100000000E-03 0. -1.
    9900012    2    1    2    0    0 -0.20936219320E+01  0.26302350242E+02 -0.36509130456E+02  0.46142317769E+02  0.10000000069E+02 0.  0.
        -12    1    1    2    0    0  0.20936219320E+01 -0.26302350242E+02  0.36509130456E+02  0.45045682231E+02  0.00000000000E+00 0.  1.
         11    1    3    3    0    0 -0.64846426969E+00  0.18645819458E+02 -0.30081817392E+02  0.35397779973E+02  0.51100000000E-03 0. -1.
        -11    1    3    3    0    0 -0.10800273898E+01  0.36484701231E+00 -0.17000813094E+01  0.20469121195E+01  0.51100000000E-03 0.  1.
         12    1    3    3    0    0 -0.36513027252E+00  0.72916837715E+01 -0.47272317551E+01  0.86976256763E+01  0.00000000000E+00 0. -1.
</event>
<event>
 7    1  0.3435408E-009  0.4614232E+02  0.7816164E-02  0.1320468E+00
        -11   -1    0    0    0    0  0.00000000000E+00  0.00000000000E+00  0.45593999997E+02  0.45594000000E+02  0.51100000000E-03 0. -1.
         11   -1    0    0    0    0 -0.00000000000E+00 -0.00000000000E+00 -0.45593999997E+02  0.45594000000E+02  0.51100000000E-03 0.  1.
    9900012    2    1    2    0    0 -0.43187019773E+02  0.11170865324E+02 -0.62615252213E+01  0.46142316443E+02  0.99999879831E+01 0.  0.
        -12    1    1    2    0    0  0.43187019773E+02 -0.11170865324E+02  0.62615252213E+01  0.45045683557E+02  0.00000000000E+00 0.  1.
         11    1    3    3    0    0 -0.15462900836E+02  0.95154946902E+00 -0.27834653941E+01  0.15740216915E+02  0.51100000000E-03 0. -1.
        -11    1    3    3    0    0 -0.23927870019E+02  0.99442578400E+01 -0.11439880954E+01  0.25937230705E+02  0.51100000000E-03 0.  1.
        -12    1    3    3    0    0 -0.37962489182E+01  0.27505801509E+00 -0.23340717318E+01  0.44648688234E+01  0.00000000000E+00 0.  1.
</event>
<event>
 7    1  0.3435408E-009  0.4614232E+02  0.7816164E-02  0.1320468E+00
        -11   -1    0    0    0    0  0.00000000000E+00  0.00000000000E+00  0.45593999997E+02  0.45594000000E+02  0.51100000000E-03 0. -1.
         11   -1    0    0    0    0 -0.00000000000E+00 -0.00000000000E+00 -0.45593999997E+02  0.45594000000E+02  0.51100000000E-03 0.  1.
    9900012    2    1    2    0    0 -0.81259578939E+01  0.43729682390E+02 -0.71272153329E+01  0.46142317499E+02  0.99999976085E+01 0.  0.
        -12    1    1    2    0    0  0.81259578939E+01 -0.43729682390E+02  0.71272153329E+01  0.45045682501E+02  0.00000000000E+00 0.  1.
         11    1    3    3    0    0 -0.17249160279E+01  0.85822498824E+01  0.72550703685E-01  0.87541768438E+01  0.51100000000E-03 0. -1.
        -11    1    3    3    0    0 -0.47814243785E+01  0.24737519710E+02 -0.11105864158E+01  0.25219839471E+02  0.51100000000E-03 0.  1.
        -12    1    3    3    0    0 -0.16196174875E+01  0.10409912797E+02 -0.60891796208E+01  0.12168301184E+02  0.00000000000E+00 0.  1.
</event>
<event>
 7    1  0.3435408E-009  0.4614232E+02  0.7816164E-02  0.1320468E+00
        -11   -1    0    0    0    0  0.00000000000E+00  0.00000000000E+00  0.45593999997E+02  0.45594000000E+02  0.51100000000E-03 0.  1.
         11   -1    0    0    0    0 -0.00000000000E+00 -0.00000000000E+00 -0.45593999997E+02  0.45594000000E+02  0.51100000000E-03 0. -1.
    9900012    2    1    2    0    0  0.30236781969E+02 -0.24743069252E+02 -0.22419439476E+02  0.46142315120E+02  0.99999759181E+01 0.  0.
        -12    1    1    2    0    0 -0.30236781969E+02  0.24743069252E+02  0.22419439476E+02  0.45045684880E+02  0.00000000000E+00 0.  1.
         11    1    3    3    0    0  0.64437557248E+00 -0.18706290654E+01 -0.35068247613E+00  0.20093410459E+01  0.51100000000E-03 0.  1.
        -11    1    3    3    0    0  0.19619802424E+02 -0.10536578669E+02 -0.11420191182E+02  0.25027522932E+02  0.51100000000E-03 0. -1.
        -12    1    3    3    0    0  0.99726039727E+01 -0.12335861518E+02 -0.10648565818E+02  0.19105451142E+02  0.00000000000E+00 0.  1.
</event>
<event>
 7    1  0.3435408E-009  0.4614230E+02  0.7816164E-02  0.1320468E+00
        -11   -1    0    0    0    0  0.00000000000E+00  0.00000000000E+00  0.45593999997E+02  0.45594000000E+02  0.51100000000E-03 0.  1.
         11   -1    0    0    0    0 -0.00000000000E+00 -0.00000000000E+00 -0.45593999997E+02  0.45594000000E+02  0.51100000000E-03 0. -1.
    9900012    2    1    2    0    0  0.13016143847E+02 -0.77524721444E+01 -0.42421623326E+02  0.46142301531E+02  0.99998519964E+01 0.  0.
        -12    1    1    2    0    0 -0.13016143847E+02  0.77524721444E+01  0.42421623326E+02  0.45045698469E+02  0.00000000000E+00 0.  1.
         11    1    3    3    0    0  0.34827196143E+01  0.15642072295E+01 -0.69678368610E+01  0.79452395150E+01  0.51100000000E-03 0. -1.
        -11    1    3    3    0    0  0.21692037033E+01 -0.24940820728E+01 -0.40496305740E+01  0.52273700978E+01  0.51100000000E-03 0.  1.
        -12    1    3    3    0    0  0.73642205291E+01 -0.68225973010E+01 -0.31404155891E+02  0.32969691918E+02  0.00000000000E+00 0.  1.
</event>
<event>
 7    1  0.3435408E-009  0.4614232E+02  0.7816164E-02  0.1320468E+00
        -11   -1    0    0    0    0  0.00000000000E+00  0.00000000000E+00  0.45593999997E+02  0.45594000000E+02  0.51100000000E-03 0.  1.
         11   -1    0    0    0    0 -0.00000000000E+00 -0.00000000000E+00 -0.45593999997E+02  0.45594000000E+02  0.51100000000E-03 0. -1.
    9900012    2    1    2    0    0  0.44389863082E+02 -0.65712035484E+01 -0.39335541963E+01  0.46142317531E+02  0.99999978974E+01 0.  0.
        -12    1    1    2    0    0 -0.44389863082E+02  0.65712035484E+01  0.39335541963E+01  0.45045682469E+02  0.00000000000E+00 0.  1.
         11    1    3    3    0    0  0.30035632932E+02 -0.20074714974E+01 -0.68820564775E+00  0.30110510037E+02  0.51100000000E-03 0. -1.
        -11    1    3    3    0    0  0.12947877925E+02 -0.46808074517E+01 -0.15945493746E+01  0.13860017646E+02  0.51100000000E-03 0.  1.
         12    1    3    3    0    0  0.14063522254E+01  0.11707540064E+00 -0.16507991739E+01  0.21717898480E+01  0.00000000000E+00 0. -1.
</event>
<event>
 7    1  0.3435408E-009  0.4614233E+02  0.7816164E-02  0.1320468E+00
        -11   -1    0    0    0    0  0.00000000000E+00  0.00000000000E+00  0.45593999997E+02  0.45594000000E+02  0.51100000000E-03 0. -1.
         11   -1    0    0    0    0 -0.00000000000E+00 -0.00000000000E+00 -0.45593999997E+02  0.45594000000E+02  0.51100000000E-03 0.  1.
    9900012    2    1    2    0    0  0.18625831375E+02 -0.17609078348E+02  0.37042014344E+02  0.46142333601E+02  0.10000144437E+02 0.  0.
        -12    1    1    2    0    0 -0.18625831375E+02  0.17609078348E+02 -0.37042014344E+02  0.45045666399E+02  0.00000000000E+00 0.  1.
         11    1    3    3    0    0  0.31245139244E+01 -0.19875961006E+01  0.31101832807E+01  0.48359451841E+01  0.51100000000E-03 0. -1.
        -11    1    3    3    0    0  0.14596254979E+02 -0.16274278105E+02  0.33695406551E+02  0.40165696933E+02  0.51100000000E-03 0.  1.
        -12    1    3    3    0    0  0.90506247207E+00  0.65279585782E+00  0.23642451280E+00  0.11406914835E+01  0.00000000000E+00 0.  1.
</event>
<event>
 7    1  0.3435408E-009  0.4614232E+02  0.7816164E-02  0.1320468E+00
        -11   -1    0    0    0    0  0.00000000000E+00  0.00000000000E+00  0.45593999997E+02  0.45594000000E+02  0.51100000000E-03 0.  1.
         11   -1    0    0    0    0 -0.00000000000E+00 -0.00000000000E+00 -0.45593999997E+02  0.45594000000E+02  0.51100000000E-03 0. -1.
    9900012    2    1    2    0    0  0.25644647160E+02  0.36916334513E+02  0.29410514699E+01  0.46142318014E+02  0.10000002309E+02 0.  0.
        -12    1    1    2    0    0 -0.25644647160E+02 -0.36916334513E+02 -0.29410514699E+01  0.45045681986E+02  0.00000000000E+00 0.  1.
         11    1    3    3    0    0  0.21524683429E+01  0.48683017628E+01  0.11523663607E+01  0.54462308536E+01  0.51100000000E-03 0. -1.
        -11    1    3    3    0    0  0.81341980836E+01  0.15159749259E+02 -0.27485144957E+01  0.17422327865E+02  0.51100000000E-03 0.  1.
        -12    1    3    3    0    0  0.15357980734E+02  0.16888283491E+02  0.45371996048E+01  0.23273759295E+02  0.00000000000E+00 0.  1.
</event>
<event>
 7    1  0.3435408E-009  0.4614232E+02  0.7816164E-02  0.1320468E+00
        -11   -1    0    0    0    0  0.00000000000E+00  0.00000000000E+00  0.45593999997E+02  0.45594000000E+02  0.51100000000E-03 0.  1.
         11   -1    0    0    0    0 -0.00000000000E+00 -0.00000000000E+00 -0.45593999997E+02  0.45594000000E+02  0.51100000000E-03 0. -1.
    9900012    2    1    2    0    0  0.20983958830E+02  0.10811089237E+02 -0.38365445146E+02  0.46142316967E+02  0.99999927566E+01 0.  0.
        -12    1    1    2    0    0 -0.20983958830E+02 -0.10811089237E+02  0.38365445146E+02  0.45045683033E+02  0.00000000000E+00 0.  1.
         11    1    3    3    0    0  0.39971035943E+01  0.59271638620E+01 -0.98918812835E+01  0.12204811518E+02  0.51100000000E-03 0. -1.
        -11    1    3    3    0    0  0.58263556535E+01 -0.52269556052E+00 -0.68278699593E+01  0.89910755359E+01  0.51100000000E-03 0.  1.
         12    1    3    3    0    0  0.11160499582E+02  0.54066209353E+01 -0.21645693903E+02  0.24946429913E+02  0.00000000000E+00 0. -1.
</event>
<event>
 7    1  0.3435408E-009  0.4614232E+02  0.7816164E-02  0.1320468E+00
        -11   -1    0    0    0    0  0.00000000000E+00  0.00000000000E+00  0.45593999997E+02  0.45594000000E+02  0.51100000000E-03 0.  1.
         11   -1    0    0    0    0 -0.00000000000E+00 -0.00000000000E+00 -0.45593999997E+02  0.45594000000E+02  0.51100000000E-03 0. -1.
    9900012    2    1    2    0    0 -0.25582826584E+02  0.27579258078E+02 -0.24779367673E+02  0.46142317027E+02  0.99999933087E+01 0.  0.
        -12    1    1    2    0    0  0.25582826584E+02 -0.27579258078E+02  0.24779367673E+02  0.45045682973E+02  0.00000000000E+00 0.  1.
         11    1    3    3    0    0 -0.30915610424E+01  0.54882267228E+01 -0.20809948227E+01  0.66339220641E+01  0.51100000000E-03 0. -1.
        -11    1    3    3    0    0 -0.20118854661E+01  0.33071138062E+01 -0.58366463579E+01  0.70036508925E+01  0.51100000000E-03 0.  1.
         12    1    3    3    0    0 -0.20479380076E+02  0.18783917549E+02 -0.16861726492E+02  0.32504744071E+02  0.00000000000E+00 0. -1.
</event>
<event>
 7    1  0.3435408E-009  0.4614232E+02  0.7816164E-02  0.1320468E+00
        -11   -1    0    0    0    0  0.00000000000E+00  0.00000000000E+00  0.45593999997E+02  0.45594000000E+02  0.51100000000E-03 0.  1.
         11   -1    0    0    0    0 -0.00000000000E+00 -0.00000000000E+00 -0.45593999997E+02  0.45594000000E+02  0.51100000000E-03 0. -1.
    9900012    2    1    2    0    0  0.33200900102E+02  0.20489268022E+02 -0.22516740320E+02  0.46142318006E+02  0.10000002229E+02 0.  0.
        -12    1    1    2    0    0 -0.33200900102E+02 -0.20489268022E+02  0.22516740320E+02  0.45045681994E+02  0.00000000000E+00 0.  1.
         11    1    3    3    0    0  0.23320199515E+01  0.31359278939E-01 -0.35027775269E+01  0.42081766981E+01  0.51100000000E-03 0. -1.
        -11    1    3    3    0    0  0.43932649403E+01  0.11638493096E+01 -0.31899463512E+01  0.55525741810E+01  0.51100000000E-03 0.  1.
         12    1    3    3    0    0  0.26475615211E+02  0.19294059434E+02 -0.15824016442E+02  0.36381567126E+02  0.00000000000E+00 0. -1.
</event>
<event>
 7    1  0.3435408E-009  0.4614232E+02  0.7816164E-02  0.1320468E+00
        -11   -1    0    0    0    0  0.00000000000E+00  0.00000000000E+00  0.45593999997E+02  0.45594000000E+02  0.51100000000E-03 0.  1.
         11   -1    0    0    0    0 -0.00000000000E+00 -0.00000000000E+00 -0.45593999997E+02  0.45594000000E+02  0.51100000000E-03 0. -1.
    9900012    2    1    2    0    0  0.26605904944E+02  0.14635152642E+02 -0.33272386002E+02  0.46142317177E+02  0.99999946720E+01 0.  0.
        -12    1    1    2    0    0 -0.26605904944E+02 -0.14635152642E+02  0.33272386002E+02  0.45045682823E+02  0.00000000000E+00 0.  1.
         11    1    3    3    0    0  0.17086445597E+00 -0.40804962816E+00  0.34080651547E-01  0.44369010952E+00  0.51100000000E-03 0. -1.
        -11    1    3    3    0    0  0.68818371909E+01  0.53320211673E+01 -0.14354859894E+02  0.16788452451E+02  0.51100000000E-03 0.  1.
         12    1    3    3    0    0  0.19553203297E+02  0.97111811029E+01 -0.18951606759E+02  0.28910174616E+02  0.00000000000E+00 0. -1.
</event>
<event>
 7    1  0.3435408E-009  0.4614232E+02  0.7816164E-02  0.1320468E+00
        -11   -1    0    0    0    0  0.00000000000E+00  0.00000000000E+00  0.45593999997E+02  0.45594000000E+02  0.51100000000E-03 0.  1.
         11   -1    0    0    0    0 -0.00000000000E+00 -0.00000000000E+00 -0.45593999997E+02  0.45594000000E+02  0.51100000000E-03 0. -1.
    9900012    2    1    2    0    0 -0.45481003613E+01  0.22163841334E+02 -0.38951154080E+02  0.46142317813E+02  0.10000000470E+02 0.  0.
        -12    1    1    2    0    0  0.45481003613E+01 -0.22163841334E+02  0.38951154080E+02  0.45045682187E+02  0.00000000000E+00 0.  1.
         11    1    3    3    0    0 -0.44357866394E+01  0.10089566922E+02 -0.24518876070E+02  0.26882165980E+02  0.51100000000E-03 0. -1.
        -11    1    3    3    0    0 -0.89106838105E+00  0.17353695919E+01 -0.74266874162E+00  0.20873590015E+01  0.51100000000E-03 0.  1.
         12    1    3    3    0    0  0.77875465906E+00  0.10338904820E+02 -0.13689609268E+02  0.17172792831E+02  0.00000000000E+00 0. -1.
</event>
<event>
 7    1  0.3435408E-009  0.4614232E+02  0.7816164E-02  0.1320468E+00
        -11   -1    0    0    0    0  0.00000000000E+00  0.00000000000E+00  0.45593999997E+02  0.45594000000E+02  0.51100000000E-03 0.  1.
         11   -1    0    0    0    0 -0.00000000000E+00 -0.00000000000E+00 -0.45593999997E+02  0.45594000000E+02  0.51100000000E-03 0. -1.
    9900012    2    1    2    0    0 -0.24477310370E+02 -0.14552847879E+02 -0.34902569453E+02  0.46142318090E+02  0.10000002998E+02 0.  0.
        -12    1    1    2    0    0  0.24477310370E+02  0.14552847879E+02  0.34902569453E+02  0.45045681910E+02  0.00000000000E+00 0.  1.
         11    1    3    3    0    0 -0.35652107175E+01 -0.69951445585E+00 -0.49742527507E+01  0.61598083268E+01  0.51100000000E-03 0. -1.
        -11    1    3    3    0    0 -0.68705111888E+01 -0.90012554773E+01 -0.16121984167E+02  0.19701393299E+02  0.51100000000E-03 0.  1.
        -12    1    3    3    0    0 -0.14041588464E+02 -0.48520779462E+01 -0.13806332535E+02  0.20281116464E+02  0.00000000000E+00 0.  1.
</event>
<event>
 7    1  0.3435408E-009  0.4614232E+02  0.7816164E-02  0.1320468E+00
        -11   -1    0    0    0    0  0.00000000000E+00  0.00000000000E+00  0.45593999997E+02  0.45594000000E+02  0.51100000000E-03 0.  1.
         11   -1    0    0    0    0 -0.00000000000E+00 -0.00000000000E+00 -0.45593999997E+02  0.45594000000E+02  0.51100000000E-03 0. -1.
    9900012    2    1    2    0    0 -0.16231388677E+02 -0.34870950637E+02 -0.23445089918E+02  0.46142318543E+02  0.10000007127E+02 0.  0.
        -12    1    1    2    0    0  0.16231388677E+02  0.34870950637E+02  0.23445089918E+02  0.45045681457E+02  0.00000000000E+00 0.  1.
         11    1    3    3    0    0 -0.26367239576E+01 -0.94213614923E+01 -0.83244307756E+01  0.12845641813E+02  0.51100000000E-03 0.  1.
        -11    1    3    3    0    0 -0.34365397273E+01 -0.67432525159E+01 -0.75865779256E+01  0.10716222500E+02  0.51100000000E-03 0. -1.
        -12    1    3    3    0    0 -0.10158124992E+02 -0.18706336628E+02 -0.75340812170E+01  0.22580454229E+02  0.00000000000E+00 0.  1.
</event>
<event>
 7    1  0.3435408E-009  0.4614232E+02  0.7816164E-02  0.1320468E+00
        -11   -1    0    0    0    0  0.00000000000E+00  0.00000000000E+00  0.45593999997E+02  0.45594000000E+02  0.51100000000E-03 0.  1.
         11   -1    0    0    0    0 -0.00000000000E+00 -0.00000000000E+00 -0.45593999997E+02  0.45594000000E+02  0.51100000000E-03 0. -1.
    9900012    2    1    2    0    0 -0.46013807520E+01  0.43102623696E+02 -0.12251714958E+02  0.46142318811E+02  0.10000009576E+02 0.  0.
        -12    1    1    2    0    0  0.46013807520E+01 -0.43102623696E+02  0.12251714958E+02  0.45045681189E+02  0.00000000000E+00 0.  1.
         11    1    3    3    0    0 -0.42819229705E+00  0.11305634153E+02 -0.69572488173E+01  0.13281717645E+02  0.51100000000E-03 0. -1.
        -11    1    3    3    0    0 -0.28139838631E+01  0.16897146779E+02 -0.45579002248E+00  0.17135921897E+02  0.51100000000E-03 0.  1.
         12    1    3    3    0    0 -0.13592045918E+01  0.14899842764E+02 -0.48386761184E+01  0.15724679269E+02  0.00000000000E+00 0. -1.
</event>
<event>
 7    1  0.3435408E-009  0.4614232E+02  0.7816164E-02  0.1320468E+00
        -11   -1    0    0    0    0  0.00000000000E+00  0.00000000000E+00  0.45593999997E+02  0.45594000000E+02  0.51100000000E-03 0.  1.
         11   -1    0    0    0    0 -0.00000000000E+00 -0.00000000000E+00 -0.45593999997E+02  0.45594000000E+02  0.51100000000E-03 0. -1.
    9900012    2    1    2    0    0 -0.37616543831E+02 -0.24137585728E+02  0.56112541700E+01  0.46142316656E+02  0.99999899215E+01 0.  0.
        -12    1    1    2    0    0  0.37616543831E+02  0.24137585728E+02 -0.56112541700E+01  0.45045683344E+02  0.00000000000E+00 0.  1.
         11    1    3    3    0    0 -0.27944742155E+02 -0.15942634107E+02  0.70509044905E+01  0.32936172375E+02  0.51100000000E-03 0. -1.
        -11    1    3    3    0    0 -0.83446038431E+01 -0.79601425867E+01 -0.46301845710E+00  0.11541692668E+02  0.51100000000E-03 0.  1.
         12    1    3    3    0    0 -0.13271978337E+01 -0.23480903416E+00 -0.97663186334E+00  0.16644516120E+01  0.00000000000E+00 0. -1.
</event>
<event>
 7    1  0.3435408E-009  0.4614232E+02  0.7816164E-02  0.1320468E+00
        -11   -1    0    0    0    0  0.00000000000E+00  0.00000000000E+00  0.45593999997E+02  0.45594000000E+02  0.51100000000E-03 0.  1.
         11   -1    0    0    0    0 -0.00000000000E+00 -0.00000000000E+00 -0.45593999997E+02  0.45594000000E+02  0.51100000000E-03 0. -1.
    9900012    2    1    2    0    0 -0.16387331397E+01 -0.19929327566E+02 -0.40363968445E+02  0.46142317719E+02  0.99999996115E+01 0.  0.
        -12    1    1    2    0    0  0.16387331397E+01  0.19929327566E+02  0.40363968445E+02  0.45045682281E+02  0.00000000000E+00 0.  1.
         11    1    3    3    0    0 -0.86764242598E+00 -0.69407902212E+01 -0.13382356450E+02  0.15100160154E+02  0.51100000000E-03 0. -1.
        -11    1    3    3    0    0 -0.28113526408E+01 -0.12643846646E+02 -0.25101731938E+02  0.28246548607E+02  0.51100000000E-03 0.  1.
        -12    1    3    3    0    0  0.20402619271E+01 -0.34469069931E+00 -0.18798800573E+01  0.27956089568E+01  0.00000000000E+00 0.  1.
</event>
<event>
 7    1  0.3435408E-009  0.4614232E+02  0.7816164E-02  0.1320468E+00
        -11   -1    0    0    0    0  0.00000000000E+00  0.00000000000E+00  0.45593999997E+02  0.45594000000E+02  0.51100000000E-03 0. -1.
         11   -1    0    0    0    0 -0.00000000000E+00 -0.00000000000E+00 -0.45593999997E+02  0.45594000000E+02  0.51100000000E-03 0.  1.
    9900012    2    1    2    0    0 -0.27731236779E+02  0.12311193038E+02  0.33294543695E+02  0.46142316442E+02  0.99999879742E+01 0.  0.
        -12    1    1    2    0    0  0.27731236779E+02 -0.12311193038E+02 -0.33294543695E+02  0.45045683558E+02  0.00000000000E+00 0.  1.
         11    1    3    3    0    0 -0.12451380491E+02  0.91088632524E+01  0.12463174140E+02  0.19832775293E+02  0.51100000000E-03 0. -1.
        -11    1    3    3    0    0 -0.47556789023E+01 -0.75572486097E+00  0.58095800962E+01  0.75457818045E+01  0.51100000000E-03 0.  1.
         12    1    3    3    0    0 -0.10524177385E+02  0.39580546462E+01  0.15021789459E+02  0.18763759345E+02  0.00000000000E+00 0. -1.
</event>
<event>
 7    1  0.3435408E-009  0.4614232E+02  0.7816164E-02  0.1320468E+00
        -11   -1    0    0    0    0  0.00000000000E+00  0.00000000000E+00  0.45593999997E+02  0.45594000000E+02  0.51100000000E-03 0.  1.
         11   -1    0    0    0    0 -0.00000000000E+00 -0.00000000000E+00 -0.45593999997E+02  0.45594000000E+02  0.51100000000E-03 0. -1.
    9900012    2    1    2    0    0 -0.26810232997E+02 -0.32187172207E+01 -0.36055023298E+02  0.46142318310E+02  0.10000005008E+02 0.  0.
        -12    1    1    2    0    0  0.26810232997E+02  0.32187172207E+01  0.36055023298E+02  0.45045681690E+02  0.00000000000E+00 0.  1.
         11    1    3    3    0    0 -0.19032778304E+02  0.64280846458E+00 -0.23001916745E+02  0.29862150406E+02  0.51100000000E-03 0. -1.
        -11    1    3    3    0    0 -0.42876426477E+01 -0.16573986018E+01 -0.10407557865E+02  0.11377526558E+02  0.51100000000E-03 0.  1.
         12    1    3    3    0    0 -0.34898120449E+01 -0.22041270834E+01 -0.26455486883E+01  0.49026413463E+01  0.00000000000E+00 0. -1.
</event>
<event>
 7    1  0.3435408E-009  0.4614232E+02  0.7816164E-02  0.1320468E+00
        -11   -1    0    0    0    0  0.00000000000E+00  0.00000000000E+00  0.45593999997E+02  0.45594000000E+02  0.51100000000E-03 0.  1.
         11   -1    0    0    0    0 -0.00000000000E+00 -0.00000000000E+00 -0.45593999997E+02  0.45594000000E+02  0.51100000000E-03 0. -1.
    9900012    2    1    2    0    0 -0.25719075102E+02  0.69787027973E+01 -0.36317219435E+02  0.46142317140E+02  0.99999943371E+01 0.  0.
        -12    1    1    2    0    0  0.25719075102E+02 -0.69787027973E+01  0.36317219435E+02  0.45045682860E+02  0.00000000000E+00 0.  1.
         11    1    3    3    0    0 -0.41003095499E+01  0.48145705773E+00 -0.62225592289E+01  0.74675687423E+01  0.51100000000E-03 0. -1.
        -11    1    3    3    0    0 -0.13713869328E+02  0.42029519844E+01 -0.25476139081E+02  0.29236427279E+02  0.51100000000E-03 0.  1.
        -12    1    3    3    0    0 -0.79048962248E+01  0.22942937552E+01 -0.46185211253E+01  0.94383211190E+01  0.00000000000E+00 0.  1.
</event>
<event>
 7    1  0.3435408E-009  0.4614232E+02  0.7816164E-02  0.1320468E+00
        -11   -1    0    0    0    0  0.00000000000E+00  0.00000000000E+00  0.45593999997E+02  0.45594000000E+02  0.51100000000E-03 0.  1.
         11   -1    0    0    0    0 -0.00000000000E+00 -0.00000000000E+00 -0.45593999997E+02  0.45594000000E+02  0.51100000000E-03 0. -1.
    9900012    2    1    2    0    0 -0.15761190776E+02 -0.94729177073E+01 -0.41121310714E+02  0.46142317639E+02  0.99999988823E+01 0.  0.
        -12    1    1    2    0    0  0.15761190776E+02  0.94729177073E+01  0.41121310714E+02  0.45045682361E+02  0.00000000000E+00 0.  1.
         11    1    3    3    0    0 -0.11712943001E+02 -0.32058391207E+01 -0.26787977449E+02  0.29412007315E+02  0.51100000000E-03 0. -1.
        -11    1    3    3    0    0 -0.97305901465E+00  0.40681484659E+00 -0.77535902089E+00  0.13090164391E+01  0.51100000000E-03 0.  1.
         12    1    3    3    0    0 -0.30751887597E+01 -0.66738934332E+01 -0.13557974244E+02  0.15421293884E+02  0.00000000000E+00 0. -1.
</event>
<event>
 7    1  0.3435408E-009  0.4614232E+02  0.7816164E-02  0.1320468E+00
        -11   -1    0    0    0    0  0.00000000000E+00  0.00000000000E+00  0.45593999997E+02  0.45594000000E+02  0.51100000000E-03 0.  1.
         11   -1    0    0    0    0 -0.00000000000E+00 -0.00000000000E+00 -0.45593999997E+02  0.45594000000E+02  0.51100000000E-03 0. -1.
    9900012    2    1    2    0    0 -0.12435202470E+02 -0.21455298833E+02 -0.37605178201E+02  0.46142317233E+02  0.99999951800E+01 0.  0.
        -12    1    1    2    0    0  0.12435202470E+02  0.21455298833E+02  0.37605178201E+02  0.45045682767E+02  0.00000000000E+00 0.  1.
         11    1    3    3    0    0 -0.76308059955E+01 -0.13771195811E+02 -0.26901926591E+02  0.31170317431E+02  0.51100000000E-03 0. -1.
        -11    1    3    3    0    0 -0.35530831808E+01 -0.66666038510E+01 -0.50343482168E+01  0.90781423884E+01  0.51100000000E-03 0.  1.
        -12    1    3    3    0    0 -0.12513132938E+01 -0.10174991707E+01 -0.56689033930E+01  0.58938574127E+01  0.00000000000E+00 0.  1.
</event>
<event>
 7    1  0.3435408E-009  0.4614232E+02  0.7816164E-02  0.1320468E+00
        -11   -1    0    0    0    0  0.00000000000E+00  0.00000000000E+00  0.45593999997E+02  0.45594000000E+02  0.51100000000E-03 0.  1.
         11   -1    0    0    0    0 -0.00000000000E+00 -0.00000000000E+00 -0.45593999997E+02  0.45594000000E+02  0.51100000000E-03 0. -1.
    9900012    2    1    2    0    0 -0.36416101597E+02  0.15824010712E+02 -0.21273968244E+02  0.46142317683E+02  0.99999992854E+01 0.  0.
        -12    1    1    2    0    0  0.36416101597E+02 -0.15824010712E+02  0.21273968244E+02  0.45045682317E+02  0.00000000000E+00 0.  1.
         11    1    3    3    0    0 -0.17070171907E+02  0.58233006451E+01 -0.85684281650E+01  0.19967963361E+02  0.51100000000E-03 0. -1.
        -11    1    3    3    0    0 -0.13781886903E+01  0.24240605532E+01  0.19199023137E+00  0.27950553021E+01  0.51100000000E-03 0.  1.
        -12    1    3    3    0    0 -0.17967741000E+02  0.75766495138E+01 -0.12897530311E+02  0.23379299019E+02  0.00000000000E+00 0.  1.
</event>
<event>
 7    1  0.3435408E-009  0.4614232E+02  0.7816164E-02  0.1320468E+00
        -11   -1    0    0    0    0  0.00000000000E+00  0.00000000000E+00  0.45593999997E+02  0.45594000000E+02  0.51100000000E-03 0.  1.
         11   -1    0    0    0    0 -0.00000000000E+00 -0.00000000000E+00 -0.45593999997E+02  0.45594000000E+02  0.51100000000E-03 0. -1.
    9900012    2    1    2    0    0 -0.21614873883E+02 -0.12984151081E+02 -0.37327230507E+02  0.46142322187E+02  0.10000040361E+02 0.  0.
        -12    1    1    2    0    0  0.21614873883E+02  0.12984151081E+02  0.37327230507E+02  0.45045677813E+02  0.00000000000E+00 0.  1.
         11    1    3    3    0    0 -0.36620356322E+01 -0.36743702887E+01 -0.38418600208E+01  0.64553381531E+01  0.51100000000E-03 0. -1.
        -11    1    3    3    0    0 -0.13997016685E+02 -0.41855500263E+01 -0.25696275812E+02  0.29558990104E+02  0.51100000000E-03 0.  1.
        -12    1    3    3    0    0 -0.39558215658E+01 -0.51242307658E+01 -0.77890946740E+01  0.10127993930E+02  0.00000000000E+00 0.  1.
</event>
<event>
 7    1  0.3435408E-009  0.4614232E+02  0.7816164E-02  0.1320468E+00
        -11   -1    0    0    0    0  0.00000000000E+00  0.00000000000E+00  0.45593999997E+02  0.45594000000E+02  0.51100000000E-03 0.  1.
         11   -1    0    0    0    0 -0.00000000000E+00 -0.00000000000E+00 -0.45593999997E+02  0.45594000000E+02  0.51100000000E-03 0. -1.
    9900012    2    1    2    0    0  0.19193360610E+02 -0.99698462532E+00 -0.40739839439E+02  0.46142316662E+02  0.99999899781E+01 0.  0.
        -12    1    1    2    0    0 -0.19193360610E+02  0.99698462532E+00  0.40739839439E+02  0.45045683338E+02  0.00000000000E+00 0.  1.
         11    1    3    3    0    0  0.11782293666E+02 -0.44191119519E+01 -0.29192578598E+02  0.31789269258E+02  0.51100000000E-03 0. -1.
        -11    1    3    3    0    0  0.30403785697E+01  0.20515554356E+00 -0.34227257084E+01  0.45826894047E+01  0.51100000000E-03 0.  1.
         12    1    3    3    0    0  0.43706883743E+01  0.32169717830E+01 -0.81245351329E+01  0.97703579997E+01  0.00000000000E+00 0. -1.
</event>
<event>
 7    1  0.3435408E-009  0.4614232E+02  0.7816164E-02  0.1320468E+00
        -11   -1    0    0    0    0  0.00000000000E+00  0.00000000000E+00  0.45593999997E+02  0.45594000000E+02  0.51100000000E-03 0. -1.
         11   -1    0    0    0    0 -0.00000000000E+00 -0.00000000000E+00 -0.45593999997E+02  0.45594000000E+02  0.51100000000E-03 0.  1.
    9900012    2    1    2    0    0  0.42604232034E+02  0.80372567856E+01 -0.12222724258E+02  0.46142322382E+02  0.10000042133E+02 0.  0.
        -12    1    1    2    0    0 -0.42604232034E+02 -0.80372567856E+01  0.12222724258E+02  0.45045677618E+02  0.00000000000E+00 0.  1.
         11    1    3    3    0    0  0.78399181892E+01  0.88537335673E+00 -0.15841801471E+00  0.78913433409E+01  0.51100000000E-03 0.  1.
        -11    1    3    3    0    0  0.29903168243E+02  0.86124663134E+01 -0.11355777371E+02  0.33125937375E+02  0.51100000000E-03 0. -1.
        -12    1    3    3    0    0  0.48611456010E+01 -0.14605828845E+01 -0.70852887263E+00  0.51250416661E+01  0.00000000000E+00 0.  1.
</event>
<event>
 7    1  0.3435408E-009  0.4614232E+02  0.7816164E-02  0.1320468E+00
        -11   -1    0    0    0    0  0.00000000000E+00  0.00000000000E+00  0.45593999997E+02  0.45594000000E+02  0.51100000000E-03 0.  1.
         11   -1    0    0    0    0 -0.00000000000E+00 -0.00000000000E+00 -0.45593999997E+02  0.45594000000E+02  0.51100000000E-03 0. -1.
    9900012    2    1    2    0    0  0.22053713500E+02  0.34200393952E+02 -0.19315285147E+02  0.46142318010E+02  0.10000002271E+02 0.  0.
        -12    1    1    2    0    0 -0.22053713500E+02 -0.34200393952E+02  0.19315285147E+02  0.45045681990E+02  0.00000000000E+00 0.  1.
         11    1    3    3    0    0  0.49909726161E+01  0.80435262888E+01 -0.34014097194E+01  0.10058713196E+02  0.51100000000E-03 0. -1.
        -11    1    3    3    0    0  0.85071672714E+01  0.16967100802E+02 -0.54726032705E+01  0.19753576674E+02  0.51100000000E-03 0.  1.
        -12    1    3    3    0    0  0.85555736129E+01  0.91897668615E+01 -0.10441272157E+02  0.16330028141E+02  0.00000000000E+00 0.  1.
</event>
<event>
 7    1  0.3435408E-009  0.4614232E+02  0.7816164E-02  0.1320468E+00
        -11   -1    0    0    0    0  0.00000000000E+00  0.00000000000E+00  0.45593999997E+02  0.45594000000E+02  0.51100000000E-03 0. -1.
         11   -1    0    0    0    0 -0.00000000000E+00 -0.00000000000E+00 -0.45593999997E+02  0.45594000000E+02  0.51100000000E-03 0.  1.
    9900012    2    1    2    0    0  0.22937865509E+02  0.38357400886E+02  0.56282947443E+01  0.46142316759E+02  0.99999908654E+01 0.  0.
        -12    1    1    2    0    0 -0.22937865509E+02 -0.38357400886E+02 -0.56282947443E+01  0.45045683241E+02  0.00000000000E+00 0.  1.
         11    1    3    3    0    0  0.71605971221E+01  0.13279243587E+02  0.58333358770E+01  0.16175298115E+02  0.51100000000E-03 0. -1.
        -11    1    3    3    0    0  0.91032313174E+01  0.17770998998E+02 -0.13063867492E+01  0.20009594509E+02  0.51100000000E-03 0.  1.
         12    1    3    3    0    0  0.66740370699E+01  0.73071583008E+01  0.11013456164E+01  0.99574241353E+01  0.00000000000E+00 0. -1.
</event>
<event>
 7    1  0.3435408E-009  0.4614232E+02  0.7816164E-02  0.1320468E+00
        -11   -1    0    0    0    0  0.00000000000E+00  0.00000000000E+00  0.45593999997E+02  0.45594000000E+02  0.51100000000E-03 0. -1.
         11   -1    0    0    0    0 -0.00000000000E+00 -0.00000000000E+00 -0.45593999997E+02  0.45594000000E+02  0.51100000000E-03 0.  1.
    9900012    2    1    2    0    0 -0.36020980428E+01 -0.44597708760E+02  0.52136768068E+01  0.46142321375E+02  0.10000032953E+02 0.  0.
        -12    1    1    2    0    0  0.36020980428E+01  0.44597708760E+02 -0.52136768068E+01  0.45045678625E+02  0.00000000000E+00 0.  1.
         11    1    3    3    0    0 -0.36346966827E+01 -0.37853368449E+02  0.17613414127E+01  0.38068239344E+02  0.51100000000E-03 0. -1.
        -11    1    3    3    0    0 -0.11193190868E+01 -0.38107587901E+01  0.27896027936E+01  0.48535184950E+01  0.51100000000E-03 0.  1.
         12    1    3    3    0    0  0.11519177268E+01 -0.29335815210E+01  0.66273260053E+00  0.32205635360E+01  0.00000000000E+00 0. -1.
</event>
<event>
 7    1  0.3435408E-009  0.4614232E+02  0.7816164E-02  0.1320468E+00
        -11   -1    0    0    0    0  0.00000000000E+00  0.00000000000E+00  0.45593999997E+02  0.45594000000E+02  0.51100000000E-03 0. -1.
         11   -1    0    0    0    0 -0.00000000000E+00 -0.00000000000E+00 -0.45593999997E+02  0.45594000000E+02  0.51100000000E-03 0.  1.
    9900012    2    1    2    0    0  0.12458085899E+01  0.43104435287E+02  0.13021872441E+02  0.46142317162E+02  0.99999945372E+01 0.  0.
        -12    1    1    2    0    0 -0.12458085899E+01 -0.43104435287E+02 -0.13021872441E+02  0.45045682838E+02  0.00000000000E+00 0.  1.
         11    1    3    3    0    0 -0.96082961934E+00  0.13647613464E+02  0.46472098269E+01  0.14449121297E+02  0.51100000000E-03 0. -1.
        -11    1    3    3    0    0 -0.14948481873E+01  0.92334422556E+01  0.57179158848E+01  0.10962918832E+02  0.51100000000E-03 0.  1.
        -12    1    3    3    0    0  0.37014863966E+01  0.20223379568E+02  0.26567467289E+01  0.20730277033E+02  0.00000000000E+00 0.  1.
</event>
<event>
 7    1  0.3435408E-009  0.4614232E+02  0.7816164E-02  0.1320468E+00
        -11   -1    0    0    0    0  0.00000000000E+00  0.00000000000E+00  0.45593999997E+02  0.45594000000E+02  0.51100000000E-03 0.  1.
         11   -1    0    0    0    0 -0.00000000000E+00 -0.00000000000E+00 -0.45593999997E+02  0.45594000000E+02  0.51100000000E-03 0. -1.
    9900012    2    1    2    0    0  0.19089441767E+02  0.85882099550E+01 -0.39886706495E+02  0.46142317718E+02  0.99999996092E+01 0.  0.
        -12    1    1    2    0    0 -0.19089441767E+02 -0.85882099550E+01  0.39886706495E+02  0.45045682282E+02  0.00000000000E+00 0.  1.
         11    1    3    3    0    0  0.73737851284E+01  0.37585082876E+01 -0.13483655347E+02  0.15821126807E+02  0.51100000000E-03 0. -1.
        -11    1    3    3    0    0  0.15831433765E+01  0.41091257407E+01 -0.52263439103E+01  0.68341735589E+01  0.51100000000E-03 0.  1.
         12    1    3    3    0    0  0.10132513262E+02  0.72057592669E+00 -0.21176707238E+02  0.23487017352E+02  0.00000000000E+00 0. -1.
</event>
<event>
 7    1  0.4259061E-009  0.4614232E+02  0.7816164E-02  0.1320468E+00
        -11   -1    0    0    0    0  0.00000000000E+00  0.00000000000E+00  0.45593999997E+02  0.45594000000E+02  0.51100000000E-03 0. -1.
         11   -1    0    0    0    0 -0.00000000000E+00 -0.00000000000E+00 -0.45593999997E+02  0.45594000000E+02  0.51100000000E-03 0.  1.
    9900012    2    1    2    0    0  0.38094698300E+02 -0.14260451994E+02  0.19353214146E+02  0.46142318438E+02  0.10000006169E+02 0.  0.
        -12    1    1    2    0    0 -0.38094698300E+02  0.14260451994E+02 -0.19353214146E+02  0.45045681562E+02  0.00000000000E+00 0.  1.
         11    1    3    3    0    0  0.14315554310E+02 -0.62551785175E+01  0.70599167398E+01  0.17143651248E+02  0.51100000000E-03 0. -1.
        -11    1    3    3    0    0  0.12599259479E+02 -0.31085551464E+01  0.10436348851E+02  0.16652982680E+02  0.51100000000E-03 0.  1.
        -12    1    3    3    0    0  0.11179884511E+02 -0.48967183298E+01  0.18569485551E+01  0.12345684510E+02  0.00000000000E+00 0.  1.
</event>
<event>
 7    1  0.3435408E-009  0.4614232E+02  0.7816164E-02  0.1320468E+00
        -11   -1    0    0    0    0  0.00000000000E+00  0.00000000000E+00  0.45593999997E+02  0.45594000000E+02  0.51100000000E-03 0.  1.
         11   -1    0    0    0    0 -0.00000000000E+00 -0.00000000000E+00 -0.45593999997E+02  0.45594000000E+02  0.51100000000E-03 0. -1.
    9900012    2    1    2    0    0  0.12557569902E+02  0.26532062927E+02 -0.34168270494E+02  0.46142316150E+02  0.99999853049E+01 0.  0.
        -12    1    1    2    0    0 -0.12557569902E+02 -0.26532062927E+02  0.34168270494E+02  0.45045683850E+02  0.00000000000E+00 0.  1.
         11    1    3    3    0    0  0.62858778730E+00  0.46502996988E+01 -0.47044469035E+01  0.66447145028E+01  0.51100000000E-03 0. -1.
        -11    1    3    3    0    0  0.26258326388E+01  0.12833192953E+02 -0.17392989603E+02  0.21773881739E+02  0.51100000000E-03 0.  1.
        -12    1    3    3    0    0  0.93031494764E+01  0.90485702756E+01 -0.12070833987E+02  0.17723719908E+02  0.00000000000E+00 0.  1.
</event>
<event>
 7    1  0.3435408E-009  0.4614232E+02  0.7816164E-02  0.1320468E+00
        -11   -1    0    0    0    0  0.00000000000E+00  0.00000000000E+00  0.45593999997E+02  0.45594000000E+02  0.51100000000E-03 0. -1.
         11   -1    0    0    0    0 -0.00000000000E+00 -0.00000000000E+00 -0.45593999997E+02  0.45594000000E+02  0.51100000000E-03 0.  1.
    9900012    2    1    2    0    0  0.42361656301E+02 -0.13891830336E+02  0.64513885863E+01  0.46142319970E+02  0.10000020146E+02 0.  0.
        -12    1    1    2    0    0 -0.42361656301E+02  0.13891830336E+02 -0.64513885863E+01  0.45045680030E+02  0.00000000000E+00 0.  1.
         11    1    3    3    0    0  0.80808923660E+01 -0.16204686733E+01  0.27862635383E+01  0.87000002826E+01  0.51100000000E-03 0. -1.
        -11    1    3    3    0    0  0.26870043304E+02 -0.11534140303E+02  0.55434223466E+01  0.29761806922E+02  0.51100000000E-03 0.  1.
        -12    1    3    3    0    0  0.74107206311E+01 -0.73722135930E+00 -0.18782972986E+01  0.76805127659E+01  0.00000000000E+00 0.  1.
</event>
<event>
 7    1  0.3435408E-009  0.4614232E+02  0.7816164E-02  0.1320468E+00
        -11   -1    0    0    0    0  0.00000000000E+00  0.00000000000E+00  0.45593999997E+02  0.45594000000E+02  0.51100000000E-03 0.  1.
         11   -1    0    0    0    0 -0.00000000000E+00 -0.00000000000E+00 -0.45593999997E+02  0.45594000000E+02  0.51100000000E-03 0. -1.
    9900012    2    1    2    0    0  0.25711642741E+02 -0.28912319642E+02 -0.23067351182E+02  0.46142317742E+02  0.99999998277E+01 0.  0.
        -12    1    1    2    0    0 -0.25711642741E+02  0.28912319642E+02  0.23067351182E+02  0.45045682258E+02  0.00000000000E+00 0.  1.
         11    1    3    3    0    0  0.12324190531E+02 -0.15094800091E+02 -0.10535202622E+02  0.22152407467E+02  0.51100000000E-03 0. -1.
        -11    1    3    3    0    0  0.40182340541E+01 -0.39421313459E+00 -0.31601857659E+01  0.51272198359E+01  0.51100000000E-03 0.  1.
        -12    1    3    3    0    0  0.93692181554E+01 -0.13423306417E+02 -0.93719627940E+01  0.18862690440E+02  0.00000000000E+00 0.  1.
</event>
<event>
 7    1  0.3435408E-009  0.4614232E+02  0.7816164E-02  0.1320468E+00
        -11   -1    0    0    0    0  0.00000000000E+00  0.00000000000E+00  0.45593999997E+02  0.45594000000E+02  0.51100000000E-03 0.  1.
         11   -1    0    0    0    0 -0.00000000000E+00 -0.00000000000E+00 -0.45593999997E+02  0.45594000000E+02  0.51100000000E-03 0. -1.
    9900012    2    1    2    0    0  0.37241392003E+02 -0.25058338888E+02 -0.37778014817E+01  0.46142318629E+02  0.10000007916E+02 0.  0.
        -12    1    1    2    0    0 -0.37241392003E+02  0.25058338888E+02  0.37778014817E+01  0.45045681371E+02  0.00000000000E+00 0.  1.
         11    1    3    3    0    0  0.18347674978E+02 -0.82452917965E+01  0.19041230202E+01  0.20205140401E+02  0.51100000000E-03 0. -1.
        -11    1    3    3    0    0  0.30863270477E+01 -0.31348704973E+01 -0.11687167411E+01  0.45517828114E+01  0.51100000000E-03 0.  1.
         12    1    3    3    0    0  0.15807389978E+02 -0.13678176594E+02 -0.45132077607E+01  0.21385395417E+02  0.00000000000E+00 0. -1.
</event>
<event>
 7    1  0.3435408E-009  0.4614232E+02  0.7816164E-02  0.1320468E+00
        -11   -1    0    0    0    0  0.00000000000E+00  0.00000000000E+00  0.45593999997E+02  0.45594000000E+02  0.51100000000E-03 0.  1.
         11   -1    0    0    0    0 -0.00000000000E+00 -0.00000000000E+00 -0.45593999997E+02  0.45594000000E+02  0.51100000000E-03 0. -1.
    9900012    2    1    2    0    0 -0.43265045622E+02 -0.42699407579E+01 -0.11790542361E+02  0.46142318121E+02  0.10000003284E+02 0.  0.
        -12    1    1    2    0    0  0.43265045622E+02  0.42699407579E+01  0.11790542361E+02  0.45045681879E+02  0.00000000000E+00 0.  1.
         11    1    3    3    0    0 -0.63210918030E+01 -0.15559793667E+01 -0.29086264823E+01  0.71300337760E+01  0.51100000000E-03 0. -1.
        -11    1    3    3    0    0 -0.16348894201E+02  0.25090364551E+01 -0.19079264299E+01  0.16649978650E+02  0.51100000000E-03 0.  1.
        -12    1    3    3    0    0 -0.20595059618E+02 -0.52229978464E+01 -0.69739894485E+01  0.22362305696E+02  0.00000000000E+00 0.  1.
</event>
<event>
 7    1  0.3435408E-009  0.4614232E+02  0.7816164E-02  0.1320468E+00
        -11   -1    0    0    0    0  0.00000000000E+00  0.00000000000E+00  0.45593999997E+02  0.45594000000E+02  0.51100000000E-03 0.  1.
         11   -1    0    0    0    0 -0.00000000000E+00 -0.00000000000E+00 -0.45593999997E+02  0.45594000000E+02  0.51100000000E-03 0. -1.
    9900012    2    1    2    0    0  0.11719126120E+02  0.50376949520E+01 -0.43201820593E+02  0.46142316634E+02  0.99999897176E+01 0.  0.
        -12    1    1    2    0    0 -0.11719126120E+02 -0.50376949520E+01  0.43201820593E+02  0.45045683366E+02  0.00000000000E+00 0.  1.
         11    1    3    3    0    0  0.40834654808E+01 -0.37087054714E+00 -0.17634042078E+02  0.18104465625E+02  0.51100000000E-03 0. -1.
        -11    1    3    3    0    0  0.18320573454E+01 -0.13282547502E+01 -0.28315727623E+01  0.36247067975E+01  0.51100000000E-03 0.  1.
         12    1    3    3    0    0  0.58036032935E+01  0.67368202494E+01 -0.22736205753E+02  0.24413144211E+02  0.00000000000E+00 0. -1.
</event>
<event>
 7    1  0.3435408E-009  0.4614232E+02  0.7816164E-02  0.1320468E+00
        -11   -1    0    0    0    0  0.00000000000E+00  0.00000000000E+00  0.45593999997E+02  0.45594000000E+02  0.51100000000E-03 0. -1.
         11   -1    0    0    0    0 -0.00000000000E+00 -0.00000000000E+00 -0.45593999997E+02  0.45594000000E+02  0.51100000000E-03 0.  1.
    9900012    2    1    2    0    0  0.14897886754E+02 -0.42507023346E+02  0.56515695282E+00  0.46142318011E+02  0.10000002283E+02 0.  0.
        -12    1    1    2    0    0 -0.14897886754E+02  0.42507023346E+02 -0.56515695282E+00  0.45045681989E+02  0.00000000000E+00 0.  1.
         11    1    3    3    0    0  0.84224470063E+01 -0.20290129798E+02 -0.15841822155E+01  0.22025816996E+02  0.51100000000E-03 0. -1.
        -11    1    3    3    0    0  0.23794258032E+00 -0.12199089337E+02  0.15612711173E+01  0.12300892858E+02  0.51100000000E-03 0.  1.
        -12    1    3    3    0    0  0.62374971669E+01 -0.10017804210E+02  0.58806805107E+00  0.11815608158E+02  0.00000000000E+00 0.  1.
</event>
<event>
 7    1  0.3435408E-009  0.4614232E+02  0.7816164E-02  0.1320468E+00
        -11   -1    0    0    0    0  0.00000000000E+00  0.00000000000E+00  0.45593999997E+02  0.45594000000E+02  0.51100000000E-03 0.  1.
         11   -1    0    0    0    0 -0.00000000000E+00 -0.00000000000E+00 -0.45593999997E+02  0.45594000000E+02  0.51100000000E-03 0. -1.
    9900012    2    1    2    0    0  0.37152180590E+01  0.13662795490E+02 -0.42762585592E+02  0.46142317051E+02  0.99999935280E+01 0.  0.
        -12    1    1    2    0    0 -0.37152180590E+01 -0.13662795490E+02  0.42762585592E+02  0.45045682949E+02  0.00000000000E+00 0.  1.
         11    1    3    3    0    0 -0.12077209305E+01  0.89671909070E+00 -0.47443373639E+01  0.49770907423E+01  0.51100000000E-03 0. -1.
        -11    1    3    3    0    0  0.70930634876E+01  0.96004352418E+01 -0.29418377024E+02  0.31747768638E+02  0.51100000000E-03 0.  1.
        -12    1    3    3    0    0 -0.21701244981E+01  0.31656411571E+01 -0.85998712035E+01  0.94174576712E+01  0.00000000000E+00 0.  1.
</event>
<event>
 7    1  0.3435408E-009  0.4614232E+02  0.7816164E-02  0.1320468E+00
        -11   -1    0    0    0    0  0.00000000000E+00  0.00000000000E+00  0.45593999997E+02  0.45594000000E+02  0.51100000000E-03 0.  1.
         11   -1    0    0    0    0 -0.00000000000E+00 -0.00000000000E+00 -0.45593999997E+02  0.45594000000E+02  0.51100000000E-03 0. -1.
    9900012    2    1    2    0    0  0.10160609772E+02 -0.37580213999E+02  0.22662810786E+02  0.46142317988E+02  0.10000002072E+02 0.  0.
        -12    1    1    2    0    0 -0.10160609772E+02  0.37580213999E+02 -0.22662810786E+02  0.45045682012E+02  0.00000000000E+00 0.  1.
         11    1    3    3    0    0  0.97338817186E+01 -0.30978055526E+02  0.20615898788E+02  0.38463016790E+02  0.51100000000E-03 0. -1.
        -11    1    3    3    0    0  0.14866916931E+01 -0.22584099346E+01 -0.12868994613E+00  0.27068854772E+01  0.51100000000E-03 0.  1.
         12    1    3    3    0    0 -0.10599636394E+01 -0.43437485392E+01  0.21756019434E+01  0.49724157213E+01  0.00000000000E+00 0. -1.
</event>
<event>
 7    1  0.3435408E-009  0.4614232E+02  0.7816164E-02  0.1320468E+00
        -11   -1    0    0    0    0  0.00000000000E+00  0.00000000000E+00  0.45593999997E+02  0.45594000000E+02  0.51100000000E-03 0. -1.
         11   -1    0    0    0    0 -0.00000000000E+00 -0.00000000000E+00 -0.45593999997E+02  0.45594000000E+02  0.51100000000E-03 0.  1.
    9900012    2    1    2    0    0  0.27390111963E+02 -0.29749555754E+02  0.19845885172E+02  0.46142318085E+02  0.10000002956E+02 0.  0.
        -12    1    1    2    0    0 -0.27390111963E+02  0.29749555754E+02 -0.19845885172E+02  0.45045681915E+02  0.00000000000E+00 0.  1.
         11    1    3    3    0    0  0.97986209250E+01 -0.94067939068E+01  0.82419867097E+01  0.15888080086E+02  0.51100000000E-03 0. -1.
        -11    1    3    3    0    0  0.17123208999E+02 -0.15611624780E+02  0.92579660834E+01  0.24952696266E+02  0.51100000000E-03 0.  1.
        -12    1    3    3    0    0  0.46828203858E+00 -0.47311370672E+01  0.23459323792E+01  0.53015417328E+01  0.00000000000E+00 0.  1.
</event>
<event>
 7    1  0.3435408E-009  0.4614232E+02  0.7816164E-02  0.1320468E+00
        -11   -1    0    0    0    0  0.00000000000E+00  0.00000000000E+00  0.45593999997E+02  0.45594000000E+02  0.51100000000E-03 0.  1.
         11   -1    0    0    0    0 -0.00000000000E+00 -0.00000000000E+00 -0.45593999997E+02  0.45594000000E+02  0.51100000000E-03 0. -1.
    9900012    2    1    2    0    0 -0.40255354202E+02  0.40204241900E+01 -0.19810503775E+02  0.46142318604E+02  0.10000007685E+02 0.  0.
        -12    1    1    2    0    0  0.40255354202E+02 -0.40204241900E+01  0.19810503775E+02  0.45045681396E+02  0.00000000000E+00 0.  1.
         11    1    3    3    0    0 -0.11581594010E+02  0.35089286091E+01 -0.59025378542E+01  0.13464243506E+02  0.51100000000E-03 0. -1.
        -11    1    3    3    0    0 -0.28085335008E+02  0.48949289411E+00 -0.11761941207E+02  0.30452732341E+02  0.51100000000E-03 0.  1.
        -12    1    3    3    0    0 -0.58842518418E+00  0.22002686800E-01 -0.21460247139E+01  0.22253427575E+01  0.00000000000E+00 0.  1.
</event>
<event>
 7    1  0.3435408E-009  0.4614232E+02  0.7816164E-02  0.1320468E+00
        -11   -1    0    0    0    0  0.00000000000E+00  0.00000000000E+00  0.45593999997E+02  0.45594000000E+02  0.51100000000E-03 0.  1.
         11   -1    0    0    0    0 -0.00000000000E+00 -0.00000000000E+00 -0.45593999997E+02  0.45594000000E+02  0.51100000000E-03 0. -1.
    9900012    2    1    2    0    0  0.37612513855E+02 -0.62937451140E+00 -0.24779349896E+02  0.46142317720E+02  0.99999996245E+01 0.  0.
        -12    1    1    2    0    0 -0.37612513855E+02  0.62937451140E+00  0.24779349896E+02  0.45045682280E+02  0.00000000000E+00 0.  1.
         11    1    3    3    0    0  0.13721738983E+02  0.39108267271E+01 -0.82452183665E+01  0.16479208494E+02  0.51100000000E-03 0. -1.
        -11    1    3    3    0    0  0.17037818489E+01 -0.43409569258E+00 -0.12315743585E+00  0.17625208294E+01  0.51100000000E-03 0.  1.
         12    1    3    3    0    0  0.22186993024E+02 -0.41061055459E+01 -0.16410974094E+02  0.27900588397E+02  0.00000000000E+00 0. -1.
</event>
<event>
 7    1  0.3435408E-009  0.4614232E+02  0.7816164E-02  0.1320468E+00
        -11   -1    0    0    0    0  0.00000000000E+00  0.00000000000E+00  0.45593999997E+02  0.45594000000E+02  0.51100000000E-03 0.  1.
         11   -1    0    0    0    0 -0.00000000000E+00 -0.00000000000E+00 -0.45593999997E+02  0.45594000000E+02  0.51100000000E-03 0. -1.
    9900012    2    1    2    0    0  0.43840542181E+01 -0.30188412399E+02 -0.33144433395E+02  0.46142316082E+02  0.99999846856E+01 0.  0.
        -12    1    1    2    0    0 -0.43840542181E+01  0.30188412399E+02  0.33144433395E+02  0.45045683918E+02  0.00000000000E+00 0.  1.
         11    1    3    3    0    0  0.34740356478E+01 -0.50532254753E+01 -0.77072061476E+01  0.98491135768E+01  0.51100000000E-03 0. -1.
        -11    1    3    3    0    0 -0.31473113898E+00 -0.56111937248E+01 -0.25116875190E+01  0.61557392051E+01  0.51100000000E-03 0.  1.
        -12    1    3    3    0    0  0.12247497093E+01 -0.19523993199E+02 -0.22925539729E+02  0.30137463300E+02  0.00000000000E+00 0.  1.
</event>
<event>
 7    1  0.3435408E-009  0.4614232E+02  0.7816164E-02  0.1320468E+00
        -11   -1    0    0    0    0  0.00000000000E+00  0.00000000000E+00  0.45593999997E+02  0.45594000000E+02  0.51100000000E-03 0.  1.
         11   -1    0    0    0    0 -0.00000000000E+00 -0.00000000000E+00 -0.45593999997E+02  0.45594000000E+02  0.51100000000E-03 0. -1.
    9900012    2    1    2    0    0 -0.22442853071E+02  0.30657570245E+02 -0.24198040912E+02  0.46142318173E+02  0.10000003758E+02 0.  0.
        -12    1    1    2    0    0  0.22442853071E+02 -0.30657570245E+02  0.24198040912E+02  0.45045681827E+02  0.00000000000E+00 0.  1.
         11    1    3    3    0    0 -0.54316604120E+01  0.53926178425E+01 -0.66549330718E+01  0.10142553745E+02  0.51100000000E-03 0. -1.
        -11    1    3    3    0    0 -0.26125377167E+00 -0.25169779431E+00 -0.14486184973E+01  0.14933523110E+01  0.51100000000E-03 0.  1.
        -12    1    3    3    0    0 -0.16749938887E+02  0.25516650196E+02 -0.16094489343E+02  0.34506412117E+02  0.00000000000E+00 0.  1.
</event>
<event>
 7    1  0.3435408E-009  0.4614232E+02  0.7816164E-02  0.1320468E+00
        -11   -1    0    0    0    0  0.00000000000E+00  0.00000000000E+00  0.45593999997E+02  0.45594000000E+02  0.51100000000E-03 0.  1.
         11   -1    0    0    0    0 -0.00000000000E+00 -0.00000000000E+00 -0.45593999997E+02  0.45594000000E+02  0.51100000000E-03 0. -1.
    9900012    2    1    2    0    0 -0.76977867022E+00 -0.13148221753E+02 -0.43077199985E+02  0.46142318153E+02  0.10000003575E+02 0.  0.
        -12    1    1    2    0    0  0.76977867022E+00  0.13148221753E+02  0.43077199985E+02  0.45045681847E+02  0.00000000000E+00 0.  1.
         11    1    3    3    0    0  0.11294700203E+01 -0.83015242149E+00 -0.27543015234E+01  0.30904745125E+01  0.51100000000E-03 0. -1.
        -11    1    3    3    0    0 -0.15712630226E+01  0.87294451783E+00 -0.65690971053E+01  0.68105753544E+01  0.51100000000E-03 0.  1.
        -12    1    3    3    0    0 -0.32798566801E+00 -0.13191013849E+02 -0.33753801357E+02  0.36241268286E+02  0.00000000000E+00 0.  1.
</event>
<event>
 7    1  0.3435408E-009  0.4614232E+02  0.7816164E-02  0.1320468E+00
        -11   -1    0    0    0    0  0.00000000000E+00  0.00000000000E+00  0.45593999997E+02  0.45594000000E+02  0.51100000000E-03 0. -1.
         11   -1    0    0    0    0 -0.00000000000E+00 -0.00000000000E+00 -0.45593999997E+02  0.45594000000E+02  0.51100000000E-03 0.  1.
    9900012    2    1    2    0    0  0.88419024246E+01  0.27456875678E+02  0.34598472040E+02  0.46142317322E+02  0.99999959915E+01 0.  0.
        -12    1    1    2    0    0 -0.88419024246E+01 -0.27456875678E+02 -0.34598472040E+02  0.45045682678E+02  0.00000000000E+00 0.  1.
         11    1    3    3    0    0  0.80934657729E+01  0.23026787516E+02  0.22767263124E+02  0.33377917879E+02  0.51100000000E-03 0. -1.
        -11    1    3    3    0    0 -0.52703098582E+00  0.10983307401E+01  0.32738976203E+01  0.34932074035E+01  0.51100000000E-03 0.  1.
        -12    1    3    3    0    0  0.12754676375E+01  0.33317574219E+01  0.85573112959E+01  0.92711920392E+01  0.00000000000E+00 0.  1.
</event>
<event>
 7    1  0.3435408E-009  0.4614231E+02  0.7816164E-02  0.1320468E+00
        -11   -1    0    0    0    0  0.00000000000E+00  0.00000000000E+00  0.45593999997E+02  0.45594000000E+02  0.51100000000E-03 0.  1.
         11   -1    0    0    0    0 -0.00000000000E+00 -0.00000000000E+00 -0.45593999997E+02  0.45594000000E+02  0.51100000000E-03 0. -1.
    9900012    2    1    2    0    0 -0.28400374226E+02 -0.24408371725E+02 -0.25035257143E+02  0.46142312453E+02  0.99999515919E+01 0.  0.
        -12    1    1    2    0    0  0.28400374226E+02  0.24408371725E+02  0.25035257143E+02  0.45045687547E+02  0.00000000000E+00 0.  1.
         11    1    3    3    0    0 -0.17353580162E+02 -0.12974032384E+02 -0.15868585548E+02  0.26856735995E+02  0.51100000000E-03 0. -1.
        -11    1    3    3    0    0 -0.83150946983E+01 -0.11303678540E+02 -0.87013954424E+01  0.16511457576E+02  0.51100000000E-03 0.  1.
        -12    1    3    3    0    0 -0.27316993657E+01 -0.13066079994E+00 -0.46527615212E+00  0.27741188812E+01  0.00000000000E+00 0.  1.
</event>
<event>
 7    1  0.3435408E-009  0.4614232E+02  0.7816164E-02  0.1320468E+00
        -11   -1    0    0    0    0  0.00000000000E+00  0.00000000000E+00  0.45593999997E+02  0.45594000000E+02  0.51100000000E-03 0.  1.
         11   -1    0    0    0    0 -0.00000000000E+00 -0.00000000000E+00 -0.45593999997E+02  0.45594000000E+02  0.51100000000E-03 0. -1.
    9900012    2    1    2    0    0 -0.68657239824E+01  0.16111211133E+01 -0.44490219855E+02  0.46142317190E+02  0.99999947916E+01 0.  0.
        -12    1    1    2    0    0  0.68657239824E+01 -0.16111211133E+01  0.44490219855E+02  0.45045682810E+02  0.00000000000E+00 0.  1.
         11    1    3    3    0    0 -0.57729353959E+01  0.87826915454E+00 -0.20731382594E+02  0.21538067794E+02  0.51100000000E-03 0. -1.
        -11    1    3    3    0    0 -0.35898827851E+00 -0.18723775360E+01 -0.19259004053E+02  0.19353136893E+02  0.51100000000E-03 0.  1.
         12    1    3    3    0    0 -0.73380030800E+00  0.26052294948E+01 -0.44998332084E+01  0.52511125027E+01  0.00000000000E+00 0. -1.
</event>
<event>
 7    1  0.3435408E-009  0.4614232E+02  0.7816164E-02  0.1320468E+00
        -11   -1    0    0    0    0  0.00000000000E+00  0.00000000000E+00  0.45593999997E+02  0.45594000000E+02  0.51100000000E-03 0.  1.
         11   -1    0    0    0    0 -0.00000000000E+00 -0.00000000000E+00 -0.45593999997E+02  0.45594000000E+02  0.51100000000E-03 0. -1.
    9900012    2    1    2    0    0  0.15916037397E+02  0.34885277000E+02 -0.23639178232E+02  0.46142317130E+02  0.99999942418E+01 0.  0.
        -12    1    1    2    0    0 -0.15916037397E+02 -0.34885277000E+02  0.23639178232E+02  0.45045682870E+02  0.00000000000E+00 0.  1.
         11    1    3    3    0    0  0.13409086490E+02  0.21204436272E+02 -0.11936816621E+02  0.27783435882E+02  0.51100000000E-03 0. -1.
        -11    1    3    3    0    0  0.30485944083E+01  0.11884841592E+02 -0.10111391845E+02  0.15899170822E+02  0.51100000000E-03 0.  1.
        -12    1    3    3    0    0 -0.54164350178E+00  0.17959991367E+01 -0.15909697662E+01  0.24597104258E+01  0.00000000000E+00 0.  1.
</event>
<event>
 7    1  0.3435408E-009  0.4614232E+02  0.7816164E-02  0.1320468E+00
        -11   -1    0    0    0    0  0.00000000000E+00  0.00000000000E+00  0.45593999997E+02  0.45594000000E+02  0.51100000000E-03 0. -1.
         11   -1    0    0    0    0 -0.00000000000E+00 -0.00000000000E+00 -0.45593999997E+02  0.45594000000E+02  0.51100000000E-03 0.  1.
    9900012    2    1    2    0    0 -0.32456801901E+02  0.12378300791E+02  0.28678339646E+02  0.46142317799E+02  0.10000000344E+02 0.  0.
        -12    1    1    2    0    0  0.32456801901E+02 -0.12378300791E+02 -0.28678339646E+02  0.45045682201E+02  0.00000000000E+00 0.  1.
         11    1    3    3    0    0 -0.23645125342E+02  0.81751902364E+01  0.25202154210E+02  0.35511607468E+02  0.51100000000E-03 0. -1.
        -11    1    3    3    0    0 -0.69839901669E+01  0.26908409877E+01  0.17209613601E+01  0.76797429734E+01  0.51100000000E-03 0.  1.
        -12    1    3    3    0    0 -0.18276863925E+01  0.15122695667E+01  0.17552240753E+01  0.29509673577E+01  0.00000000000E+00 0.  1.
</event>
<event>
 7    1  0.3435408E-009  0.4614231E+02  0.7816164E-02  0.1320468E+00
        -11   -1    0    0    0    0  0.00000000000E+00  0.00000000000E+00  0.45593999997E+02  0.45594000000E+02  0.51100000000E-03 0.  1.
         11   -1    0    0    0    0 -0.00000000000E+00 -0.00000000000E+00 -0.45593999997E+02  0.45594000000E+02  0.51100000000E-03 0. -1.
    9900012    2    1    2    0    0  0.32722738383E+02 -0.22642326820E+02 -0.21110689524E+02  0.46142314488E+02  0.99999701519E+01 0.  0.
        -12    1    1    2    0    0 -0.32722738383E+02  0.22642326820E+02  0.21110689524E+02  0.45045685512E+02  0.00000000000E+00 0.  1.
         11    1    3    3    0    0  0.57662279085E+01 -0.33813967799E+01 -0.33826438831E+01  0.74916959614E+01  0.51100000000E-03 0. -1.
        -11    1    3    3    0    0  0.15471715760E+02 -0.12852144571E+02 -0.58964598701E+01  0.20959958203E+02  0.51100000000E-03 0.  1.
        -12    1    3    3    0    0  0.11484794714E+02 -0.64087854691E+01 -0.11831585771E+02  0.17690660323E+02  0.00000000000E+00 0.  1.
</event>
<event>
 7    1  0.3435408E-009  0.4614232E+02  0.7816164E-02  0.1320468E+00
        -11   -1    0    0    0    0  0.00000000000E+00  0.00000000000E+00  0.45593999997E+02  0.45594000000E+02  0.51100000000E-03 0.  1.
         11   -1    0    0    0    0 -0.00000000000E+00 -0.00000000000E+00 -0.45593999997E+02  0.45594000000E+02  0.51100000000E-03 0. -1.
    9900012    2    1    2    0    0  0.20691555328E+02 -0.11210794747E+02 -0.38409518838E+02  0.46142317430E+02  0.99999969852E+01 0.  0.
        -12    1    1    2    0    0 -0.20691555328E+02  0.11210794747E+02  0.38409518838E+02  0.45045682570E+02  0.00000000000E+00 0.  1.
         11    1    3    3    0    0  0.10659525621E+02 -0.45739163646E+01 -0.25382590286E+02  0.27907384099E+02  0.51100000000E-03 0. -1.
        -11    1    3    3    0    0  0.93746959895E+00  0.55292232059E+00 -0.61209149499E+00  0.12486907547E+01  0.51100000000E-03 0.  1.
         12    1    3    3    0    0  0.90945601087E+01 -0.71898007025E+01 -0.12414837058E+02  0.16986242577E+02  0.00000000000E+00 0. -1.
</event>
<event>
 7    1  0.3435408E-009  0.4614232E+02  0.7816164E-02  0.1320468E+00
        -11   -1    0    0    0    0  0.00000000000E+00  0.00000000000E+00  0.45593999997E+02  0.45594000000E+02  0.51100000000E-03 0.  1.
         11   -1    0    0    0    0 -0.00000000000E+00 -0.00000000000E+00 -0.45593999997E+02  0.45594000000E+02  0.51100000000E-03 0. -1.
    9900012    2    1    2    0    0  0.17402215661E+01 -0.15781832181E+02 -0.42154702640E+02  0.46142317046E+02  0.99999934815E+01 0.  0.
        -12    1    1    2    0    0 -0.17402215661E+01  0.15781832181E+02  0.42154702640E+02  0.45045682954E+02  0.00000000000E+00 0.  1.
         11    1    3    3    0    0  0.21935798475E+01 -0.11073610581E+02 -0.23507882091E+02  0.26077905677E+02  0.51100000000E-03 0. -1.
        -11    1    3    3    0    0 -0.53089206784E+00 -0.17738375727E+01 -0.86808151893E+00  0.20449723486E+01  0.51100000000E-03 0.  1.
        -12    1    3    3    0    0  0.77533786469E-01 -0.29343840276E+01 -0.17778739030E+02  0.18019439021E+02  0.00000000000E+00 0.  1.
</event>
<event>
 7    1  0.3435408E-009  0.4614232E+02  0.7816164E-02  0.1320468E+00
        -11   -1    0    0    0    0  0.00000000000E+00  0.00000000000E+00  0.45593999997E+02  0.45594000000E+02  0.51100000000E-03 0. -1.
         11   -1    0    0    0    0 -0.00000000000E+00 -0.00000000000E+00 -0.45593999997E+02  0.45594000000E+02  0.51100000000E-03 0.  1.
    9900012    2    1    2    0    0  0.24387789342E+02 -0.28944098668E+02  0.24425157938E+02  0.46142318109E+02  0.10000003173E+02 0.  0.
        -12    1    1    2    0    0 -0.24387789342E+02  0.28944098668E+02 -0.24425157938E+02  0.45045681891E+02  0.00000000000E+00 0.  1.
         11    1    3    3    0    0  0.10745891476E+02 -0.12307790686E+02  0.69375509148E+01  0.17750648104E+02  0.51100000000E-03 0. -1.
        -11    1    3    3    0    0  0.33921118478E+01 -0.62035085626E+01  0.26306905662E+01  0.75439031271E+01  0.51100000000E-03 0.  1.
         12    1    3    3    0    0  0.10249786018E+02 -0.10432799420E+02  0.14856916457E+02  0.20847766878E+02  0.00000000000E+00 0. -1.
</event>
<event>
 7    1  0.3435408E-009  0.4614232E+02  0.7816164E-02  0.1320468E+00
        -11   -1    0    0    0    0  0.00000000000E+00  0.00000000000E+00  0.45593999997E+02  0.45594000000E+02  0.51100000000E-03 0.  1.
         11   -1    0    0    0    0 -0.00000000000E+00 -0.00000000000E+00 -0.45593999997E+02  0.45594000000E+02  0.51100000000E-03 0. -1.
    9900012    2    1    2    0    0  0.39947917767E+02  0.19390234132E+02  0.75694165532E+01  0.46142318958E+02  0.10000010915E+02 0.  0.
        -12    1    1    2    0    0 -0.39947917767E+02 -0.19390234132E+02 -0.75694165532E+01  0.45045681042E+02  0.00000000000E+00 0.  1.
         11    1    3    3    0    0  0.14467302176E+02  0.40280073761E+01  0.28038368762E+01  0.15277080126E+02  0.51100000000E-03 0. -1.
        -11    1    3    3    0    0  0.26209124320E+01  0.43635994082E+01  0.23336459773E+00  0.50955511055E+01  0.51100000000E-03 0.  1.
        -12    1    3    3    0    0  0.22859703158E+02  0.10998627347E+02  0.45322150793E+01  0.25769687727E+02  0.00000000000E+00 0.  1.
</event>
<event>
 7    1  0.3435408E-009  0.4614232E+02  0.7816164E-02  0.1320468E+00
        -11   -1    0    0    0    0  0.00000000000E+00  0.00000000000E+00  0.45593999997E+02  0.45594000000E+02  0.51100000000E-03 0.  1.
         11   -1    0    0    0    0 -0.00000000000E+00 -0.00000000000E+00 -0.45593999997E+02  0.45594000000E+02  0.51100000000E-03 0. -1.
    9900012    2    1    2    0    0  0.17703064353E+01 -0.41463898699E+02 -0.17513553385E+02  0.46142318382E+02  0.10000005665E+02 0.  0.
        -12    1    1    2    0    0 -0.17703064353E+01  0.41463898699E+02  0.17513553385E+02  0.45045681618E+02  0.00000000000E+00 0.  1.
         11    1    3    3    0    0 -0.12804506451E+01 -0.15825924012E+02 -0.92449403330E+01  0.18373033139E+02  0.51100000000E-03 0. -1.
        -11    1    3    3    0    0  0.55025993641E+00 -0.21969620088E+01  0.95121217356E+00  0.24564675707E+01  0.51100000000E-03 0.  1.
         12    1    3    3    0    0  0.25004971439E+01 -0.23441012678E+02 -0.92198252254E+01  0.25312817673E+02  0.00000000000E+00 0. -1.
</event>
<event>
 7    1  0.3435408E-009  0.4614232E+02  0.7816164E-02  0.1320468E+00
        -11   -1    0    0    0    0  0.00000000000E+00  0.00000000000E+00  0.45593999997E+02  0.45594000000E+02  0.51100000000E-03 0.  1.
         11   -1    0    0    0    0 -0.00000000000E+00 -0.00000000000E+00 -0.45593999997E+02  0.45594000000E+02  0.51100000000E-03 0. -1.
    9900012    2    1    2    0    0  0.38508170139E+02 -0.40938217050E+01 -0.23010319327E+02  0.46142319417E+02  0.10000015103E+02 0.  0.
        -12    1    1    2    0    0 -0.38508170139E+02  0.40938217050E+01  0.23010319327E+02  0.45045680583E+02  0.00000000000E+00 0.  1.
         11    1    3    3    0    0  0.14890430198E+02  0.19018434510E+01 -0.60948201857E+01  0.16201504663E+02  0.51100000000E-03 0. -1.
        -11    1    3    3    0    0  0.13554086386E+02 -0.28141778929E+01 -0.72382053158E+01  0.15621282643E+02  0.51100000000E-03 0.  1.
         12    1    3    3    0    0  0.10063653555E+02 -0.31814872631E+01 -0.96772938258E+01  0.14319532111E+02  0.00000000000E+00 0. -1.
</event>
<event>
 7    1  0.3435408E-009  0.4614232E+02  0.7816164E-02  0.1320468E+00
        -11   -1    0    0    0    0  0.00000000000E+00  0.00000000000E+00  0.45593999997E+02  0.45594000000E+02  0.51100000000E-03 0.  1.
         11   -1    0    0    0    0 -0.00000000000E+00 -0.00000000000E+00 -0.45593999997E+02  0.45594000000E+02  0.51100000000E-03 0. -1.
    9900012    2    1    2    0    0 -0.22207967728E+02 -0.38457309517E+02 -0.75468534800E+01  0.46142317817E+02  0.10000000507E+02 0.  0.
        -12    1    1    2    0    0  0.22207967728E+02  0.38457309517E+02  0.75468534800E+01  0.45045682183E+02  0.00000000000E+00 0.  1.
         11    1    3    3    0    0 -0.34483916921E+01 -0.87345299743E+01 -0.70631756469E+00  0.94171282192E+01  0.51100000000E-03 0. -1.
        -11    1    3    3    0    0 -0.13946272620E+02 -0.21546010991E+02 -0.86138241386E+01  0.27072625956E+02  0.51100000000E-03 0.  1.
        -12    1    3    3    0    0 -0.48133034165E+01 -0.81767685522E+01  0.17732882233E+01  0.96525636418E+01  0.00000000000E+00 0.  1.
</event>
<event>
 7    1  0.3435408E-009  0.4614232E+02  0.7816164E-02  0.1320468E+00
        -11   -1    0    0    0    0  0.00000000000E+00  0.00000000000E+00  0.45593999997E+02  0.45594000000E+02  0.51100000000E-03 0.  1.
         11   -1    0    0    0    0 -0.00000000000E+00 -0.00000000000E+00 -0.45593999997E+02  0.45594000000E+02  0.51100000000E-03 0. -1.
    9900012    2    1    2    0    0 -0.32074577359E+02 -0.70581053736E+01 -0.30830473930E+02  0.46142317777E+02  0.10000000144E+02 0.  0.
        -12    1    1    2    0    0  0.32074577359E+02  0.70581053736E+01  0.30830473930E+02  0.45045682223E+02  0.00000000000E+00 0.  1.
         11    1    3    3    0    0 -0.17533961810E+02 -0.58589550395E+01 -0.16009438961E+02  0.24455455568E+02  0.51100000000E-03 0. -1.
        -11    1    3    3    0    0 -0.15069762704E+02 -0.73418327356E+00 -0.13803442147E+02  0.20449249091E+02  0.51100000000E-03 0.  1.
        -12    1    3    3    0    0  0.52914715520E+00 -0.46496706051E+00 -0.10175928215E+01  0.12376131179E+01  0.00000000000E+00 0.  1.
</event>
<event>
 7    1  0.3435408E-009  0.4614232E+02  0.7816164E-02  0.1320468E+00
        -11   -1    0    0    0    0  0.00000000000E+00  0.00000000000E+00  0.45593999997E+02  0.45594000000E+02  0.51100000000E-03 0.  1.
         11   -1    0    0    0    0 -0.00000000000E+00 -0.00000000000E+00 -0.45593999997E+02  0.45594000000E+02  0.51100000000E-03 0. -1.
    9900012    2    1    2    0    0 -0.21332545437E+02 -0.25481581692E+02 -0.30409291753E+02  0.46142317352E+02  0.99999962672E+01 0.  0.
        -12    1    1    2    0    0  0.21332545437E+02  0.25481581692E+02  0.30409291753E+02  0.45045682648E+02  0.00000000000E+00 0.  1.
         11    1    3    3    0    0 -0.69882079343E+00 -0.37870600890E+01 -0.21469848023E+01  0.44090496279E+01  0.51100000000E-03 0. -1.
        -11    1    3    3    0    0 -0.77841336939E+01 -0.37699261011E+01 -0.76890908923E+01  0.11572691959E+02  0.51100000000E-03 0.  1.
         12    1    3    3    0    0 -0.12849590950E+02 -0.17924595502E+02 -0.20573216058E+02  0.30160575765E+02  0.00000000000E+00 0. -1.
</event>
<event>
 7    1  0.3435408E-009  0.4614232E+02  0.7816164E-02  0.1320468E+00
        -11   -1    0    0    0    0  0.00000000000E+00  0.00000000000E+00  0.45593999997E+02  0.45594000000E+02  0.51100000000E-03 0.  1.
         11   -1    0    0    0    0 -0.00000000000E+00 -0.00000000000E+00 -0.45593999997E+02  0.45594000000E+02  0.51100000000E-03 0. -1.
    9900012    2    1    2    0    0  0.36817195354E+01 -0.40892221288E+02  0.18530635114E+02  0.46142320314E+02  0.10000023280E+02 0.  0.
        -12    1    1    2    0    0 -0.36817195354E+01  0.40892221288E+02 -0.18530635114E+02  0.45045679686E+02  0.00000000000E+00 0.  1.
         11    1    3    3    0    0  0.25354820819E+01 -0.12503180805E+02  0.75237536369E+01  0.14810977979E+02  0.51100000000E-03 0. -1.
        -11    1    3    3    0    0  0.21999705351E+01 -0.62615681515E+01  0.51973478886E+01  0.84296815721E+01  0.51100000000E-03 0.  1.
        -12    1    3    3    0    0 -0.10537330815E+01 -0.22127472332E+02  0.58095335885E+01  0.22901660763E+02  0.00000000000E+00 0.  1.
</event>
<event>
 7    1  0.3435408E-009  0.4614232E+02  0.7816164E-02  0.1320468E+00
        -11   -1    0    0    0    0  0.00000000000E+00  0.00000000000E+00  0.45593999997E+02  0.45594000000E+02  0.51100000000E-03 0. -1.
         11   -1    0    0    0    0 -0.00000000000E+00 -0.00000000000E+00 -0.45593999997E+02  0.45594000000E+02  0.51100000000E-03 0.  1.
    9900012    2    1    2    0    0  0.22056605134E+02  0.33740210521E+02 -0.20105172565E+02  0.46142316523E+02  0.99999887133E+01 0.  0.
        -12    1    1    2    0    0 -0.22056605134E+02 -0.33740210521E+02  0.20105172565E+02  0.45045683477E+02  0.00000000000E+00 0.  1.
         11    1    3    3    0    0  0.27652948543E+01  0.60480346188E+01 -0.68776672523E+01  0.95670207210E+01  0.51100000000E-03 0.  1.
        -11    1    3    3    0    0  0.50067120611E+01  0.97545595259E+01 -0.24331878888E+01  0.11231162040E+02  0.51100000000E-03 0. -1.
        -12    1    3    3    0    0  0.14284598218E+02  0.17937616376E+02 -0.10794317424E+02  0.25344133762E+02  0.00000000000E+00 0.  1.
</event>
<event>
 7    1  0.3435408E-009  0.4614232E+02  0.7816164E-02  0.1320468E+00
        -11   -1    0    0    0    0  0.00000000000E+00  0.00000000000E+00  0.45593999997E+02  0.45594000000E+02  0.51100000000E-03 0. -1.
         11   -1    0    0    0    0 -0.00000000000E+00 -0.00000000000E+00 -0.45593999997E+02  0.45594000000E+02  0.51100000000E-03 0.  1.
    9900012    2    1    2    0    0  0.33905637437E+02  0.21478336369E+02  0.20449994973E+02  0.46142317881E+02  0.10000001091E+02 0.  0.
        -12    1    1    2    0    0 -0.33905637437E+02 -0.21478336369E+02 -0.20449994973E+02  0.45045682119E+02  0.00000000000E+00 0.  1.
         11    1    3    3    0    0  0.18990205676E+02  0.74799462460E+01  0.10265358546E+02  0.22846336551E+02  0.51100000000E-03 0. -1.
        -11    1    3    3    0    0 -0.24885331994E+00 -0.73742915163E-01  0.18204486119E+00  0.31702773536E+00  0.51100000000E-03 0.  1.
         12    1    3    3    0    0  0.15164285081E+02  0.14072133038E+02  0.10002591566E+02  0.22978953594E+02  0.00000000000E+00 0. -1.
</event>
<event>
 7    1  0.3435408E-009  0.4614232E+02  0.7816164E-02  0.1320468E+00
        -11   -1    0    0    0    0  0.00000000000E+00  0.00000000000E+00  0.45593999997E+02  0.45594000000E+02  0.51100000000E-03 0.  1.
         11   -1    0    0    0    0 -0.00000000000E+00 -0.00000000000E+00 -0.45593999997E+02  0.45594000000E+02  0.51100000000E-03 0. -1.
    9900012    2    1    2    0    0 -0.10812638555E+02  0.29277759393E+02 -0.32480966083E+02  0.46142317573E+02  0.99999982875E+01 0.  0.
        -12    1    1    2    0    0  0.10812638555E+02 -0.29277759393E+02  0.32480966083E+02  0.45045682427E+02  0.00000000000E+00 0.  1.
         11    1    3    3    0    0  0.44886550836E+00  0.82567800358E+01 -0.52462154996E+01  0.97927868420E+01  0.51100000000E-03 0. -1.
        -11    1    3    3    0    0 -0.70277457374E+01  0.99551602163E+01 -0.12759975849E+02  0.17644019072E+02  0.51100000000E-03 0.  1.
         12    1    3    3    0    0 -0.42337583261E+01  0.11065819140E+02 -0.14474774735E+02  0.18705511659E+02  0.00000000000E+00 0. -1.
</event>
<event>
 7    1  0.3435408E-009  0.4614232E+02  0.7816164E-02  0.1320468E+00
        -11   -1    0    0    0    0  0.00000000000E+00  0.00000000000E+00  0.45593999997E+02  0.45594000000E+02  0.51100000000E-03 0.  1.
         11   -1    0    0    0    0 -0.00000000000E+00 -0.00000000000E+00 -0.45593999997E+02  0.45594000000E+02  0.51100000000E-03 0. -1.
    9900012    2    1    2    0    0  0.75280489209E+01  0.44380291617E+02  0.16827627246E+01  0.46142317688E+02  0.99999993367E+01 0.  0.
        -12    1    1    2    0    0 -0.75280489209E+01 -0.44380291617E+02 -0.16827627246E+01  0.45045682312E+02  0.00000000000E+00 0.  1.
         11    1    3    3    0    0 -0.80544929363E+00  0.11997989155E+02  0.20449322739E+01  0.12197632582E+02  0.51100000000E-03 0. -1.
        -11    1    3    3    0    0  0.66439171839E+01  0.31141426420E+02 -0.21134244192E+00  0.31842970039E+02  0.51100000000E-03 0.  1.
        -12    1    3    3    0    0  0.16895810306E+01  0.12408760416E+01 -0.15082710741E+00  0.21017150677E+01  0.00000000000E+00 0.  1.
</event>
<event>
 7    1  0.3435408E-009  0.4614232E+02  0.7816164E-02  0.1320468E+00
        -11   -1    0    0    0    0  0.00000000000E+00  0.00000000000E+00  0.45593999997E+02  0.45594000000E+02  0.51100000000E-03 0.  1.
         11   -1    0    0    0    0 -0.00000000000E+00 -0.00000000000E+00 -0.45593999997E+02  0.45594000000E+02  0.51100000000E-03 0. -1.
    9900012    2    1    2    0    0  0.33559060709E+02 -0.23907356396E+02 -0.18202779673E+02  0.46142318372E+02  0.10000005574E+02 0.  0.
        -12    1    1    2    0    0 -0.33559060709E+02  0.23907356396E+02  0.18202779673E+02  0.45045681628E+02  0.00000000000E+00 0.  1.
         11    1    3    3    0    0  0.35728119386E+01 -0.22961670118E+00 -0.16075161450E+01  0.39245149249E+01  0.51100000000E-03 0. -1.
        -11    1    3    3    0    0  0.18362133708E+02 -0.16904851367E+02 -0.78187425162E+01  0.26154821522E+02  0.51100000000E-03 0.  1.
         12    1    3    3    0    0  0.11624115062E+02 -0.67728883272E+01 -0.87765210113E+01  0.16062981926E+02  0.00000000000E+00 0. -1.
</event>
<event>
 7    1  0.3435408E-009  0.4614232E+02  0.7816164E-02  0.1320468E+00
        -11   -1    0    0    0    0  0.00000000000E+00  0.00000000000E+00  0.45593999997E+02  0.45594000000E+02  0.51100000000E-03 0.  1.
         11   -1    0    0    0    0 -0.00000000000E+00 -0.00000000000E+00 -0.45593999997E+02  0.45594000000E+02  0.51100000000E-03 0. -1.
    9900012    2    1    2    0    0  0.30452367532E+02  0.43491419529E+01 -0.32906715070E+02  0.46142316292E+02  0.99999866021E+01 0.  0.
        -12    1    1    2    0    0 -0.30452367532E+02 -0.43491419529E+01  0.32906715070E+02  0.45045683708E+02  0.00000000000E+00 0.  1.
         11    1    3    3    0    0  0.14121614280E+02  0.64082765808E+01 -0.19042219109E+02  0.24557933697E+02  0.51100000000E-03 0. -1.
        -11    1    3    3    0    0  0.69918269160E+01 -0.14118853638E+01 -0.68188356952E+01  0.98679067894E+01  0.51100000000E-03 0.  1.
         12    1    3    3    0    0  0.93389263361E+01 -0.64724926408E+00 -0.70456602662E+01  0.11716475806E+02  0.00000000000E+00 0. -1.
</event>
<event>
 7    1  0.3435408E-009  0.4614232E+02  0.7816164E-02  0.1320468E+00
        -11   -1    0    0    0    0  0.00000000000E+00  0.00000000000E+00  0.45593999997E+02  0.45594000000E+02  0.51100000000E-03 0.  1.
         11   -1    0    0    0    0 -0.00000000000E+00 -0.00000000000E+00 -0.45593999997E+02  0.45594000000E+02  0.51100000000E-03 0. -1.
    9900012    2    1    2    0    0  0.14203803032E+02  0.12490873602E+02 -0.40882068654E+02  0.46142317839E+02  0.10000000714E+02 0.  0.
        -12    1    1    2    0    0 -0.14203803032E+02 -0.12490873602E+02  0.40882068654E+02  0.45045682161E+02  0.00000000000E+00 0.  1.
         11    1    3    3    0    0  0.32927262109E+01  0.52683412559E+01 -0.11925391992E+02  0.13446651625E+02  0.51100000000E-03 0. -1.
        -11    1    3    3    0    0  0.42566781540E+01  0.70672815705E+01 -0.12882742779E+02  0.15298066527E+02  0.51100000000E-03 0.  1.
        -12    1    3    3    0    0  0.66543986667E+01  0.15525077550E+00 -0.16073933883E+02  0.17397599688E+02  0.00000000000E+00 0.  1.
</event>
<event>
 7    1  0.3435408E-009  0.4614232E+02  0.7816164E-02  0.1320468E+00
        -11   -1    0    0    0    0  0.00000000000E+00  0.00000000000E+00  0.45593999997E+02  0.45594000000E+02  0.51100000000E-03 0.  1.
         11   -1    0    0    0    0 -0.00000000000E+00 -0.00000000000E+00 -0.45593999997E+02  0.45594000000E+02  0.51100000000E-03 0. -1.
    9900012    2    1    2    0    0  0.10755453982E+02  0.28797601303E+01 -0.43647916401E+02  0.46142318577E+02  0.10000007436E+02 0.  0.
        -12    1    1    2    0    0 -0.10755453982E+02 -0.28797601303E+01  0.43647916401E+02  0.45045681423E+02  0.00000000000E+00 0.  1.
         11    1    3    3    0    0  0.11629120125E+02  0.20882530259E+01 -0.32002531703E+02  0.34113916094E+02  0.51100000000E-03 0. -1.
        -11    1    3    3    0    0 -0.45954241699E+00 -0.97654452417E+00 -0.28498381735E+01  0.30473589084E+01  0.51100000000E-03 0.  1.
         12    1    3    3    0    0 -0.41412372619E+00  0.17680516286E+01 -0.87955465243E+01  0.89810435742E+01  0.00000000000E+00 0. -1.
</event>
<event>
 7    1  0.3435408E-009  0.4614232E+02  0.7816164E-02  0.1320468E+00
        -11   -1    0    0    0    0  0.00000000000E+00  0.00000000000E+00  0.45593999997E+02  0.45594000000E+02  0.51100000000E-03 0.  1.
         11   -1    0    0    0    0 -0.00000000000E+00 -0.00000000000E+00 -0.45593999997E+02  0.45594000000E+02  0.51100000000E-03 0. -1.
    9900012    2    1    2    0    0  0.47074191428E-01  0.32395535826E+02 -0.31299209448E+02  0.46142317971E+02  0.10000001910E+02 0.  0.
        -12    1    1    2    0    0 -0.47074191428E-01 -0.32395535826E+02  0.31299209448E+02  0.45045682029E+02  0.00000000000E+00 0.  1.
         11    1    3    3    0    0 -0.86361239465E-01  0.13708964919E+02 -0.19738082538E+02  0.24031959553E+02  0.51100000000E-03 0. -1.
        -11    1    3    3    0    0 -0.91599760199E+00  0.11859924117E+02 -0.80422604983E+01  0.14358788453E+02  0.51100000000E-03 0.  1.
         12    1    3    3    0    0  0.10494330329E+01  0.68266467905E+01 -0.35188664114E+01  0.77515699645E+01  0.00000000000E+00 0. -1.
</event>
<event>
 7    1  0.3435408E-009  0.4614232E+02  0.7816164E-02  0.1320468E+00
        -11   -1    0    0    0    0  0.00000000000E+00  0.00000000000E+00  0.45593999997E+02  0.45594000000E+02  0.51100000000E-03 0.  1.
         11   -1    0    0    0    0 -0.00000000000E+00 -0.00000000000E+00 -0.45593999997E+02  0.45594000000E+02  0.51100000000E-03 0. -1.
    9900012    2    1    2    0    0 -0.82488662193E+01 -0.15064445581E+02 -0.41642911905E+02  0.46142318447E+02  0.10000006259E+02 0.  0.
        -12    1    1    2    0    0  0.82488662193E+01  0.15064445581E+02  0.41642911905E+02  0.45045681553E+02  0.00000000000E+00 0.  1.
         11    1    3    3    0    0 -0.51170069979E+01 -0.65479859397E+01 -0.12883961435E+02  0.15331547312E+02  0.51100000000E-03 0. -1.
        -11    1    3    3    0    0 -0.26721044720E+00  0.29457024141E+00 -0.87699394167E+01  0.87789527100E+01  0.51100000000E-03 0.  1.
         12    1    3    3    0    0 -0.28646487743E+01 -0.88110298832E+01 -0.19989011054E+02  0.22031818425E+02  0.00000000000E+00 0. -1.
</event>
<event>
 7    1  0.3435408E-009  0.4614232E+02  0.7816164E-02  0.1320468E+00
        -11   -1    0    0    0    0  0.00000000000E+00  0.00000000000E+00  0.45593999997E+02  0.45594000000E+02  0.51100000000E-03 0.  1.
         11   -1    0    0    0    0 -0.00000000000E+00 -0.00000000000E+00 -0.45593999997E+02  0.45594000000E+02  0.51100000000E-03 0. -1.
    9900012    2    1    2    0    0  0.56428157257E+01  0.26198927062E+02 -0.36206192048E+02  0.46142317731E+02  0.99999997244E+01 0.  0.
        -12    1    1    2    0    0 -0.56428157257E+01 -0.26198927062E+02  0.36206192048E+02  0.45045682269E+02  0.00000000000E+00 0.  1.
         11    1    3    3    0    0 -0.11284027940E+01  0.20092406275E+01 -0.36556704181E+01  0.43213733039E+01  0.51100000000E-03 0. -1.
        -11    1    3    3    0    0 -0.70226531202E+00  0.72697364723E+01 -0.59445406987E+01  0.94169957696E+01  0.51100000000E-03 0.  1.
        -12    1    3    3    0    0  0.74734838317E+01  0.16919949962E+02 -0.26605980931E+02  0.32403948657E+02  0.00000000000E+00 0.  1.
</event>
<event>
 7    1  0.3435408E-009  0.4614232E+02  0.7816164E-02  0.1320468E+00
        -11   -1    0    0    0    0  0.00000000000E+00  0.00000000000E+00  0.45593999997E+02  0.45594000000E+02  0.51100000000E-03 0.  1.
         11   -1    0    0    0    0 -0.00000000000E+00 -0.00000000000E+00 -0.45593999997E+02  0.45594000000E+02  0.51100000000E-03 0. -1.
    9900012    2    1    2    0    0 -0.28475379852E+02  0.29608067694E+02 -0.18483196271E+02  0.46142317914E+02  0.10000001392E+02 0.  0.
        -12    1    1    2    0    0  0.28475379852E+02 -0.29608067694E+02  0.18483196271E+02  0.45045682086E+02  0.00000000000E+00 0.  1.
         11    1    3    3    0    0 -0.54543995968E+01  0.20743197993E+01 -0.15042026848E+01  0.60262677977E+01  0.51100000000E-03 0. -1.
        -11    1    3    3    0    0 -0.11255007326E+01  0.23541173193E+01  0.13964777501E+00  0.26130675487E+01  0.51100000000E-03 0.  1.
         12    1    3    3    0    0 -0.21895479522E+02  0.25179630575E+02 -0.17118641361E+02  0.37502982567E+02  0.00000000000E+00 0. -1.
</event>
<event>
 7    1  0.3435408E-009  0.4614232E+02  0.7816164E-02  0.1320468E+00
        -11   -1    0    0    0    0  0.00000000000E+00  0.00000000000E+00  0.45593999997E+02  0.45594000000E+02  0.51100000000E-03 0.  1.
         11   -1    0    0    0    0 -0.00000000000E+00 -0.00000000000E+00 -0.45593999997E+02  0.45594000000E+02  0.51100000000E-03 0. -1.
    9900012    2    1    2    0    0  0.18533160042E+02 -0.36192634736E+02 -0.19383713786E+02  0.46142321068E+02  0.10000030158E+02 0.  0.
        -12    1    1    2    0    0 -0.18533160042E+02  0.36192634736E+02  0.19383713786E+02  0.45045678932E+02  0.00000000000E+00 0.  1.
         11    1    3    3    0    0  0.87251225167E+01 -0.18526121376E+02 -0.75461112009E+01  0.21824040201E+02  0.51100000000E-03 0. -1.
        -11    1    3    3    0    0  0.10310808775E+01 -0.78711612676E+01 -0.30693351179E+01  0.85111177764E+01  0.51100000000E-03 0.  1.
         12    1    3    3    0    0  0.87769566481E+01 -0.97953520917E+01 -0.87682674671E+01  0.15807163091E+02  0.00000000000E+00 0. -1.
</event>
<event>
 7    1  0.3435408E-009  0.4614232E+02  0.7816164E-02  0.1320468E+00
        -11   -1    0    0    0    0  0.00000000000E+00  0.00000000000E+00  0.45593999997E+02  0.45594000000E+02  0.51100000000E-03 0.  1.
         11   -1    0    0    0    0 -0.00000000000E+00 -0.00000000000E+00 -0.45593999997E+02  0.45594000000E+02  0.51100000000E-03 0. -1.
    9900012    2    1    2    0    0  0.16018971657E+02  0.39140919963E+02 -0.15507878669E+02  0.46142319082E+02  0.10000012047E+02 0.  0.
        -12    1    1    2    0    0 -0.16018971657E+02 -0.39140919963E+02  0.15507878669E+02  0.45045680918E+02  0.00000000000E+00 0.  1.
         11    1    3    3    0    0  0.11836968797E+02  0.26964181825E+02 -0.11404165696E+02  0.31579042532E+02  0.51100000000E-03 0. -1.
        -11    1    3    3    0    0  0.17670708677E+01  0.68053969405E+01  0.55674371576E+00  0.70530795257E+01  0.51100000000E-03 0.  1.
        -12    1    3    3    0    0  0.24149319931E+01  0.53713411981E+01 -0.46604566888E+01  0.75101970244E+01  0.00000000000E+00 0.  1.
</event>
<event>
 7    1  0.3435408E-009  0.4614232E+02  0.7816164E-02  0.1320468E+00
        -11   -1    0    0    0    0  0.00000000000E+00  0.00000000000E+00  0.45593999997E+02  0.45594000000E+02  0.51100000000E-03 0.  1.
         11   -1    0    0    0    0 -0.00000000000E+00 -0.00000000000E+00 -0.45593999997E+02  0.45594000000E+02  0.51100000000E-03 0. -1.
    9900012    2    1    2    0    0 -0.48574488509E+00  0.28825179369E+02 -0.34611941482E+02  0.46142318665E+02  0.10000008247E+02 0.  0.
        -12    1    1    2    0    0  0.48574488509E+00 -0.28825179369E+02  0.34611941482E+02  0.45045681335E+02  0.00000000000E+00 0.  1.
         11    1    3    3    0    0 -0.14083048572E+01  0.13223138155E+02 -0.12666112643E+02  0.18364779198E+02  0.51100000000E-03 0. -1.
        -11    1    3    3    0    0  0.31042415453E+01  0.33673910028E+01 -0.53101180511E+01  0.70123456642E+01  0.51100000000E-03 0.  1.
        -12    1    3    3    0    0 -0.21816815732E+01  0.12234650211E+02 -0.16635710788E+02  0.20765193803E+02  0.00000000000E+00 0.  1.
</event>
<event>
 7    1  0.3435408E-009  0.4614231E+02  0.7816164E-02  0.1320468E+00
        -11   -1    0    0    0    0  0.00000000000E+00  0.00000000000E+00  0.45593999997E+02  0.45594000000E+02  0.51100000000E-03 0.  1.
         11   -1    0    0    0    0 -0.00000000000E+00 -0.00000000000E+00 -0.45593999997E+02  0.45594000000E+02  0.51100000000E-03 0. -1.
    9900012    2    1    2    0    0  0.20033547844E+01  0.37408883413E+01 -0.44845363500E+02  0.46142308714E+02  0.99999175023E+01 0.  0.
        -12    1    1    2    0    0 -0.20033547844E+01 -0.37408883413E+01  0.44845363500E+02  0.45045691286E+02  0.00000000000E+00 0.  1.
         11    1    3    3    0    0  0.21555536703E+01  0.38722868454E+01 -0.94184479611E+01  0.10409043150E+02  0.51100000000E-03 0. -1.
        -11    1    3    3    0    0  0.15465200527E+01  0.33173360194E+00 -0.47613279191E+01  0.50171720391E+01  0.51100000000E-03 0.  1.
         12    1    3    3    0    0 -0.16987189385E+01 -0.46313210606E+00 -0.30665587620E+02  0.30716093525E+02  0.00000000000E+00 0. -1.
</event>
<event>
 7    1  0.3435408E-009  0.4614232E+02  0.7816164E-02  0.1320468E+00
        -11   -1    0    0    0    0  0.00000000000E+00  0.00000000000E+00  0.45593999997E+02  0.45594000000E+02  0.51100000000E-03 0. -1.
         11   -1    0    0    0    0 -0.00000000000E+00 -0.00000000000E+00 -0.45593999997E+02  0.45594000000E+02  0.51100000000E-03 0.  1.
    9900012    2    1    2    0    0 -0.63320067861E+01 -0.40808303357E+02  0.17991707337E+02  0.46142318013E+02  0.10000002296E+02 0.  0.
        -12    1    1    2    0    0  0.63320067861E+01  0.40808303357E+02 -0.17991707337E+02  0.45045681987E+02  0.00000000000E+00 0.  1.
         11    1    3    3    0    0 -0.28415917132E+01 -0.21478010744E+02  0.63206076254E+01  0.22568333346E+02  0.51100000000E-03 0. -1.
        -11    1    3    3    0    0 -0.41775791607E+01 -0.78263469763E+01  0.40119029065E+01  0.97364901186E+01  0.51100000000E-03 0.  1.
         12    1    3    3    0    0  0.68716408780E+00 -0.11503945636E+02  0.76591968049E+01  0.13837494549E+02  0.00000000000E+00 0. -1.
</event>
<event>
 7    1  0.3435408E-009  0.4614232E+02  0.7816164E-02  0.1320468E+00
        -11   -1    0    0    0    0  0.00000000000E+00  0.00000000000E+00  0.45593999997E+02  0.45594000000E+02  0.51100000000E-03 0.  1.
         11   -1    0    0    0    0 -0.00000000000E+00 -0.00000000000E+00 -0.45593999997E+02  0.45594000000E+02  0.51100000000E-03 0. -1.
    9900012    2    1    2    0    0  0.13917245457E+02 -0.34611218427E+02 -0.25248505677E+02  0.46142320951E+02  0.10000029087E+02 0.  0.
        -12    1    1    2    0    0 -0.13917245457E+02  0.34611218427E+02  0.25248505677E+02  0.45045679049E+02  0.00000000000E+00 0.  1.
         11    1    3    3    0    0  0.40702836048E+01 -0.63412417275E+01 -0.58672228384E+01  0.95500188149E+01  0.51100000000E-03 0. -1.
        -11    1    3    3    0    0  0.19782662093E+01 -0.17938762026E+02 -0.10979963681E+02  0.21125158531E+02  0.51100000000E-03 0.  1.
        -12    1    3    3    0    0  0.78686956425E+01 -0.10331214673E+02 -0.84013191573E+01  0.15467143605E+02  0.00000000000E+00 0.  1.
</event>
<event>
 7    1  0.3435408E-009  0.4614232E+02  0.7816164E-02  0.1320468E+00
        -11   -1    0    0    0    0  0.00000000000E+00  0.00000000000E+00  0.45593999997E+02  0.45594000000E+02  0.51100000000E-03 0.  1.
         11   -1    0    0    0    0 -0.00000000000E+00 -0.00000000000E+00 -0.45593999997E+02  0.45594000000E+02  0.51100000000E-03 0. -1.
    9900012    2    1    2    0    0  0.37167595332E+02 -0.16051668075E+02 -0.19749108915E+02  0.46142317702E+02  0.99999994638E+01 0.  0.
        -12    1    1    2    0    0 -0.37167595332E+02  0.16051668075E+02  0.19749108915E+02  0.45045682298E+02  0.00000000000E+00 0.  1.
         11    1    3    3    0    0  0.86736962743E+01 -0.17414241468E+00 -0.42643040273E+01  0.96668310081E+01  0.51100000000E-03 0. -1.
        -11    1    3    3    0    0  0.10835862697E+02 -0.89163024819E+01 -0.70717240203E+01  0.15713868118E+02  0.51100000000E-03 0.  1.
         12    1    3    3    0    0  0.17658036360E+02 -0.69612231786E+01 -0.84130808672E+01  0.20761618577E+02  0.00000000000E+00 0. -1.
</event>
<event>
 7    1  0.3435408E-009  0.4614232E+02  0.7816164E-02  0.1320468E+00
        -11   -1    0    0    0    0  0.00000000000E+00  0.00000000000E+00  0.45593999997E+02  0.45594000000E+02  0.51100000000E-03 0.  1.
         11   -1    0    0    0    0 -0.00000000000E+00 -0.00000000000E+00 -0.45593999997E+02  0.45594000000E+02  0.51100000000E-03 0. -1.
    9900012    2    1    2    0    0 -0.15596271810E-01  0.65752901571E+01 -0.44563200836E+02  0.46142317048E+02  0.99999934947E+01 0.  0.
        -12    1    1    2    0    0  0.15596271810E-01 -0.65752901571E+01  0.44563200836E+02  0.45045682952E+02  0.00000000000E+00 0.  1.
         11    1    3    3    0    0 -0.10343910072E+01 -0.13219450969E+01 -0.11583275073E+02  0.11704262697E+02  0.51100000000E-03 0.  1.
        -11    1    3    3    0    0 -0.24851108142E+01  0.32086082049E+01 -0.13932495456E+02  0.14511559952E+02  0.51100000000E-03 0. -1.
         12    1    3    3    0    0  0.35039055495E+01  0.46886270491E+01 -0.19047430308E+02  0.19926494399E+02  0.00000000000E+00 0. -1.
</event>
<event>
 7    1  0.3435408E-009  0.4614231E+02  0.7816164E-02  0.1320468E+00
        -11   -1    0    0    0    0  0.00000000000E+00  0.00000000000E+00  0.45593999997E+02  0.45594000000E+02  0.51100000000E-03 0.  1.
         11   -1    0    0    0    0 -0.00000000000E+00 -0.00000000000E+00 -0.45593999997E+02  0.45594000000E+02  0.51100000000E-03 0. -1.
    9900012    2    1    2    0    0 -0.22437597506E+02  0.23957124187E+02 -0.30850035129E+02  0.46142309322E+02  0.99999230473E+01 0.  0.
        -12    1    1    2    0    0  0.22437597506E+02 -0.23957124187E+02  0.30850035129E+02  0.45045690678E+02  0.00000000000E+00 0.  1.
         11    1    3    3    0    0 -0.22823742740E+01  0.25104358198E+01 -0.80930080505E+01  0.87754373052E+01  0.51100000000E-03 0. -1.
        -11    1    3    3    0    0 -0.19842403354E+02  0.20976047217E+02 -0.22813321651E+02  0.36798956137E+02  0.51100000000E-03 0.  1.
        -12    1    3    3    0    0 -0.31281987802E+00  0.47064114993E+00  0.56294572540E-01  0.56791588020E+00  0.00000000000E+00 0.  1.
</event>
<event>
 7    1  0.3435408E-009  0.4614232E+02  0.7816164E-02  0.1320468E+00
        -11   -1    0    0    0    0  0.00000000000E+00  0.00000000000E+00  0.45593999997E+02  0.45594000000E+02  0.51100000000E-03 0.  1.
         11   -1    0    0    0    0 -0.00000000000E+00 -0.00000000000E+00 -0.45593999997E+02  0.45594000000E+02  0.51100000000E-03 0. -1.
    9900012    2    1    2    0    0 -0.26969402769E+02  0.35960445107E+02  0.29344826961E+01  0.46142317780E+02  0.10000000169E+02 0.  0.
        -12    1    1    2    0    0  0.26969402769E+02 -0.35960445107E+02 -0.29344826961E+01  0.45045682220E+02  0.00000000000E+00 0.  1.
         11    1    3    3    0    0 -0.11492467126E+02  0.12173452314E+02  0.43517932284E+01  0.17297625457E+02  0.51100000000E-03 0. -1.
        -11    1    3    3    0    0 -0.97350669469E+01  0.18404041941E+02  0.14454049770E+00  0.20820691161E+02  0.51100000000E-03 0.  1.
         12    1    3    3    0    0 -0.57418686962E+01  0.53829508521E+01 -0.15618510300E+01  0.80240011615E+01  0.00000000000E+00 0. -1.
</event>
<event>
 7    1  0.3435408E-009  0.4614232E+02  0.7816164E-02  0.1320468E+00
        -11   -1    0    0    0    0  0.00000000000E+00  0.00000000000E+00  0.45593999997E+02  0.45594000000E+02  0.51100000000E-03 0.  1.
         11   -1    0    0    0    0 -0.00000000000E+00 -0.00000000000E+00 -0.45593999997E+02  0.45594000000E+02  0.51100000000E-03 0. -1.
    9900012    2    1    2    0    0 -0.42112262822E+02  0.15946320994E+02  0.11771780673E+01  0.46142316728E+02  0.99999905836E+01 0.  0.
        -12    1    1    2    0    0  0.42112262822E+02 -0.15946320994E+02 -0.11771780673E+01  0.45045683272E+02  0.00000000000E+00 0.  1.
         11    1    3    3    0    0 -0.28519913862E+02  0.10376573338E+02 -0.33426815088E+01  0.30532479115E+02  0.51100000000E-03 0. -1.
        -11    1    3    3    0    0 -0.99220171683E+01  0.45629116255E+01  0.21624475064E+01  0.11132958577E+02  0.51100000000E-03 0.  1.
         12    1    3    3    0    0 -0.36703317911E+01  0.10068360304E+01  0.23574120697E+01  0.44768790373E+01  0.00000000000E+00 0. -1.
</event>
<event>
 7    1  0.3435408E-009  0.4614233E+02  0.7816164E-02  0.1320468E+00
        -11   -1    0    0    0    0  0.00000000000E+00  0.00000000000E+00  0.45593999997E+02  0.45594000000E+02  0.51100000000E-03 0.  1.
         11   -1    0    0    0    0 -0.00000000000E+00 -0.00000000000E+00 -0.45593999997E+02  0.45594000000E+02  0.51100000000E-03 0. -1.
    9900012    2    1    2    0    0  0.37906240230E+01 -0.17364290350E+02 -0.41391126810E+02  0.46142325530E+02  0.10000070845E+02 0.  0.
        -12    1    1    2    0    0 -0.37906240230E+01  0.17364290350E+02  0.41391126810E+02  0.45045674470E+02  0.00000000000E+00 0.  1.
         11    1    3    3    0    0 -0.31663067793E-02 -0.57793234754E+01 -0.22379303920E+02  0.23113498958E+02  0.51100000000E-03 0. -1.
        -11    1    3    3    0    0  0.41976770932E+01 -0.72875293418E+01 -0.10226885607E+02  0.13240761548E+02  0.51100000000E-03 0.  1.
         12    1    3    3    0    0 -0.40388676337E+00 -0.42974375326E+01 -0.87849372823E+01  0.97880650242E+01  0.00000000000E+00 0. -1.
</event>
<event>
 7    1  0.3435408E-009  0.4614232E+02  0.7816164E-02  0.1320468E+00
        -11   -1    0    0    0    0  0.00000000000E+00  0.00000000000E+00  0.45593999997E+02  0.45594000000E+02  0.51100000000E-03 0.  1.
         11   -1    0    0    0    0 -0.00000000000E+00 -0.00000000000E+00 -0.45593999997E+02  0.45594000000E+02  0.51100000000E-03 0. -1.
    9900012    2    1    2    0    0  0.36183359772E+02 -0.10171517859E+02 -0.24827771305E+02  0.46142317322E+02  0.99999959973E+01 0.  0.
        -12    1    1    2    0    0 -0.36183359772E+02  0.10171517859E+02  0.24827771305E+02  0.45045682678E+02  0.00000000000E+00 0.  1.
         11    1    3    3    0    0  0.12469340655E+02 -0.48888086924E+01 -0.44703319456E+01  0.14119800805E+02  0.51100000000E-03 0.  1.
        -11    1    3    3    0    0  0.18921742335E+02 -0.41375050999E+01 -0.18416666795E+02  0.26726857233E+02  0.51100000000E-03 0. -1.
         12    1    3    3    0    0  0.47922767824E+01 -0.11452040671E+01 -0.19407725637E+01  0.52956592846E+01  0.00000000000E+00 0. -1.
</event>
<event>
 7    1  0.3435408E-009  0.4614232E+02  0.7816164E-02  0.1320468E+00
        -11   -1    0    0    0    0  0.00000000000E+00  0.00000000000E+00  0.45593999997E+02  0.45594000000E+02  0.51100000000E-03 0.  1.
         11   -1    0    0    0    0 -0.00000000000E+00 -0.00000000000E+00 -0.45593999997E+02  0.45594000000E+02  0.51100000000E-03 0. -1.
    9900012    2    1    2    0    0  0.27047860010E+02  0.33785444118E+02 -0.12492818584E+02  0.46142317837E+02  0.10000000691E+02 0.  0.
        -12    1    1    2    0    0 -0.27047860010E+02 -0.33785444118E+02  0.12492818584E+02  0.45045682163E+02  0.00000000000E+00 0.  1.
         11    1    3    3    0    0  0.39013984127E+01  0.74251017394E+01 -0.19095806307E+01  0.86022987545E+01  0.51100000000E-03 0. -1.
        -11    1    3    3    0    0  0.69915505286E+01  0.10469330572E+02 -0.75438081451E+01  0.14676433593E+02  0.51100000000E-03 0.  1.
        -12    1    3    3    0    0  0.16154911068E+02  0.15891011807E+02 -0.30394298080E+01  0.22863585489E+02  0.00000000000E+00 0.  1.
</event>
<event>
 7    1  0.3435408E-009  0.4614232E+02  0.7816164E-02  0.1320468E+00
        -11   -1    0    0    0    0  0.00000000000E+00  0.00000000000E+00  0.45593999997E+02  0.45594000000E+02  0.51100000000E-03 0.  1.
         11   -1    0    0    0    0 -0.00000000000E+00 -0.00000000000E+00 -0.45593999997E+02  0.45594000000E+02  0.51100000000E-03 0. -1.
    9900012    2    1    2    0    0 -0.23805263732E+02  0.36409320977E+02 -0.11695481569E+02  0.46142317361E+02  0.99999963481E+01 0.  0.
        -12    1    1    2    0    0  0.23805263732E+02 -0.36409320977E+02  0.11695481569E+02  0.45045682639E+02  0.00000000000E+00 0.  1.
         11    1    3    3    0    0 -0.62684352967E+00  0.57326809209E+01 -0.27685357858E-01  0.57669168619E+01  0.51100000000E-03 0.  1.
        -11    1    3    3    0    0 -0.20543059336E+01  0.17562561547E+01  0.20213004172E-01  0.27027795649E+01  0.51100000000E-03 0. -1.
         12    1    3    3    0    0 -0.21124114268E+02  0.28920383901E+02 -0.11688009215E+02  0.37672620934E+02  0.00000000000E+00 0. -1.
</event>
<event>
 7    1  0.3435408E-009  0.4614232E+02  0.7816164E-02  0.1320468E+00
        -11   -1    0    0    0    0  0.00000000000E+00  0.00000000000E+00  0.45593999997E+02  0.45594000000E+02  0.51100000000E-03 0.  1.
         11   -1    0    0    0    0 -0.00000000000E+00 -0.00000000000E+00 -0.45593999997E+02  0.45594000000E+02  0.51100000000E-03 0. -1.
    9900012    2    1    2    0    0 -0.10496540168E+02  0.85087057635E+01 -0.42971365784E+02  0.46142315339E+02  0.99999779089E+01 0.  0.
        -12    1    1    2    0    0  0.10496540168E+02 -0.85087057635E+01  0.42971365784E+02  0.45045684661E+02  0.00000000000E+00 0.  1.
         11    1    3    3    0    0 -0.58060544990E+01  0.44842964833E+01 -0.11270385963E+02  0.13447705522E+02  0.51100000000E-03 0. -1.
        -11    1    3    3    0    0 -0.47459629867E+01  0.50631188153E+01 -0.26747994329E+02  0.27633576274E+02  0.51100000000E-03 0.  1.
        -12    1    3    3    0    0  0.55477317419E-01 -0.10387095351E+01 -0.49529854927E+01  0.50610335428E+01  0.00000000000E+00 0.  1.
</event>
<event>
 7    1  0.3435408E-009  0.4614232E+02  0.7816164E-02  0.1320468E+00
        -11   -1    0    0    0    0  0.00000000000E+00  0.00000000000E+00  0.45593999997E+02  0.45594000000E+02  0.51100000000E-03 0.  1.
         11   -1    0    0    0    0 -0.00000000000E+00 -0.00000000000E+00 -0.45593999997E+02  0.45594000000E+02  0.51100000000E-03 0. -1.
    9900012    2    1    2    0    0  0.19138334305E+02 -0.20383180752E+02 -0.35318034960E+02  0.46142317732E+02  0.99999997328E+01 0.  0.
        -12    1    1    2    0    0 -0.19138334305E+02  0.20383180752E+02  0.35318034960E+02  0.45045682268E+02  0.00000000000E+00 0.  1.
         11    1    3    3    0    0  0.19220866620E+01 -0.42455845631E+01 -0.20900043321E+01  0.51075947165E+01  0.51100000000E-03 0.  1.
        -11    1    3    3    0    0  0.14810820282E+02 -0.15371288840E+02 -0.27811458103E+02  0.35058723880E+02  0.51100000000E-03 0. -1.
         12    1    3    3    0    0  0.24054273616E+01 -0.76630734896E+00 -0.54165725248E+01  0.59759991350E+01  0.00000000000E+00 0. -1.
</event>
<event>
 7    1  0.3435408E-009  0.4614232E+02  0.7816164E-02  0.1320468E+00
        -11   -1    0    0    0    0  0.00000000000E+00  0.00000000000E+00  0.45593999997E+02  0.45594000000E+02  0.51100000000E-03 0. -1.
         11   -1    0    0    0    0 -0.00000000000E+00 -0.00000000000E+00 -0.45593999997E+02  0.45594000000E+02  0.51100000000E-03 0.  1.
    9900012    2    1    2    0    0  0.48411063202E+01  0.26010171165E+02  0.36457485664E+02  0.46142316795E+02  0.99999911944E+01 0.  0.
        -12    1    1    2    0    0 -0.48411063202E+01 -0.26010171165E+02 -0.36457485664E+02  0.45045683205E+02  0.00000000000E+00 0.  1.
         11    1    3    3    0    0  0.47802168414E+01  0.11561640785E+02  0.20517251963E+02  0.24030806043E+02  0.51100000000E-03 0. -1.
        -11    1    3    3    0    0  0.24066007774E-01  0.12555751283E+02  0.10554007570E+02  0.16402272571E+02  0.51100000000E-03 0.  1.
        -12    1    3    3    0    0  0.36823471049E-01  0.18927790969E+01  0.53862261312E+01  0.57092381816E+01  0.00000000000E+00 0.  1.
</event>
<event>
 7    1  0.3435408E-009  0.4614232E+02  0.7816164E-02  0.1320468E+00
        -11   -1    0    0    0    0  0.00000000000E+00  0.00000000000E+00  0.45593999997E+02  0.45594000000E+02  0.51100000000E-03 0.  1.
         11   -1    0    0    0    0 -0.00000000000E+00 -0.00000000000E+00 -0.45593999997E+02  0.45594000000E+02  0.51100000000E-03 0. -1.
    9900012    2    1    2    0    0  0.28711122832E+02 -0.24810842609E+02 -0.24273591613E+02  0.46142315023E+02  0.99999750341E+01 0.  0.
        -12    1    1    2    0    0 -0.28711122832E+02  0.24810842609E+02  0.24273591613E+02  0.45045684977E+02  0.00000000000E+00 0.  1.
         11    1    3    3    0    0  0.56674771984E+01 -0.47851823935E+01 -0.93678572980E+01  0.11948850110E+02  0.51100000000E-03 0. -1.
        -11    1    3    3    0    0  0.27193636118E+01 -0.92023773912E+00 -0.11619632773E+01  0.30970848985E+01  0.51100000000E-03 0.  1.
         12    1    3    3    0    0  0.20324282021E+02 -0.19105422476E+02 -0.13743771038E+02  0.31096380015E+02  0.00000000000E+00 0. -1.
</event>
<event>
 7    1  0.3435408E-009  0.4614232E+02  0.7816164E-02  0.1320468E+00
        -11   -1    0    0    0    0  0.00000000000E+00  0.00000000000E+00  0.45593999997E+02  0.45594000000E+02  0.51100000000E-03 0.  1.
         11   -1    0    0    0    0 -0.00000000000E+00 -0.00000000000E+00 -0.45593999997E+02  0.45594000000E+02  0.51100000000E-03 0. -1.
    9900012    2    1    2    0    0  0.37414769648E+02 -0.26792404642E+01 -0.24941334439E+02  0.46142317845E+02  0.10000000762E+02 0.  0.
        -12    1    1    2    0    0 -0.37414769648E+02  0.26792404642E+01  0.24941334439E+02  0.45045682155E+02  0.00000000000E+00 0.  1.
         11    1    3    3    0    0  0.20454241634E+02 -0.49190031139E+01 -0.94811807577E+01  0.23075211403E+02  0.51100000000E-03 0. -1.
        -11    1    3    3    0    0  0.99571783006E+01  0.12732809671E+01 -0.94849923343E+01  0.13810565665E+02  0.51100000000E-03 0.  1.
         12    1    3    3    0    0  0.70033497127E+01  0.96648168259E+00 -0.59751613469E+01  0.92565407773E+01  0.00000000000E+00 0. -1.
</event>
<event>
 7    1  0.3435408E-009  0.4614232E+02  0.7816164E-02  0.1320468E+00
        -11   -1    0    0    0    0  0.00000000000E+00  0.00000000000E+00  0.45593999997E+02  0.45594000000E+02  0.51100000000E-03 0.  1.
         11   -1    0    0    0    0 -0.00000000000E+00 -0.00000000000E+00 -0.45593999997E+02  0.45594000000E+02  0.51100000000E-03 0. -1.
    9900012    2    1    2    0    0 -0.22557391166E+01  0.19608677030E+02 -0.40491045894E+02  0.46142319059E+02  0.10000011835E+02 0.  0.
        -12    1    1    2    0    0  0.22557391166E+01 -0.19608677030E+02  0.40491045894E+02  0.45045680941E+02  0.00000000000E+00 0.  1.
         11    1    3    3    0    0 -0.43273444245E+01  0.50576732181E+01 -0.89242905879E+01  0.11133235420E+02  0.51100000000E-03 0. -1.
        -11    1    3    3    0    0  0.76813475152E+00  0.13328643258E+02 -0.27958413707E+02  0.30982505698E+02  0.51100000000E-03 0.  1.
        -12    1    3    3    0    0  0.13034705563E+01  0.12223605539E+01 -0.36083415998E+01  0.40265779411E+01  0.00000000000E+00 0.  1.
</event>
<event>
 7    1  0.3435408E-009  0.4614232E+02  0.7816164E-02  0.1320468E+00
        -11   -1    0    0    0    0  0.00000000000E+00  0.00000000000E+00  0.45593999997E+02  0.45594000000E+02  0.51100000000E-03 0.  1.
         11   -1    0    0    0    0 -0.00000000000E+00 -0.00000000000E+00 -0.45593999997E+02  0.45594000000E+02  0.51100000000E-03 0. -1.
    9900012    2    1    2    0    0 -0.35655249766E+02  0.22319509193E+02  0.16113851864E+02  0.46142317095E+02  0.99999939277E+01 0.  0.
        -12    1    1    2    0    0  0.35655249766E+02 -0.22319509193E+02 -0.16113851864E+02  0.45045682905E+02  0.00000000000E+00 0.  1.
         11    1    3    3    0    0 -0.11534465462E+02  0.79428420046E+01  0.24572269868E+01  0.14218670730E+02  0.51100000000E-03 0. -1.
        -11    1    3    3    0    0 -0.27149166919E+01  0.45324992502E+01  0.28413754822E+01  0.59989779954E+01  0.51100000000E-03 0.  1.
        -12    1    3    3    0    0 -0.21405867612E+02  0.98441679381E+01  0.10815249395E+02  0.25924668370E+02  0.00000000000E+00 0.  1.
</event>
<event>
 7    1  0.3435408E-009  0.4614232E+02  0.7816164E-02  0.1320468E+00
        -11   -1    0    0    0    0  0.00000000000E+00  0.00000000000E+00  0.45593999997E+02  0.45594000000E+02  0.51100000000E-03 0. -1.
         11   -1    0    0    0    0 -0.00000000000E+00 -0.00000000000E+00 -0.45593999997E+02  0.45594000000E+02  0.51100000000E-03 0.  1.
    9900012    2    1    2    0    0 -0.23883858456E+02 -0.65468002920E+01  0.37627306689E+02  0.46142317660E+02  0.99999990789E+01 0.  0.
        -12    1    1    2    0    0  0.23883858456E+02  0.65468002920E+01 -0.37627306689E+02  0.45045682340E+02  0.00000000000E+00 0.  1.
         11    1    3    3    0    0 -0.93142192621E+01  0.52830190332E+00  0.11857373635E+02  0.15087448199E+02  0.51100000000E-03 0. -1.
        -11    1    3    3    0    0 -0.14556272912E+02 -0.77688539106E+01  0.25340877357E+02  0.30239051534E+02  0.51100000000E-03 0.  1.
        -12    1    3    3    0    0 -0.13366281487E-01  0.69375171529E+00  0.42905569670E+00  0.81581792749E+00  0.00000000000E+00 0.  1.
</event>
<event>
 7    1  0.3435408E-009  0.4614232E+02  0.7816164E-02  0.1320468E+00
        -11   -1    0    0    0    0  0.00000000000E+00  0.00000000000E+00  0.45593999997E+02  0.45594000000E+02  0.51100000000E-03 0.  1.
         11   -1    0    0    0    0 -0.00000000000E+00 -0.00000000000E+00 -0.45593999997E+02  0.45594000000E+02  0.51100000000E-03 0. -1.
    9900012    2    1    2    0    0  0.36743475530E+02 -0.54485393983E+01 -0.25482225756E+02  0.46142318686E+02  0.10000008431E+02 0.  0.
        -12    1    1    2    0    0 -0.36743475530E+02  0.54485393983E+01  0.25482225756E+02  0.45045681314E+02  0.00000000000E+00 0.  1.
         11    1    3    3    0    0  0.14468786298E+02 -0.25270322712E+01 -0.76552794672E+01  0.16563060497E+02  0.51100000000E-03 0. -1.
        -11    1    3    3    0    0  0.98339177421E+01  0.20347118055E+01 -0.59049800098E+01  0.11649668642E+02  0.51100000000E-03 0.  1.
        -12    1    3    3    0    0  0.12440771490E+02 -0.49562189326E+01 -0.11921966279E+02  0.17929589547E+02  0.00000000000E+00 0.  1.
</event>
<event>
 7    1  0.3435408E-009  0.4614232E+02  0.7816164E-02  0.1320468E+00
        -11   -1    0    0    0    0  0.00000000000E+00  0.00000000000E+00  0.45593999997E+02  0.45594000000E+02  0.51100000000E-03 0.  1.
         11   -1    0    0    0    0 -0.00000000000E+00 -0.00000000000E+00 -0.45593999997E+02  0.45594000000E+02  0.51100000000E-03 0. -1.
    9900012    2    1    2    0    0 -0.27689110653E+02  0.87215363866E+01 -0.34443598791E+02  0.46142317151E+02  0.99999944327E+01 0.  0.
        -12    1    1    2    0    0  0.27689110653E+02 -0.87215363866E+01  0.34443598791E+02  0.45045682849E+02  0.00000000000E+00 0.  1.
         11    1    3    3    0    0 -0.81406863789E+01  0.17683851510E+01 -0.77489971474E+01  0.11377386247E+02  0.51100000000E-03 0. -1.
        -11    1    3    3    0    0 -0.13800762819E+02  0.76005456779E+00 -0.16614273846E+02  0.21611867874E+02  0.51100000000E-03 0.  1.
        -12    1    3    3    0    0 -0.57476614549E+01  0.61930966679E+01 -0.10080327798E+02  0.13153063029E+02  0.00000000000E+00 0.  1.
</event>
<event>
 7    1  0.3435408E-009  0.4614232E+02  0.7816164E-02  0.1320468E+00
        -11   -1    0    0    0    0  0.00000000000E+00  0.00000000000E+00  0.45593999997E+02  0.45594000000E+02  0.51100000000E-03 0. -1.
         11   -1    0    0    0    0 -0.00000000000E+00 -0.00000000000E+00 -0.45593999997E+02  0.45594000000E+02  0.51100000000E-03 0.  1.
    9900012    2    1    2    0    0 -0.85074964638E+01 -0.44072876593E+02  0.37838090316E+01  0.46142321427E+02  0.10000033433E+02 0.  0.
        -12    1    1    2    0    0  0.85074964638E+01  0.44072876593E+02 -0.37838090316E+01  0.45045678573E+02  0.00000000000E+00 0.  1.
         11    1    3    3    0    0 -0.55005976862E+01 -0.14332732329E+02  0.88432973297E+00  0.15377445505E+02  0.51100000000E-03 0. -1.
        -11    1    3    3    0    0  0.12736181260E+01 -0.19313602862E+02  0.19732707365E+01  0.19455877166E+02  0.51100000000E-03 0.  1.
        -12    1    3    3    0    0 -0.42805169036E+01 -0.10426541402E+02  0.92620856211E+00  0.11308998756E+02  0.00000000000E+00 0.  1.
</event>
<event>
 7    1  0.3435408E-009  0.4614232E+02  0.7816164E-02  0.1320468E+00
        -11   -1    0    0    0    0  0.00000000000E+00  0.00000000000E+00  0.45593999997E+02  0.45594000000E+02  0.51100000000E-03 0.  1.
         11   -1    0    0    0    0 -0.00000000000E+00 -0.00000000000E+00 -0.45593999997E+02  0.45594000000E+02  0.51100000000E-03 0. -1.
    9900012    2    1    2    0    0 -0.61572202224E+01  0.34106308682E+02 -0.28774326196E+02  0.46142317623E+02  0.99999987407E+01 0.  0.
        -12    1    1    2    0    0  0.61572202224E+01 -0.34106308682E+02  0.28774326196E+02  0.45045682377E+02  0.00000000000E+00 0.  1.
         11    1    3    3    0    0  0.14290909389E+01  0.20402847564E+01 -0.41640249374E+01  0.48522331703E+01  0.51100000000E-03 0. -1.
        -11    1    3    3    0    0 -0.76846322583E+00  0.10487754353E+02 -0.82491283839E+01  0.13365315053E+02  0.51100000000E-03 0.  1.
         12    1    3    3    0    0 -0.68178479354E+01  0.21578269572E+02 -0.16361172875E+02  0.27924769400E+02  0.00000000000E+00 0. -1.
</event>
<event>
 7    1  0.3435408E-009  0.4614232E+02  0.7816164E-02  0.1320468E+00
        -11   -1    0    0    0    0  0.00000000000E+00  0.00000000000E+00  0.45593999997E+02  0.45594000000E+02  0.51100000000E-03 0.  1.
         11   -1    0    0    0    0 -0.00000000000E+00 -0.00000000000E+00 -0.45593999997E+02  0.45594000000E+02  0.51100000000E-03 0. -1.
    9900012    2    1    2    0    0 -0.10256672195E+02 -0.43855701490E+02  0.76915479536E+00  0.46142317890E+02  0.10000001175E+02 0.  0.
        -12    1    1    2    0    0  0.10256672195E+02  0.43855701490E+02 -0.76915479536E+00  0.45045682110E+02  0.00000000000E+00 0.  1.
         11    1    3    3    0    0 -0.99701762941E+01 -0.32949313698E+02  0.16259727176E+00  0.34425108956E+02  0.51100000000E-03 0. -1.
        -11    1    3    3    0    0 -0.54102731515E+00  0.19518839038E+00 -0.12520601776E+00  0.58863050506E+00  0.51100000000E-03 0.  1.
        -12    1    3    3    0    0  0.25453141467E+00 -0.11101576182E+02  0.73176354136E+00  0.11128578429E+02  0.00000000000E+00 0.  1.
</event>
<event>
 7    1  0.3435408E-009  0.4614233E+02  0.7816164E-02  0.1320468E+00
        -11   -1    0    0    0    0  0.00000000000E+00  0.00000000000E+00  0.45593999997E+02  0.45594000000E+02  0.51100000000E-03 0. -1.
         11   -1    0    0    0    0 -0.00000000000E+00 -0.00000000000E+00 -0.45593999997E+02  0.45594000000E+02  0.51100000000E-03 0.  1.
    9900012    2    1    2    0    0  0.34410150053E+02 -0.12317140531E+02  0.26331393235E+02  0.46142327097E+02  0.10000085135E+02 0.  0.
        -12    1    1    2    0    0 -0.34410150053E+02  0.12317140531E+02 -0.26331393235E+02  0.45045672903E+02  0.00000000000E+00 0.  1.
         11    1    3    3    0    0  0.17816872932E+01  0.38697778964E+00  0.18718714294E+01  0.26130565110E+01  0.51100000000E-03 0. -1.
        -11    1    3    3    0    0  0.51528431563E+01 -0.50156034215E+01  0.28361708364E+01  0.77299376162E+01  0.51100000000E-03 0.  1.
        -12    1    3    3    0    0  0.27475619603E+02 -0.76885148996E+01  0.21623350970E+02  0.35799332970E+02  0.00000000000E+00 0.  1.
</event>
<event>
 7    1  0.3435408E-009  0.4614232E+02  0.7816164E-02  0.1320468E+00
        -11   -1    0    0    0    0  0.00000000000E+00  0.00000000000E+00  0.45593999997E+02  0.45594000000E+02  0.51100000000E-03 0.  1.
         11   -1    0    0    0    0 -0.00000000000E+00 -0.00000000000E+00 -0.45593999997E+02  0.45594000000E+02  0.51100000000E-03 0. -1.
    9900012    2    1    2    0    0  0.55596342693E+01  0.27894523252E+02 -0.34929923274E+02  0.46142317625E+02  0.99999987626E+01 0.  0.
        -12    1    1    2    0    0 -0.55596342693E+01 -0.27894523252E+02  0.34929923274E+02  0.45045682375E+02  0.00000000000E+00 0.  1.
         11    1    3    3    0    0  0.72020740617E+01  0.24149563347E+02 -0.27170427245E+02  0.37058108392E+02  0.51100000000E-03 0. -1.
        -11    1    3    3    0    0  0.57109382884E-01  0.26824209515E+01 -0.49889495278E+01  0.56646501476E+01  0.51100000000E-03 0.  1.
         12    1    3    3    0    0 -0.16995491752E+01  0.10625389532E+01 -0.27705465015E+01  0.34195590861E+01  0.00000000000E+00 0. -1.
</event>
<event>
 7    1  0.3435408E-009  0.4614232E+02  0.7816164E-02  0.1320468E+00
        -11   -1    0    0    0    0  0.00000000000E+00  0.00000000000E+00  0.45593999997E+02  0.45594000000E+02  0.51100000000E-03 0.  1.
         11   -1    0    0    0    0 -0.00000000000E+00 -0.00000000000E+00 -0.45593999997E+02  0.45594000000E+02  0.51100000000E-03 0. -1.
    9900012    2    1    2    0    0 -0.39356300932E+02 -0.95957967476E+01 -0.19700651973E+02  0.46142318449E+02  0.10000006272E+02 0.  0.
        -12    1    1    2    0    0  0.39356300932E+02  0.95957967476E+01  0.19700651973E+02  0.45045681551E+02  0.00000000000E+00 0.  1.
         11    1    3    3    0    0 -0.12232467585E+02 -0.26613004176E+01 -0.91411161634E+01  0.15500831852E+02  0.51100000000E-03 0. -1.
        -11    1    3    3    0    0 -0.23389640771E+02 -0.42095927912E+01 -0.69036268119E+01  0.24747849003E+02  0.51100000000E-03 0.  1.
        -12    1    3    3    0    0 -0.37341925759E+01 -0.27249035388E+01 -0.36559089978E+01  0.58936375941E+01  0.00000000000E+00 0.  1.
</event>
<event>
 7    1  0.3435408E-009  0.4614232E+02  0.7816164E-02  0.1320468E+00
        -11   -1    0    0    0    0  0.00000000000E+00  0.00000000000E+00  0.45593999997E+02  0.45594000000E+02  0.51100000000E-03 0.  1.
         11   -1    0    0    0    0 -0.00000000000E+00 -0.00000000000E+00 -0.45593999997E+02  0.45594000000E+02  0.51100000000E-03 0. -1.
    9900012    2    1    2    0    0  0.24787441802E+02 -0.24951950166E+02 -0.28144203561E+02  0.46142320049E+02  0.10000020864E+02 0.  0.
        -12    1    1    2    0    0 -0.24787441802E+02  0.24951950166E+02  0.28144203561E+02  0.45045679951E+02  0.00000000000E+00 0.  1.
         11    1    3    3    0    0  0.36445919859E+01 -0.11456089978E+01 -0.16797782132E+01  0.41733830193E+01  0.51100000000E-03 0. -1.
        -11    1    3    3    0    0  0.20404941114E+01 -0.12927444748E+01 -0.15225165764E+00  0.24203275242E+01  0.51100000000E-03 0.  1.
         12    1    3    3    0    0  0.19102355705E+02 -0.22513596693E+02 -0.26312173690E+02  0.39548609506E+02  0.00000000000E+00 0. -1.
</event>
<event>
 7    1  0.3435408E-009  0.4614232E+02  0.7816164E-02  0.1320468E+00
        -11   -1    0    0    0    0  0.00000000000E+00  0.00000000000E+00  0.45593999997E+02  0.45594000000E+02  0.51100000000E-03 0. -1.
         11   -1    0    0    0    0 -0.00000000000E+00 -0.00000000000E+00 -0.45593999997E+02  0.45594000000E+02  0.51100000000E-03 0.  1.
    9900012    2    1    2    0    0  0.32715403906E+02  0.30554391867E+02  0.50244616678E+01  0.46142315077E+02  0.99999755280E+01 0.  0.
        -12    1    1    2    0    0 -0.32715403906E+02 -0.30554391867E+02 -0.50244616678E+01  0.45045684923E+02  0.00000000000E+00 0.  1.
         11    1    3    3    0    0  0.61345698214E+01  0.37769482013E+01 -0.15207027316E+01  0.73627998525E+01  0.51100000000E-03 0. -1.
        -11    1    3    3    0    0  0.20067786335E-01  0.23022432262E+00 -0.51874603661E+00  0.56789406265E+00  0.51100000000E-03 0.  1.
         12    1    3    3    0    0  0.26560766298E+02  0.26547219343E+02  0.70639104361E+01  0.38211621162E+02  0.00000000000E+00 0. -1.
</event>
<event>
 7    1  0.3435408E-009  0.4614232E+02  0.7816164E-02  0.1320468E+00
        -11   -1    0    0    0    0  0.00000000000E+00  0.00000000000E+00  0.45593999997E+02  0.45594000000E+02  0.51100000000E-03 0. -1.
         11   -1    0    0    0    0 -0.00000000000E+00 -0.00000000000E+00 -0.45593999997E+02  0.45594000000E+02  0.51100000000E-03 0.  1.
    9900012    2    1    2    0    0 -0.21753264270E+02 -0.32320768525E+02  0.22611433336E+02  0.46142317610E+02  0.99999986264E+01 0.  0.
        -12    1    1    2    0    0  0.21753264270E+02  0.32320768525E+02 -0.22611433336E+02  0.45045682390E+02  0.00000000000E+00 0.  1.
         11    1    3    3    0    0 -0.17010301372E+02 -0.25090490060E+02  0.13747079804E+02  0.33284609771E+02  0.51100000000E-03 0.  1.
        -11    1    3    3    0    0 -0.50800659076E+01 -0.55274002028E+01  0.77772676939E+01  0.10809491925E+02  0.51100000000E-03 0. -1.
         12    1    3    3    0    0  0.33710300937E+00 -0.17028782615E+01  0.10870858382E+01  0.20482159144E+01  0.00000000000E+00 0. -1.
</event>
<event>
 7    1  0.3435408E-009  0.4614232E+02  0.7816164E-02  0.1320468E+00
        -11   -1    0    0    0    0  0.00000000000E+00  0.00000000000E+00  0.45593999997E+02  0.45594000000E+02  0.51100000000E-03 0.  1.
         11   -1    0    0    0    0 -0.00000000000E+00 -0.00000000000E+00 -0.45593999997E+02  0.45594000000E+02  0.51100000000E-03 0. -1.
    9900012    2    1    2    0    0  0.54125559245E+01  0.42410704843E+02 -0.14182736694E+02  0.46142315778E+02  0.99999819151E+01 0.  0.
        -12    1    1    2    0    0 -0.54125559245E+01 -0.42410704843E+02  0.14182736694E+02  0.45045684222E+02  0.00000000000E+00 0.  1.
         11    1    3    3    0    0  0.51474216125E+01  0.20147950788E+02 -0.64249233092E+01  0.21765006548E+02  0.51100000000E-03 0. -1.
        -11    1    3    3    0    0 -0.77012528642E+00  0.64823192403E+01  0.48088586780E+00  0.65455944855E+01  0.51100000000E-03 0.  1.
         12    1    3    3    0    0  0.10352595984E+01  0.15780434814E+02 -0.82386992524E+01  0.17831714745E+02  0.00000000000E+00 0. -1.
</event>
<event>
 7    1  0.3435408E-009  0.4614232E+02  0.7816164E-02  0.1320468E+00
        -11   -1    0    0    0    0  0.00000000000E+00  0.00000000000E+00  0.45593999997E+02  0.45594000000E+02  0.51100000000E-03 0.  1.
         11   -1    0    0    0    0 -0.00000000000E+00 -0.00000000000E+00 -0.45593999997E+02  0.45594000000E+02  0.51100000000E-03 0. -1.
    9900012    2    1    2    0    0 -0.32804118151E+02  0.30164458539E+02 -0.65657301429E+01  0.46142317200E+02  0.99999948859E+01 0.  0.
        -12    1    1    2    0    0  0.32804118151E+02 -0.30164458539E+02  0.65657301429E+01  0.45045682800E+02  0.00000000000E+00 0.  1.
         11    1    3    3    0    0 -0.93498757465E+01  0.41250054159E+01 -0.23183380003E+01  0.10479052319E+02  0.51100000000E-03 0. -1.
        -11    1    3    3    0    0 -0.12659184628E+02  0.16887968618E+02 -0.92377535085E+00  0.21126092886E+02  0.51100000000E-03 0.  1.
         12    1    3    3    0    0 -0.10795057776E+02  0.91514845050E+01 -0.33236167917E+01  0.14537171995E+02  0.00000000000E+00 0. -1.
</event>
<event>
 7    1  0.3435408E-009  0.4614232E+02  0.7816164E-02  0.1320468E+00
        -11   -1    0    0    0    0  0.00000000000E+00  0.00000000000E+00  0.45593999997E+02  0.45594000000E+02  0.51100000000E-03 0.  1.
         11   -1    0    0    0    0 -0.00000000000E+00 -0.00000000000E+00 -0.45593999997E+02  0.45594000000E+02  0.51100000000E-03 0. -1.
    9900012    2    1    2    0    0  0.87675748028E-01  0.34590664699E+02 -0.28854664645E+02  0.46142318263E+02  0.10000004579E+02 0.  0.
        -12    1    1    2    0    0 -0.87675748028E-01 -0.34590664699E+02  0.28854664645E+02  0.45045681737E+02  0.00000000000E+00 0.  1.
         11    1    3    3    0    0 -0.31838314525E+00  0.14563919713E+02 -0.99848185189E+01  0.17660852934E+02  0.51100000000E-03 0. -1.
        -11    1    3    3    0    0 -0.10295284400E+01  0.18175448556E+02 -0.18753038124E+02  0.26135862300E+02  0.51100000000E-03 0.  1.
        -12    1    3    3    0    0  0.14355873333E+01  0.18512964297E+01 -0.11680800225E+00  0.23456030294E+01  0.00000000000E+00 0.  1.
</event>
<event>
 7    1  0.3435408E-009  0.4614232E+02  0.7816164E-02  0.1320468E+00
        -11   -1    0    0    0    0  0.00000000000E+00  0.00000000000E+00  0.45593999997E+02  0.45594000000E+02  0.51100000000E-03 0.  1.
         11   -1    0    0    0    0 -0.00000000000E+00 -0.00000000000E+00 -0.45593999997E+02  0.45594000000E+02  0.51100000000E-03 0. -1.
    9900012    2    1    2    0    0  0.33900621879E+02  0.23354074663E+02 -0.18287931064E+02  0.46142318855E+02  0.10000009979E+02 0.  0.
        -12    1    1    2    0    0 -0.33900621879E+02 -0.23354074663E+02  0.18287931064E+02  0.45045681145E+02  0.00000000000E+00 0.  1.
         11    1    3    3    0    0  0.88690674715E+01  0.46558958908E+01 -0.48758833675E+01  0.11140554889E+02  0.51100000000E-03 0. -1.
        -11    1    3    3    0    0  0.26908464296E+01  0.60616310078E+01 -0.21398794398E+01  0.69687236464E+01  0.51100000000E-03 0.  1.
        -12    1    3    3    0    0  0.22340707978E+02  0.12636547764E+02 -0.11272168257E+02  0.28033040320E+02  0.00000000000E+00 0.  1.
</event>
<event>
 7    1  0.3435408E-009  0.4614232E+02  0.7816164E-02  0.1320468E+00
        -11   -1    0    0    0    0  0.00000000000E+00  0.00000000000E+00  0.45593999997E+02  0.45594000000E+02  0.51100000000E-03 0. -1.
         11   -1    0    0    0    0 -0.00000000000E+00 -0.00000000000E+00 -0.45593999997E+02  0.45594000000E+02  0.51100000000E-03 0.  1.
    9900012    2    1    2    0    0  0.37792730814E+02  0.20169296698E+02  0.13929195388E+02  0.46142317456E+02  0.99999972213E+01 0.  0.
        -12    1    1    2    0    0 -0.37792730814E+02 -0.20169296698E+02 -0.13929195388E+02  0.45045682544E+02  0.00000000000E+00 0.  1.
         11    1    3    3    0    0  0.22127875526E+02  0.97244807964E+01  0.51066652211E+01  0.24703976036E+02  0.51100000000E-03 0. -1.
        -11    1    3    3    0    0 -0.11061969163E+00  0.16342288432E+00  0.10479705444E+01  0.10663893653E+01  0.51100000000E-03 0.  1.
         12    1    3    3    0    0  0.15775474980E+02  0.10281393017E+02  0.77745596228E+01  0.20371952055E+02  0.00000000000E+00 0. -1.
</event>
<event>
 7    1  0.3435408E-009  0.4614232E+02  0.7816164E-02  0.1320468E+00
        -11   -1    0    0    0    0  0.00000000000E+00  0.00000000000E+00  0.45593999997E+02  0.45594000000E+02  0.51100000000E-03 0.  1.
         11   -1    0    0    0    0 -0.00000000000E+00 -0.00000000000E+00 -0.45593999997E+02  0.45594000000E+02  0.51100000000E-03 0. -1.
    9900012    2    1    2    0    0  0.37122690077E+02  0.25334450019E+02  0.30306767866E+01  0.46142317875E+02  0.10000001040E+02 0.  0.
        -12    1    1    2    0    0 -0.37122690077E+02 -0.25334450019E+02 -0.30306767866E+01  0.45045682125E+02  0.00000000000E+00 0.  1.
         11    1    3    3    0    0  0.25020186467E+02  0.17502748092E+02  0.25613157662E+01  0.30641740491E+02  0.51100000000E-03 0. -1.
        -11    1    3    3    0    0  0.11592272614E+02  0.55039638086E+01 -0.68883446320E+00  0.12851027007E+02  0.51100000000E-03 0.  1.
         12    1    3    3    0    0  0.51023099522E+00  0.23277381190E+01  0.11581954835E+01  0.26495503764E+01  0.00000000000E+00 0. -1.
</event>
<event>
 7    1  0.3435408E-009  0.4614231E+02  0.7816164E-02  0.1320468E+00
        -11   -1    0    0    0    0  0.00000000000E+00  0.00000000000E+00  0.45593999997E+02  0.45594000000E+02  0.51100000000E-03 0.  1.
         11   -1    0    0    0    0 -0.00000000000E+00 -0.00000000000E+00 -0.45593999997E+02  0.45594000000E+02  0.51100000000E-03 0. -1.
    9900012    2    1    2    0    0  0.43549066300E+02 -0.11493093832E+02  0.70806862300E+00  0.46142314939E+02  0.99999742631E+01 0.  0.
        -12    1    1    2    0    0 -0.43549066300E+02  0.11493093832E+02 -0.70806862300E+00  0.45045685061E+02  0.00000000000E+00 0.  1.
         11    1    3    3    0    0  0.26950021813E+02 -0.50997171592E+01 -0.25190183402E+00  0.27429441220E+02  0.51100000000E-03 0. -1.
        -11    1    3    3    0    0  0.15676057702E+02 -0.52234784398E+01  0.23321306888E+01  0.16687191073E+02  0.51100000000E-03 0.  1.
        -12    1    3    3    0    0  0.92298678512E+00 -0.11698982329E+01 -0.13721602318E+01  0.20256826461E+01  0.00000000000E+00 0.  1.
</event>
<event>
 7    1  0.3435408E-009  0.4614232E+02  0.7816164E-02  0.1320468E+00
        -11   -1    0    0    0    0  0.00000000000E+00  0.00000000000E+00  0.45593999997E+02  0.45594000000E+02  0.51100000000E-03 0.  1.
         11   -1    0    0    0    0 -0.00000000000E+00 -0.00000000000E+00 -0.45593999997E+02  0.45594000000E+02  0.51100000000E-03 0. -1.
    9900012    2    1    2    0    0 -0.25121665904E+02 -0.13756384209E+02 -0.34767474026E+02  0.46142318138E+02  0.10000003435E+02 0.  0.
        -12    1    1    2    0    0  0.25121665904E+02  0.13756384209E+02  0.34767474026E+02  0.45045681862E+02  0.00000000000E+00 0.  1.
         11    1    3    3    0    0 -0.98314040497E+01 -0.41492591951E+01 -0.91418376050E+01  0.14051549826E+02  0.51100000000E-03 0. -1.
        -11    1    3    3    0    0 -0.10670134509E+02 -0.52353819640E+01 -0.11225785017E+02  0.16348677141E+02  0.51100000000E-03 0.  1.
         12    1    3    3    0    0 -0.46201273456E+01 -0.43717430501E+01 -0.14399851404E+02  0.15742091171E+02  0.00000000000E+00 0. -1.
</event>
<event>
 7    1  0.3435408E-009  0.4614232E+02  0.7816164E-02  0.1320468E+00
        -11   -1    0    0    0    0  0.00000000000E+00  0.00000000000E+00  0.45593999997E+02  0.45594000000E+02  0.51100000000E-03 0.  1.
         11   -1    0    0    0    0 -0.00000000000E+00 -0.00000000000E+00 -0.45593999997E+02  0.45594000000E+02  0.51100000000E-03 0. -1.
    9900012    2    1    2    0    0 -0.27292008750E+02  0.34081294826E+02  0.11078134816E+02  0.46142317969E+02  0.10000001897E+02 0.  0.
        -12    1    1    2    0    0  0.27292008750E+02 -0.34081294826E+02 -0.11078134816E+02  0.45045682031E+02  0.00000000000E+00 0.  1.
         11    1    3    3    0    0 -0.10082749399E+02  0.75958225993E+01  0.31385005391E+01  0.13008018385E+02  0.51100000000E-03 0. -1.
        -11    1    3    3    0    0 -0.13116181888E+02  0.23587440361E+02  0.78912009972E+01  0.28118901535E+02  0.51100000000E-03 0.  1.
        -12    1    3    3    0    0 -0.40930774624E+01  0.28980318659E+01  0.48433280088E-01  0.50153980491E+01  0.00000000000E+00 0.  1.
</event>
<event>
 7    1  0.3435408E-009  0.4614232E+02  0.7816164E-02  0.1320468E+00
        -11   -1    0    0    0    0  0.00000000000E+00  0.00000000000E+00  0.45593999997E+02  0.45594000000E+02  0.51100000000E-03 0. -1.
         11   -1    0    0    0    0 -0.00000000000E+00 -0.00000000000E+00 -0.45593999997E+02  0.45594000000E+02  0.51100000000E-03 0.  1.
    9900012    2    1    2    0    0  0.22709311306E-02 -0.43973795962E+02 -0.97682497299E+01  0.46142318307E+02  0.10000004975E+02 0.  0.
        -12    1    1    2    0    0 -0.22709311306E-02  0.43973795962E+02  0.97682497299E+01  0.45045681693E+02  0.00000000000E+00 0.  1.
         11    1    3    3    0    0 -0.17815896445E+01 -0.16913013199E+02 -0.40886861646E+00  0.17011503489E+02  0.51100000000E-03 0. -1.
        -11    1    3    3    0    0  0.26695332734E+01 -0.17085656457E+02 -0.78950953389E+01  0.19009960419E+02  0.51100000000E-03 0.  1.
        -12    1    3    3    0    0 -0.88567269775E+00 -0.99751263056E+01 -0.14642857745E+01  0.10120854399E+02  0.00000000000E+00 0.  1.
</event>
<event>
 7    1  0.3435408E-009  0.4614232E+02  0.7816164E-02  0.1320468E+00
        -11   -1    0    0    0    0  0.00000000000E+00  0.00000000000E+00  0.45593999997E+02  0.45594000000E+02  0.51100000000E-03 0.  1.
         11   -1    0    0    0    0 -0.00000000000E+00 -0.00000000000E+00 -0.45593999997E+02  0.45594000000E+02  0.51100000000E-03 0. -1.
    9900012    2    1    2    0    0 -0.25885315687E+01 -0.15208848386E+02 -0.42321437247E+02  0.46142316350E+02  0.99999871305E+01 0.  0.
        -12    1    1    2    0    0  0.25885315687E+01  0.15208848386E+02  0.42321437247E+02  0.45045683650E+02  0.00000000000E+00 0.  1.
         11    1    3    3    0    0 -0.12637618377E+01 -0.11902115299E+01 -0.54745083292E+01  0.57431645611E+01  0.51100000000E-03 0. -1.
        -11    1    3    3    0    0 -0.36174002104E+01 -0.86230838907E+01 -0.29798826355E+02  0.31231605986E+02  0.51100000000E-03 0.  1.
        -12    1    3    3    0    0  0.22926304795E+01 -0.53955529651E+01 -0.70481025622E+01  0.91675458026E+01  0.00000000000E+00 0.  1.
</event>
<event>
 7    1  0.3435408E-009  0.4614232E+02  0.7816164E-02  0.1320468E+00
        -11   -1    0    0    0    0  0.00000000000E+00  0.00000000000E+00  0.45593999997E+02  0.45594000000E+02  0.51100000000E-03 0.  1.
         11   -1    0    0    0    0 -0.00000000000E+00 -0.00000000000E+00 -0.45593999997E+02  0.45594000000E+02  0.51100000000E-03 0. -1.
    9900012    2    1    2    0    0  0.29580462929E+02 -0.69174241480E+01 -0.33260472034E+02  0.46142317145E+02  0.99999943847E+01 0.  0.
        -12    1    1    2    0    0 -0.29580462929E+02  0.69174241480E+01  0.33260472034E+02  0.45045682855E+02  0.00000000000E+00 0.  1.
         11    1    3    3    0    0  0.15270364017E+02 -0.66822982637E+01 -0.19773367774E+02  0.25861616359E+02  0.51100000000E-03 0. -1.
        -11    1    3    3    0    0 -0.19260013141E+00  0.53132832274E+00 -0.20859729239E+00  0.60242650065E+00  0.51100000000E-03 0.  1.
         12    1    3    3    0    0  0.14502699043E+02 -0.76645420704E+00 -0.13278506968E+02  0.19678274286E+02  0.00000000000E+00 0. -1.
</event>
<event>
 7    1  0.3435408E-009  0.4614232E+02  0.7816164E-02  0.1320468E+00
        -11   -1    0    0    0    0  0.00000000000E+00  0.00000000000E+00  0.45593999997E+02  0.45594000000E+02  0.51100000000E-03 0.  1.
         11   -1    0    0    0    0 -0.00000000000E+00 -0.00000000000E+00 -0.45593999997E+02  0.45594000000E+02  0.51100000000E-03 0. -1.
    9900012    2    1    2    0    0 -0.12492387140E+02  0.32026588437E+02 -0.29109299758E+02  0.46142318345E+02  0.10000005320E+02 0.  0.
        -12    1    1    2    0    0  0.12492387140E+02 -0.32026588437E+02  0.29109299758E+02  0.45045681655E+02  0.00000000000E+00 0.  1.
         11    1    3    3    0    0 -0.45674369988E+01  0.74966486824E+01 -0.11649069791E+02  0.14586365190E+02  0.51100000000E-03 0. -1.
        -11    1    3    3    0    0 -0.98498041024E+00  0.99159716174E+01 -0.50837646273E+01  0.11186659134E+02  0.51100000000E-03 0.  1.
         12    1    3    3    0    0 -0.69399697313E+01  0.14613968138E+02 -0.12376465340E+02  0.20369294021E+02  0.00000000000E+00 0. -1.
</event>
<event>
 7    1  0.3435408E-009  0.4614232E+02  0.7816164E-02  0.1320468E+00
        -11   -1    0    0    0    0  0.00000000000E+00  0.00000000000E+00  0.45593999997E+02  0.45594000000E+02  0.51100000000E-03 0. -1.
         11   -1    0    0    0    0 -0.00000000000E+00 -0.00000000000E+00 -0.45593999997E+02  0.45594000000E+02  0.51100000000E-03 0.  1.
    9900012    2    1    2    0    0 -0.42788251300E+01  0.96761177151E+01  0.43785583612E+02  0.46142323950E+02  0.10000056439E+02 0.  0.
        -12    1    1    2    0    0  0.42788251300E+01 -0.96761177151E+01 -0.43785583612E+02  0.45045676050E+02  0.00000000000E+00 0.  1.
         11    1    3    3    0    0  0.16814436153E+01  0.50177391411E+01  0.27238149441E+02  0.27747463739E+02  0.51100000000E-03 0. -1.
        -11    1    3    3    0    0 -0.37084273157E+01  0.27683156892E+01  0.68902564238E+01  0.83000987198E+01  0.51100000000E-03 0.  1.
         12    1    3    3    0    0 -0.22518414296E+01  0.18900628848E+01  0.96571777470E+01  0.10094761491E+02  0.00000000000E+00 0. -1.
</event>
<event>
 7    1  0.3435408E-009  0.4614232E+02  0.7816164E-02  0.1320468E+00
        -11   -1    0    0    0    0  0.00000000000E+00  0.00000000000E+00  0.45593999997E+02  0.45594000000E+02  0.51100000000E-03 0.  1.
         11   -1    0    0    0    0 -0.00000000000E+00 -0.00000000000E+00 -0.45593999997E+02  0.45594000000E+02  0.51100000000E-03 0. -1.
    9900012    2    1    2    0    0 -0.41656528897E+02 -0.10024495463E+02  0.13905272055E+02  0.46142317632E+02  0.99999988251E+01 0.  0.
        -12    1    1    2    0    0  0.41656528897E+02  0.10024495463E+02 -0.13905272055E+02  0.45045682368E+02  0.00000000000E+00 0.  1.
         11    1    3    3    0    0 -0.80235186899E+01 -0.33900207256E+00  0.26782329085E+01  0.84655009507E+01  0.51100000000E-03 0. -1.
        -11    1    3    3    0    0 -0.27314028994E+02 -0.90546443674E+01  0.12194821927E+02  0.31253102991E+02  0.51100000000E-03 0.  1.
        -12    1    3    3    0    0 -0.63189812138E+01 -0.63084902273E+00 -0.96778278006E+00  0.64237136906E+01  0.00000000000E+00 0.  1.
</event>
<event>
 7    1  0.3435408E-009  0.4614233E+02  0.7816164E-02  0.1320468E+00
        -11   -1    0    0    0    0  0.00000000000E+00  0.00000000000E+00  0.45593999997E+02  0.45594000000E+02  0.51100000000E-03 0. -1.
         11   -1    0    0    0    0 -0.00000000000E+00 -0.00000000000E+00 -0.45593999997E+02  0.45594000000E+02  0.51100000000E-03 0.  1.
    9900012    2    1    2    0    0  0.16054809444E+02  0.26831543531E+01  0.42001863656E+02  0.46142325688E+02  0.10000072287E+02 0.  0.
        -12    1    1    2    0    0 -0.16054809444E+02 -0.26831543531E+01 -0.42001863656E+02  0.45045674312E+02  0.00000000000E+00 0.  1.
         11    1    3    3    0    0  0.65053775243E+01  0.42611866748E+01  0.15279324129E+02  0.17144544168E+02  0.51100000000E-03 0. -1.
        -11    1    3    3    0    0  0.20689068569E+01 -0.14560007631E+01  0.21777861991E+01  0.33381232444E+01  0.51100000000E-03 0.  1.
         12    1    3    3    0    0  0.74805250632E+01 -0.12203155858E+00  0.24544753328E+02  0.25659658276E+02  0.00000000000E+00 0. -1.
</event>
<event>
 7    1  0.3435408E-009  0.4614232E+02  0.7816164E-02  0.1320468E+00
        -11   -1    0    0    0    0  0.00000000000E+00  0.00000000000E+00  0.45593999997E+02  0.45594000000E+02  0.51100000000E-03 0.  1.
         11   -1    0    0    0    0 -0.00000000000E+00 -0.00000000000E+00 -0.45593999997E+02  0.45594000000E+02  0.51100000000E-03 0. -1.
    9900012    2    1    2    0    0  0.17736042891E+02 -0.17434769340E+02 -0.37557622694E+02  0.46142318500E+02  0.10000006737E+02 0.  0.
        -12    1    1    2    0    0 -0.17736042891E+02  0.17434769340E+02  0.37557622694E+02  0.45045681500E+02  0.00000000000E+00 0.  1.
         11    1    3    3    0    0  0.18705530513E+01 -0.29574591049E+01 -0.69501024624E+01  0.77813531968E+01  0.51100000000E-03 0. -1.
        -11    1    3    3    0    0  0.19713557182E+01 -0.71380358097E+01 -0.10208827931E+02  0.12611818528E+02  0.51100000000E-03 0.  1.
        -12    1    3    3    0    0  0.13894134122E+02 -0.73392744251E+01 -0.20398692301E+02  0.25749146776E+02  0.00000000000E+00 0.  1.
</event>
<event>
 7    1  0.3435408E-009  0.4614232E+02  0.7816164E-02  0.1320468E+00
        -11   -1    0    0    0    0  0.00000000000E+00  0.00000000000E+00  0.45593999997E+02  0.45594000000E+02  0.51100000000E-03 0. -1.
         11   -1    0    0    0    0 -0.00000000000E+00 -0.00000000000E+00 -0.45593999997E+02  0.45594000000E+02  0.51100000000E-03 0.  1.
    9900012    2    1    2    0    0 -0.96279678621E+01  0.28001287639E+02  0.33946187409E+02  0.46142317474E+02  0.99999973852E+01 0.  0.
        -12    1    1    2    0    0  0.96279678621E+01 -0.28001287639E+02 -0.33946187409E+02  0.45045682526E+02  0.00000000000E+00 0.  1.
         11    1    3    3    0    0 -0.36099382616E+01  0.24780481420E+01  0.75365293123E+01  0.87161718192E+01  0.51100000000E-03 0. -1.
        -11    1    3    3    0    0 -0.39538239014E+01  0.18480654786E+02  0.21345505750E+02  0.28509611374E+02  0.51100000000E-03 0.  1.
         12    1    3    3    0    0 -0.20642056992E+01  0.70425847115E+01  0.50641523470E+01  0.89165342808E+01  0.00000000000E+00 0. -1.
</event>
<event>
 7    1  0.3435408E-009  0.4614232E+02  0.7816164E-02  0.1320468E+00
        -11   -1    0    0    0    0  0.00000000000E+00  0.00000000000E+00  0.45593999997E+02  0.45594000000E+02  0.51100000000E-03 0.  1.
         11   -1    0    0    0    0 -0.00000000000E+00 -0.00000000000E+00 -0.45593999997E+02  0.45594000000E+02  0.51100000000E-03 0. -1.
    9900012    2    1    2    0    0 -0.11251132002E+02 -0.43176740716E+02 -0.61882603129E+01  0.46142317899E+02  0.10000001260E+02 0.  0.
        -12    1    1    2    0    0  0.11251132002E+02  0.43176740716E+02  0.61882603129E+01  0.45045682101E+02  0.00000000000E+00 0.  1.
         11    1    3    3    0    0 -0.78766126067E+01 -0.37076624802E+02 -0.63126644338E+01  0.38426122175E+02  0.51100000000E-03 0. -1.
        -11    1    3    3    0    0 -0.73424435831E+00 -0.26021510278E+01  0.15388900486E+01  0.31110267745E+01  0.51100000000E-03 0.  1.
        -12    1    3    3    0    0 -0.26402750372E+01 -0.34979648864E+01 -0.14144859277E+01  0.46051689500E+01  0.00000000000E+00 0.  1.
</event>
<event>
 7    1  0.3435408E-009  0.4614232E+02  0.7816164E-02  0.1320468E+00
        -11   -1    0    0    0    0  0.00000000000E+00  0.00000000000E+00  0.45593999997E+02  0.45594000000E+02  0.51100000000E-03 0.  1.
         11   -1    0    0    0    0 -0.00000000000E+00 -0.00000000000E+00 -0.45593999997E+02  0.45594000000E+02  0.51100000000E-03 0. -1.
    9900012    2    1    2    0    0  0.17358067835E+01 -0.40303383593E+02 -0.20043396179E+02  0.46142317802E+02  0.10000000375E+02 0.  0.
        -12    1    1    2    0    0 -0.17358067835E+01  0.40303383593E+02  0.20043396179E+02  0.45045682198E+02  0.00000000000E+00 0.  1.
         11    1    3    3    0    0  0.16475967436E+01 -0.18260976360E+02 -0.76602620525E+01  0.19871020296E+02  0.51100000000E-03 0. -1.
        -11    1    3    3    0    0  0.12219180767E+00 -0.22325225665E+02 -0.12823886415E+02  0.25746508401E+02  0.51100000000E-03 0.  1.
        -12    1    3    3    0    0 -0.33981767832E-01  0.28281843106E+00  0.44075228774E+00  0.52478910492E+00  0.00000000000E+00 0.  1.
</event>
<event>
 7    1  0.3435408E-009  0.4614231E+02  0.7816164E-02  0.1320468E+00
        -11   -1    0    0    0    0  0.00000000000E+00  0.00000000000E+00  0.45593999997E+02  0.45594000000E+02  0.51100000000E-03 0.  1.
         11   -1    0    0    0    0 -0.00000000000E+00 -0.00000000000E+00 -0.45593999997E+02  0.45594000000E+02  0.51100000000E-03 0. -1.
    9900012    2    1    2    0    0  0.22122184414E+02 -0.39222412868E+02  0.11511115854E+01  0.46142314609E+02  0.99999712604E+01 0.  0.
        -12    1    1    2    0    0 -0.22122184414E+02  0.39222412868E+02 -0.11511115854E+01  0.45045685391E+02  0.00000000000E+00 0.  1.
         11    1    3    3    0    0  0.10018076224E+02 -0.16981973144E+02  0.47274813457E+01  0.20275560245E+02  0.51100000000E-03 0. -1.
        -11    1    3    3    0    0  0.16925426325E+01 -0.10241941092E+01 -0.11796589851E+00  0.19818149133E+01  0.51100000000E-03 0.  1.
         12    1    3    3    0    0  0.10411565558E+02 -0.21216245614E+02 -0.34584038617E+01  0.23884939452E+02  0.00000000000E+00 0. -1.
</event>
<event>
 7    1  0.3435408E-009  0.4614232E+02  0.7816164E-02  0.1320468E+00
        -11   -1    0    0    0    0  0.00000000000E+00  0.00000000000E+00  0.45593999997E+02  0.45594000000E+02  0.51100000000E-03 0.  1.
         11   -1    0    0    0    0 -0.00000000000E+00 -0.00000000000E+00 -0.45593999997E+02  0.45594000000E+02  0.51100000000E-03 0. -1.
    9900012    2    1    2    0    0 -0.15965810121E+02 -0.29966064033E+02 -0.29601375345E+02  0.46142317534E+02  0.99999979324E+01 0.  0.
        -12    1    1    2    0    0  0.15965810121E+02  0.29966064033E+02  0.29601375345E+02  0.45045682466E+02  0.00000000000E+00 0.  1.
         11    1    3    3    0    0 -0.12306374290E+02 -0.18818170866E+02 -0.24666719759E+02  0.33376900199E+02  0.51100000000E-03 0. -1.
        -11    1    3    3    0    0 -0.26730817350E+01 -0.80244909391E+01 -0.30800410638E+01  0.90013595645E+01  0.51100000000E-03 0.  1.
         12    1    3    3    0    0 -0.98635409576E+00 -0.31234022280E+01 -0.18546145221E+01  0.37640577713E+01  0.00000000000E+00 0. -1.
</event>
<event>
 7    1  0.3435408E-009  0.4614231E+02  0.7816164E-02  0.1320468E+00
        -11   -1    0    0    0    0  0.00000000000E+00  0.00000000000E+00  0.45593999997E+02  0.45594000000E+02  0.51100000000E-03 0.  1.
         11   -1    0    0    0    0 -0.00000000000E+00 -0.00000000000E+00 -0.45593999997E+02  0.45594000000E+02  0.51100000000E-03 0. -1.
    9900012    2    1    2    0    0  0.17239038989E+02  0.34838927190E+02 -0.22763540383E+02  0.46142311152E+02  0.99999397311E+01 0.  0.
        -12    1    1    2    0    0 -0.17239038989E+02 -0.34838927190E+02  0.22763540383E+02  0.45045688848E+02  0.00000000000E+00 0.  1.
         11    1    3    3    0    0  0.12234684592E+02  0.23616105154E+02 -0.11914049101E+02  0.29143652756E+02  0.51100000000E-03 0. -1.
        -11    1    3    3    0    0 -0.36835523513E+00  0.19911650421E+00 -0.15570773542E+01  0.16123966973E+01  0.51100000000E-03 0.  1.
        -12    1    3    3    0    0  0.53727096312E+01  0.11023705532E+02 -0.92924139285E+01  0.15386261699E+02  0.00000000000E+00 0.  1.
</event>
<event>
 7    1  0.3435408E-009  0.4614232E+02  0.7816164E-02  0.1320468E+00
        -11   -1    0    0    0    0  0.00000000000E+00  0.00000000000E+00  0.45593999997E+02  0.45594000000E+02  0.51100000000E-03 0.  1.
         11   -1    0    0    0    0 -0.00000000000E+00 -0.00000000000E+00 -0.45593999997E+02  0.45594000000E+02  0.51100000000E-03 0. -1.
    9900012    2    1    2    0    0  0.24013708758E+02 -0.12360019866E+02 -0.36051144732E+02  0.46142319454E+02  0.10000015435E+02 0.  0.
        -12    1    1    2    0    0 -0.24013708758E+02  0.12360019866E+02  0.36051144732E+02  0.45045680546E+02  0.00000000000E+00 0.  1.
         11    1    3    3    0    0  0.74749840154E+01 -0.17706817592E+01 -0.49253074956E+01  0.91252043325E+01  0.51100000000E-03 0. -1.
        -11    1    3    3    0    0  0.11235319688E+02 -0.85465414629E+01 -0.19464338967E+02  0.24044464460E+02  0.51100000000E-03 0.  1.
        -12    1    3    3    0    0  0.53034050540E+01 -0.20427966443E+01 -0.11661498269E+02  0.12972650661E+02  0.00000000000E+00 0.  1.
</event>
<event>
 7    1  0.3435408E-009  0.4614232E+02  0.7816164E-02  0.1320468E+00
        -11   -1    0    0    0    0  0.00000000000E+00  0.00000000000E+00  0.45593999997E+02  0.45594000000E+02  0.51100000000E-03 0.  1.
         11   -1    0    0    0    0 -0.00000000000E+00 -0.00000000000E+00 -0.45593999997E+02  0.45594000000E+02  0.51100000000E-03 0. -1.
    9900012    2    1    2    0    0 -0.40165638873E+02 -0.12453838030E+02 -0.16147346079E+02  0.46142318596E+02  0.10000007613E+02 0.  0.
        -12    1    1    2    0    0  0.40165638873E+02  0.12453838030E+02  0.16147346079E+02  0.45045681404E+02  0.00000000000E+00 0.  1.
         11    1    3    3    0    0 -0.83810469032E+01 -0.59726548955E+01 -0.18465730110E+01  0.10455830232E+02  0.51100000000E-03 0. -1.
        -11    1    3    3    0    0 -0.27973995849E+02 -0.60787190884E+01 -0.11135270763E+02  0.30716274591E+02  0.51100000000E-03 0.  1.
        -12    1    3    3    0    0 -0.38105961204E+01 -0.40246404573E+00 -0.31655023053E+01  0.49702137727E+01  0.00000000000E+00 0.  1.
</event>
<event>
 7    1  0.3435408E-009  0.4614231E+02  0.7816164E-02  0.1320468E+00
        -11   -1    0    0    0    0  0.00000000000E+00  0.00000000000E+00  0.45593999997E+02  0.45594000000E+02  0.51100000000E-03 0. -1.
         11   -1    0    0    0    0 -0.00000000000E+00 -0.00000000000E+00 -0.45593999997E+02  0.45594000000E+02  0.51100000000E-03 0.  1.
    9900012    2    1    2    0    0  0.19491049770E+02 -0.30592065795E+02  0.26708394559E+02  0.46142313740E+02  0.99999633308E+01 0.  0.
        -12    1    1    2    0    0 -0.19491049770E+02  0.30592065795E+02 -0.26708394559E+02  0.45045686260E+02  0.00000000000E+00 0.  1.
         11    1    3    3    0    0 -0.55143842396E+00 -0.35646967322E+01  0.14360420490E+01  0.38824430653E+01  0.51100000000E-03 0.  1.
        -11    1    3    3    0    0  0.12673492304E+02 -0.16895665248E+02  0.18155404358E+02  0.27851384508E+02  0.51100000000E-03 0. -1.
         12    1    3    3    0    0  0.73689958894E+01 -0.10131703814E+02  0.71169481522E+01  0.14408486166E+02  0.00000000000E+00 0. -1.
</event>
<event>
 7    1  0.3435408E-009  0.4614232E+02  0.7816164E-02  0.1320468E+00
        -11   -1    0    0    0    0  0.00000000000E+00  0.00000000000E+00  0.45593999997E+02  0.45594000000E+02  0.51100000000E-03 0.  1.
         11   -1    0    0    0    0 -0.00000000000E+00 -0.00000000000E+00 -0.45593999997E+02  0.45594000000E+02  0.51100000000E-03 0. -1.
    9900012    2    1    2    0    0  0.28856371911E+02  0.72652963492E+01 -0.33817726897E+02  0.46142318926E+02  0.10000010622E+02 0.  0.
        -12    1    1    2    0    0 -0.28856371911E+02 -0.72652963492E+01  0.33817726897E+02  0.45045681074E+02  0.00000000000E+00 0.  1.
         11    1    3    3    0    0  0.85031627983E+01  0.20159812395E+01 -0.95821502680E+01  0.12968637629E+02  0.51100000000E-03 0. -1.
        -11    1    3    3    0    0  0.11967236844E+02 -0.60706704879E+00 -0.97896818735E+01  0.15473240111E+02  0.51100000000E-03 0.  1.
        -12    1    3    3    0    0  0.83859722686E+01  0.58563821584E+01 -0.14445894756E+02  0.17700441186E+02  0.00000000000E+00 0.  1.
</event>
<event>
 7    1  0.3435408E-009  0.4614232E+02  0.7816164E-02  0.1320468E+00
        -11   -1    0    0    0    0  0.00000000000E+00  0.00000000000E+00  0.45593999997E+02  0.45594000000E+02  0.51100000000E-03 0.  1.
         11   -1    0    0    0    0 -0.00000000000E+00 -0.00000000000E+00 -0.45593999997E+02  0.45594000000E+02  0.51100000000E-03 0. -1.
    9900012    2    1    2    0    0 -0.25336164864E+02 -0.22179712974E+02 -0.29920772006E+02  0.46142317465E+02  0.99999972961E+01 0.  0.
        -12    1    1    2    0    0  0.25336164864E+02  0.22179712974E+02  0.29920772006E+02  0.45045682535E+02  0.00000000000E+00 0.  1.
         11    1    3    3    0    0 -0.17691044470E+02 -0.11951964214E+02 -0.17916367462E+02  0.27871467961E+02  0.51100000000E-03 0. -1.
        -11    1    3    3    0    0  0.44507347726E+00  0.26942374422E+00 -0.42249050272E+00  0.67020746050E+00  0.51100000000E-03 0.  1.
        -12    1    3    3    0    0 -0.80901938715E+01 -0.10497172505E+02 -0.11581914041E+02  0.17600642043E+02  0.00000000000E+00 0.  1.
</event>
<event>
 7    1  0.3435408E-009  0.4614232E+02  0.7816164E-02  0.1320468E+00
        -11   -1    0    0    0    0  0.00000000000E+00  0.00000000000E+00  0.45593999997E+02  0.45594000000E+02  0.51100000000E-03 0. -1.
         11   -1    0    0    0    0 -0.00000000000E+00 -0.00000000000E+00 -0.45593999997E+02  0.45594000000E+02  0.51100000000E-03 0.  1.
    9900012    2    1    2    0    0  0.19783707551E+02 -0.28661997816E+02  0.28569358048E+02  0.46142318491E+02  0.10000006658E+02 0.  0.
        -12    1    1    2    0    0 -0.19783707551E+02  0.28661997816E+02 -0.28569358048E+02  0.45045681509E+02  0.00000000000E+00 0.  1.
         11    1    3    3    0    0  0.13375589305E+02 -0.25399261000E+02  0.22475742034E+02  0.36458028318E+02  0.51100000000E-03 0. -1.
        -11    1    3    3    0    0  0.11575984357E+01 -0.49563135791E+00  0.23531202486E+01  0.26688686267E+01  0.51100000000E-03 0.  1.
         12    1    3    3    0    0  0.52505198108E+01 -0.27671054580E+01  0.37404957656E+01  0.70154215462E+01  0.00000000000E+00 0. -1.
</event>
<event>
 7    1  0.3435408E-009  0.4614232E+02  0.7816164E-02  0.1320468E+00
        -11   -1    0    0    0    0  0.00000000000E+00  0.00000000000E+00  0.45593999997E+02  0.45594000000E+02  0.51100000000E-03 0. -1.
         11   -1    0    0    0    0 -0.00000000000E+00 -0.00000000000E+00 -0.45593999997E+02  0.45594000000E+02  0.51100000000E-03 0.  1.
    9900012    2    1    2    0    0  0.33208707186E+02 -0.15045195935E+02 -0.26456329454E+02  0.46142317389E+02  0.99999966088E+01 0.  0.
        -12    1    1    2    0    0 -0.33208707186E+02  0.15045195935E+02  0.26456329454E+02  0.45045682611E+02  0.00000000000E+00 0.  1.
         11    1    3    3    0    0  0.86061325130E+00 -0.18496111043E+01  0.19655284799E-01  0.20401232798E+01  0.51100000000E-03 0.  1.
        -11    1    3    3    0    0  0.13271520428E+02 -0.64700935921E+01 -0.84707753389E+01  0.17022026926E+02  0.51100000000E-03 0. -1.
         12    1    3    3    0    0  0.19076573507E+02 -0.67254912390E+01 -0.18005209400E+02  0.27080167184E+02  0.00000000000E+00 0. -1.
</event>
<event>
 7    1  0.3435408E-009  0.4614232E+02  0.7816164E-02  0.1320468E+00
        -11   -1    0    0    0    0  0.00000000000E+00  0.00000000000E+00  0.45593999997E+02  0.45594000000E+02  0.51100000000E-03 0. -1.
         11   -1    0    0    0    0 -0.00000000000E+00 -0.00000000000E+00 -0.45593999997E+02  0.45594000000E+02  0.51100000000E-03 0.  1.
    9900012    2    1    2    0    0 -0.58241485580E+01  0.35572834152E+01  0.44525706369E+02  0.46142317639E+02  0.99999988876E+01 0.  0.
        -12    1    1    2    0    0  0.58241485580E+01 -0.35572834152E+01 -0.44525706369E+02  0.45045682361E+02  0.00000000000E+00 0.  1.
         11    1    3    3    0    0 -0.70326592484E+01  0.25224383409E+01  0.35241115676E+02  0.36024397645E+02  0.51100000000E-03 0. -1.
        -11    1    3    3    0    0  0.96524956657E+00  0.78589804334E+00  0.95805293414E+01  0.96610499007E+01  0.51100000000E-03 0.  1.
        -12    1    3    3    0    0  0.24326112382E+00  0.24894703093E+00 -0.29593864904E+00  0.45687009375E+00  0.00000000000E+00 0.  1.
</event>
<event>
 7    1  0.3435408E-009  0.4614232E+02  0.7816164E-02  0.1320468E+00
        -11   -1    0    0    0    0  0.00000000000E+00  0.00000000000E+00  0.45593999997E+02  0.45594000000E+02  0.51100000000E-03 0.  1.
         11   -1    0    0    0    0 -0.00000000000E+00 -0.00000000000E+00 -0.45593999997E+02  0.45594000000E+02  0.51100000000E-03 0. -1.
    9900012    2    1    2    0    0  0.22472611557E+02 -0.23350064263E+02 -0.31286893906E+02  0.46142317614E+02  0.99999986618E+01 0.  0.
        -12    1    1    2    0    0 -0.22472611557E+02  0.23350064263E+02  0.31286893906E+02  0.45045682386E+02  0.00000000000E+00 0.  1.
         11    1    3    3    0    0  0.10774327608E+02 -0.10041883315E+02 -0.12577186471E+02  0.19367787063E+02  0.51100000000E-03 0. -1.
        -11    1    3    3    0    0  0.62365825427E+01 -0.10324211237E+02 -0.82839737989E+01  0.14632447561E+02  0.51100000000E-03 0.  1.
        -12    1    3    3    0    0  0.54617014060E+01 -0.29839697118E+01 -0.10425733636E+02  0.12142082990E+02  0.00000000000E+00 0.  1.
</event>
<event>
 7    1  0.3435408E-009  0.4614232E+02  0.7816164E-02  0.1320468E+00
        -11   -1    0    0    0    0  0.00000000000E+00  0.00000000000E+00  0.45593999997E+02  0.45594000000E+02  0.51100000000E-03 0. -1.
         11   -1    0    0    0    0 -0.00000000000E+00 -0.00000000000E+00 -0.45593999997E+02  0.45594000000E+02  0.51100000000E-03 0.  1.
    9900012    2    1    2    0    0  0.11988043077E+01  0.14466716325E+02  0.42642589768E+02  0.46142317908E+02  0.10000001342E+02 0.  0.
        -12    1    1    2    0    0 -0.11988043077E+01 -0.14466716325E+02 -0.42642589768E+02  0.45045682092E+02  0.00000000000E+00 0.  1.
         11    1    3    3    0    0  0.12950611852E+01  0.67417063790E+01  0.18810062104E+02  0.20023641652E+02  0.51100000000E-03 0. -1.
        -11    1    3    3    0    0 -0.23345564163E+01  0.80065511616E+01  0.17250114637E+02  0.19160414151E+02  0.51100000000E-03 0.  1.
        -12    1    3    3    0    0  0.22382995389E+01 -0.28154121578E+00  0.65824130263E+01  0.69582621056E+01  0.00000000000E+00 0.  1.
</event>
<event>
 7    1  0.3435408E-009  0.4614232E+02  0.7816164E-02  0.1320468E+00
        -11   -1    0    0    0    0  0.00000000000E+00  0.00000000000E+00  0.45593999997E+02  0.45594000000E+02  0.51100000000E-03 0.  1.
         11   -1    0    0    0    0 -0.00000000000E+00 -0.00000000000E+00 -0.45593999997E+02  0.45594000000E+02  0.51100000000E-03 0. -1.
    9900012    2    1    2    0    0 -0.27950030324E+02 -0.23933298665E+02 -0.25982811178E+02  0.46142318112E+02  0.10000003197E+02 0.  0.
        -12    1    1    2    0    0  0.27950030324E+02  0.23933298665E+02  0.25982811178E+02  0.45045681888E+02  0.00000000000E+00 0.  1.
         11    1    3    3    0    0 -0.94064901448E+01 -0.96386292562E+01 -0.98361182755E+01  0.16677363514E+02  0.51100000000E-03 0. -1.
        -11    1    3    3    0    0 -0.68120573767E+01 -0.10087782250E+02 -0.84279434354E+01  0.14805326988E+02  0.51100000000E-03 0.  1.
        -12    1    3    3    0    0 -0.11731482803E+02 -0.42068871587E+01 -0.77187494666E+01  0.14659627609E+02  0.00000000000E+00 0.  1.
</event>
<event>
 7    1  0.3435408E-009  0.4614232E+02  0.7816164E-02  0.1320468E+00
        -11   -1    0    0    0    0  0.00000000000E+00  0.00000000000E+00  0.45593999997E+02  0.45594000000E+02  0.51100000000E-03 0.  1.
         11   -1    0    0    0    0 -0.00000000000E+00 -0.00000000000E+00 -0.45593999997E+02  0.45594000000E+02  0.51100000000E-03 0. -1.
    9900012    2    1    2    0    0  0.34586005565E+01  0.28446181182E+02 -0.34755810916E+02  0.46142317253E+02  0.99999953698E+01 0.  0.
        -12    1    1    2    0    0 -0.34586005565E+01 -0.28446181182E+02  0.34755810916E+02  0.45045682747E+02  0.00000000000E+00 0.  1.
         11    1    3    3    0    0  0.44484539228E+01  0.10788329374E+02 -0.11698713088E+02  0.16523821627E+02  0.51100000000E-03 0. -1.
        -11    1    3    3    0    0  0.58866772652E+00  0.12608524259E+02 -0.12266421126E+02  0.17600752858E+02  0.51100000000E-03 0.  1.
         12    1    3    3    0    0 -0.15785210929E+01  0.50493275494E+01 -0.10790676703E+02  0.12017742768E+02  0.00000000000E+00 0. -1.
</event>
<event>
 7    1  0.3435408E-009  0.4614231E+02  0.7816164E-02  0.1320468E+00
        -11   -1    0    0    0    0  0.00000000000E+00  0.00000000000E+00  0.45593999997E+02  0.45594000000E+02  0.51100000000E-03 0.  1.
         11   -1    0    0    0    0 -0.00000000000E+00 -0.00000000000E+00 -0.45593999997E+02  0.45594000000E+02  0.51100000000E-03 0. -1.
    9900012    2    1    2    0    0 -0.17038729582E+02  0.10917514189E+02 -0.40244306315E+02  0.46142305282E+02  0.99998862025E+01 0.  0.
        -12    1    1    2    0    0  0.17038729582E+02 -0.10917514189E+02  0.40244306315E+02  0.45045694718E+02  0.00000000000E+00 0.  1.
         11    1    3    3    0    0 -0.88123817559E+01  0.22607298556E+01 -0.19910728447E+02  0.21890776122E+02  0.51100000000E-03 0. -1.
        -11    1    3    3    0    0 -0.69567313909E+01  0.35889262387E+01 -0.10275667536E+02  0.12917656396E+02  0.51100000000E-03 0.  1.
        -12    1    3    3    0    0 -0.12696164355E+01  0.50678580949E+01 -0.10057910332E+02  0.11333872763E+02  0.00000000000E+00 0.  1.
</event>
<event>
 7    1  0.3435408E-009  0.4614232E+02  0.7816164E-02  0.1320468E+00
        -11   -1    0    0    0    0  0.00000000000E+00  0.00000000000E+00  0.45593999997E+02  0.45594000000E+02  0.51100000000E-03 0.  1.
         11   -1    0    0    0    0 -0.00000000000E+00 -0.00000000000E+00 -0.45593999997E+02  0.45594000000E+02  0.51100000000E-03 0. -1.
    9900012    2    1    2    0    0 -0.21825317969E+02  0.12898514404E+02 -0.37234356778E+02  0.46142317599E+02  0.99999985226E+01 0.  0.
        -12    1    1    2    0    0  0.21825317969E+02 -0.12898514404E+02  0.37234356778E+02  0.45045682401E+02  0.00000000000E+00 0.  1.
         11    1    3    3    0    0  0.66079296794E+00  0.42538686635E+00 -0.37956025152E+01  0.38761062997E+01  0.51100000000E-03 0. -1.
        -11    1    3    3    0    0 -0.27692673502E+01  0.11768083249E+01 -0.53355205482E+01  0.61254795136E+01  0.51100000000E-03 0.  1.
         12    1    3    3    0    0 -0.19716843586E+02  0.11296319213E+02 -0.28103233715E+02  0.36140731786E+02  0.00000000000E+00 0. -1.
</event>
<event>
 7    1  0.3435408E-009  0.4614232E+02  0.7816164E-02  0.1320468E+00
        -11   -1    0    0    0    0  0.00000000000E+00  0.00000000000E+00  0.45593999997E+02  0.45594000000E+02  0.51100000000E-03 0. -1.
         11   -1    0    0    0    0 -0.00000000000E+00 -0.00000000000E+00 -0.45593999997E+02  0.45594000000E+02  0.51100000000E-03 0.  1.
    9900012    2    1    2    0    0  0.33388283647E+01 -0.44906418768E+02 -0.11744061819E+01  0.46142318173E+02  0.10000003754E+02 0.  0.
        -12    1    1    2    0    0 -0.33388283647E+01  0.44906418768E+02  0.11744061819E+01  0.45045681827E+02  0.00000000000E+00 0.  1.
         11    1    3    3    0    0  0.22266927007E+01 -0.24415910071E+02 -0.32588241069E+01  0.24732868006E+02  0.51100000000E-03 0. -1.
        -11    1    3    3    0    0  0.25800824701E+01 -0.18754941619E+02  0.11974370860E+01  0.18969410021E+02  0.51100000000E-03 0.  1.
        -12    1    3    3    0    0 -0.14679468060E+01 -0.17355670774E+01  0.88698083899E+00  0.24400401460E+01  0.00000000000E+00 0.  1.
</event>
<event>
 7    1  0.3435408E-009  0.4614232E+02  0.7816164E-02  0.1320468E+00
        -11   -1    0    0    0    0  0.00000000000E+00  0.00000000000E+00  0.45593999997E+02  0.45594000000E+02  0.51100000000E-03 0. -1.
         11   -1    0    0    0    0 -0.00000000000E+00 -0.00000000000E+00 -0.45593999997E+02  0.45594000000E+02  0.51100000000E-03 0.  1.
    9900012    2    1    2    0    0  0.38822545366E+01  0.31478208644E+02  0.31986934678E+02  0.46142317523E+02  0.99999978312E+01 0.  0.
        -12    1    1    2    0    0 -0.38822545366E+01 -0.31478208644E+02 -0.31986934678E+02  0.45045682477E+02  0.00000000000E+00 0.  1.
         11    1    3    3    0    0  0.46313638749E+01  0.25449945737E+02  0.24226017412E+02  0.35440784264E+02  0.51100000000E-03 0. -1.
        -11    1    3    3    0    0 -0.18580316177E+01  0.58360111349E+01  0.57700092594E+01  0.84145299675E+01  0.51100000000E-03 0.  1.
         12    1    3    3    0    0  0.11089222794E+01  0.19225177202E+00  0.19909080064E+01  0.22870032916E+01  0.00000000000E+00 0. -1.
</event>
<event>
 7    1  0.3435408E-009  0.4614232E+02  0.7816164E-02  0.1320468E+00
        -11   -1    0    0    0    0  0.00000000000E+00  0.00000000000E+00  0.45593999997E+02  0.45594000000E+02  0.51100000000E-03 0. -1.
         11   -1    0    0    0    0 -0.00000000000E+00 -0.00000000000E+00 -0.45593999997E+02  0.45594000000E+02  0.51100000000E-03 0.  1.
    9900012    2    1    2    0    0  0.22556032171E+02  0.51283046838E+01  0.38652806515E+02  0.46142317103E+02  0.99999939959E+01 0.  0.
        -12    1    1    2    0    0 -0.22556032171E+02 -0.51283046838E+01 -0.38652806515E+02  0.45045682897E+02  0.00000000000E+00 0.  1.
         11    1    3    3    0    0  0.33224579648E+01  0.28152149227E+01  0.39118514340E+01  0.58537803078E+01  0.51100000000E-03 0. -1.
        -11    1    3    3    0    0  0.15388061010E+01  0.13554843921E+01  0.76230074787E+01  0.78940170658E+01  0.51100000000E-03 0.  1.
        -12    1    3    3    0    0  0.17694768105E+02  0.95760536890E+00  0.27117947602E+02  0.32394519729E+02  0.00000000000E+00 0.  1.
</event>
<event>
 7    1  0.3435408E-009  0.4614232E+02  0.7816164E-02  0.1320468E+00
        -11   -1    0    0    0    0  0.00000000000E+00  0.00000000000E+00  0.45593999997E+02  0.45594000000E+02  0.51100000000E-03 0. -1.
         11   -1    0    0    0    0 -0.00000000000E+00 -0.00000000000E+00 -0.45593999997E+02  0.45594000000E+02  0.51100000000E-03 0.  1.
    9900012    2    1    2    0    0  0.31900591641E+02  0.18584963848E+02  0.25808231532E+02  0.46142318264E+02  0.10000004583E+02 0.  0.
        -12    1    1    2    0    0 -0.31900591641E+02 -0.18584963848E+02 -0.25808231532E+02  0.45045681736E+02  0.00000000000E+00 0.  1.
         11    1    3    3    0    0  0.19090895423E+01  0.85861771780E+00  0.16543067999E+01  0.26680664375E+01  0.51100000000E-03 0. -1.
        -11    1    3    3    0    0  0.26225582698E+01  0.53823268048E+01  0.26705854528E+01  0.65558584972E+01  0.51100000000E-03 0.  1.
        -12    1    3    3    0    0  0.27368943828E+02  0.12344019325E+02  0.21483339280E+02  0.36918393329E+02  0.00000000000E+00 0.  1.
</event>
<event>
 7    1  0.3435408E-009  0.4614232E+02  0.7816164E-02  0.1320468E+00
        -11   -1    0    0    0    0  0.00000000000E+00  0.00000000000E+00  0.45593999997E+02  0.45594000000E+02  0.51100000000E-03 0.  1.
         11   -1    0    0    0    0 -0.00000000000E+00 -0.00000000000E+00 -0.45593999997E+02  0.45594000000E+02  0.51100000000E-03 0. -1.
    9900012    2    1    2    0    0 -0.55557723673E+01 -0.15159195946E+02 -0.42052890848E+02  0.46142318110E+02  0.10000003179E+02 0.  0.
        -12    1    1    2    0    0  0.55557723673E+01  0.15159195946E+02  0.42052890848E+02  0.45045681890E+02  0.00000000000E+00 0.  1.
         11    1    3    3    0    0  0.24745546169E+01 -0.60890618388E+01 -0.14814586655E+02  0.16207161153E+02  0.51100000000E-03 0. -1.
        -11    1    3    3    0    0 -0.52838044320E+00  0.23712330897E-01 -0.21654203447E+01  0.22290791143E+01  0.51100000000E-03 0.  1.
         12    1    3    3    0    0 -0.75019465410E+01 -0.90938464382E+01 -0.25072883848E+02  0.27706077842E+02  0.00000000000E+00 0. -1.
</event>
<event>
 7    1  0.3435408E-009  0.4614232E+02  0.7816164E-02  0.1320468E+00
        -11   -1    0    0    0    0  0.00000000000E+00  0.00000000000E+00  0.45593999997E+02  0.45594000000E+02  0.51100000000E-03 0.  1.
         11   -1    0    0    0    0 -0.00000000000E+00 -0.00000000000E+00 -0.45593999997E+02  0.45594000000E+02  0.51100000000E-03 0. -1.
    9900012    2    1    2    0    0 -0.36683444614E+02 -0.26064000872E+02  0.20264018186E+01  0.46142317027E+02  0.99999933054E+01 0.  0.
        -12    1    1    2    0    0  0.36683444614E+02  0.26064000872E+02 -0.20264018186E+01  0.45045682973E+02  0.00000000000E+00 0.  1.
         11    1    3    3    0    0 -0.12348747250E+02 -0.11132556263E+02  0.36430953512E+01  0.17020502684E+02  0.51100000000E-03 0. -1.
        -11    1    3    3    0    0  0.26086621990E+00 -0.28747753642E+00  0.20492873155E+00  0.43896533436E+00  0.51100000000E-03 0.  1.
         12    1    3    3    0    0 -0.24595563583E+02 -0.14643967072E+02 -0.18216222641E+01  0.28682849009E+02  0.00000000000E+00 0. -1.
</event>
<event>
 7    1  0.3435408E-009  0.4614232E+02  0.7816164E-02  0.1320468E+00
        -11   -1    0    0    0    0  0.00000000000E+00  0.00000000000E+00  0.45593999997E+02  0.45594000000E+02  0.51100000000E-03 0. -1.
         11   -1    0    0    0    0 -0.00000000000E+00 -0.00000000000E+00 -0.45593999997E+02  0.45594000000E+02  0.51100000000E-03 0.  1.
    9900012    2    1    2    0    0  0.35769348722E+02 -0.27361417358E+02 -0.10099483949E+01  0.46142318036E+02  0.10000002503E+02 0.  0.
        -12    1    1    2    0    0 -0.35769348722E+02  0.27361417358E+02  0.10099483949E+01  0.45045681964E+02  0.00000000000E+00 0.  1.
         11    1    3    3    0    0  0.17384299370E+01 -0.35446101077E+01  0.14592950155E+01  0.42090309651E+01  0.51100000000E-03 0. -1.
        -11    1    3    3    0    0  0.75256980647E+01 -0.76503885580E+01 -0.17879420479E+01  0.10879398581E+02  0.51100000000E-03 0.  1.
         12    1    3    3    0    0  0.26505220721E+02 -0.16166418693E+02 -0.68130136257E+00  0.31053888490E+02  0.00000000000E+00 0. -1.
</event>
<event>
 7    1  0.3435408E-009  0.4614232E+02  0.7816164E-02  0.1320468E+00
        -11   -1    0    0    0    0  0.00000000000E+00  0.00000000000E+00  0.45593999997E+02  0.45594000000E+02  0.51100000000E-03 0.  1.
         11   -1    0    0    0    0 -0.00000000000E+00 -0.00000000000E+00 -0.45593999997E+02  0.45594000000E+02  0.51100000000E-03 0. -1.
    9900012    2    1    2    0    0 -0.96806479699E+01  0.15916111293E+02 -0.41013118828E+02  0.46142318078E+02  0.10000002894E+02 0.  0.
        -12    1    1    2    0    0  0.96806479699E+01 -0.15916111293E+02  0.41013118828E+02  0.45045681922E+02  0.00000000000E+00 0.  1.
         11    1    3    3    0    0 -0.23069250676E+01  0.11014711132E+02 -0.19046225332E+02  0.22122487750E+02  0.51100000000E-03 0. -1.
        -11    1    3    3    0    0 -0.10488030887E+01  0.58232528052E+00 -0.80123345643E+01  0.81016415671E+01  0.51100000000E-03 0.  1.
         12    1    3    3    0    0 -0.63249198136E+01  0.43190748804E+01 -0.13954558931E+02  0.15918188761E+02  0.00000000000E+00 0. -1.
</event>
<event>
 7    1  0.3435408E-009  0.4614232E+02  0.7816164E-02  0.1320468E+00
        -11   -1    0    0    0    0  0.00000000000E+00  0.00000000000E+00  0.45593999997E+02  0.45594000000E+02  0.51100000000E-03 0.  1.
         11   -1    0    0    0    0 -0.00000000000E+00 -0.00000000000E+00 -0.45593999997E+02  0.45594000000E+02  0.51100000000E-03 0. -1.
    9900012    2    1    2    0    0 -0.21365642388E+02 -0.24340207860E+02 -0.31307776588E+02  0.46142320205E+02  0.10000022282E+02 0.  0.
        -12    1    1    2    0    0  0.21365642388E+02  0.24340207860E+02  0.31307776588E+02  0.45045679795E+02  0.00000000000E+00 0.  1.
         11    1    3    3    0    0 -0.65286182007E+01 -0.50583184754E+01 -0.11491409050E+02  0.14151392992E+02  0.51100000000E-03 0. -1.
        -11    1    3    3    0    0 -0.38099319721E+01 -0.99049332587E+01 -0.91186559702E+01  0.13991896635E+02  0.51100000000E-03 0.  1.
         12    1    3    3    0    0 -0.11027092215E+02 -0.93769561260E+01 -0.10697711568E+02  0.17999030577E+02  0.00000000000E+00 0. -1.
</event>
<event>
 7    1  0.3435408E-009  0.4614232E+02  0.7816164E-02  0.1320468E+00
        -11   -1    0    0    0    0  0.00000000000E+00  0.00000000000E+00  0.45593999997E+02  0.45594000000E+02  0.51100000000E-03 0. -1.
         11   -1    0    0    0    0 -0.00000000000E+00 -0.00000000000E+00 -0.45593999997E+02  0.45594000000E+02  0.51100000000E-03 0.  1.
    9900012    2    1    2    0    0 -0.25217323337E+02 -0.35002509462E+02  0.12962425997E+02  0.46142317048E+02  0.99999934929E+01 0.  0.
        -12    1    1    2    0    0  0.25217323337E+02  0.35002509462E+02 -0.12962425997E+02  0.45045682952E+02  0.00000000000E+00 0.  1.
         11    1    3    3    0    0 -0.10273895087E+02 -0.13279783584E+02  0.99806396740E+01  0.19532504726E+02  0.51100000000E-03 0.  1.
        -11    1    3    3    0    0 -0.69024207317E+01 -0.10803863711E+02  0.54314516870E+00  0.12832064915E+02  0.51100000000E-03 0. -1.
        -12    1    3    3    0    0 -0.80410075178E+01 -0.10918862167E+02  0.24386411548E+01  0.13777747407E+02  0.00000000000E+00 0.  1.
</event>
<event>
 7    1  0.3435408E-009  0.4614231E+02  0.7816164E-02  0.1320468E+00
        -11   -1    0    0    0    0  0.00000000000E+00  0.00000000000E+00  0.45593999997E+02  0.45594000000E+02  0.51100000000E-03 0.  1.
         11   -1    0    0    0    0 -0.00000000000E+00 -0.00000000000E+00 -0.45593999997E+02  0.45594000000E+02  0.51100000000E-03 0. -1.
    9900012    2    1    2    0    0  0.21022740194E+01  0.17715085315E+02 -0.41362663747E+02  0.46142314790E+02  0.99999729089E+01 0.  0.
        -12    1    1    2    0    0 -0.21022740194E+01 -0.17715085315E+02  0.41362663747E+02  0.45045685210E+02  0.00000000000E+00 0.  1.
         11    1    3    3    0    0 -0.22392724342E+00  0.61500310313E+01 -0.20586988658E+02  0.21487138650E+02  0.51100000000E-03 0. -1.
        -11    1    3    3    0    0  0.38954258401E+01  0.90144311539E+01 -0.18305429693E+02  0.20773133322E+02  0.51100000000E-03 0.  1.
        -12    1    3    3    0    0 -0.15692245773E+01  0.25506231302E+01 -0.24702453953E+01  0.38820428178E+01  0.00000000000E+00 0.  1.
</event>
<event>
 7    1  0.3435408E-009  0.4614232E+02  0.7816164E-02  0.1320468E+00
        -11   -1    0    0    0    0  0.00000000000E+00  0.00000000000E+00  0.45593999997E+02  0.45594000000E+02  0.51100000000E-03 0.  1.
         11   -1    0    0    0    0 -0.00000000000E+00 -0.00000000000E+00 -0.45593999997E+02  0.45594000000E+02  0.51100000000E-03 0. -1.
    9900012    2    1    2    0    0 -0.29304886749E+02 -0.10847736081E+02 -0.32444779058E+02  0.46142318147E+02  0.10000003520E+02 0.  0.
        -12    1    1    2    0    0  0.29304886749E+02  0.10847736081E+02  0.32444779058E+02  0.45045681853E+02  0.00000000000E+00 0.  1.
         11    1    3    3    0    0 -0.12439914976E+02 -0.39142281152E+01 -0.13381152067E+02  0.18684964470E+02  0.51100000000E-03 0. -1.
        -11    1    3    3    0    0 -0.15878248237E+02 -0.65486794856E+01 -0.19766504774E+02  0.26186230759E+02  0.51100000000E-03 0.  1.
        -12    1    3    3    0    0 -0.98672353627E+00 -0.38482848015E+00  0.70287778324E+00  0.12711229187E+01  0.00000000000E+00 0.  1.
</event>
<event>
 7    1  0.3435408E-009  0.4614232E+02  0.7816164E-02  0.1320468E+00
        -11   -1    0    0    0    0  0.00000000000E+00  0.00000000000E+00  0.45593999997E+02  0.45594000000E+02  0.51100000000E-03 0.  1.
         11   -1    0    0    0    0 -0.00000000000E+00 -0.00000000000E+00 -0.45593999997E+02  0.45594000000E+02  0.51100000000E-03 0. -1.
    9900012    2    1    2    0    0  0.28106145121E+02 -0.10318253421E+01 -0.35186551897E+02  0.46142317726E+02  0.99999996838E+01 0.  0.
        -12    1    1    2    0    0 -0.28106145121E+02  0.10318253421E+01  0.35186551897E+02  0.45045682274E+02  0.00000000000E+00 0.  1.
         11    1    3    3    0    0  0.93365339812E+01 -0.19644353355E+00 -0.14336929497E+02  0.17110143322E+02  0.51100000000E-03 0. -1.
        -11    1    3    3    0    0  0.10644263454E+00 -0.12183054738E+01 -0.27915552991E+00  0.12544027794E+01  0.51100000000E-03 0.  1.
        -12    1    3    3    0    0  0.18663168505E+02  0.38292366527E+00 -0.20570466870E+02  0.27777771625E+02  0.00000000000E+00 0.  1.
</event>
<event>
 7    1  0.3435408E-009  0.4614232E+02  0.7816164E-02  0.1320468E+00
        -11   -1    0    0    0    0  0.00000000000E+00  0.00000000000E+00  0.45593999997E+02  0.45594000000E+02  0.51100000000E-03 0.  1.
         11   -1    0    0    0    0 -0.00000000000E+00 -0.00000000000E+00 -0.45593999997E+02  0.45594000000E+02  0.51100000000E-03 0. -1.
    9900012    2    1    2    0    0 -0.96712082537E+01  0.19233519211E+02 -0.39568332988E+02  0.46142317568E+02  0.99999982377E+01 0.  0.
        -12    1    1    2    0    0  0.96712082537E+01 -0.19233519211E+02  0.39568332988E+02  0.45045682432E+02  0.00000000000E+00 0.  1.
         11    1    3    3    0    0 -0.25013507271E+01  0.70522015992E+01 -0.19209754082E+02  0.20615648304E+02  0.51100000000E-03 0. -1.
        -11    1    3    3    0    0 -0.80841257834E+01  0.91451925645E+01 -0.15584846039E+02  0.19795834487E+02  0.51100000000E-03 0.  1.
        -12    1    3    3    0    0  0.91426825674E+00  0.30361250478E+01 -0.47737328669E+01  0.57308347765E+01  0.00000000000E+00 0.  1.
</event>
<event>
 7    1  0.3435408E-009  0.4614232E+02  0.7816164E-02  0.1320468E+00
        -11   -1    0    0    0    0  0.00000000000E+00  0.00000000000E+00  0.45593999997E+02  0.45594000000E+02  0.51100000000E-03 0. -1.
         11   -1    0    0    0    0 -0.00000000000E+00 -0.00000000000E+00 -0.45593999997E+02  0.45594000000E+02  0.51100000000E-03 0.  1.
    9900012    2    1    2    0    0  0.31036679305E+02 -0.50846387378E+01  0.32248791236E+02  0.46142317082E+02  0.99999938080E+01 0.  0.
        -12    1    1    2    0    0 -0.31036679305E+02  0.50846387378E+01 -0.32248791236E+02  0.45045682918E+02  0.00000000000E+00 0.  1.
         11    1    3    3    0    0  0.25371632289E+02 -0.13986822999E+01  0.27651623624E+02  0.37553805753E+02  0.51100000000E-03 0. -1.
        -11    1    3    3    0    0  0.57337615069E+00 -0.16606236620E+01  0.86221733883E+00  0.19570002957E+01  0.51100000000E-03 0.  1.
         12    1    3    3    0    0  0.50916708646E+01 -0.20253327758E+01  0.37349502734E+01  0.66315110338E+01  0.00000000000E+00 0. -1.
</event>
<event>
 7    1  0.3435408E-009  0.4614232E+02  0.7816164E-02  0.1320468E+00
        -11   -1    0    0    0    0  0.00000000000E+00  0.00000000000E+00  0.45593999997E+02  0.45594000000E+02  0.51100000000E-03 0. -1.
         11   -1    0    0    0    0 -0.00000000000E+00 -0.00000000000E+00 -0.45593999997E+02  0.45594000000E+02  0.51100000000E-03 0.  1.
    9900012    2    1    2    0    0  0.20896395924E+02 -0.33790514946E+02  0.21228640725E+02  0.46142318187E+02  0.10000003884E+02 0.  0.
        -12    1    1    2    0    0 -0.20896395924E+02  0.33790514946E+02 -0.21228640725E+02  0.45045681813E+02  0.00000000000E+00 0.  1.
         11    1    3    3    0    0  0.18391296400E+02 -0.32740940069E+02  0.18748665688E+02  0.41972865106E+02  0.51100000000E-03 0. -1.
        -11    1    3    3    0    0 -0.14854490033E+00 -0.48328855868E+00  0.18509639094E-01  0.50594099086E+00  0.51100000000E-03 0.  1.
         12    1    3    3    0    0  0.26536444246E+01 -0.56628631840E+00  0.24614653984E+01  0.36635120901E+01  0.00000000000E+00 0. -1.
</event>
<event>
 7    1  0.3435408E-009  0.4614232E+02  0.7816164E-02  0.1320468E+00
        -11   -1    0    0    0    0  0.00000000000E+00  0.00000000000E+00  0.45593999997E+02  0.45594000000E+02  0.51100000000E-03 0.  1.
         11   -1    0    0    0    0 -0.00000000000E+00 -0.00000000000E+00 -0.45593999997E+02  0.45594000000E+02  0.51100000000E-03 0. -1.
    9900012    2    1    2    0    0 -0.39684042109E+02 -0.19487135649E+02 -0.86337605962E+01  0.46142317899E+02  0.10000001258E+02 0.  0.
        -12    1    1    2    0    0  0.39684042109E+02  0.19487135649E+02  0.86337605962E+01  0.45045682101E+02  0.00000000000E+00 0.  1.
         11    1    3    3    0    0 -0.44851347167E+01  0.55584504142E+00  0.11016122904E+00  0.45207889681E+01  0.51100000000E-03 0.  1.
        -11    1    3    3    0    0 -0.24919707341E+02 -0.12136166780E+02 -0.56110122732E+01  0.28280060414E+02  0.51100000000E-03 0. -1.
         12    1    3    3    0    0 -0.10279200052E+02 -0.79068139102E+01 -0.31329095521E+01  0.13341468517E+02  0.00000000000E+00 0. -1.
</event>
<event>
 7    1  0.3435408E-009  0.4614232E+02  0.7816164E-02  0.1320468E+00
        -11   -1    0    0    0    0  0.00000000000E+00  0.00000000000E+00  0.45593999997E+02  0.45594000000E+02  0.51100000000E-03 0.  1.
         11   -1    0    0    0    0 -0.00000000000E+00 -0.00000000000E+00 -0.45593999997E+02  0.45594000000E+02  0.51100000000E-03 0. -1.
    9900012    2    1    2    0    0 -0.28620833724E+02 -0.13446375838E+02 -0.32080465227E+02  0.46142318793E+02  0.10000009411E+02 0.  0.
        -12    1    1    2    0    0  0.28620833724E+02  0.13446375838E+02  0.32080465227E+02  0.45045681207E+02  0.00000000000E+00 0.  1.
         11    1    3    3    0    0 -0.62061734724E+00  0.28252640464E+00 -0.13814671230E+01  0.15405968759E+01  0.51100000000E-03 0.  1.
        -11    1    3    3    0    0 -0.99067089370E+01 -0.12758494103E+01 -0.64820084162E+01  0.11907439147E+02  0.51100000000E-03 0. -1.
        -12    1    3    3    0    0 -0.18093507439E+02 -0.12453052832E+02 -0.24216989688E+02  0.32694282770E+02  0.00000000000E+00 0.  1.
</event>
<event>
 7    1  0.3435408E-009  0.4614230E+02  0.7816164E-02  0.1320468E+00
        -11   -1    0    0    0    0  0.00000000000E+00  0.00000000000E+00  0.45593999997E+02  0.45594000000E+02  0.51100000000E-03 0. -1.
         11   -1    0    0    0    0 -0.00000000000E+00 -0.00000000000E+00 -0.45593999997E+02  0.45594000000E+02  0.51100000000E-03 0.  1.
    9900012    2    1    2    0    0  0.11583278401E+02 -0.14176086009E+02  0.41157999317E+02  0.46142304747E+02  0.99998813289E+01 0.  0.
        -12    1    1    2    0    0 -0.11583278401E+02  0.14176086009E+02 -0.41157999317E+02  0.45045695253E+02  0.00000000000E+00 0.  1.
         11    1    3    3    0    0  0.44878633050E+00 -0.13651403444E+01  0.12742320253E+01  0.19205949198E+01  0.51100000000E-03 0. -1.
        -11    1    3    3    0    0  0.60729956890E+01 -0.30785837824E+01  0.80087357162E+01  0.10511841075E+02  0.51100000000E-03 0.  1.
        -12    1    3    3    0    0  0.50614963814E+01 -0.97323618824E+01  0.31875031575E+02  0.33709868753E+02  0.00000000000E+00 0.  1.
</event>
<event>
 7    1  0.3435408E-009  0.4614232E+02  0.7816164E-02  0.1320468E+00
        -11   -1    0    0    0    0  0.00000000000E+00  0.00000000000E+00  0.45593999997E+02  0.45594000000E+02  0.51100000000E-03 0.  1.
         11   -1    0    0    0    0 -0.00000000000E+00 -0.00000000000E+00 -0.45593999997E+02  0.45594000000E+02  0.51100000000E-03 0. -1.
    9900012    2    1    2    0    0  0.22958794175E+02  0.38739722993E+02 -0.11140475143E+01  0.46142317971E+02  0.10000001918E+02 0.  0.
        -12    1    1    2    0    0 -0.22958794175E+02 -0.38739722993E+02  0.11140475143E+01  0.45045682029E+02  0.00000000000E+00 0.  1.
         11    1    3    3    0    0  0.87984623203E+00  0.32755145208E+00  0.12391226841E+01  0.15546204145E+01  0.51100000000E-03 0. -1.
        -11    1    3    3    0    0  0.27847216383E+01  0.54163524679E+01 -0.18369958333E+01  0.63612972428E+01  0.51100000000E-03 0.  1.
         12    1    3    3    0    0  0.19294226305E+02  0.32995819073E+02 -0.51617436514E+00  0.38226400314E+02  0.00000000000E+00 0. -1.
</event>
<event>
 7    1  0.3435408E-009  0.4614232E+02  0.7816164E-02  0.1320468E+00
        -11   -1    0    0    0    0  0.00000000000E+00  0.00000000000E+00  0.45593999997E+02  0.45594000000E+02  0.51100000000E-03 0.  1.
         11   -1    0    0    0    0 -0.00000000000E+00 -0.00000000000E+00 -0.45593999997E+02  0.45594000000E+02  0.51100000000E-03 0. -1.
    9900012    2    1    2    0    0  0.98368096489E+00 -0.32813289186E+02 -0.30845321057E+02  0.46142318669E+02  0.10000008281E+02 0.  0.
        -12    1    1    2    0    0 -0.98368096489E+00  0.32813289186E+02  0.30845321057E+02  0.45045681331E+02  0.00000000000E+00 0.  1.
         11    1    3    3    0    0  0.36727869974E+01 -0.13376428328E+02 -0.12596489178E+02  0.18737388799E+02  0.51100000000E-03 0. -1.
        -11    1    3    3    0    0  0.12611149981E+00 -0.27793110285E+01 -0.57580076384E+01  0.63949297204E+01  0.51100000000E-03 0.  1.
         12    1    3    3    0    0 -0.28152175324E+01 -0.16657549829E+02 -0.12490824241E+02  0.21010000150E+02  0.00000000000E+00 0. -1.
</event>
<event>
 7    1  0.3435408E-009  0.4614232E+02  0.7816164E-02  0.1320468E+00
        -11   -1    0    0    0    0  0.00000000000E+00  0.00000000000E+00  0.45593999997E+02  0.45594000000E+02  0.51100000000E-03 0.  1.
         11   -1    0    0    0    0 -0.00000000000E+00 -0.00000000000E+00 -0.45593999997E+02  0.45594000000E+02  0.51100000000E-03 0. -1.
    9900012    2    1    2    0    0  0.25499255151E+02  0.32335749787E+02 -0.18256531408E+02  0.46142315783E+02  0.99999819645E+01 0.  0.
        -12    1    1    2    0    0 -0.25499255151E+02 -0.32335749787E+02  0.18256531408E+02  0.45045684217E+02  0.00000000000E+00 0.  1.
         11    1    3    3    0    0  0.54485609298E+01  0.60717022597E+01 -0.47454610379E+01  0.94377849763E+01  0.51100000000E-03 0. -1.
        -11    1    3    3    0    0  0.12770779644E+02  0.22415597855E+02 -0.11392712185E+02  0.28201874603E+02  0.51100000000E-03 0.  1.
        -12    1    3    3    0    0  0.72799145773E+01  0.38484496715E+01 -0.21183581855E+01  0.85026562043E+01  0.00000000000E+00 0.  1.
</event>
<event>
 7    1  0.3435408E-009  0.4614232E+02  0.7816164E-02  0.1320468E+00
        -11   -1    0    0    0    0  0.00000000000E+00  0.00000000000E+00  0.45593999997E+02  0.45594000000E+02  0.51100000000E-03 0. -1.
         11   -1    0    0    0    0 -0.00000000000E+00 -0.00000000000E+00 -0.45593999997E+02  0.45594000000E+02  0.51100000000E-03 0.  1.
    9900012    2    1    2    0    0 -0.29464760655E+02 -0.25273247725E+02  0.22851787211E+02  0.46142319300E+02  0.10000014032E+02 0.  0.
        -12    1    1    2    0    0  0.29464760655E+02  0.25273247725E+02 -0.22851787211E+02  0.45045680700E+02  0.00000000000E+00 0.  1.
         11    1    3    3    0    0 -0.22734757398E+02 -0.20286339005E+02  0.20867848006E+02  0.36930635316E+02  0.51100000000E-03 0. -1.
        -11    1    3    3    0    0 -0.63607274274E+01 -0.48864866874E+01  0.91104601211E+00  0.80725838892E+01  0.51100000000E-03 0.  1.
         12    1    3    3    0    0 -0.36927582897E+00 -0.10042203298E+00  0.10728931931E+01  0.11391000949E+01  0.00000000000E+00 0. -1.
</event>
<event>
 7    1  0.3435408E-009  0.4614232E+02  0.7816164E-02  0.1320468E+00
        -11   -1    0    0    0    0  0.00000000000E+00  0.00000000000E+00  0.45593999997E+02  0.45594000000E+02  0.51100000000E-03 0.  1.
         11   -1    0    0    0    0 -0.00000000000E+00 -0.00000000000E+00 -0.45593999997E+02  0.45594000000E+02  0.51100000000E-03 0. -1.
    9900012    2    1    2    0    0  0.10342595891E+02 -0.18630693853E+02 -0.39686792771E+02  0.46142316926E+02  0.99999923822E+01 0.  0.
        -12    1    1    2    0    0 -0.10342595891E+02  0.18630693853E+02  0.39686792771E+02  0.45045683074E+02  0.00000000000E+00 0.  1.
         11    1    3    3    0    0  0.35977372367E+01 -0.50181909831E+01 -0.12855783166E+02  0.14261736046E+02  0.51100000000E-03 0. -1.
        -11    1    3    3    0    0  0.56977555373E+01 -0.77440670042E+01 -0.93498679950E+01  0.13411003829E+02  0.51100000000E-03 0.  1.
        -12    1    3    3    0    0  0.10471031168E+01 -0.58684358658E+01 -0.17481141609E+02  0.18469577050E+02  0.00000000000E+00 0.  1.
</event>
<event>
 7    1  0.3435408E-009  0.4614232E+02  0.7816164E-02  0.1320468E+00
        -11   -1    0    0    0    0  0.00000000000E+00  0.00000000000E+00  0.45593999997E+02  0.45594000000E+02  0.51100000000E-03 0.  1.
         11   -1    0    0    0    0 -0.00000000000E+00 -0.00000000000E+00 -0.45593999997E+02  0.45594000000E+02  0.51100000000E-03 0. -1.
    9900012    2    1    2    0    0 -0.33181549632E+02  0.28922661519E+02 -0.95696356386E+01  0.46142317504E+02  0.99999976549E+01 0.  0.
        -12    1    1    2    0    0  0.33181549632E+02 -0.28922661519E+02  0.95696356386E+01  0.45045682496E+02  0.00000000000E+00 0.  1.
         11    1    3    3    0    0 -0.20483246887E+02  0.17311561385E+02 -0.86788146669E+01  0.28188213582E+02  0.51100000000E-03 0. -1.
        -11    1    3    3    0    0 -0.11926629246E+02  0.89437318266E+01  0.35249354361E+00  0.14911709363E+02  0.51100000000E-03 0.  1.
        -12    1    3    3    0    0 -0.77167349834E+00  0.26673683069E+01 -0.12433145153E+01  0.30423945596E+01  0.00000000000E+00 0.  1.
</event>
<event>
 7    1  0.3435408E-009  0.4614232E+02  0.7816164E-02  0.1320468E+00
        -11   -1    0    0    0    0  0.00000000000E+00  0.00000000000E+00  0.45593999997E+02  0.45594000000E+02  0.51100000000E-03 0.  1.
         11   -1    0    0    0    0 -0.00000000000E+00 -0.00000000000E+00 -0.45593999997E+02  0.45594000000E+02  0.51100000000E-03 0. -1.
    9900012    2    1    2    0    0 -0.32176817807E+01  0.42352142745E+02 -0.15001866687E+02  0.46142317907E+02  0.10000001326E+02 0.  0.
        -12    1    1    2    0    0  0.32176817807E+01 -0.42352142745E+02  0.15001866687E+02  0.45045682093E+02  0.00000000000E+00 0.  1.
         11    1    3    3    0    0  0.12618928587E+01  0.89886089971E+01 -0.39911538997E+01  0.99154815820E+01  0.51100000000E-03 0. -1.
        -11    1    3    3    0    0 -0.30285378201E+01  0.31297629622E+02 -0.82962831919E+01  0.32519870484E+02  0.51100000000E-03 0.  1.
        -12    1    3    3    0    0 -0.14510368192E+01  0.20659041267E+01 -0.27144295954E+01  0.37069658401E+01  0.00000000000E+00 0.  1.
</event>
<event>
 7    1  0.3435408E-009  0.4614232E+02  0.7816164E-02  0.1320468E+00
        -11   -1    0    0    0    0  0.00000000000E+00  0.00000000000E+00  0.45593999997E+02  0.45594000000E+02  0.51100000000E-03 0. -1.
         11   -1    0    0    0    0 -0.00000000000E+00 -0.00000000000E+00 -0.45593999997E+02  0.45594000000E+02  0.51100000000E-03 0.  1.
    9900012    2    1    2    0    0  0.46081432830E+01  0.44736815463E+02  0.25486791892E+01  0.46142318654E+02  0.10000008146E+02 0.  0.
        -12    1    1    2    0    0 -0.46081432830E+01 -0.44736815463E+02 -0.25486791892E+01  0.45045681346E+02  0.00000000000E+00 0.  1.
         11    1    3    3    0    0 -0.22884614210E+01  0.21557747286E+02  0.12963142843E+01  0.21717595509E+02  0.51100000000E-03 0. -1.
        -11    1    3    3    0    0  0.50933367176E+01  0.20665753039E+02  0.13794101142E+01  0.21328811503E+02  0.51100000000E-03 0.  1.
        -12    1    3    3    0    0  0.18032679864E+01  0.25133151377E+01 -0.12704520923E+00  0.30959116424E+01  0.00000000000E+00 0.  1.
</event>
<event>
 7    1  0.3435408E-009  0.4614232E+02  0.7816164E-02  0.1320468E+00
        -11   -1    0    0    0    0  0.00000000000E+00  0.00000000000E+00  0.45593999997E+02  0.45594000000E+02  0.51100000000E-03 0.  1.
         11   -1    0    0    0    0 -0.00000000000E+00 -0.00000000000E+00 -0.45593999997E+02  0.45594000000E+02  0.51100000000E-03 0. -1.
    9900012    2    1    2    0    0  0.41802287533E+02 -0.36020070337E+01 -0.16392313940E+02  0.46142315923E+02  0.99999832375E+01 0.  0.
        -12    1    1    2    0    0 -0.41802287533E+02  0.36020070337E+01  0.16392313940E+02  0.45045684077E+02  0.00000000000E+00 0.  1.
         11    1    3    3    0    0  0.25994857055E+02 -0.14742201906E+01 -0.12067918164E+02  0.28697396529E+02  0.51100000000E-03 0. -1.
        -11    1    3    3    0    0  0.98667649823E+01  0.41100083966E+00 -0.39469299759E+00  0.98832057416E+01  0.51100000000E-03 0.  1.
         12    1    3    3    0    0  0.59406654962E+01 -0.25387876828E+01 -0.39297027785E+01  0.75617136526E+01  0.00000000000E+00 0. -1.
</event>
<event>
 7    1  0.3435408E-009  0.4614232E+02  0.7816164E-02  0.1320468E+00
        -11   -1    0    0    0    0  0.00000000000E+00  0.00000000000E+00  0.45593999997E+02  0.45594000000E+02  0.51100000000E-03 0. -1.
         11   -1    0    0    0    0 -0.00000000000E+00 -0.00000000000E+00 -0.45593999997E+02  0.45594000000E+02  0.51100000000E-03 0.  1.
    9900012    2    1    2    0    0  0.26835157992E+02  0.80981029857E+01  0.35261998554E+02  0.46142317427E+02  0.99999969549E+01 0.  0.
        -12    1    1    2    0    0 -0.26835157992E+02 -0.80981029857E+01 -0.35261998554E+02  0.45045682573E+02  0.00000000000E+00 0.  1.
         11    1    3    3    0    0  0.96957969888E+01  0.30092902394E+01  0.67244762806E+01  0.12177146156E+02  0.51100000000E-03 0. -1.
        -11    1    3    3    0    0  0.16597770245E+02  0.38799050297E+01  0.27057897594E+02  0.31979203596E+02  0.51100000000E-03 0.  1.
        -12    1    3    3    0    0  0.54159075877E+00  0.12089077166E+01  0.14796246789E+01  0.19859676754E+01  0.00000000000E+00 0.  1.
</event>
<event>
 7    1  0.3435408E-009  0.4614231E+02  0.7816164E-02  0.1320468E+00
        -11   -1    0    0    0    0  0.00000000000E+00  0.00000000000E+00  0.45593999997E+02  0.45594000000E+02  0.51100000000E-03 0.  1.
         11   -1    0    0    0    0 -0.00000000000E+00 -0.00000000000E+00 -0.45593999997E+02  0.45594000000E+02  0.51100000000E-03 0. -1.
    9900012    2    1    2    0    0 -0.42015217112E+02 -0.10218386962E+02  0.12626170791E+02  0.46142311084E+02  0.99999391160E+01 0.  0.
        -12    1    1    2    0    0  0.42015217112E+02  0.10218386962E+02 -0.12626170791E+02  0.45045688916E+02  0.00000000000E+00 0.  1.
         11    1    3    3    0    0 -0.22423190040E+02 -0.12397636617E+01  0.64381583228E+01  0.23362070720E+02  0.51100000000E-03 0. -1.
        -11    1    3    3    0    0 -0.19756322219E+02 -0.88854065532E+01  0.59281530523E+01  0.22458978519E+02  0.51100000000E-03 0.  1.
        -12    1    3    3    0    0  0.16429514683E+00 -0.93216746838E-01  0.25985941614E+00  0.32126184542E+00  0.00000000000E+00 0.  1.
</event>
<event>
 7    1  0.3435408E-009  0.4614232E+02  0.7816164E-02  0.1320468E+00
        -11   -1    0    0    0    0  0.00000000000E+00  0.00000000000E+00  0.45593999997E+02  0.45594000000E+02  0.51100000000E-03 0.  1.
         11   -1    0    0    0    0 -0.00000000000E+00 -0.00000000000E+00 -0.45593999997E+02  0.45594000000E+02  0.51100000000E-03 0. -1.
    9900012    2    1    2    0    0  0.15415117498E+02  0.39778000205E+02 -0.14463690629E+02  0.46142317694E+02  0.99999993889E+01 0.  0.
        -12    1    1    2    0    0 -0.15415117498E+02 -0.39778000205E+02  0.14463690629E+02  0.45045682306E+02  0.00000000000E+00 0.  1.
         11    1    3    3    0    0  0.73146269264E+01  0.22251065608E+02 -0.34837246751E+01  0.23680161014E+02  0.51100000000E-03 0. -1.
        -11    1    3    3    0    0  0.71715362221E+00  0.25202727938E+01 -0.28321264288E+01  0.38583707239E+01  0.51100000000E-03 0.  1.
         12    1    3    3    0    0  0.73833369497E+01  0.15006661803E+02 -0.81478395247E+01  0.18603785956E+02  0.00000000000E+00 0. -1.
</event>
<event>
 7    1  0.3435408E-009  0.4614232E+02  0.7816164E-02  0.1320468E+00
        -11   -1    0    0    0    0  0.00000000000E+00  0.00000000000E+00  0.45593999997E+02  0.45594000000E+02  0.51100000000E-03 0. -1.
         11   -1    0    0    0    0 -0.00000000000E+00 -0.00000000000E+00 -0.45593999997E+02  0.45594000000E+02  0.51100000000E-03 0.  1.
    9900012    2    1    2    0    0  0.71184201887E+01  0.44206870647E+02  0.49187719938E+01  0.46142316119E+02  0.99999850232E+01 0.  0.
        -12    1    1    2    0    0 -0.71184201887E+01 -0.44206870647E+02 -0.49187719938E+01  0.45045683881E+02  0.00000000000E+00 0.  1.
         11    1    3    3    0    0 -0.98840397598E+00  0.17376047950E+02 -0.37370243598E+00  0.17408148625E+02  0.51100000000E-03 0. -1.
        -11    1    3    3    0    0  0.38608332923E+01  0.17006636084E+02  0.20980113662E+01  0.17565117607E+02  0.51100000000E-03 0.  1.
        -12    1    3    3    0    0  0.42459908724E+01  0.98241866140E+01  0.31944630636E+01  0.11169049887E+02  0.00000000000E+00 0.  1.
</event>
<event>
 7    1  0.3515731E-009  0.4614232E+02  0.7816164E-02  0.1320468E+00
        -11   -1    0    0    0    0  0.00000000000E+00  0.00000000000E+00  0.45593999997E+02  0.45594000000E+02  0.51100000000E-03 0. -1.
         11   -1    0    0    0    0 -0.00000000000E+00 -0.00000000000E+00 -0.45593999997E+02  0.45594000000E+02  0.51100000000E-03 0.  1.
    9900012    2    1    2    0    0  0.40517328436E+02 -0.19588031284E+02  0.19413189763E+01  0.46142316604E+02  0.99999894523E+01 0.  0.
        -12    1    1    2    0    0 -0.40517328436E+02  0.19588031284E+02 -0.19413189763E+01  0.45045683396E+02  0.00000000000E+00 0.  1.
         11    1    3    3    0    0  0.21921126424E+02 -0.14982925272E+02  0.32890531124E+01  0.26755218258E+02  0.51100000000E-03 0. -1.
        -11    1    3    3    0    0  0.28612735093E+01 -0.42646195197E-01 -0.89321007989E+00  0.29977540427E+01  0.51100000000E-03 0.  1.
         12    1    3    3    0    0  0.15734928504E+02 -0.45624598166E+01 -0.45452405618E+00  0.16389344304E+02  0.00000000000E+00 0. -1.
</event>
<event>
 7    1  0.3435408E-009  0.4614232E+02  0.7816164E-02  0.1320468E+00
        -11   -1    0    0    0    0  0.00000000000E+00  0.00000000000E+00  0.45593999997E+02  0.45594000000E+02  0.51100000000E-03 0. -1.
         11   -1    0    0    0    0 -0.00000000000E+00 -0.00000000000E+00 -0.45593999997E+02  0.45594000000E+02  0.51100000000E-03 0.  1.
    9900012    2    1    2    0    0 -0.16183414128E+01 -0.12678086101E+02  0.43194452503E+02  0.46142316265E+02  0.99999863616E+01 0.  0.
        -12    1    1    2    0    0  0.16183414128E+01  0.12678086101E+02 -0.43194452503E+02  0.45045683735E+02  0.00000000000E+00 0.  1.
         11    1    3    3    0    0  0.14967562782E+01 -0.55975358979E+01  0.96255905904E+01  0.11234975833E+02  0.51100000000E-03 0.  1.
        -11    1    3    3    0    0 -0.30339619685E+01 -0.80198860726E+01  0.28945859793E+02  0.30189175167E+02  0.51100000000E-03 0. -1.
         12    1    3    3    0    0 -0.81135722520E-01  0.93933586978E+00  0.46230021188E+01  0.47181652655E+01  0.00000000000E+00 0. -1.
</event>
<event>
 7    1  0.3435408E-009  0.4614232E+02  0.7816164E-02  0.1320468E+00
        -11   -1    0    0    0    0  0.00000000000E+00  0.00000000000E+00  0.45593999997E+02  0.45594000000E+02  0.51100000000E-03 0.  1.
         11   -1    0    0    0    0 -0.00000000000E+00 -0.00000000000E+00 -0.45593999997E+02  0.45594000000E+02  0.51100000000E-03 0. -1.
    9900012    2    1    2    0    0 -0.29999111545E+02  0.29120098093E+02 -0.16768622914E+02  0.46142317400E+02  0.99999967095E+01 0.  0.
        -12    1    1    2    0    0  0.29999111545E+02 -0.29120098093E+02  0.16768622914E+02  0.45045682600E+02  0.00000000000E+00 0.  1.
         11    1    3    3    0    0 -0.15218484842E+02  0.15751470910E+02 -0.73429401431E+01  0.23100430449E+02  0.51100000000E-03 0. -1.
        -11    1    3    3    0    0  0.24686482196E+00 -0.40135301608E+00 -0.75937488156E+00  0.89368728071E+00  0.51100000000E-03 0.  1.
        -12    1    3    3    0    0 -0.15027491526E+02  0.13769980199E+02 -0.86663078889E+01  0.22148199671E+02  0.00000000000E+00 0.  1.
</event>
<event>
 7    1  0.3435408E-009  0.4614232E+02  0.7816164E-02  0.1320468E+00
        -11   -1    0    0    0    0  0.00000000000E+00  0.00000000000E+00  0.45593999997E+02  0.45594000000E+02  0.51100000000E-03 0. -1.
         11   -1    0    0    0    0 -0.00000000000E+00 -0.00000000000E+00 -0.45593999997E+02  0.45594000000E+02  0.51100000000E-03 0.  1.
    9900012    2    1    2    0    0  0.35950783866E+02 -0.24493030596E+02  0.11693847120E+02  0.46142317978E+02  0.10000001979E+02 0.  0.
        -12    1    1    2    0    0 -0.35950783866E+02  0.24493030596E+02 -0.11693847120E+02  0.45045682022E+02  0.00000000000E+00 0.  1.
         11    1    3    3    0    0  0.93914598784E+01 -0.31246683560E+01  0.84182011456E+00  0.99333646037E+01  0.51100000000E-03 0. -1.
        -11    1    3    3    0    0  0.41882780305E+01 -0.60385957160E+01  0.33125004504E+01  0.80609534534E+01  0.51100000000E-03 0.  1.
         12    1    3    3    0    0  0.22371045957E+02 -0.15329766524E+02  0.75395265554E+01  0.28147999921E+02  0.00000000000E+00 0. -1.
</event>
<event>
 7    1  0.3435408E-009  0.4614232E+02  0.7816164E-02  0.1320468E+00
        -11   -1    0    0    0    0  0.00000000000E+00  0.00000000000E+00  0.45593999997E+02  0.45594000000E+02  0.51100000000E-03 0.  1.
         11   -1    0    0    0    0 -0.00000000000E+00 -0.00000000000E+00 -0.45593999997E+02  0.45594000000E+02  0.51100000000E-03 0. -1.
    9900012    2    1    2    0    0  0.28382978861E+02 -0.20824641009E+02 -0.28104347873E+02  0.46142317282E+02  0.99999956319E+01 0.  0.
        -12    1    1    2    0    0 -0.28382978861E+02  0.20824641009E+02  0.28104347873E+02  0.45045682718E+02  0.00000000000E+00 0.  1.
         11    1    3    3    0    0  0.18421231995E+02 -0.11980041000E+02 -0.16430044623E+02  0.27437374822E+02  0.51100000000E-03 0. -1.
        -11    1    3    3    0    0  0.68633157223E+01 -0.66883815730E+01 -0.11438925174E+02  0.14922753103E+02  0.51100000000E-03 0.  1.
         12    1    3    3    0    0  0.30984311436E+01 -0.21562184360E+01 -0.23537807644E+00  0.37821893572E+01  0.00000000000E+00 0. -1.
</event>
<event>
 7    1  0.3435408E-009  0.4614232E+02  0.7816164E-02  0.1320468E+00
        -11   -1    0    0    0    0  0.00000000000E+00  0.00000000000E+00  0.45593999997E+02  0.45594000000E+02  0.51100000000E-03 0.  1.
         11   -1    0    0    0    0 -0.00000000000E+00 -0.00000000000E+00 -0.45593999997E+02  0.45594000000E+02  0.51100000000E-03 0. -1.
    9900012    2    1    2    0    0 -0.43280159419E+02  0.28853994148E+01  0.12149727292E+02  0.46142316495E+02  0.99999884560E+01 0.  0.
        -12    1    1    2    0    0  0.43280159419E+02 -0.28853994148E+01 -0.12149727292E+02  0.45045683505E+02  0.00000000000E+00 0.  1.
         11    1    3    3    0    0 -0.22776376607E+02 -0.88345517006E+00  0.37915369846E+01  0.23106699837E+02  0.51100000000E-03 0. -1.
        -11    1    3    3    0    0 -0.76694976981E+01  0.39565896046E+01  0.34089782873E+01  0.92788431103E+01  0.51100000000E-03 0.  1.
        -12    1    3    3    0    0 -0.12834285114E+02 -0.18773501982E+00  0.49492120203E+01  0.13756773548E+02  0.00000000000E+00 0.  1.
</event>
<event>
 7    1  0.3435408E-009  0.4614232E+02  0.7816164E-02  0.1320468E+00
        -11   -1    0    0    0    0  0.00000000000E+00  0.00000000000E+00  0.45593999997E+02  0.45594000000E+02  0.51100000000E-03 0.  1.
         11   -1    0    0    0    0 -0.00000000000E+00 -0.00000000000E+00 -0.45593999997E+02  0.45594000000E+02  0.51100000000E-03 0. -1.
    9900012    2    1    2    0    0 -0.38010962683E+02  0.22795802620E+02 -0.80393793046E+01  0.46142317401E+02  0.99999967188E+01 0.  0.
        -12    1    1    2    0    0  0.38010962683E+02 -0.22795802620E+02  0.80393793046E+01  0.45045682599E+02  0.00000000000E+00 0.  1.
         11    1    3    3    0    0 -0.22694120874E+02  0.14056715189E+02 -0.76829068778E+01  0.27778434486E+02  0.51100000000E-03 0.  1.
        -11    1    3    3    0    0 -0.44726093736E+01  0.72682008926E+00 -0.16420737447E+01  0.48196377970E+01  0.51100000000E-03 0. -1.
         12    1    3    3    0    0 -0.10844232436E+02  0.80122673415E+01  0.12856013179E+01  0.13544245118E+02  0.00000000000E+00 0. -1.
</event>
<event>
 7    1  0.3435408E-009  0.4614232E+02  0.7816164E-02  0.1320468E+00
        -11   -1    0    0    0    0  0.00000000000E+00  0.00000000000E+00  0.45593999997E+02  0.45594000000E+02  0.51100000000E-03 0.  1.
         11   -1    0    0    0    0 -0.00000000000E+00 -0.00000000000E+00 -0.45593999997E+02  0.45594000000E+02  0.51100000000E-03 0. -1.
    9900012    2    1    2    0    0 -0.16266563631E+02 -0.31936657922E+02 -0.27286666654E+02  0.46142318868E+02  0.10000010089E+02 0.  0.
        -12    1    1    2    0    0  0.16266563631E+02  0.31936657922E+02  0.27286666654E+02  0.45045681132E+02  0.00000000000E+00 0.  1.
         11    1    3    3    0    0 -0.64978882165E+01 -0.20276625437E+02 -0.12692791729E+02  0.24788526631E+02  0.51100000000E-03 0. -1.
        -11    1    3    3    0    0 -0.68304680542E+01 -0.73025089624E+01 -0.73760686295E+01  0.12425309641E+02  0.51100000000E-03 0.  1.
        -12    1    3    3    0    0 -0.29382073605E+01 -0.43575235227E+01 -0.72178062959E+01  0.89284825961E+01  0.00000000000E+00 0.  1.
</event>
<event>
 7    1  0.3435408E-009  0.4614232E+02  0.7816164E-02  0.1320468E+00
        -11   -1    0    0    0    0  0.00000000000E+00  0.00000000000E+00  0.45593999997E+02  0.45594000000E+02  0.51100000000E-03 0.  1.
         11   -1    0    0    0    0 -0.00000000000E+00 -0.00000000000E+00 -0.45593999997E+02  0.45594000000E+02  0.51100000000E-03 0. -1.
    9900012    2    1    2    0    0  0.20536639797E+02  0.22460220846E+02 -0.33209915511E+02  0.46142316713E+02  0.99999904395E+01 0.  0.
        -12    1    1    2    0    0 -0.20536639797E+02 -0.22460220846E+02  0.33209915511E+02  0.45045683287E+02  0.00000000000E+00 0.  1.
         11    1    3    3    0    0  0.10596697346E+02  0.16230295006E+02 -0.24200520788E+02  0.31006090970E+02  0.51100000000E-03 0. -1.
        -11    1    3    3    0    0  0.40048332883E+01  0.31674096663E+01 -0.20833765744E+01  0.55146742309E+01  0.51100000000E-03 0.  1.
         12    1    3    3    0    0  0.59351091627E+01  0.30625161738E+01 -0.69260181487E+01  0.96215515113E+01  0.00000000000E+00 0. -1.
</event>
<event>
 7    1  0.3435408E-009  0.4614232E+02  0.7816164E-02  0.1320468E+00
        -11   -1    0    0    0    0  0.00000000000E+00  0.00000000000E+00  0.45593999997E+02  0.45594000000E+02  0.51100000000E-03 0.  1.
         11   -1    0    0    0    0 -0.00000000000E+00 -0.00000000000E+00 -0.45593999997E+02  0.45594000000E+02  0.51100000000E-03 0. -1.
    9900012    2    1    2    0    0 -0.23616767473E+02 -0.37722172437E+02 -0.69569893281E+01  0.46142315415E+02  0.99999786060E+01 0.  0.
        -12    1    1    2    0    0  0.23616767473E+02  0.37722172437E+02  0.69569893281E+01  0.45045684585E+02  0.00000000000E+00 0.  1.
         11    1    3    3    0    0 -0.15426436863E+02 -0.21828439682E+02 -0.22887957866E+01  0.26827119108E+02  0.51100000000E-03 0. -1.
        -11    1    3    3    0    0  0.56717610151E+00 -0.21376466216E+01  0.38107012436E+00  0.22442006394E+01  0.51100000000E-03 0.  1.
        -12    1    3    3    0    0 -0.87575067122E+01 -0.13756086133E+02 -0.50492636658E+01  0.17070995667E+02  0.00000000000E+00 0.  1.
</event>
<event>
 7    1  0.3435408E-009  0.4614232E+02  0.7816164E-02  0.1320468E+00
        -11   -1    0    0    0    0  0.00000000000E+00  0.00000000000E+00  0.45593999997E+02  0.45594000000E+02  0.51100000000E-03 0.  1.
         11   -1    0    0    0    0 -0.00000000000E+00 -0.00000000000E+00 -0.45593999997E+02  0.45594000000E+02  0.51100000000E-03 0. -1.
    9900012    2    1    2    0    0  0.43128673595E+02 -0.26853062541E+00 -0.12998420155E+02  0.46142317396E+02  0.99999966674E+01 0.  0.
        -12    1    1    2    0    0 -0.43128673595E+02  0.26853062541E+00  0.12998420155E+02  0.45045682604E+02  0.00000000000E+00 0.  1.
         11    1    3    3    0    0  0.24634634309E+02 -0.87717935222E+00 -0.78652670833E+01  0.25874641596E+02  0.51100000000E-03 0. -1.
        -11    1    3    3    0    0  0.11857799810E+02  0.49872150287E+00  0.14457467182E-01  0.11868291737E+02  0.51100000000E-03 0.  1.
         12    1    3    3    0    0  0.66362394752E+01  0.10992722395E+00 -0.51476105385E+01  0.83993840621E+01  0.00000000000E+00 0. -1.
</event>
<event>
 7    1  0.3435408E-009  0.4614232E+02  0.7816164E-02  0.1320468E+00
        -11   -1    0    0    0    0  0.00000000000E+00  0.00000000000E+00  0.45593999997E+02  0.45594000000E+02  0.51100000000E-03 0. -1.
         11   -1    0    0    0    0 -0.00000000000E+00 -0.00000000000E+00 -0.45593999997E+02  0.45594000000E+02  0.51100000000E-03 0.  1.
    9900012    2    1    2    0    0 -0.98183198088E+01 -0.35656383522E+02  0.25716461725E+02  0.46142317705E+02  0.99999994928E+01 0.  0.
        -12    1    1    2    0    0  0.98183198088E+01  0.35656383522E+02 -0.25716461725E+02  0.45045682295E+02  0.00000000000E+00 0.  1.
         11    1    3    3    0    0  0.38732566138E+00 -0.12237127896E+02  0.85030591201E+01  0.14906352168E+02  0.51100000000E-03 0. -1.
        -11    1    3    3    0    0 -0.84150423260E+01 -0.12954056757E+02  0.10283821405E+02  0.18557411101E+02  0.51100000000E-03 0.  1.
         12    1    3    3    0    0 -0.17906031442E+01 -0.10465198870E+02  0.69295811996E+01  0.12678554437E+02  0.00000000000E+00 0. -1.
</event>
<event>
 7    1  0.3435408E-009  0.4614232E+02  0.7816164E-02  0.1320468E+00
        -11   -1    0    0    0    0  0.00000000000E+00  0.00000000000E+00  0.45593999997E+02  0.45594000000E+02  0.51100000000E-03 0.  1.
         11   -1    0    0    0    0 -0.00000000000E+00 -0.00000000000E+00 -0.45593999997E+02  0.45594000000E+02  0.51100000000E-03 0. -1.
    9900012    2    1    2    0    0 -0.81590688663E+01 -0.19810470240E+02 -0.39624340064E+02  0.46142318060E+02  0.10000002727E+02 0.  0.
        -12    1    1    2    0    0  0.81590688663E+01  0.19810470240E+02  0.39624340064E+02  0.45045681940E+02  0.00000000000E+00 0.  1.
         11    1    3    3    0    0 -0.75288025572E+01 -0.10080346640E+02 -0.15304402679E+02  0.19812142690E+02  0.51100000000E-03 0.  1.
        -11    1    3    3    0    0 -0.11129335837E+01 -0.47467784662E+01 -0.93438326276E+01  0.10539342266E+02  0.51100000000E-03 0. -1.
        -12    1    3    3    0    0  0.48266727458E+00 -0.49833451338E+01 -0.14976104758E+02  0.15790833104E+02  0.00000000000E+00 0.  1.
</event>
<event>
 7    1  0.3435408E-009  0.4614232E+02  0.7816164E-02  0.1320468E+00
        -11   -1    0    0    0    0  0.00000000000E+00  0.00000000000E+00  0.45593999997E+02  0.45594000000E+02  0.51100000000E-03 0. -1.
         11   -1    0    0    0    0 -0.00000000000E+00 -0.00000000000E+00 -0.45593999997E+02  0.45594000000E+02  0.51100000000E-03 0.  1.
    9900012    2    1    2    0    0  0.10285397982E+02  0.35398819410E+02  0.25889142021E+02  0.46142317611E+02  0.99999986325E+01 0.  0.
        -12    1    1    2    0    0 -0.10285397982E+02 -0.35398819410E+02 -0.25889142021E+02  0.45045682389E+02  0.00000000000E+00 0.  1.
         11    1    3    3    0    0  0.59095849546E+01  0.21927944829E+02  0.13789243015E+02  0.26568800913E+02  0.51100000000E-03 0. -1.
        -11    1    3    3    0    0  0.44546171691E+01  0.13086775857E+02  0.12755349526E+02  0.18809738389E+02  0.51100000000E-03 0.  1.
        -12    1    3    3    0    0 -0.78804141217E-01  0.38409872359E+00 -0.65545051971E+00  0.76377830941E+00  0.00000000000E+00 0.  1.
</event>
<event>
 7    1  0.3435408E-009  0.4614232E+02  0.7816164E-02  0.1320468E+00
        -11   -1    0    0    0    0  0.00000000000E+00  0.00000000000E+00  0.45593999997E+02  0.45594000000E+02  0.51100000000E-03 0.  1.
         11   -1    0    0    0    0 -0.00000000000E+00 -0.00000000000E+00 -0.45593999997E+02  0.45594000000E+02  0.51100000000E-03 0. -1.
    9900012    2    1    2    0    0  0.76731871502E+01  0.29232668228E+02 -0.33401899036E+02  0.46142317055E+02  0.99999935600E+01 0.  0.
        -12    1    1    2    0    0 -0.76731871502E+01 -0.29232668228E+02  0.33401899036E+02  0.45045682945E+02  0.00000000000E+00 0.  1.
         11    1    3    3    0    0  0.19290600257E+01  0.80094963986E+01 -0.13217831715E+02  0.15575120566E+02  0.51100000000E-03 0. -1.
        -11    1    3    3    0    0  0.42401300419E+01  0.13621702822E+02 -0.86885924896E+01  0.16703925594E+02  0.51100000000E-03 0.  1.
        -12    1    3    3    0    0  0.15039970826E+01  0.76014690075E+01 -0.11495474832E+02  0.13863270895E+02  0.00000000000E+00 0.  1.
</event>
<event>
 7    1  0.3435408E-009  0.4614232E+02  0.7816164E-02  0.1320468E+00
        -11   -1    0    0    0    0  0.00000000000E+00  0.00000000000E+00  0.45593999997E+02  0.45594000000E+02  0.51100000000E-03 0.  1.
         11   -1    0    0    0    0 -0.00000000000E+00 -0.00000000000E+00 -0.45593999997E+02  0.45594000000E+02  0.51100000000E-03 0. -1.
    9900012    2    1    2    0    0  0.10809135887E+02 -0.22287919172E+02 -0.37623456721E+02  0.46142320349E+02  0.10000023597E+02 0.  0.
        -12    1    1    2    0    0 -0.10809135887E+02  0.22287919172E+02  0.37623456721E+02  0.45045679651E+02  0.00000000000E+00 0.  1.
         11    1    3    3    0    0 -0.14327640247E+00 -0.33162253931E+01 -0.10692708568E+02  0.11196066085E+02  0.51100000000E-03 0.  1.
        -11    1    3    3    0    0  0.48224909884E+01 -0.53321431867E+01 -0.10546632966E+02  0.12763997708E+02  0.51100000000E-03 0. -1.
         12    1    3    3    0    0  0.61299213015E+01 -0.13639550592E+02 -0.16384115186E+02  0.22182256557E+02  0.00000000000E+00 0. -1.
</event>
<event>
 7    1  0.3435408E-009  0.4614232E+02  0.7816164E-02  0.1320468E+00
        -11   -1    0    0    0    0  0.00000000000E+00  0.00000000000E+00  0.45593999997E+02  0.45594000000E+02  0.51100000000E-03 0.  1.
         11   -1    0    0    0    0 -0.00000000000E+00 -0.00000000000E+00 -0.45593999997E+02  0.45594000000E+02  0.51100000000E-03 0. -1.
    9900012    2    1    2    0    0 -0.23405997495E+02  0.33772626927E+02  0.18457583274E+02  0.46142318424E+02  0.10000006049E+02 0.  0.
        -12    1    1    2    0    0  0.23405997495E+02 -0.33772626927E+02 -0.18457583274E+02  0.45045681576E+02  0.00000000000E+00 0.  1.
         11    1    3    3    0    0 -0.61580258213E+01  0.98050299765E+01  0.93980545299E+01  0.14912522391E+02  0.51100000000E-03 0. -1.
        -11    1    3    3    0    0 -0.21517687488E+01  0.93721281538E+00  0.82556875453E+00  0.24879792281E+01  0.51100000000E-03 0.  1.
         12    1    3    3    0    0 -0.15096202925E+02  0.23030384135E+02  0.82339599891E+01  0.28741816805E+02  0.00000000000E+00 0. -1.
</event>
<event>
 7    1  0.3435408E-009  0.4614232E+02  0.7816164E-02  0.1320468E+00
        -11   -1    0    0    0    0  0.00000000000E+00  0.00000000000E+00  0.45593999997E+02  0.45594000000E+02  0.51100000000E-03 0.  1.
         11   -1    0    0    0    0 -0.00000000000E+00 -0.00000000000E+00 -0.45593999997E+02  0.45594000000E+02  0.51100000000E-03 0. -1.
    9900012    2    1    2    0    0 -0.76538259868E+01  0.32758086701E+02 -0.29957307027E+02  0.46142317178E+02  0.99999946865E+01 0.  0.
        -12    1    1    2    0    0  0.76538259868E+01 -0.32758086701E+02  0.29957307027E+02  0.45045682822E+02  0.00000000000E+00 0.  1.
         11    1    3    3    0    0 -0.22774082224E+00  0.12718540696E+02 -0.93856386928E+01  0.15808331893E+02  0.51100000000E-03 0. -1.
        -11    1    3    3    0    0 -0.22861299341E+01  0.10443492529E+02 -0.63862207441E+01  0.12452981247E+02  0.51100000000E-03 0.  1.
        -12    1    3    3    0    0 -0.51399552305E+01  0.95960534763E+01 -0.14185447590E+02  0.17881004038E+02  0.00000000000E+00 0.  1.
</event>
<event>
 7    1  0.3435408E-009  0.4614232E+02  0.7816164E-02  0.1320468E+00
        -11   -1    0    0    0    0  0.00000000000E+00  0.00000000000E+00  0.45593999997E+02  0.45594000000E+02  0.51100000000E-03 0.  1.
         11   -1    0    0    0    0 -0.00000000000E+00 -0.00000000000E+00 -0.45593999997E+02  0.45594000000E+02  0.51100000000E-03 0. -1.
    9900012    2    1    2    0    0 -0.65354503121E+01 -0.68288307598E+01 -0.44042802401E+02  0.46142317814E+02  0.10000000478E+02 0.  0.
        -12    1    1    2    0    0  0.65354503121E+01  0.68288307598E+01  0.44042802401E+02  0.45045682186E+02  0.00000000000E+00 0.  1.
         11    1    3    3    0    0  0.35700266392E+00 -0.37152630434E+01 -0.25566382790E+02  0.25837386857E+02  0.51100000000E-03 0. -1.
        -11    1    3    3    0    0 -0.87455925134E+00 -0.17554108927E+01 -0.24911867646E+01  0.31705414433E+01  0.51100000000E-03 0.  1.
         12    1    3    3    0    0 -0.60178937247E+01 -0.13581568237E+01 -0.15985232847E+02  0.17134389513E+02  0.00000000000E+00 0. -1.
</event>
<event>
 7    1  0.3435408E-009  0.4614231E+02  0.7816164E-02  0.1320468E+00
        -11   -1    0    0    0    0  0.00000000000E+00  0.00000000000E+00  0.45593999997E+02  0.45594000000E+02  0.51100000000E-03 0. -1.
         11   -1    0    0    0    0 -0.00000000000E+00 -0.00000000000E+00 -0.45593999997E+02  0.45594000000E+02  0.51100000000E-03 0.  1.
    9900012    2    1    2    0    0  0.44632387316E+02  0.44519360033E+01 -0.41525970407E+01  0.46142314370E+02  0.99999690764E+01 0.  0.
        -12    1    1    2    0    0 -0.44632387316E+02 -0.44519360033E+01  0.41525970407E+01  0.45045685630E+02  0.00000000000E+00 0.  1.
         11    1    3    3    0    0  0.13327644596E+02 -0.28961725848E+01 -0.12009965779E+01  0.13691468846E+02  0.51100000000E-03 0.  1.
        -11    1    3    3    0    0  0.21726937074E+02  0.46340425438E+01 -0.34575226869E+01  0.22483073818E+02  0.51100000000E-03 0. -1.
        -12    1    3    3    0    0  0.95778056465E+01  0.27140660443E+01  0.50592222417E+00  0.99677717065E+01  0.00000000000E+00 0.  1.
</event>
<event>
 7    1  0.3827615E-009  0.4614232E+02  0.7816164E-02  0.1320468E+00
        -11   -1    0    0    0    0  0.00000000000E+00  0.00000000000E+00  0.45593999997E+02  0.45594000000E+02  0.51100000000E-03 0.  1.
         11   -1    0    0    0    0 -0.00000000000E+00 -0.00000000000E+00 -0.45593999997E+02  0.45594000000E+02  0.51100000000E-03 0. -1.
    9900012    2    1    2    0    0  0.23766813331E+02  0.37400382785E+02  0.80909560762E+01  0.46142316316E+02  0.99999868226E+01 0.  0.
        -12    1    1    2    0    0 -0.23766813331E+02 -0.37400382785E+02 -0.80909560762E+01  0.45045683684E+02  0.00000000000E+00 0.  1.
         11    1    3    3    0    0  0.10668422243E+02  0.19643820384E+02  0.14658896809E+01  0.22401869235E+02  0.51100000000E-03 0. -1.
        -11    1    3    3    0    0  0.28548082067E+01  0.94768262720E+00  0.12441108270E+00  0.30105664978E+01  0.51100000000E-03 0.  1.
         12    1    3    3    0    0  0.10243582881E+02  0.16808879774E+02  0.65006553126E+01  0.20729880583E+02  0.00000000000E+00 0. -1.
</event>
<event>
 7    1  0.3435408E-009  0.4614232E+02  0.7816164E-02  0.1320468E+00
        -11   -1    0    0    0    0  0.00000000000E+00  0.00000000000E+00  0.45593999997E+02  0.45594000000E+02  0.51100000000E-03 0.  1.
         11   -1    0    0    0    0 -0.00000000000E+00 -0.00000000000E+00 -0.45593999997E+02  0.45594000000E+02  0.51100000000E-03 0. -1.
    9900012    2    1    2    0    0  0.68388499211E+01  0.44388196734E+02  0.34686734277E+01  0.46142316823E+02  0.99999914467E+01 0.  0.
        -12    1    1    2    0    0 -0.68388499211E+01 -0.44388196734E+02 -0.34686734277E+01  0.45045683177E+02  0.00000000000E+00 0.  1.
         11    1    3    3    0    0  0.78823795775E+00  0.11383950063E+02  0.21730625587E+01  0.11616274758E+02  0.51100000000E-03 0. -1.
        -11    1    3    3    0    0 -0.89412685635E+00  0.17000031785E+02 -0.10520616457E+00  0.17023854209E+02  0.51100000000E-03 0.  1.
        -12    1    3    3    0    0  0.69447388197E+01  0.16004214886E+02  0.14008170336E+01  0.17502187856E+02  0.00000000000E+00 0.  1.
</event>
<event>
 7    1  0.3435408E-009  0.4614232E+02  0.7816164E-02  0.1320468E+00
        -11   -1    0    0    0    0  0.00000000000E+00  0.00000000000E+00  0.45593999997E+02  0.45594000000E+02  0.51100000000E-03 0.  1.
         11   -1    0    0    0    0 -0.00000000000E+00 -0.00000000000E+00 -0.45593999997E+02  0.45594000000E+02  0.51100000000E-03 0. -1.
    9900012    2    1    2    0    0  0.24767424016E+02 -0.21893757775E+02 -0.30599862654E+02  0.46142317450E+02  0.99999971668E+01 0.  0.
        -12    1    1    2    0    0 -0.24767424016E+02  0.21893757775E+02  0.30599862654E+02  0.45045682550E+02  0.00000000000E+00 0.  1.
         11    1    3    3    0    0  0.12674028952E+02 -0.14704185867E+02 -0.13876758182E+02  0.23862282158E+02  0.51100000000E-03 0. -1.
        -11    1    3    3    0    0  0.21285802496E+01  0.25333612671E+00 -0.36696305508E+01  0.42498496106E+01  0.51100000000E-03 0.  1.
        -12    1    3    3    0    0  0.99648148145E+01 -0.74429080344E+01 -0.13053473922E+02  0.18030185682E+02  0.00000000000E+00 0.  1.
</event>
<event>
 7    1  0.3435408E-009  0.4614232E+02  0.7816164E-02  0.1320468E+00
        -11   -1    0    0    0    0  0.00000000000E+00  0.00000000000E+00  0.45593999997E+02  0.45594000000E+02  0.51100000000E-03 0.  1.
         11   -1    0    0    0    0 -0.00000000000E+00 -0.00000000000E+00 -0.45593999997E+02  0.45594000000E+02  0.51100000000E-03 0. -1.
    9900012    2    1    2    0    0 -0.82268656516E+01 -0.15937348499E+02 -0.41321093941E+02  0.46142320961E+02  0.10000029179E+02 0.  0.
        -12    1    1    2    0    0  0.82268656516E+01  0.15937348499E+02  0.41321093941E+02  0.45045679039E+02  0.00000000000E+00 0.  1.
         11    1    3    3    0    0 -0.46375140332E+01 -0.68905885275E+01 -0.16992005678E+02  0.18913355173E+02  0.51100000000E-03 0. -1.
        -11    1    3    3    0    0 -0.22203871632E-01 -0.53903563162E+01 -0.19383003911E+02  0.20118580345E+02  0.51100000000E-03 0.  1.
        -12    1    3    3    0    0 -0.35671477467E+01 -0.36564036553E+01 -0.49460843516E+01  0.71103854432E+01  0.00000000000E+00 0.  1.
</event>
<event>
 7    1  0.3435408E-009  0.4614232E+02  0.7816164E-02  0.1320468E+00
        -11   -1    0    0    0    0  0.00000000000E+00  0.00000000000E+00  0.45593999997E+02  0.45594000000E+02  0.51100000000E-03 0.  1.
         11   -1    0    0    0    0 -0.00000000000E+00 -0.00000000000E+00 -0.45593999997E+02  0.45594000000E+02  0.51100000000E-03 0. -1.
    9900012    2    1    2    0    0  0.16771953051E+02 -0.17037792158E+02 -0.38177594430E+02  0.46142317774E+02  0.10000000114E+02 0.  0.
        -12    1    1    2    0    0 -0.16771953051E+02  0.17037792158E+02  0.38177594430E+02  0.45045682226E+02  0.00000000000E+00 0.  1.
         11    1    3    3    0    0  0.87956089815E+00 -0.56580542173E+01 -0.10801123647E+02  0.12225034854E+02  0.51100000000E-03 0. -1.
        -11    1    3    3    0    0  0.14817089587E+02 -0.88787882854E+01 -0.23020312581E+02  0.28780441567E+02  0.51100000000E-03 0.  1.
        -12    1    3    3    0    0  0.10753025664E+01 -0.25009496551E+01 -0.43561582029E+01  0.51368413520E+01  0.00000000000E+00 0.  1.
</event>
<event>
 7    1  0.3435408E-009  0.4614232E+02  0.7816164E-02  0.1320468E+00
        -11   -1    0    0    0    0  0.00000000000E+00  0.00000000000E+00  0.45593999997E+02  0.45594000000E+02  0.51100000000E-03 0.  1.
         11   -1    0    0    0    0 -0.00000000000E+00 -0.00000000000E+00 -0.45593999997E+02  0.45594000000E+02  0.51100000000E-03 0. -1.
    9900012    2    1    2    0    0 -0.21230817808E+02 -0.42303842452E+01 -0.39502780818E+02  0.46142317987E+02  0.10000002059E+02 0.  0.
        -12    1    1    2    0    0  0.21230817808E+02  0.42303842452E+01  0.39502780818E+02  0.45045682013E+02  0.00000000000E+00 0.  1.
         11    1    3    3    0    0 -0.10146623353E+02 -0.59834100153E+00 -0.24965364146E+02  0.26955173615E+02  0.51100000000E-03 0. -1.
        -11    1    3    3    0    0 -0.84961061754E+01 -0.39091255858E+01 -0.13413510292E+02  0.16351982803E+02  0.51100000000E-03 0.  1.
         12    1    3    3    0    0 -0.25880882799E+01  0.27708234218E+00 -0.11239063805E+01  0.28351615688E+01  0.00000000000E+00 0. -1.
</event>
<event>
 7    1  0.3435408E-009  0.4614232E+02  0.7816164E-02  0.1320468E+00
        -11   -1    0    0    0    0  0.00000000000E+00  0.00000000000E+00  0.45593999997E+02  0.45594000000E+02  0.51100000000E-03 0. -1.
         11   -1    0    0    0    0 -0.00000000000E+00 -0.00000000000E+00 -0.45593999997E+02  0.45594000000E+02  0.51100000000E-03 0.  1.
    9900012    2    1    2    0    0  0.10819375164E+02  0.72203050555E+01  0.43126812086E+02  0.46142316470E+02  0.99999882255E+01 0.  0.
        -12    1    1    2    0    0 -0.10819375164E+02 -0.72203050555E+01 -0.43126812086E+02  0.45045683530E+02  0.00000000000E+00 0.  1.
         11    1    3    3    0    0  0.39876081971E+01 -0.15429118212E+00  0.12383380833E+02  0.13010493688E+02  0.51100000000E-03 0. -1.
        -11    1    3    3    0    0  0.61470349512E+01  0.64706864086E+01  0.15808565720E+02  0.18153968483E+02  0.51100000000E-03 0.  1.
        -12    1    3    3    0    0  0.68473201548E+00  0.90390982904E+00  0.14934865533E+02  0.14977854299E+02  0.00000000000E+00 0.  1.
</event>
<event>
 7    1  0.3435408E-009  0.4614232E+02  0.7816164E-02  0.1320468E+00
        -11   -1    0    0    0    0  0.00000000000E+00  0.00000000000E+00  0.45593999997E+02  0.45594000000E+02  0.51100000000E-03 0.  1.
         11   -1    0    0    0    0 -0.00000000000E+00 -0.00000000000E+00 -0.45593999997E+02  0.45594000000E+02  0.51100000000E-03 0. -1.
    9900012    2    1    2    0    0 -0.28075542567E+02  0.29425101789E+02 -0.19365975594E+02  0.46142315230E+02  0.99999769180E+01 0.  0.
        -12    1    1    2    0    0  0.28075542567E+02 -0.29425101789E+02  0.19365975594E+02  0.45045684770E+02  0.00000000000E+00 0.  1.
         11    1    3    3    0    0 -0.14223033790E+02  0.15402741938E+02 -0.80424314318E+01  0.22454840302E+02  0.51100000000E-03 0. -1.
        -11    1    3    3    0    0 -0.10198260578E+02  0.57018321695E+01 -0.56953703190E+01  0.12998178805E+02  0.51100000000E-03 0.  1.
        -12    1    3    3    0    0 -0.36542481985E+01  0.83205276814E+01 -0.56281738430E+01  0.10689296123E+02  0.00000000000E+00 0.  1.
</event>
<event>
 7    1  0.3435408E-009  0.4614231E+02  0.7816164E-02  0.1320468E+00
        -11   -1    0    0    0    0  0.00000000000E+00  0.00000000000E+00  0.45593999997E+02  0.45594000000E+02  0.51100000000E-03 0.  1.
         11   -1    0    0    0    0 -0.00000000000E+00 -0.00000000000E+00 -0.45593999997E+02  0.45594000000E+02  0.51100000000E-03 0. -1.
    9900012    2    1    2    0    0 -0.27350057577E+02 -0.33364702910E+02 -0.12957032957E+02  0.46142314826E+02  0.99999732330E+01 0.  0.
        -12    1    1    2    0    0  0.27350057577E+02  0.33364702910E+02  0.12957032957E+02  0.45045685174E+02  0.00000000000E+00 0.  1.
         11    1    3    3    0    0 -0.11598173858E+02 -0.13752260979E+02 -0.54550082271E+01  0.18798921083E+02  0.51100000000E-03 0. -1.
        -11    1    3    3    0    0 -0.15338179313E+02 -0.14321907210E+02 -0.61319726543E+01  0.21862704766E+02  0.51100000000E-03 0.  1.
        -12    1    3    3    0    0 -0.41370440629E+00 -0.52905347216E+01 -0.13700520757E+01  0.54806889773E+01  0.00000000000E+00 0.  1.
</event>
<event>
 7    1  0.3435408E-009  0.4614232E+02  0.7816164E-02  0.1320468E+00
        -11   -1    0    0    0    0  0.00000000000E+00  0.00000000000E+00  0.45593999997E+02  0.45594000000E+02  0.51100000000E-03 0. -1.
         11   -1    0    0    0    0 -0.00000000000E+00 -0.00000000000E+00 -0.45593999997E+02  0.45594000000E+02  0.51100000000E-03 0.  1.
    9900012    2    1    2    0    0 -0.11344347535E+02 -0.79132993619E+00  0.43586615378E+02  0.46142318030E+02  0.10000002454E+02 0.  0.
        -12    1    1    2    0    0  0.11344347535E+02  0.79132993619E+00 -0.43586615378E+02  0.45045681970E+02  0.00000000000E+00 0.  1.
         11    1    3    3    0    0  0.65558603228E+00  0.16497399547E+01  0.48485338571E+01  0.51633047352E+01  0.51100000000E-03 0. -1.
        -11    1    3    3    0    0 -0.60607171072E+00 -0.18065442472E+01  0.44157733243E+01  0.48093637156E+01  0.51100000000E-03 0.  1.
         12    1    3    3    0    0 -0.11393861856E+02 -0.63452564371E+00  0.34322308196E+02  0.36169649579E+02  0.00000000000E+00 0. -1.
</event>
<event>
 7    1  0.3435408E-009  0.4614232E+02  0.7816164E-02  0.1320468E+00
        -11   -1    0    0    0    0  0.00000000000E+00  0.00000000000E+00  0.45593999997E+02  0.45594000000E+02  0.51100000000E-03 0.  1.
         11   -1    0    0    0    0 -0.00000000000E+00 -0.00000000000E+00 -0.45593999997E+02  0.45594000000E+02  0.51100000000E-03 0. -1.
    9900012    2    1    2    0    0 -0.22965590961E+02 -0.14930797279E+02 -0.35759846190E+02  0.46142315689E+02  0.99999811005E+01 0.  0.
        -12    1    1    2    0    0  0.22965590961E+02  0.14930797279E+02  0.35759846190E+02  0.45045684311E+02  0.00000000000E+00 0.  1.
         11    1    3    3    0    0 -0.73293489249E+01 -0.49257556243E+01 -0.89063311179E+01  0.12542135320E+02  0.51100000000E-03 0. -1.
        -11    1    3    3    0    0 -0.71881977188E+01 -0.40901312103E+01 -0.56332608098E+01  0.10006647159E+02  0.51100000000E-03 0.  1.
        -12    1    3    3    0    0 -0.84480443170E+01 -0.59149104439E+01 -0.21220254262E+02  0.23593533209E+02  0.00000000000E+00 0.  1.
</event>
<event>
 7    1  0.3435408E-009  0.4614231E+02  0.7816164E-02  0.1320468E+00
        -11   -1    0    0    0    0  0.00000000000E+00  0.00000000000E+00  0.45593999997E+02  0.45594000000E+02  0.51100000000E-03 0.  1.
         11   -1    0    0    0    0 -0.00000000000E+00 -0.00000000000E+00 -0.45593999997E+02  0.45594000000E+02  0.51100000000E-03 0. -1.
    9900012    2    1    2    0    0 -0.17875583016E+02  0.24321435788E+02 -0.33437181255E+02  0.46142314333E+02  0.99999687389E+01 0.  0.
        -12    1    1    2    0    0  0.17875583016E+02 -0.24321435788E+02  0.33437181255E+02  0.45045685667E+02  0.00000000000E+00 0.  1.
         11    1    3    3    0    0 -0.71620538649E+01  0.11958758196E+02 -0.15154099334E+02  0.20590134532E+02  0.51100000000E-03 0. -1.
        -11    1    3    3    0    0 -0.87228328392E+00  0.47726467090E+01 -0.82873951061E+01  0.96031220258E+01  0.51100000000E-03 0.  1.
        -12    1    3    3    0    0 -0.98412458670E+01  0.75900308823E+01 -0.99956868154E+01  0.15949057775E+02  0.00000000000E+00 0.  1.
</event>
<event>
 7    1  0.3435408E-009  0.4614232E+02  0.7816164E-02  0.1320468E+00
        -11   -1    0    0    0    0  0.00000000000E+00  0.00000000000E+00  0.45593999997E+02  0.45594000000E+02  0.51100000000E-03 0.  1.
         11   -1    0    0    0    0 -0.00000000000E+00 -0.00000000000E+00 -0.45593999997E+02  0.45594000000E+02  0.51100000000E-03 0. -1.
    9900012    2    1    2    0    0 -0.36480833285E+02 -0.12425855938E+02 -0.23320816072E+02  0.46142317019E+02  0.99999932341E+01 0.  0.
        -12    1    1    2    0    0  0.36480833285E+02  0.12425855938E+02  0.23320816072E+02  0.45045682981E+02  0.00000000000E+00 0.  1.
         11    1    3    3    0    0 -0.29025865698E+02 -0.10471382704E+02 -0.17570679677E+02  0.35508865369E+02  0.51100000000E-03 0. -1.
        -11    1    3    3    0    0 -0.60383272626E+00 -0.18590328443E+01 -0.54628195322E+00  0.20295421432E+01  0.51100000000E-03 0.  1.
         12    1    3    3    0    0 -0.68511348610E+01 -0.95440389819E-01 -0.52038544415E+01  0.86039095068E+01  0.00000000000E+00 0. -1.
</event>
<event>
 7    1  0.3435408E-009  0.4614231E+02  0.7816164E-02  0.1320468E+00
        -11   -1    0    0    0    0  0.00000000000E+00  0.00000000000E+00  0.45593999997E+02  0.45594000000E+02  0.51100000000E-03 0.  1.
         11   -1    0    0    0    0 -0.00000000000E+00 -0.00000000000E+00 -0.45593999997E+02  0.45594000000E+02  0.51100000000E-03 0. -1.
    9900012    2    1    2    0    0 -0.60919558261E+01  0.39119974899E+02 -0.21485567499E+02  0.46142312386E+02  0.99999509859E+01 0.  0.
        -12    1    1    2    0    0  0.60919558261E+01 -0.39119974899E+02  0.21485567499E+02  0.45045687614E+02  0.00000000000E+00 0.  1.
         11    1    3    3    0    0 -0.11854258945E+01  0.90988275739E+01 -0.13436261498E+01  0.92735769400E+01  0.51100000000E-03 0.  1.
        -11    1    3    3    0    0 -0.39208851978E+01  0.89778844590E+01 -0.58207498221E+01  0.11395476245E+02  0.51100000000E-03 0. -1.
         12    1    3    3    0    0 -0.98564473383E+00  0.21043262866E+02 -0.14321191527E+02  0.25473259201E+02  0.00000000000E+00 0. -1.
</event>
<event>
 7    1  0.3435408E-009  0.4614232E+02  0.7816164E-02  0.1320468E+00
        -11   -1    0    0    0    0  0.00000000000E+00  0.00000000000E+00  0.45593999997E+02  0.45594000000E+02  0.51100000000E-03 0.  1.
         11   -1    0    0    0    0 -0.00000000000E+00 -0.00000000000E+00 -0.45593999997E+02  0.45594000000E+02  0.51100000000E-03 0. -1.
    9900012    2    1    2    0    0 -0.40112600767E+02  0.20422724085E+02 -0.17335387377E+01  0.46142317011E+02  0.99999931608E+01 0.  0.
        -12    1    1    2    0    0  0.40112600767E+02 -0.20422724085E+02  0.17335387377E+01  0.45045682989E+02  0.00000000000E+00 0.  1.
         11    1    3    3    0    0 -0.10048428596E+02  0.15264532765E+01  0.15726965656E+01  0.10284665848E+02  0.51100000000E-03 0. -1.
        -11    1    3    3    0    0 -0.47556240038E+01  0.45966366700E+01 -0.11031200964E+01  0.67053637150E+01  0.51100000000E-03 0.  1.
         12    1    3    3    0    0 -0.25308548167E+02  0.14299634139E+02 -0.22031152069E+01  0.29152287448E+02  0.00000000000E+00 0. -1.
</event>
<event>
 7    1  0.3435408E-009  0.4614232E+02  0.7816164E-02  0.1320468E+00
        -11   -1    0    0    0    0  0.00000000000E+00  0.00000000000E+00  0.45593999997E+02  0.45594000000E+02  0.51100000000E-03 0.  1.
         11   -1    0    0    0    0 -0.00000000000E+00 -0.00000000000E+00 -0.45593999997E+02  0.45594000000E+02  0.51100000000E-03 0. -1.
    9900012    2    1    2    0    0  0.11363932580E+01  0.44873457434E+02 -0.37676214250E+01  0.46142317156E+02  0.99999944803E+01 0.  0.
        -12    1    1    2    0    0 -0.11363932580E+01 -0.44873457434E+02  0.37676214250E+01  0.45045682844E+02  0.00000000000E+00 0.  1.
         11    1    3    3    0    0 -0.27529247493E+01  0.27758205168E+02 -0.32459552213E+01  0.28082606260E+02  0.51100000000E-03 0. -1.
        -11    1    3    3    0    0  0.62548605318E+00  0.15137425650E+01 -0.13154192653E+01  0.21007087996E+01  0.51100000000E-03 0.  1.
         12    1    3    3    0    0  0.32638319541E+01  0.15601509701E+02  0.79375306163E+00  0.15959002096E+02  0.00000000000E+00 0. -1.
</event>
<event>
 7    1  0.3435408E-009  0.4614232E+02  0.7816164E-02  0.1320468E+00
        -11   -1    0    0    0    0  0.00000000000E+00  0.00000000000E+00  0.45593999997E+02  0.45594000000E+02  0.51100000000E-03 0.  1.
         11   -1    0    0    0    0 -0.00000000000E+00 -0.00000000000E+00 -0.45593999997E+02  0.45594000000E+02  0.51100000000E-03 0. -1.
    9900012    2    1    2    0    0  0.11430808545E+01  0.21399436446E+02 -0.39621598425E+02  0.46142316791E+02  0.99999911558E+01 0.  0.
        -12    1    1    2    0    0 -0.11430808545E+01 -0.21399436446E+02  0.39621598425E+02  0.45045683209E+02  0.00000000000E+00 0.  1.
         11    1    3    3    0    0 -0.40381286278E+01  0.86575161151E+01 -0.18150991904E+02  0.20511401109E+02  0.51100000000E-03 0. -1.
        -11    1    3    3    0    0  0.74185962385E+00  0.14757079857E+01 -0.44140020718E+01  0.47129061429E+01  0.51100000000E-03 0.  1.
         12    1    3    3    0    0  0.44393498584E+01  0.11266212345E+02 -0.17056604449E+02  0.20918009539E+02  0.00000000000E+00 0. -1.
</event>
<event>
 7    1  0.3435408E-009  0.4614232E+02  0.7816164E-02  0.1320468E+00
        -11   -1    0    0    0    0  0.00000000000E+00  0.00000000000E+00  0.45593999997E+02  0.45594000000E+02  0.51100000000E-03 0. -1.
         11   -1    0    0    0    0 -0.00000000000E+00 -0.00000000000E+00 -0.45593999997E+02  0.45594000000E+02  0.51100000000E-03 0.  1.
    9900012    2    1    2    0    0 -0.15235620087E+02 -0.17922934552E+02  0.38415592965E+02  0.46142317795E+02  0.10000000313E+02 0.  0.
        -12    1    1    2    0    0  0.15235620087E+02  0.17922934552E+02 -0.38415592965E+02  0.45045682205E+02  0.00000000000E+00 0.  1.
         11    1    3    3    0    0 -0.77891621760E+01 -0.10124373687E+02  0.13111579937E+02  0.18305395889E+02  0.51100000000E-03 0. -1.
        -11    1    3    3    0    0 -0.32834726023E+01 -0.41475151087E+01  0.17399875186E+02  0.18186223650E+02  0.51100000000E-03 0.  1.
        -12    1    3    3    0    0 -0.41629853087E+01 -0.36510457563E+01  0.79041378431E+01  0.96506982565E+01  0.00000000000E+00 0.  1.
</event>
<event>
 7    1  0.3435408E-009  0.4614232E+02  0.7816164E-02  0.1320468E+00
        -11   -1    0    0    0    0  0.00000000000E+00  0.00000000000E+00  0.45593999997E+02  0.45594000000E+02  0.51100000000E-03 0.  1.
         11   -1    0    0    0    0 -0.00000000000E+00 -0.00000000000E+00 -0.45593999997E+02  0.45594000000E+02  0.51100000000E-03 0. -1.
    9900012    2    1    2    0    0 -0.38654157645E+02 -0.82115032077E+01 -0.21622689693E+02  0.46142318767E+02  0.10000009175E+02 0.  0.
        -12    1    1    2    0    0  0.38654157645E+02  0.82115032077E+01  0.21622689693E+02  0.45045681233E+02  0.00000000000E+00 0.  1.
         11    1    3    3    0    0 -0.58447820731E+00 -0.93837873503E+00 -0.21575274022E+00  0.11263742412E+01  0.51100000000E-03 0. -1.
        -11    1    3    3    0    0 -0.13028382065E+02 -0.19682736442E+01 -0.30714599751E+01  0.13529475489E+02  0.51100000000E-03 0.  1.
         12    1    3    3    0    0 -0.25041297372E+02 -0.53048508285E+01 -0.18335476978E+02  0.31486469037E+02  0.00000000000E+00 0. -1.
</event>
<event>
 7    1  0.3435408E-009  0.4614232E+02  0.7816164E-02  0.1320468E+00
        -11   -1    0    0    0    0  0.00000000000E+00  0.00000000000E+00  0.45593999997E+02  0.45594000000E+02  0.51100000000E-03 0. -1.
         11   -1    0    0    0    0 -0.00000000000E+00 -0.00000000000E+00 -0.45593999997E+02  0.45594000000E+02  0.51100000000E-03 0.  1.
    9900012    2    1    2    0    0 -0.16230336416E+02 -0.32135847225E+02  0.27073547654E+02  0.46142317858E+02  0.10000000883E+02 0.  0.
        -12    1    1    2    0    0  0.16230336416E+02  0.32135847225E+02 -0.27073547654E+02  0.45045682142E+02  0.00000000000E+00 0.  1.
         11    1    3    3    0    0 -0.38383770772E+01 -0.75788555935E+01  0.11060924789E+02  0.13946908193E+02  0.51100000000E-03 0. -1.
        -11    1    3    3    0    0 -0.17074620749E+01 -0.46872421073E+01  0.97548698895E+00  0.50830345696E+01  0.51100000000E-03 0.  1.
         12    1    3    3    0    0 -0.10684497264E+02 -0.19869749525E+02  0.15037135876E+02  0.27112375096E+02  0.00000000000E+00 0. -1.
</event>
<event>
 7    1  0.3435408E-009  0.4614232E+02  0.7816164E-02  0.1320468E+00
        -11   -1    0    0    0    0  0.00000000000E+00  0.00000000000E+00  0.45593999997E+02  0.45594000000E+02  0.51100000000E-03 0.  1.
         11   -1    0    0    0    0 -0.00000000000E+00 -0.00000000000E+00 -0.45593999997E+02  0.45594000000E+02  0.51100000000E-03 0. -1.
    9900012    2    1    2    0    0  0.26223968064E+02 -0.34643301409E+02  0.11885229640E+02  0.46142317442E+02  0.99999970858E+01 0.  0.
        -12    1    1    2    0    0 -0.26223968064E+02  0.34643301409E+02 -0.11885229640E+02  0.45045682558E+02  0.00000000000E+00 0.  1.
         11    1    3    3    0    0  0.96712952579E+01 -0.19671312576E+02  0.35508931920E+01  0.22205930134E+02  0.51100000000E-03 0. -1.
        -11    1    3    3    0    0  0.72126985654E+01 -0.51816040273E+01  0.27344501060E+01  0.92924301738E+01  0.51100000000E-03 0.  1.
         12    1    3    3    0    0  0.93399742411E+01 -0.97903848061E+01  0.55998863425E+01  0.14643957133E+02  0.00000000000E+00 0. -1.
</event>
<event>
 7    1  0.3435408E-009  0.4614232E+02  0.7816164E-02  0.1320468E+00
        -11   -1    0    0    0    0  0.00000000000E+00  0.00000000000E+00  0.45593999997E+02  0.45594000000E+02  0.51100000000E-03 0.  1.
         11   -1    0    0    0    0 -0.00000000000E+00 -0.00000000000E+00 -0.45593999997E+02  0.45594000000E+02  0.51100000000E-03 0. -1.
    9900012    2    1    2    0    0 -0.28672539927E+02 -0.34666302257E+02 -0.22905224234E+01  0.46142317066E+02  0.99999936577E+01 0.  0.
        -12    1    1    2    0    0  0.28672539927E+02  0.34666302257E+02  0.22905224234E+01  0.45045682934E+02  0.00000000000E+00 0.  1.
         11    1    3    3    0    0 -0.61367512709E+01 -0.40387961377E+01 -0.39439247441E-01  0.73466418259E+01  0.51100000000E-03 0. -1.
        -11    1    3    3    0    0 -0.15921531775E+01 -0.46112907716E+01  0.16951859512E+01  0.51645532227E+01  0.51100000000E-03 0.  1.
        -12    1    3    3    0    0 -0.20943635479E+02 -0.26016215348E+02 -0.39462691271E+01  0.33631122017E+02  0.00000000000E+00 0.  1.
</event>
<event>
 7    1  0.3435408E-009  0.4614232E+02  0.7816164E-02  0.1320468E+00
        -11   -1    0    0    0    0  0.00000000000E+00  0.00000000000E+00  0.45593999997E+02  0.45594000000E+02  0.51100000000E-03 0.  1.
         11   -1    0    0    0    0 -0.00000000000E+00 -0.00000000000E+00 -0.45593999997E+02  0.45594000000E+02  0.51100000000E-03 0. -1.
    9900012    2    1    2    0    0  0.35052780603E+02  0.20431036752E+02 -0.19570101547E+02  0.46142316907E+02  0.99999922118E+01 0.  0.
        -12    1    1    2    0    0 -0.35052780603E+02 -0.20431036752E+02  0.19570101547E+02  0.45045683093E+02  0.00000000000E+00 0.  1.
         11    1    3    3    0    0  0.12859985888E+01 -0.26498645732E+00 -0.63729360536E+00  0.14595045713E+01  0.51100000000E-03 0.  1.
        -11    1    3    3    0    0  0.14749116803E+02  0.53659601621E+01 -0.10310572901E+02  0.18778655137E+02  0.51100000000E-03 0. -1.
        -12    1    3    3    0    0  0.19017665211E+02  0.15330063047E+02 -0.86222350413E+01  0.25904157199E+02  0.00000000000E+00 0.  1.
</event>
<event>
 7    1  0.3435408E-009  0.4614232E+02  0.7816164E-02  0.1320468E+00
        -11   -1    0    0    0    0  0.00000000000E+00  0.00000000000E+00  0.45593999997E+02  0.45594000000E+02  0.51100000000E-03 0. -1.
         11   -1    0    0    0    0 -0.00000000000E+00 -0.00000000000E+00 -0.45593999997E+02  0.45594000000E+02  0.51100000000E-03 0.  1.
    9900012    2    1    2    0    0 -0.89282307458E+01 -0.41437723306E+02  0.15241890210E+02  0.46142318362E+02  0.10000005482E+02 0.  0.
        -12    1    1    2    0    0  0.89282307458E+01  0.41437723306E+02 -0.15241890210E+02  0.45045681638E+02  0.00000000000E+00 0.  1.
         11    1    3    3    0    0 -0.10193955619E+02 -0.29052080020E+02  0.13036232575E+02  0.33434764013E+02  0.51100000000E-03 0. -1.
        -11    1    3    3    0    0  0.23892206170E+00 -0.67008235424E+01  0.72608489921E+00  0.67442804983E+01  0.51100000000E-03 0.  1.
         12    1    3    3    0    0  0.10268028115E+01 -0.56848197440E+01  0.14795727365E+01  0.59632738507E+01  0.00000000000E+00 0. -1.
</event>
<event>
 7    1  0.3435408E-009  0.4614232E+02  0.7816164E-02  0.1320468E+00
        -11   -1    0    0    0    0  0.00000000000E+00  0.00000000000E+00  0.45593999997E+02  0.45594000000E+02  0.51100000000E-03 0.  1.
         11   -1    0    0    0    0 -0.00000000000E+00 -0.00000000000E+00 -0.45593999997E+02  0.45594000000E+02  0.51100000000E-03 0. -1.
    9900012    2    1    2    0    0  0.34204013159E+02  0.28525395895E+02 -0.67454263235E+01  0.46142317594E+02  0.99999984733E+01 0.  0.
        -12    1    1    2    0    0 -0.34204013159E+02 -0.28525395895E+02  0.67454263235E+01  0.45045682406E+02  0.00000000000E+00 0.  1.
         11    1    3    3    0    0  0.13086758337E+02  0.10466371653E+02 -0.34968405092E+01  0.17118296445E+02  0.51100000000E-03 0. -1.
        -11    1    3    3    0    0  0.83303815781E+01  0.11622842284E+02  0.19159518564E+00  0.14301133835E+02  0.51100000000E-03 0.  1.
        -12    1    3    3    0    0  0.12786873244E+02  0.64361819584E+01 -0.34401809999E+01  0.14722887314E+02  0.00000000000E+00 0.  1.
</event>
<event>
 7    1  0.3435408E-009  0.4614232E+02  0.7816164E-02  0.1320468E+00
        -11   -1    0    0    0    0  0.00000000000E+00  0.00000000000E+00  0.45593999997E+02  0.45594000000E+02  0.51100000000E-03 0.  1.
         11   -1    0    0    0    0 -0.00000000000E+00 -0.00000000000E+00 -0.45593999997E+02  0.45594000000E+02  0.51100000000E-03 0. -1.
    9900012    2    1    2    0    0  0.34525204307E+02  0.83850436220E+01 -0.27691419362E+02  0.46142318795E+02  0.10000009427E+02 0.  0.
        -12    1    1    2    0    0 -0.34525204307E+02 -0.83850436220E+01  0.27691419362E+02  0.45045681205E+02  0.00000000000E+00 0.  1.
         11    1    3    3    0    0  0.45634023052E+01 -0.11254030795E+01 -0.71691541520E+01  0.85725109628E+01  0.51100000000E-03 0. -1.
        -11    1    3    3    0    0  0.13485988065E+02  0.43972762212E+01 -0.83976019361E+01  0.16484163030E+02  0.51100000000E-03 0.  1.
         12    1    3    3    0    0  0.16475813937E+02  0.51131704803E+01 -0.12124663274E+02  0.21085644803E+02  0.00000000000E+00 0. -1.
</event>
<event>
 7    1  0.3435408E-009  0.4614232E+02  0.7816164E-02  0.1320468E+00
        -11   -1    0    0    0    0  0.00000000000E+00  0.00000000000E+00  0.45593999997E+02  0.45594000000E+02  0.51100000000E-03 0.  1.
         11   -1    0    0    0    0 -0.00000000000E+00 -0.00000000000E+00 -0.45593999997E+02  0.45594000000E+02  0.51100000000E-03 0. -1.
    9900012    2    1    2    0    0  0.33938012679E+02  0.11590355814E+02 -0.27257813588E+02  0.46142318141E+02  0.10000003468E+02 0.  0.
        -12    1    1    2    0    0 -0.33938012679E+02 -0.11590355814E+02  0.27257813588E+02  0.45045681859E+02  0.00000000000E+00 0.  1.
         11    1    3    3    0    0  0.30505149206E+02  0.12998896869E+02 -0.23845585820E+02  0.40842960364E+02  0.51100000000E-03 0. -1.
        -11    1    3    3    0    0  0.21308689620E+01 -0.37084974544E+00 -0.27710537446E+01  0.35152341577E+01  0.51100000000E-03 0.  1.
         12    1    3    3    0    0  0.13019945113E+01 -0.10376913105E+01 -0.64117402361E+00  0.17841236201E+01  0.00000000000E+00 0. -1.
</event>
<event>
 7    1  0.3435408E-009  0.4614232E+02  0.7816164E-02  0.1320468E+00
        -11   -1    0    0    0    0  0.00000000000E+00  0.00000000000E+00  0.45593999997E+02  0.45594000000E+02  0.51100000000E-03 0.  1.
         11   -1    0    0    0    0 -0.00000000000E+00 -0.00000000000E+00 -0.45593999997E+02  0.45594000000E+02  0.51100000000E-03 0. -1.
    9900012    2    1    2    0    0 -0.19859499579E+02  0.23249803337E+02 -0.33078096073E+02  0.46142317426E+02  0.99999969468E+01 0.  0.
        -12    1    1    2    0    0  0.19859499579E+02 -0.23249803337E+02  0.33078096073E+02  0.45045682574E+02  0.00000000000E+00 0.  1.
         11    1    3    3    0    0 -0.17618780086E+01  0.35004146473E+01 -0.14641904062E+01  0.41834161432E+01  0.51100000000E-03 0. -1.
        -11    1    3    3    0    0 -0.62721357952E+01  0.38639105813E+01 -0.55427707641E+01  0.92190997619E+01  0.51100000000E-03 0.  1.
         12    1    3    3    0    0 -0.11825485775E+02  0.15885478108E+02 -0.26071134903E+02  0.32739801521E+02  0.00000000000E+00 0. -1.
</event>
<event>
 7    1  0.3435408E-009  0.4614232E+02  0.7816164E-02  0.1320468E+00
        -11   -1    0    0    0    0  0.00000000000E+00  0.00000000000E+00  0.45593999997E+02  0.45594000000E+02  0.51100000000E-03 0.  1.
         11   -1    0    0    0    0 -0.00000000000E+00 -0.00000000000E+00 -0.45593999997E+02  0.45594000000E+02  0.51100000000E-03 0. -1.
    9900012    2    1    2    0    0  0.35550535409E+02  0.25313136034E+02 -0.11158763164E+02  0.46142318530E+02  0.10000007009E+02 0.  0.
        -12    1    1    2    0    0 -0.35550535409E+02 -0.25313136034E+02  0.11158763164E+02  0.45045681470E+02  0.00000000000E+00 0.  1.
         11    1    3    3    0    0  0.15776452987E+02  0.87467396526E+01 -0.26414924850E+01  0.18231275496E+02  0.51100000000E-03 0. -1.
        -11    1    3    3    0    0  0.18238158254E+02  0.14363064895E+02 -0.94547138740E+01  0.25066305359E+02  0.51100000000E-03 0.  1.
         12    1    3    3    0    0  0.15359241681E+01  0.22033314871E+01  0.93744319522E+00  0.28447376744E+01  0.00000000000E+00 0. -1.
</event>
<event>
 7    1  0.3435408E-009  0.4614232E+02  0.7816164E-02  0.1320468E+00
        -11   -1    0    0    0    0  0.00000000000E+00  0.00000000000E+00  0.45593999997E+02  0.45594000000E+02  0.51100000000E-03 0.  1.
         11   -1    0    0    0    0 -0.00000000000E+00 -0.00000000000E+00 -0.45593999997E+02  0.45594000000E+02  0.51100000000E-03 0. -1.
    9900012    2    1    2    0    0  0.23460234131E+02  0.38372976466E+02 -0.24991026184E+01  0.46142318495E+02  0.10000006692E+02 0.  0.
        -12    1    1    2    0    0 -0.23460234131E+02 -0.38372976466E+02  0.24991026184E+01  0.45045681505E+02  0.00000000000E+00 0.  1.
         11    1    3    3    0    0  0.23061419813E+01  0.72996047702E+00 -0.11409093259E+01  0.26744733102E+01  0.51100000000E-03 0. -1.
        -11    1    3    3    0    0  0.49349778303E+01  0.88778348857E+01 -0.23684701541E+01  0.10429746381E+02  0.51100000000E-03 0.  1.
         12    1    3    3    0    0  0.16219114320E+02  0.28765181103E+02  0.10102768616E+01  0.33038098804E+02  0.00000000000E+00 0. -1.
</event>
<event>
 7    1  0.3435408E-009  0.4614232E+02  0.7816164E-02  0.1320468E+00
        -11   -1    0    0    0    0  0.00000000000E+00  0.00000000000E+00  0.45593999997E+02  0.45594000000E+02  0.51100000000E-03 0.  1.
         11   -1    0    0    0    0 -0.00000000000E+00 -0.00000000000E+00 -0.45593999997E+02  0.45594000000E+02  0.51100000000E-03 0. -1.
    9900012    2    1    2    0    0 -0.17885918440E+02  0.29950444713E+02 -0.28498741367E+02  0.46142317894E+02  0.10000001208E+02 0.  0.
        -12    1    1    2    0    0  0.17885918440E+02 -0.29950444713E+02  0.28498741367E+02  0.45045682106E+02  0.00000000000E+00 0.  1.
         11    1    3    3    0    0 -0.53515554408E+01  0.15160799325E+02 -0.92028457788E+01  0.18525154588E+02  0.51100000000E-03 0. -1.
        -11    1    3    3    0    0  0.21752058480E-01 -0.17117686468E+00 -0.42416855357E+00  0.45792345868E+00  0.51100000000E-03 0.  1.
         12    1    3    3    0    0 -0.12556115057E+02  0.14960822252E+02 -0.18871727035E+02  0.27159239847E+02  0.00000000000E+00 0. -1.
</event>
<event>
 7    1  0.3435408E-009  0.4614232E+02  0.7816164E-02  0.1320468E+00
        -11   -1    0    0    0    0  0.00000000000E+00  0.00000000000E+00  0.45593999997E+02  0.45594000000E+02  0.51100000000E-03 0. -1.
         11   -1    0    0    0    0 -0.00000000000E+00 -0.00000000000E+00 -0.45593999997E+02  0.45594000000E+02  0.51100000000E-03 0.  1.
    9900012    2    1    2    0    0 -0.18581026682E+02 -0.39702876460E+02  0.10370174542E+02  0.46142317945E+02  0.10000001674E+02 0.  0.
        -12    1    1    2    0    0  0.18581026682E+02  0.39702876460E+02 -0.10370174542E+02  0.45045682055E+02  0.00000000000E+00 0.  1.
         11    1    3    3    0    0 -0.49129015457E+01 -0.12099700292E+02  0.68362908086E+01  0.14740224593E+02  0.51100000000E-03 0. -1.
        -11    1    3    3    0    0 -0.60825690700E+01 -0.17776660711E+02  0.20520441782E+01  0.18900216879E+02  0.51100000000E-03 0.  1.
         12    1    3    3    0    0 -0.75855560665E+01 -0.98265154574E+01  0.14818395551E+01  0.12501876473E+02  0.00000000000E+00 0. -1.
</event>
<event>
 7    1  0.3435408E-009  0.4614232E+02  0.7816164E-02  0.1320468E+00
        -11   -1    0    0    0    0  0.00000000000E+00  0.00000000000E+00  0.45593999997E+02  0.45594000000E+02  0.51100000000E-03 0. -1.
         11   -1    0    0    0    0 -0.00000000000E+00 -0.00000000000E+00 -0.45593999997E+02  0.45594000000E+02  0.51100000000E-03 0.  1.
    9900012    2    1    2    0    0 -0.42752439245E+02  0.86524681843E+01 -0.11246211004E+02  0.46142317310E+02  0.99999958823E+01 0.  0.
        -12    1    1    2    0    0  0.42752439245E+02 -0.86524681843E+01  0.11246211004E+02  0.45045682690E+02  0.00000000000E+00 0.  1.
         11    1    3    3    0    0 -0.81514870913E+01 -0.64438439104E+00 -0.22011435684E+01  0.84679989556E+01  0.51100000000E-03 0. -1.
        -11    1    3    3    0    0 -0.21380477378E+02  0.33997811305E+01 -0.82786093243E+01  0.23177978714E+02  0.51100000000E-03 0.  1.
         12    1    3    3    0    0 -0.13220474776E+02  0.58970714448E+01 -0.76645811134E+00  0.14496339640E+02  0.00000000000E+00 0. -1.
</event>
<event>
 7    1  0.3435408E-009  0.4614232E+02  0.7816164E-02  0.1320468E+00
        -11   -1    0    0    0    0  0.00000000000E+00  0.00000000000E+00  0.45593999997E+02  0.45594000000E+02  0.51100000000E-03 0.  1.
         11   -1    0    0    0    0 -0.00000000000E+00 -0.00000000000E+00 -0.45593999997E+02  0.45594000000E+02  0.51100000000E-03 0. -1.
    9900012    2    1    2    0    0  0.31834231128E+02 -0.31230699120E+02 -0.63512751441E+01  0.46142317244E+02  0.99999952836E+01 0.  0.
        -12    1    1    2    0    0 -0.31834231128E+02  0.31230699120E+02  0.63512751441E+01  0.45045682756E+02  0.00000000000E+00 0.  1.
         11    1    3    3    0    0  0.85429310558E+01 -0.83027971085E+01  0.18792825684E+01  0.12060257629E+02  0.51100000000E-03 0. -1.
        -11    1    3    3    0    0  0.21202992278E+02 -0.21181115680E+02 -0.60053707167E+01  0.30565847293E+02  0.51100000000E-03 0.  1.
        -12    1    3    3    0    0  0.20883077937E+01 -0.17467863311E+01 -0.22251869958E+01  0.35162123221E+01  0.00000000000E+00 0.  1.
</event>
<event>
 7    1  0.3435408E-009  0.4614232E+02  0.7816164E-02  0.1320468E+00
        -11   -1    0    0    0    0  0.00000000000E+00  0.00000000000E+00  0.45593999997E+02  0.45594000000E+02  0.51100000000E-03 0. -1.
         11   -1    0    0    0    0 -0.00000000000E+00 -0.00000000000E+00 -0.45593999997E+02  0.45594000000E+02  0.51100000000E-03 0.  1.
    9900012    2    1    2    0    0  0.13034735678E+02  0.68401323379E+01  0.42572546622E+02  0.46142317960E+02  0.10000001816E+02 0.  0.
        -12    1    1    2    0    0 -0.13034735678E+02 -0.68401323379E+01 -0.42572546622E+02  0.45045682040E+02  0.00000000000E+00 0.  1.
         11    1    3    3    0    0  0.90121758725E+01  0.72177088737E+01  0.22352311798E+02  0.25158308336E+02  0.51100000000E-03 0. -1.
        -11    1    3    3    0    0  0.17454681464E+00 -0.14939240728E+01  0.39222685967E+01  0.42007698023E+01  0.51100000000E-03 0.  1.
        -12    1    3    3    0    0  0.38480129906E+01  0.11163475370E+01  0.16297966227E+02  0.16783239822E+02  0.00000000000E+00 0.  1.
</event>
<event>
 7    1  0.3435408E-009  0.4614232E+02  0.7816164E-02  0.1320468E+00
        -11   -1    0    0    0    0  0.00000000000E+00  0.00000000000E+00  0.45593999997E+02  0.45594000000E+02  0.51100000000E-03 0.  1.
         11   -1    0    0    0    0 -0.00000000000E+00 -0.00000000000E+00 -0.45593999997E+02  0.45594000000E+02  0.51100000000E-03 0. -1.
    9900012    2    1    2    0    0 -0.20572466270E+02  0.34821070785E+02 -0.19833812587E+02  0.46142318068E+02  0.10000002795E+02 0.  0.
        -12    1    1    2    0    0  0.20572466270E+02 -0.34821070785E+02  0.19833812587E+02  0.45045681932E+02  0.00000000000E+00 0.  1.
         11    1    3    3    0    0 -0.14389443334E+02  0.27475282393E+02 -0.16362974114E+02  0.35066995083E+02  0.51100000000E-03 0. -1.
        -11    1    3    3    0    0  0.28781418838E+00  0.22335864097E+01 -0.47635602516E+00  0.23018819649E+01  0.51100000000E-03 0.  1.
         12    1    3    3    0    0 -0.64708371245E+01  0.51122019822E+01 -0.29944824472E+01  0.87734410196E+01  0.00000000000E+00 0. -1.
</event>
<event>
 7    1  0.3435408E-009  0.4614232E+02  0.7816164E-02  0.1320468E+00
        -11   -1    0    0    0    0  0.00000000000E+00  0.00000000000E+00  0.45593999997E+02  0.45594000000E+02  0.51100000000E-03 0.  1.
         11   -1    0    0    0    0 -0.00000000000E+00 -0.00000000000E+00 -0.45593999997E+02  0.45594000000E+02  0.51100000000E-03 0. -1.
    9900012    2    1    2    0    0  0.38977998694E+02 -0.64721179503E+01 -0.21631939397E+02  0.46142317687E+02  0.99999993266E+01 0.  0.
        -12    1    1    2    0    0 -0.38977998694E+02  0.64721179503E+01  0.21631939397E+02  0.45045682313E+02  0.00000000000E+00 0.  1.
         11    1    3    3    0    0  0.14049077734E+02 -0.16906450348E+01 -0.10657904035E+02  0.17715128689E+02  0.51100000000E-03 0. -1.
        -11    1    3    3    0    0  0.16953404788E+02 -0.48202198382E+01 -0.10321033050E+02  0.20424891106E+02  0.51100000000E-03 0.  1.
         12    1    3    3    0    0  0.79755161724E+01  0.38746922729E-01 -0.65300231198E+00  0.80022978925E+01  0.00000000000E+00 0. -1.
</event>
<event>
 7    1  0.3435408E-009  0.4614232E+02  0.7816164E-02  0.1320468E+00
        -11   -1    0    0    0    0  0.00000000000E+00  0.00000000000E+00  0.45593999997E+02  0.45594000000E+02  0.51100000000E-03 0. -1.
         11   -1    0    0    0    0 -0.00000000000E+00 -0.00000000000E+00 -0.45593999997E+02  0.45594000000E+02  0.51100000000E-03 0.  1.
    9900012    2    1    2    0    0  0.40590056004E+02  0.19488836728E+02 -0.13214602995E+01  0.46142315847E+02  0.99999825482E+01 0.  0.
        -12    1    1    2    0    0 -0.40590056004E+02 -0.19488836728E+02  0.13214602995E+01  0.45045684153E+02  0.00000000000E+00 0.  1.
         11    1    3    3    0    0  0.19596013454E+02  0.10608837486E+02 -0.25186194673E+01  0.22425312046E+02  0.51100000000E-03 0.  1.
        -11    1    3    3    0    0  0.19800762300E+02  0.70920875126E+01  0.25355749134E+01  0.21184830265E+02  0.51100000000E-03 0. -1.
        -12    1    3    3    0    0  0.11932802503E+01  0.17879117292E+01 -0.13384157456E+01  0.25321735358E+01  0.00000000000E+00 0.  1.
</event>
<event>
 7    1  0.3435408E-009  0.4614232E+02  0.7816164E-02  0.1320468E+00
        -11   -1    0    0    0    0  0.00000000000E+00  0.00000000000E+00  0.45593999997E+02  0.45594000000E+02  0.51100000000E-03 0. -1.
         11   -1    0    0    0    0 -0.00000000000E+00 -0.00000000000E+00 -0.45593999997E+02  0.45594000000E+02  0.51100000000E-03 0.  1.
    9900012    2    1    2    0    0 -0.40420979272E+02 -0.19851165774E+02  0.10905152189E+01  0.46142316840E+02  0.99999916035E+01 0.  0.
        -12    1    1    2    0    0  0.40420979272E+02  0.19851165774E+02 -0.10905152189E+01  0.45045683160E+02  0.00000000000E+00 0.  1.
         11    1    3    3    0    0 -0.21193741044E+01 -0.35305357586E+01 -0.14833205052E+01  0.43768332524E+01  0.51100000000E-03 0. -1.
        -11    1    3    3    0    0 -0.78152054364E+01 -0.27069264540E+01 -0.92727465242E-01  0.82712444943E+01  0.51100000000E-03 0.  1.
         12    1    3    3    0    0 -0.30486399731E+02 -0.13613703562E+02  0.26665631894E+01  0.33494239094E+02  0.00000000000E+00 0. -1.
</event>
<event>
 7    1  0.3435408E-009  0.4614232E+02  0.7816164E-02  0.1320468E+00
        -11   -1    0    0    0    0  0.00000000000E+00  0.00000000000E+00  0.45593999997E+02  0.45594000000E+02  0.51100000000E-03 0. -1.
         11   -1    0    0    0    0 -0.00000000000E+00 -0.00000000000E+00 -0.45593999997E+02  0.45594000000E+02  0.51100000000E-03 0.  1.
    9900012    2    1    2    0    0  0.82949255304E+01  0.40365975769E+02  0.18190535780E+02  0.46142318950E+02  0.10000010841E+02 0.  0.
        -12    1    1    2    0    0 -0.82949255304E+01 -0.40365975769E+02 -0.18190535780E+02  0.45045681050E+02  0.00000000000E+00 0.  1.
         11    1    3    3    0    0  0.24042603061E+01  0.30398104013E+01  0.40469452277E+01  0.56034525814E+01  0.51100000000E-03 0. -1.
        -11    1    3    3    0    0 -0.27828992374E+00  0.86007945130E+01  0.29050377168E+01  0.90824201584E+01  0.51100000000E-03 0.  1.
         12    1    3    3    0    0  0.61689551480E+01  0.28725370854E+02  0.11238552835E+02  0.31456446210E+02  0.00000000000E+00 0. -1.
</event>
<event>
 7    1  0.3435408E-009  0.4614232E+02  0.7816164E-02  0.1320468E+00
        -11   -1    0    0    0    0  0.00000000000E+00  0.00000000000E+00  0.45593999997E+02  0.45594000000E+02  0.51100000000E-03 0.  1.
         11   -1    0    0    0    0 -0.00000000000E+00 -0.00000000000E+00 -0.45593999997E+02  0.45594000000E+02  0.51100000000E-03 0. -1.
    9900012    2    1    2    0    0 -0.24926174935E+02  0.96954612471E+00 -0.37508124401E+02  0.46142316381E+02  0.99999874186E+01 0.  0.
        -12    1    1    2    0    0  0.24926174935E+02 -0.96954612471E+00  0.37508124401E+02  0.45045683619E+02  0.00000000000E+00 0.  1.
         11    1    3    3    0    0 -0.30715214774E+01 -0.23127832098E+01 -0.48837591567E+01  0.62156507401E+01  0.51100000000E-03 0. -1.
        -11    1    3    3    0    0 -0.19384738877E+01  0.18779152295E+01 -0.65644822785E+01  0.70976527436E+01  0.51100000000E-03 0.  1.
         12    1    3    3    0    0 -0.19916179569E+02  0.14044141050E+01 -0.26059882966E+02  0.32829012898E+02  0.00000000000E+00 0. -1.
</event>
<event>
 7    1  0.3435408E-009  0.4614232E+02  0.7816164E-02  0.1320468E+00
        -11   -1    0    0    0    0  0.00000000000E+00  0.00000000000E+00  0.45593999997E+02  0.45594000000E+02  0.51100000000E-03 0.  1.
         11   -1    0    0    0    0 -0.00000000000E+00 -0.00000000000E+00 -0.45593999997E+02  0.45594000000E+02  0.51100000000E-03 0. -1.
    9900012    2    1    2    0    0 -0.24895171454E+02  0.22505015875E+02 -0.30047761396E+02  0.46142320227E+02  0.10000022489E+02 0.  0.
        -12    1    1    2    0    0  0.24895171454E+02 -0.22505015875E+02  0.30047761396E+02  0.45045679773E+02  0.00000000000E+00 0.  1.
         11    1    3    3    0    0 -0.11252174675E+02  0.12645464575E+02 -0.10241153948E+02  0.19783842996E+02  0.51100000000E-03 0. -1.
        -11    1    3    3    0    0 -0.27264218097E+01  0.70859199839E-01 -0.29731668969E+01  0.40346150459E+01  0.51100000000E-03 0.  1.
        -12    1    3    3    0    0 -0.10916574969E+02  0.97886921000E+01 -0.16833440551E+02  0.22323862186E+02  0.00000000000E+00 0.  1.
</event>
<event>
 7    1  0.3435408E-009  0.4614230E+02  0.7816164E-02  0.1320468E+00
        -11   -1    0    0    0    0  0.00000000000E+00  0.00000000000E+00  0.45593999997E+02  0.45594000000E+02  0.51100000000E-03 0.  1.
         11   -1    0    0    0    0 -0.00000000000E+00 -0.00000000000E+00 -0.45593999997E+02  0.45594000000E+02  0.51100000000E-03 0. -1.
    9900012    2    1    2    0    0  0.76478147382E+01 -0.44074453122E+02 -0.52979430784E+01  0.46142304433E+02  0.99998784622E+01 0.  0.
        -12    1    1    2    0    0 -0.76478147382E+01  0.44074453122E+02  0.52979430784E+01  0.45045695567E+02  0.00000000000E+00 0.  1.
         11    1    3    3    0    0  0.77684582275E+01 -0.21713866816E+02 -0.35090543364E+01  0.23327117651E+02  0.51100000000E-03 0. -1.
        -11    1    3    3    0    0  0.12291065470E+01 -0.19538551141E+02 -0.20046672407E+01  0.19679542032E+02  0.51100000000E-03 0.  1.
        -12    1    3    3    0    0 -0.13497500362E+01 -0.28220351652E+01  0.21577849861E+00  0.31356447494E+01  0.00000000000E+00 0.  1.
</event>
<event>
 7    1  0.3435408E-009  0.4614231E+02  0.7816164E-02  0.1320468E+00
        -11   -1    0    0    0    0  0.00000000000E+00  0.00000000000E+00  0.45593999997E+02  0.45594000000E+02  0.51100000000E-03 0.  1.
         11   -1    0    0    0    0 -0.00000000000E+00 -0.00000000000E+00 -0.45593999997E+02  0.45594000000E+02  0.51100000000E-03 0. -1.
    9900012    2    1    2    0    0  0.18366862743E+02 -0.45676282458E+01 -0.40876759893E+02  0.46142307929E+02  0.99999103417E+01 0.  0.
        -12    1    1    2    0    0 -0.18366862743E+02  0.45676282458E+01  0.40876759893E+02  0.45045692071E+02  0.00000000000E+00 0.  1.
         11    1    3    3    0    0  0.11388877867E+02 -0.19245962674E+01 -0.29452078935E+02  0.31635985266E+02  0.51100000000E-03 0. -1.
        -11    1    3    3    0    0  0.59960000912E+01 -0.12642419695E+01 -0.51413966952E+01  0.79990177577E+01  0.51100000000E-03 0.  1.
         12    1    3    3    0    0  0.98198478441E+00 -0.13787900089E+01 -0.62832842627E+01  0.65073049053E+01  0.00000000000E+00 0. -1.
</event>
<event>
 7    1  0.3435408E-009  0.4614232E+02  0.7816164E-02  0.1320468E+00
        -11   -1    0    0    0    0  0.00000000000E+00  0.00000000000E+00  0.45593999997E+02  0.45594000000E+02  0.51100000000E-03 0. -1.
         11   -1    0    0    0    0 -0.00000000000E+00 -0.00000000000E+00 -0.45593999997E+02  0.45594000000E+02  0.51100000000E-03 0.  1.
    9900012    2    1    2    0    0  0.44178133821E+02  0.87343257959E+01 -0.10571117738E+01  0.46142318295E+02  0.10000004867E+02 0.  0.
        -12    1    1    2    0    0 -0.44178133821E+02 -0.87343257959E+01  0.10571117738E+01  0.45045681705E+02  0.00000000000E+00 0.  1.
         11    1    3    3    0    0  0.24416745999E+02  0.31689313564E+01  0.21030869454E+01  0.24711183421E+02  0.51100000000E-03 0. -1.
        -11    1    3    3    0    0  0.88759952912E+01  0.51383954752E+01 -0.81943121610E+00  0.10288725298E+02  0.51100000000E-03 0.  1.
        -12    1    3    3    0    0  0.10885392531E+02  0.42699896425E+00 -0.23407675031E+01  0.11142409576E+02  0.00000000000E+00 0.  1.
</event>
<event>
 7    1  0.3435408E-009  0.4614230E+02  0.7816164E-02  0.1320468E+00
        -11   -1    0    0    0    0  0.00000000000E+00  0.00000000000E+00  0.45593999997E+02  0.45594000000E+02  0.51100000000E-03 0.  1.
         11   -1    0    0    0    0 -0.00000000000E+00 -0.00000000000E+00 -0.45593999997E+02  0.45594000000E+02  0.51100000000E-03 0. -1.
    9900012    2    1    2    0    0 -0.36651548854E+02 -0.24664642757E+02 -0.87996609281E+01  0.46142304666E+02  0.99998805844E+01 0.  0.
        -12    1    1    2    0    0  0.36651548854E+02  0.24664642757E+02  0.87996609281E+01  0.45045695334E+02  0.00000000000E+00 0.  1.
         11    1    3    3    0    0 -0.17052842485E+02 -0.13900086519E+02 -0.53057591584E+01  0.22631016825E+02  0.51100000000E-03 0. -1.
        -11    1    3    3    0    0 -0.53641944833E+01 -0.91713418598E+00 -0.29585590697E+01  0.61942545637E+01  0.51100000000E-03 0.  1.
        -12    1    3    3    0    0 -0.14234511886E+02 -0.98474220516E+01 -0.53534269998E+00  0.17317033277E+02  0.00000000000E+00 0.  1.
</event>
<event>
 7    1  0.3435408E-009  0.4614232E+02  0.7816164E-02  0.1320468E+00
        -11   -1    0    0    0    0  0.00000000000E+00  0.00000000000E+00  0.45593999997E+02  0.45594000000E+02  0.51100000000E-03 0.  1.
         11   -1    0    0    0    0 -0.00000000000E+00 -0.00000000000E+00 -0.45593999997E+02  0.45594000000E+02  0.51100000000E-03 0. -1.
    9900012    2    1    2    0    0 -0.16314491200E+02  0.41255068320E+02 -0.78083348087E+01  0.46142318989E+02  0.10000011201E+02 0.  0.
        -12    1    1    2    0    0  0.16314491200E+02 -0.41255068320E+02  0.78083348087E+01  0.45045681011E+02  0.00000000000E+00 0.  1.
         11    1    3    3    0    0 -0.91627016531E+00  0.73378237212E+00 -0.78355561059E+00  0.14113636107E+01  0.51100000000E-03 0. -1.
        -11    1    3    3    0    0 -0.56307482048E+01  0.13495290781E+02 -0.64659628623E+01  0.15988648304E+02  0.51100000000E-03 0.  1.
        -12    1    3    3    0    0 -0.97674728301E+01  0.27025995167E+02 -0.55881633589E+00  0.28742307074E+02  0.00000000000E+00 0.  1.
</event>
<event>
 7    1  0.3435408E-009  0.4614232E+02  0.7816164E-02  0.1320468E+00
        -11   -1    0    0    0    0  0.00000000000E+00  0.00000000000E+00  0.45593999997E+02  0.45594000000E+02  0.51100000000E-03 0. -1.
         11   -1    0    0    0    0 -0.00000000000E+00 -0.00000000000E+00 -0.45593999997E+02  0.45594000000E+02  0.51100000000E-03 0.  1.
    9900012    2    1    2    0    0 -0.36345318351E+02  0.22500177370E+02  0.14208210723E+02  0.46142318746E+02  0.10000008979E+02 0.  0.
        -12    1    1    2    0    0  0.36345318351E+02 -0.22500177370E+02 -0.14208210723E+02  0.45045681254E+02  0.00000000000E+00 0.  1.
         11    1    3    3    0    0 -0.84052539071E+01  0.38402839482E+01  0.56932814738E+01  0.10854009777E+02  0.51100000000E-03 0. -1.
        -11    1    3    3    0    0 -0.30313449916E+00  0.24269506075E+00  0.12266673717E+01  0.12866641050E+01  0.51100000000E-03 0.  1.
         12    1    3    3    0    0 -0.27636929945E+02  0.18417198361E+02  0.72882618777E+01  0.34001644864E+02  0.00000000000E+00 0. -1.
</event>
<event>
 7    1  0.3435408E-009  0.4614231E+02  0.7816164E-02  0.1320468E+00
        -11   -1    0    0    0    0  0.00000000000E+00  0.00000000000E+00  0.45593999997E+02  0.45594000000E+02  0.51100000000E-03 0.  1.
         11   -1    0    0    0    0 -0.00000000000E+00 -0.00000000000E+00 -0.45593999997E+02  0.45594000000E+02  0.51100000000E-03 0. -1.
    9900012    2    1    2    0    0  0.19724652827E+02  0.11018646225E+02 -0.38969747995E+02  0.46142314829E+02  0.99999732600E+01 0.  0.
        -12    1    1    2    0    0 -0.19724652827E+02 -0.11018646225E+02  0.38969747995E+02  0.45045685171E+02  0.00000000000E+00 0.  1.
         11    1    3    3    0    0  0.57881589124E+01  0.21919797974E+01 -0.52223009686E+01  0.80981471149E+01  0.51100000000E-03 0. -1.
        -11    1    3    3    0    0  0.11038564098E+02  0.65091407254E+01 -0.19594613685E+02  0.23412981357E+02  0.51100000000E-03 0.  1.
        -12    1    3    3    0    0  0.28979298164E+01  0.23175257024E+01 -0.14152833342E+02  0.14631186356E+02  0.00000000000E+00 0.  1.
</event>
<event>
 7    1  0.3435408E-009  0.4614232E+02  0.7816164E-02  0.1320468E+00
        -11   -1    0    0    0    0  0.00000000000E+00  0.00000000000E+00  0.45593999997E+02  0.45594000000E+02  0.51100000000E-03 0.  1.
         11   -1    0    0    0    0 -0.00000000000E+00 -0.00000000000E+00 -0.45593999997E+02  0.45594000000E+02  0.51100000000E-03 0. -1.
    9900012    2    1    2    0    0  0.38759658392E+02 -0.14865895869E+02 -0.17487352657E+02  0.46142317836E+02  0.10000000683E+02 0.  0.
        -12    1    1    2    0    0 -0.38759658392E+02  0.14865895869E+02  0.17487352657E+02  0.45045682164E+02  0.00000000000E+00 0.  1.
         11    1    3    3    0    0  0.30519211746E+02 -0.10479808869E+02 -0.12015218004E+02  0.34432748126E+02  0.51100000000E-03 0. -1.
        -11    1    3    3    0    0  0.38855295156E+01 -0.23063252003E+01 -0.14406394242E+00  0.45207554930E+01  0.51100000000E-03 0.  1.
        -12    1    3    3    0    0  0.43549171301E+01 -0.20797617996E+01 -0.53280707105E+01  0.71888142171E+01  0.00000000000E+00 0.  1.
</event>
<event>
 7    1  0.3435408E-009  0.4614232E+02  0.7816164E-02  0.1320468E+00
        -11   -1    0    0    0    0  0.00000000000E+00  0.00000000000E+00  0.45593999997E+02  0.45594000000E+02  0.51100000000E-03 0.  1.
         11   -1    0    0    0    0 -0.00000000000E+00 -0.00000000000E+00 -0.45593999997E+02  0.45594000000E+02  0.51100000000E-03 0. -1.
    9900012    2    1    2    0    0  0.36337569987E+02  0.70761413064E+01 -0.25663648026E+02  0.46142316540E+02  0.99999888673E+01 0.  0.
        -12    1    1    2    0    0 -0.36337569987E+02 -0.70761413064E+01  0.25663648026E+02  0.45045683460E+02  0.00000000000E+00 0.  1.
         11    1    3    3    0    0  0.72058938845E+01  0.21434315841E+01 -0.18315539681E+01  0.77378159599E+01  0.51100000000E-03 0. -1.
        -11    1    3    3    0    0  0.10823125462E+02  0.29172987484E+01 -0.12448216933E+02  0.16751381490E+02  0.51100000000E-03 0.  1.
         12    1    3    3    0    0  0.18308550640E+02  0.20154109739E+01 -0.11383877126E+02  0.21653119090E+02  0.00000000000E+00 0. -1.
</event>
<event>
 7    1  0.3435408E-009  0.4614232E+02  0.7816164E-02  0.1320468E+00
        -11   -1    0    0    0    0  0.00000000000E+00  0.00000000000E+00  0.45593999997E+02  0.45594000000E+02  0.51100000000E-03 0.  1.
         11   -1    0    0    0    0 -0.00000000000E+00 -0.00000000000E+00 -0.45593999997E+02  0.45594000000E+02  0.51100000000E-03 0. -1.
    9900012    2    1    2    0    0 -0.44977996557E+02  0.11726131562E+01 -0.21721770930E+01  0.46142317086E+02  0.99999938428E+01 0.  0.
        -12    1    1    2    0    0  0.44977996557E+02 -0.11726131562E+01  0.21721770930E+01  0.45045682914E+02  0.00000000000E+00 0.  1.
         11    1    3    3    0    0 -0.28181768493E+02 -0.82214958177E+00 -0.36617548855E+01  0.28430554944E+02  0.51100000000E-03 0. -1.
        -11    1    3    3    0    0 -0.45053740646E+01  0.52964426261E+00  0.26930063720E+01  0.52755286074E+01  0.51100000000E-03 0.  1.
         12    1    3    3    0    0 -0.12290853999E+02  0.14651184753E+01 -0.12034285795E+01  0.12436233535E+02  0.00000000000E+00 0. -1.
</event>
<event>
 7    1  0.3435408E-009  0.4614232E+02  0.7816164E-02  0.1320468E+00
        -11   -1    0    0    0    0  0.00000000000E+00  0.00000000000E+00  0.45593999997E+02  0.45594000000E+02  0.51100000000E-03 0.  1.
         11   -1    0    0    0    0 -0.00000000000E+00 -0.00000000000E+00 -0.45593999997E+02  0.45594000000E+02  0.51100000000E-03 0. -1.
    9900012    2    1    2    0    0 -0.37558742381E+02  0.14351289797E+02 -0.20309965646E+02  0.46142319268E+02  0.10000013737E+02 0.  0.
        -12    1    1    2    0    0  0.37558742381E+02 -0.14351289797E+02  0.20309965646E+02  0.45045680732E+02  0.00000000000E+00 0.  1.
         11    1    3    3    0    0 -0.30971495674E+01  0.60738606554E+00 -0.16292323545E+01  0.35518518552E+01  0.51100000000E-03 0. -1.
        -11    1    3    3    0    0 -0.43914760749E+01  0.48643923175E+01 -0.11030333686E+01  0.66456043825E+01  0.51100000000E-03 0.  1.
        -12    1    3    3    0    0 -0.30070116739E+02  0.88795114144E+01 -0.17577699923E+02  0.35944863030E+02  0.00000000000E+00 0.  1.
</event>
<event>
 7    1  0.3435408E-009  0.4614232E+02  0.7816164E-02  0.1320468E+00
        -11   -1    0    0    0    0  0.00000000000E+00  0.00000000000E+00  0.45593999997E+02  0.45594000000E+02  0.51100000000E-03 0.  1.
         11   -1    0    0    0    0 -0.00000000000E+00 -0.00000000000E+00 -0.45593999997E+02  0.45594000000E+02  0.51100000000E-03 0. -1.
    9900012    2    1    2    0    0  0.15507242311E+02  0.11804359009E+02 -0.40611526698E+02  0.46142317005E+02  0.99999931076E+01 0.  0.
        -12    1    1    2    0    0 -0.15507242311E+02 -0.11804359009E+02  0.40611526698E+02  0.45045682995E+02  0.00000000000E+00 0.  1.
         11    1    3    3    0    0 -0.11244722419E-01 -0.32853872501E+00  0.25775091563E+00  0.41773189158E+00  0.51100000000E-03 0. -1.
        -11    1    3    3    0    0  0.96574715291E+01  0.10046431422E+02 -0.24106941913E+02  0.27844967037E+02  0.51100000000E-03 0.  1.
         12    1    3    3    0    0  0.58610155045E+01  0.20864663126E+01 -0.16762335701E+02  0.17879618077E+02  0.00000000000E+00 0. -1.
</event>
<event>
 7    1  0.3435408E-009  0.4614232E+02  0.7816164E-02  0.1320468E+00
        -11   -1    0    0    0    0  0.00000000000E+00  0.00000000000E+00  0.45593999997E+02  0.45594000000E+02  0.51100000000E-03 0. -1.
         11   -1    0    0    0    0 -0.00000000000E+00 -0.00000000000E+00 -0.45593999997E+02  0.45594000000E+02  0.51100000000E-03 0.  1.
    9900012    2    1    2    0    0  0.12416365619E+02  0.20637311391E+02  0.38066372308E+02  0.46142318106E+02  0.10000003146E+02 0.  0.
        -12    1    1    2    0    0 -0.12416365619E+02 -0.20637311391E+02 -0.38066372308E+02  0.45045681894E+02  0.00000000000E+00 0.  1.
         11    1    3    3    0    0  0.55105783419E+01  0.14278764010E+02  0.18977985188E+02  0.24380596740E+02  0.51100000000E-03 0. -1.
        -11    1    3    3    0    0  0.60436159428E+01  0.55104576186E+01  0.11700953089E+02  0.14275949715E+02  0.51100000000E-03 0.  1.
        -12    1    3    3    0    0  0.86217133480E+00  0.84808976194E+00  0.73874340304E+01  0.74857716509E+01  0.00000000000E+00 0.  1.
</event>
<event>
 7    1  0.3435408E-009  0.4614232E+02  0.7816164E-02  0.1320468E+00
        -11   -1    0    0    0    0  0.00000000000E+00  0.00000000000E+00  0.45593999997E+02  0.45594000000E+02  0.51100000000E-03 0. -1.
         11   -1    0    0    0    0 -0.00000000000E+00 -0.00000000000E+00 -0.45593999997E+02  0.45594000000E+02  0.51100000000E-03 0.  1.
    9900012    2    1    2    0    0  0.16108992932E+02 -0.28151122352E+02  0.31259048009E+02  0.46142318460E+02  0.10000006374E+02 0.  0.
        -12    1    1    2    0    0 -0.16108992932E+02  0.28151122352E+02 -0.31259048009E+02  0.45045681540E+02  0.00000000000E+00 0.  1.
         11    1    3    3    0    0  0.79573123545E+01 -0.14166244554E+02  0.18962366732E+02  0.24971436823E+02  0.51100000000E-03 0. -1.
        -11    1    3    3    0    0  0.46872576076E+00 -0.27052027953E+01  0.49774442969E+01  0.56844329526E+01  0.51100000000E-03 0.  1.
         12    1    3    3    0    0  0.76829548168E+01 -0.11279675003E+02  0.73192369804E+01  0.15486448685E+02  0.00000000000E+00 0. -1.
</event>
<event>
 7    1  0.3435408E-009  0.4614232E+02  0.7816164E-02  0.1320468E+00
        -11   -1    0    0    0    0  0.00000000000E+00  0.00000000000E+00  0.45593999997E+02  0.45594000000E+02  0.51100000000E-03 0.  1.
         11   -1    0    0    0    0 -0.00000000000E+00 -0.00000000000E+00 -0.45593999997E+02  0.45594000000E+02  0.51100000000E-03 0. -1.
    9900012    2    1    2    0    0 -0.32694869849E+02 -0.25427090488E+02 -0.17709381306E+02  0.46142316174E+02  0.99999855256E+01 0.  0.
        -12    1    1    2    0    0  0.32694869849E+02  0.25427090488E+02  0.17709381306E+02  0.45045683826E+02  0.00000000000E+00 0.  1.
         11    1    3    3    0    0 -0.13869934676E+02 -0.82850865611E+01 -0.24142099868E+01  0.16335426452E+02  0.51100000000E-03 0.  1.
        -11    1    3    3    0    0 -0.10379156977E+02 -0.10912204245E+02 -0.83182067337E+01  0.17204524537E+02  0.51100000000E-03 0. -1.
         12    1    3    3    0    0 -0.84457781964E+01 -0.62297996819E+01 -0.69769645857E+01  0.12602365185E+02  0.00000000000E+00 0. -1.
</event>
<event>
 7    1  0.3435408E-009  0.4614232E+02  0.7816164E-02  0.1320468E+00
        -11   -1    0    0    0    0  0.00000000000E+00  0.00000000000E+00  0.45593999997E+02  0.45594000000E+02  0.51100000000E-03 0. -1.
         11   -1    0    0    0    0 -0.00000000000E+00 -0.00000000000E+00 -0.45593999997E+02  0.45594000000E+02  0.51100000000E-03 0.  1.
    9900012    2    1    2    0    0 -0.31975029648E+02  0.31184280712E+02 -0.58524897886E+01  0.46142317396E+02  0.99999966718E+01 0.  0.
        -12    1    1    2    0    0  0.31975029648E+02 -0.31184280712E+02  0.58524897886E+01  0.45045682604E+02  0.00000000000E+00 0.  1.
         11    1    3    3    0    0 -0.11012726123E+02  0.11860216331E+02  0.12395530388E+01  0.16232108923E+02  0.51100000000E-03 0. -1.
        -11    1    3    3    0    0 -0.64807786136E+01  0.31298326057E+01 -0.30305182594E+01  0.78089938378E+01  0.51100000000E-03 0.  1.
         12    1    3    3    0    0 -0.14481524912E+02  0.16194231775E+02 -0.40615245680E+01  0.22101214635E+02  0.00000000000E+00 0. -1.
</event>
<event>
 7    1  0.3435408E-009  0.4614232E+02  0.7816164E-02  0.1320468E+00
        -11   -1    0    0    0    0  0.00000000000E+00  0.00000000000E+00  0.45593999997E+02  0.45594000000E+02  0.51100000000E-03 0.  1.
         11   -1    0    0    0    0 -0.00000000000E+00 -0.00000000000E+00 -0.45593999997E+02  0.45594000000E+02  0.51100000000E-03 0. -1.
    9900012    2    1    2    0    0  0.42473964196E+02 -0.68102347870E-01 -0.15002379358E+02  0.46142315869E+02  0.99999827459E+01 0.  0.
        -12    1    1    2    0    0 -0.42473964196E+02  0.68102347870E-01  0.15002379358E+02  0.45045684131E+02  0.00000000000E+00 0.  1.
         11    1    3    3    0    0  0.18977384646E+02  0.34296069767E+01 -0.36246102760E+01  0.19622464981E+02  0.51100000000E-03 0.  1.
        -11    1    3    3    0    0  0.35446367117E+01 -0.16696155865E+01 -0.17534665133E+01  0.42926344707E+01  0.51100000000E-03 0. -1.
         12    1    3    3    0    0  0.19951942838E+02 -0.18280937381E+01 -0.96243025685E+01  0.22227216417E+02  0.00000000000E+00 0. -1.
</event>
<event>
 7    1  0.3435408E-009  0.4614232E+02  0.7816164E-02  0.1320468E+00
        -11   -1    0    0    0    0  0.00000000000E+00  0.00000000000E+00  0.45593999997E+02  0.45594000000E+02  0.51100000000E-03 0.  1.
         11   -1    0    0    0    0 -0.00000000000E+00 -0.00000000000E+00 -0.45593999997E+02  0.45594000000E+02  0.51100000000E-03 0. -1.
    9900012    2    1    2    0    0  0.30884287161E+02  0.15319470028E+02 -0.28992898421E+02  0.46142317474E+02  0.99999973802E+01 0.  0.
        -12    1    1    2    0    0 -0.30884287161E+02 -0.15319470028E+02  0.28992898421E+02  0.45045682526E+02  0.00000000000E+00 0.  1.
         11    1    3    3    0    0  0.12881575957E+02  0.67169814483E+01 -0.13322820078E+02  0.19711681156E+02  0.51100000000E-03 0. -1.
        -11    1    3    3    0    0  0.30487871368E+01  0.43154833435E+01 -0.64852295622E+01  0.83652078413E+01  0.51100000000E-03 0.  1.
        -12    1    3    3    0    0  0.14953924067E+02  0.42870052366E+01 -0.91848487813E+01  0.18065428476E+02  0.00000000000E+00 0.  1.
</event>
<event>
 7    1  0.3435408E-009  0.4614232E+02  0.7816164E-02  0.1320468E+00
        -11   -1    0    0    0    0  0.00000000000E+00  0.00000000000E+00  0.45593999997E+02  0.45594000000E+02  0.51100000000E-03 0. -1.
         11   -1    0    0    0    0 -0.00000000000E+00 -0.00000000000E+00 -0.45593999997E+02  0.45594000000E+02  0.51100000000E-03 0.  1.
    9900012    2    1    2    0    0 -0.96623391476E+00 -0.39543868242E+02  0.21551390580E+02  0.46142316972E+02  0.99999928031E+01 0.  0.
        -12    1    1    2    0    0  0.96623391476E+00  0.39543868242E+02 -0.21551390580E+02  0.45045683028E+02  0.00000000000E+00 0.  1.
         11    1    3    3    0    0  0.13254657061E+00 -0.35828613807E+02  0.16912651920E+02  0.39620006704E+02  0.51100000000E-03 0. -1.
        -11    1    3    3    0    0  0.26390794042E+00 -0.16865434939E+01  0.33490083224E+01  0.37589803620E+01  0.51100000000E-03 0.  1.
        -12    1    3    3    0    0 -0.13626884258E+01 -0.20287109411E+01  0.12897303372E+01  0.27633299063E+01  0.00000000000E+00 0.  1.
</event>
<event>
 7    1  0.3435408E-009  0.4614232E+02  0.7816164E-02  0.1320468E+00
        -11   -1    0    0    0    0  0.00000000000E+00  0.00000000000E+00  0.45593999997E+02  0.45594000000E+02  0.51100000000E-03 0. -1.
         11   -1    0    0    0    0 -0.00000000000E+00 -0.00000000000E+00 -0.45593999997E+02  0.45594000000E+02  0.51100000000E-03 0.  1.
    9900012    2    1    2    0    0  0.36082432920E+02 -0.25063508910E+02  0.99494767468E+01  0.46142317279E+02  0.99999956024E+01 0.  0.
        -12    1    1    2    0    0 -0.36082432920E+02  0.25063508910E+02 -0.99494767468E+01  0.45045682721E+02  0.00000000000E+00 0.  1.
         11    1    3    3    0    0  0.13652295807E+02 -0.50542639662E+01  0.13116583641E+01  0.14616812681E+02  0.51100000000E-03 0. -1.
        -11    1    3    3    0    0  0.13390187051E+02 -0.10399347846E+02  0.31912109708E+01  0.17251880262E+02  0.51100000000E-03 0.  1.
         12    1    3    3    0    0  0.90399500624E+01 -0.96098970980E+01  0.54466074119E+01  0.14273624335E+02  0.00000000000E+00 0. -1.
</event>
<event>
 7    1  0.3435408E-009  0.4614232E+02  0.7816164E-02  0.1320468E+00
        -11   -1    0    0    0    0  0.00000000000E+00  0.00000000000E+00  0.45593999997E+02  0.45594000000E+02  0.51100000000E-03 0.  1.
         11   -1    0    0    0    0 -0.00000000000E+00 -0.00000000000E+00 -0.45593999997E+02  0.45594000000E+02  0.51100000000E-03 0. -1.
    9900012    2    1    2    0    0  0.11794966849E+02  0.53503376040E-01 -0.43474008832E+02  0.46142317082E+02  0.99999938087E+01 0.  0.
        -12    1    1    2    0    0 -0.11794966849E+02 -0.53503376040E-01  0.43474008832E+02  0.45045682918E+02  0.00000000000E+00 0.  1.
         11    1    3    3    0    0  0.48667057922E+01 -0.28501425004E+01 -0.17306795204E+02  0.18202562952E+02  0.51100000000E-03 0. -1.
        -11    1    3    3    0    0  0.77048861253E+00  0.35063778391E+01 -0.10388351624E+02  0.10991186832E+02  0.51100000000E-03 0.  1.
         12    1    3    3    0    0  0.61577724438E+01 -0.60273196268E+00 -0.15778862005E+02  0.16948567298E+02  0.00000000000E+00 0. -1.
</event>
<event>
 7    1  0.3435408E-009  0.4614232E+02  0.7816164E-02  0.1320468E+00
        -11   -1    0    0    0    0  0.00000000000E+00  0.00000000000E+00  0.45593999997E+02  0.45594000000E+02  0.51100000000E-03 0.  1.
         11   -1    0    0    0    0 -0.00000000000E+00 -0.00000000000E+00 -0.45593999997E+02  0.45594000000E+02  0.51100000000E-03 0. -1.
    9900012    2    1    2    0    0  0.29025584259E+02  0.30973810867E+02 -0.15074877403E+02  0.46142318410E+02  0.10000005917E+02 0.  0.
        -12    1    1    2    0    0 -0.29025584259E+02 -0.30973810867E+02  0.15074877403E+02  0.45045681590E+02  0.00000000000E+00 0.  1.
         11    1    3    3    0    0  0.13389084344E+02  0.14416260623E+02 -0.68660546546E+01  0.20838398611E+02  0.51100000000E-03 0. -1.
        -11    1    3    3    0    0  0.99194527590E+01  0.10197329752E+02 -0.12545805312E+01  0.14281283195E+02  0.51100000000E-03 0.  1.
        -12    1    3    3    0    0  0.57170471566E+01  0.63602204919E+01 -0.69542422170E+01  0.11022636604E+02  0.00000000000E+00 0.  1.
</event>
<event>
 7    1  0.3435408E-009  0.4614232E+02  0.7816164E-02  0.1320468E+00
        -11   -1    0    0    0    0  0.00000000000E+00  0.00000000000E+00  0.45593999997E+02  0.45594000000E+02  0.51100000000E-03 0. -1.
         11   -1    0    0    0    0 -0.00000000000E+00 -0.00000000000E+00 -0.45593999997E+02  0.45594000000E+02  0.51100000000E-03 0.  1.
    9900012    2    1    2    0    0  0.29296909600E+02 -0.26146114723E+02  0.22072275570E+02  0.46142316788E+02  0.99999911273E+01 0.  0.
        -12    1    1    2    0    0 -0.29296909600E+02  0.26146114723E+02 -0.22072275570E+02  0.45045683212E+02  0.00000000000E+00 0.  1.
         11    1    3    3    0    0  0.19365868773E+02 -0.16697261732E+02  0.14470583814E+02  0.29380830806E+02  0.51100000000E-03 0. -1.
        -11    1    3    3    0    0  0.27822043918E+01 -0.51143820823E+01  0.59338522036E+00  0.58523219018E+01  0.51100000000E-03 0.  1.
         12    1    3    3    0    0  0.71488364344E+01 -0.43344709085E+01  0.70083065360E+01  0.10909164080E+02  0.00000000000E+00 0. -1.
</event>
<event>
 7    1  0.3435408E-009  0.4614232E+02  0.7816164E-02  0.1320468E+00
        -11   -1    0    0    0    0  0.00000000000E+00  0.00000000000E+00  0.45593999997E+02  0.45594000000E+02  0.51100000000E-03 0.  1.
         11   -1    0    0    0    0 -0.00000000000E+00 -0.00000000000E+00 -0.45593999997E+02  0.45594000000E+02  0.51100000000E-03 0. -1.
    9900012    2    1    2    0    0 -0.28235335078E+02  0.76528538142E+01 -0.34253659995E+02  0.46142317171E+02  0.99999946199E+01 0.  0.
        -12    1    1    2    0    0  0.28235335078E+02 -0.76528538142E+01  0.34253659995E+02  0.45045682829E+02  0.00000000000E+00 0.  1.
         11    1    3    3    0    0 -0.45153115537E+01  0.47256830979E+01 -0.10339376199E+02  0.12232040697E+02  0.51100000000E-03 0. -1.
        -11    1    3    3    0    0 -0.94966403975E+01  0.26799616065E+00 -0.82130148068E+01  0.12558328442E+02  0.51100000000E-03 0.  1.
         12    1    3    3    0    0 -0.14223383127E+02  0.26591745556E+01 -0.15701268989E+02  0.21351948032E+02  0.00000000000E+00 0. -1.
</event>
<event>
 7    1  0.3435408E-009  0.4614232E+02  0.7816164E-02  0.1320468E+00
        -11   -1    0    0    0    0  0.00000000000E+00  0.00000000000E+00  0.45593999997E+02  0.45594000000E+02  0.51100000000E-03 0.  1.
         11   -1    0    0    0    0 -0.00000000000E+00 -0.00000000000E+00 -0.45593999997E+02  0.45594000000E+02  0.51100000000E-03 0. -1.
    9900012    2    1    2    0    0 -0.39372760115E+02  0.16474882887E+02 -0.14404078199E+02  0.46142317921E+02  0.10000001456E+02 0.  0.
        -12    1    1    2    0    0  0.39372760115E+02 -0.16474882887E+02  0.14404078199E+02  0.45045682079E+02  0.00000000000E+00 0.  1.
         11    1    3    3    0    0 -0.26712809930E+02  0.12617002962E+02 -0.84819538127E+01  0.30736078456E+02  0.51100000000E-03 0. -1.
        -11    1    3    3    0    0 -0.18848245219E+01  0.27774415579E+01 -0.93825138852E+00  0.34852634068E+01  0.51100000000E-03 0.  1.
         12    1    3    3    0    0 -0.10775125663E+02  0.10804383671E+01 -0.49838729978E+01  0.11920976058E+02  0.00000000000E+00 0. -1.
</event>
<event>
 7    1  0.3435408E-009  0.4614232E+02  0.7816164E-02  0.1320468E+00
        -11   -1    0    0    0    0  0.00000000000E+00  0.00000000000E+00  0.45593999997E+02  0.45594000000E+02  0.51100000000E-03 0.  1.
         11   -1    0    0    0    0 -0.00000000000E+00 -0.00000000000E+00 -0.45593999997E+02  0.45594000000E+02  0.51100000000E-03 0. -1.
    9900012    2    1    2    0    0  0.37783195642E+00  0.34201325932E+02 -0.29312795523E+02  0.46142318366E+02  0.10000005519E+02 0.  0.
        -12    1    1    2    0    0 -0.37783195642E+00 -0.34201325932E+02  0.29312795523E+02  0.45045681634E+02  0.00000000000E+00 0.  1.
         11    1    3    3    0    0  0.32695166201E+00  0.88032781562E+00 -0.17789679119E+01  0.20116166496E+01  0.51100000000E-03 0.  1.
        -11    1    3    3    0    0  0.20951333490E+01  0.31745541092E+02 -0.26261094942E+02  0.41253049230E+02  0.51100000000E-03 0. -1.
        -12    1    3    3    0    0 -0.20442530546E+01  0.15754570237E+01 -0.12727326690E+01  0.28776524863E+01  0.00000000000E+00 0.  1.
</event>
<event>
 7    1  0.3435408E-009  0.4614232E+02  0.7816164E-02  0.1320468E+00
        -11   -1    0    0    0    0  0.00000000000E+00  0.00000000000E+00  0.45593999997E+02  0.45594000000E+02  0.51100000000E-03 0.  1.
         11   -1    0    0    0    0 -0.00000000000E+00 -0.00000000000E+00 -0.45593999997E+02  0.45594000000E+02  0.51100000000E-03 0. -1.
    9900012    2    1    2    0    0  0.20035225775E+02 -0.15343838588E+02 -0.37313130756E+02  0.46142318950E+02  0.10000010842E+02 0.  0.
        -12    1    1    2    0    0 -0.20035225775E+02  0.15343838588E+02  0.37313130756E+02  0.45045681050E+02  0.00000000000E+00 0.  1.
         11    1    3    3    0    0  0.87145739446E+01 -0.69361675540E+01 -0.16577889544E+02  0.19971996430E+02  0.51100000000E-03 0. -1.
        -11    1    3    3    0    0  0.34575980115E+01 -0.68760846552E+01 -0.78181218418E+01  0.10970804601E+02  0.51100000000E-03 0.  1.
         12    1    3    3    0    0  0.78630538186E+01 -0.15315863788E+01 -0.12917119369E+02  0.15199517920E+02  0.00000000000E+00 0. -1.
</event>
<event>
 7    1  0.3435408E-009  0.4614232E+02  0.7816164E-02  0.1320468E+00
        -11   -1    0    0    0    0  0.00000000000E+00  0.00000000000E+00  0.45593999997E+02  0.45594000000E+02  0.51100000000E-03 0.  1.
         11   -1    0    0    0    0 -0.00000000000E+00 -0.00000000000E+00 -0.45593999997E+02  0.45594000000E+02  0.51100000000E-03 0. -1.
    9900012    2    1    2    0    0 -0.34146762155E+02 -0.92754306217E+01 -0.27876126610E+02  0.46142318590E+02  0.10000007562E+02 0.  0.
        -12    1    1    2    0    0  0.34146762155E+02  0.92754306217E+01  0.27876126610E+02  0.45045681410E+02  0.00000000000E+00 0.  1.
         11    1    3    3    0    0 -0.69270550204E+01 -0.36285297674E+01 -0.21594857460E+01  0.81125642356E+01  0.51100000000E-03 0. -1.
        -11    1    3    3    0    0 -0.39567618650E-01 -0.14603416974E+00  0.65636737620E-01  0.16492427845E+00  0.51100000000E-03 0.  1.
         12    1    3    3    0    0 -0.27180139516E+02 -0.55008666845E+01 -0.25782277601E+02  0.37864830076E+02  0.00000000000E+00 0. -1.
</event>
<event>
 7    1  0.3435408E-009  0.4614232E+02  0.7816164E-02  0.1320468E+00
        -11   -1    0    0    0    0  0.00000000000E+00  0.00000000000E+00  0.45593999997E+02  0.45594000000E+02  0.51100000000E-03 0. -1.
         11   -1    0    0    0    0 -0.00000000000E+00 -0.00000000000E+00 -0.45593999997E+02  0.45594000000E+02  0.51100000000E-03 0.  1.
    9900012    2    1    2    0    0 -0.27798444836E+02 -0.31974422539E+02 -0.15296926173E+02  0.46142321158E+02  0.10000030975E+02 0.  0.
        -12    1    1    2    0    0  0.27798444836E+02  0.31974422539E+02  0.15296926173E+02  0.45045678842E+02  0.00000000000E+00 0.  1.
         11    1    3    3    0    0 -0.35449703955E+01 -0.83111620010E+01 -0.15759903045E+01  0.91720212937E+01  0.51100000000E-03 0. -1.
        -11    1    3    3    0    0 -0.12579656012E+02 -0.86795458600E+01 -0.71309709570E+01  0.16865141825E+02  0.51100000000E-03 0.  1.
         12    1    3    3    0    0 -0.11673818428E+02 -0.14983714678E+02 -0.65899649110E+01  0.20105158039E+02  0.00000000000E+00 0. -1.
</event>
<event>
 7    1  0.3435408E-009  0.4614232E+02  0.7816164E-02  0.1320468E+00
        -11   -1    0    0    0    0  0.00000000000E+00  0.00000000000E+00  0.45593999997E+02  0.45594000000E+02  0.51100000000E-03 0.  1.
         11   -1    0    0    0    0 -0.00000000000E+00 -0.00000000000E+00 -0.45593999997E+02  0.45594000000E+02  0.51100000000E-03 0. -1.
    9900012    2    1    2    0    0 -0.29932699885E+02 -0.32426859005E+00 -0.33660687806E+02  0.46142316787E+02  0.99999911196E+01 0.  0.
        -12    1    1    2    0    0  0.29932699885E+02  0.32426859005E+00  0.33660687806E+02  0.45045683213E+02  0.00000000000E+00 0.  1.
         11    1    3    3    0    0 -0.20679527284E+02 -0.36430692135E+00 -0.24304118376E+02  0.31913410011E+02  0.51100000000E-03 0. -1.
        -11    1    3    3    0    0 -0.16124949554E+01  0.20879239080E+01 -0.35176562248E+01  0.43969843988E+01  0.51100000000E-03 0.  1.
        -12    1    3    3    0    0 -0.76406776455E+01 -0.20478855767E+01 -0.58389132051E+01  0.98319223774E+01  0.00000000000E+00 0.  1.
</event>
<event>
 7    1  0.3435408E-009  0.4614232E+02  0.7816164E-02  0.1320468E+00
        -11   -1    0    0    0    0  0.00000000000E+00  0.00000000000E+00  0.45593999997E+02  0.45594000000E+02  0.51100000000E-03 0. -1.
         11   -1    0    0    0    0 -0.00000000000E+00 -0.00000000000E+00 -0.45593999997E+02  0.45594000000E+02  0.51100000000E-03 0.  1.
    9900012    2    1    2    0    0  0.16258006619E+02 -0.19703401511E+02  0.37102110737E+02  0.46142318393E+02  0.10000005760E+02 0.  0.
        -12    1    1    2    0    0 -0.16258006619E+02  0.19703401511E+02 -0.37102110737E+02  0.45045681607E+02  0.00000000000E+00 0.  1.
         11    1    3    3    0    0  0.14702199861E+01 -0.15208314545E+01  0.43820792984E+01  0.48659114623E+01  0.51100000000E-03 0. -1.
        -11    1    3    3    0    0  0.19175044127E+01 -0.35815535530E+01  0.12786669500E+02  0.13416529588E+02  0.51100000000E-03 0.  1.
        -12    1    3    3    0    0  0.12870282220E+02 -0.14601016503E+02  0.19933361939E+02  0.27859877342E+02  0.00000000000E+00 0.  1.
</event>
<event>
 7    1  0.3435408E-009  0.4614232E+02  0.7816164E-02  0.1320468E+00
        -11   -1    0    0    0    0  0.00000000000E+00  0.00000000000E+00  0.45593999997E+02  0.45594000000E+02  0.51100000000E-03 0. -1.
         11   -1    0    0    0    0 -0.00000000000E+00 -0.00000000000E+00 -0.45593999997E+02  0.45594000000E+02  0.51100000000E-03 0.  1.
    9900012    2    1    2    0    0  0.59551480089E+01 -0.31093623042E+02  0.32044286205E+02  0.46142318075E+02  0.10000002861E+02 0.  0.
        -12    1    1    2    0    0 -0.59551480089E+01  0.31093623042E+02 -0.32044286205E+02  0.45045681925E+02  0.00000000000E+00 0.  1.
         11    1    3    3    0    0  0.38386091178E+01 -0.19013688937E+02  0.18357385331E+02  0.26706719818E+02  0.51100000000E-03 0. -1.
        -11    1    3    3    0    0  0.29212408754E+01 -0.59747690565E+01  0.10682978164E+02  0.12584019081E+02  0.51100000000E-03 0.  1.
         12    1    3    3    0    0 -0.80470198429E+00 -0.61051650488E+01  0.30039227101E+01  0.68515791760E+01  0.00000000000E+00 0. -1.
</event>
<event>
 7    1  0.3435408E-009  0.4614232E+02  0.7816164E-02  0.1320468E+00
        -11   -1    0    0    0    0  0.00000000000E+00  0.00000000000E+00  0.45593999997E+02  0.45594000000E+02  0.51100000000E-03 0.  1.
         11   -1    0    0    0    0 -0.00000000000E+00 -0.00000000000E+00 -0.45593999997E+02  0.45594000000E+02  0.51100000000E-03 0. -1.
    9900012    2    1    2    0    0 -0.40119908656E+02  0.19283876165E+02 -0.69020677023E+01  0.46142317753E+02  0.99999999287E+01 0.  0.
        -12    1    1    2    0    0  0.40119908656E+02 -0.19283876165E+02  0.69020677023E+01  0.45045682247E+02  0.00000000000E+00 0.  1.
         11    1    3    3    0    0 -0.67763311148E+01  0.44856919104E+01 -0.14588436078E+01  0.82564108562E+01  0.51100000000E-03 0. -1.
        -11    1    3    3    0    0 -0.12505305684E+02  0.85354298964E+01 -0.55525542069E+01  0.16126595804E+02  0.51100000000E-03 0.  1.
        -12    1    3    3    0    0 -0.20838271857E+02  0.62627543584E+01  0.10933011246E+00  0.21759311093E+02  0.00000000000E+00 0.  1.
</event>
<event>
 7    1  0.3435408E-009  0.4614232E+02  0.7816164E-02  0.1320468E+00
        -11   -1    0    0    0    0  0.00000000000E+00  0.00000000000E+00  0.45593999997E+02  0.45594000000E+02  0.51100000000E-03 0.  1.
         11   -1    0    0    0    0 -0.00000000000E+00 -0.00000000000E+00 -0.45593999997E+02  0.45594000000E+02  0.51100000000E-03 0. -1.
    9900012    2    1    2    0    0 -0.27144239660E+02  0.29986223071E+02 -0.19827508057E+02  0.46142318780E+02  0.10000009293E+02 0.  0.
        -12    1    1    2    0    0  0.27144239660E+02 -0.29986223071E+02  0.19827508057E+02  0.45045681220E+02  0.00000000000E+00 0.  1.
         11    1    3    3    0    0 -0.57653484726E+01  0.64673352482E+01 -0.51191278318E+01  0.10063356212E+02  0.51100000000E-03 0. -1.
        -11    1    3    3    0    0 -0.72432094479E+00  0.50676849878E+01 -0.11695648103E+01  0.52510907508E+01  0.51100000000E-03 0.  1.
        -12    1    3    3    0    0 -0.20654570242E+02  0.18451202835E+02 -0.13538815415E+02  0.30827871818E+02  0.00000000000E+00 0.  1.
</event>
<event>
 7    1  0.3435408E-009  0.4614232E+02  0.7816164E-02  0.1320468E+00
        -11   -1    0    0    0    0  0.00000000000E+00  0.00000000000E+00  0.45593999997E+02  0.45594000000E+02  0.51100000000E-03 0. -1.
         11   -1    0    0    0    0 -0.00000000000E+00 -0.00000000000E+00 -0.45593999997E+02  0.45594000000E+02  0.51100000000E-03 0.  1.
    9900012    2    1    2    0    0 -0.14442883547E+02 -0.36836948222E+02 -0.21530345803E+02  0.46142318411E+02  0.10000005923E+02 0.  0.
        -12    1    1    2    0    0  0.14442883547E+02  0.36836948222E+02  0.21530345803E+02  0.45045681589E+02  0.00000000000E+00 0.  1.
         11    1    3    3    0    0 -0.48588679988E+01 -0.79108561673E+01 -0.29033681130E+01  0.97272704388E+01  0.51100000000E-03 0. -1.
        -11    1    3    3    0    0 -0.57306019708E+01 -0.24273047726E+02 -0.16916219664E+02  0.30136010566E+02  0.51100000000E-03 0.  1.
        -12    1    3    3    0    0 -0.38534135770E+01 -0.46530443293E+01 -0.17107580256E+01  0.62790374062E+01  0.00000000000E+00 0.  1.
</event>
<event>
 7    1  0.3435408E-009  0.4614232E+02  0.7816164E-02  0.1320468E+00
        -11   -1    0    0    0    0  0.00000000000E+00  0.00000000000E+00  0.45593999997E+02  0.45594000000E+02  0.51100000000E-03 0.  1.
         11   -1    0    0    0    0 -0.00000000000E+00 -0.00000000000E+00 -0.45593999997E+02  0.45594000000E+02  0.51100000000E-03 0. -1.
    9900012    2    1    2    0    0 -0.12230650985E+01 -0.15081918106E+02 -0.42428213544E+02  0.46142318225E+02  0.10000004233E+02 0.  0.
        -12    1    1    2    0    0  0.12230650985E+01  0.15081918106E+02  0.42428213544E+02  0.45045681775E+02  0.00000000000E+00 0.  1.
         11    1    3    3    0    0 -0.28071265779E+01 -0.10283816650E+02 -0.25089589545E+02  0.27260307194E+02  0.51100000000E-03 0. -1.
        -11    1    3    3    0    0  0.25206848594E+01 -0.54381470249E+01 -0.11876521665E+02  0.13303347787E+02  0.51100000000E-03 0.  1.
        -12    1    3    3    0    0 -0.93662337997E+00  0.64004556841E+00 -0.54621023335E+01  0.55786632437E+01  0.00000000000E+00 0.  1.
</event>
<event>
 7    1  0.3435408E-009  0.4614232E+02  0.7816164E-02  0.1320468E+00
        -11   -1    0    0    0    0  0.00000000000E+00  0.00000000000E+00  0.45593999997E+02  0.45594000000E+02  0.51100000000E-03 0. -1.
         11   -1    0    0    0    0 -0.00000000000E+00 -0.00000000000E+00 -0.45593999997E+02  0.45594000000E+02  0.51100000000E-03 0.  1.
    9900012    2    1    2    0    0 -0.41972041088E+02 -0.12523745742E+02  0.10517463679E+02  0.46142317824E+02  0.10000000570E+02 0.  0.
        -12    1    1    2    0    0  0.41972041088E+02  0.12523745742E+02 -0.10517463679E+02  0.45045682176E+02  0.00000000000E+00 0.  1.
         11    1    3    3    0    0 -0.20511446359E+02 -0.91122890780E+01  0.42479579462E+01  0.22842906798E+02  0.51100000000E-03 0. -1.
        -11    1    3    3    0    0 -0.50318693261E+01 -0.23685442750E+00 -0.86156587496E+00  0.51105875350E+01  0.51100000000E-03 0.  1.
        -12    1    3    3    0    0 -0.16428725402E+02 -0.31746022364E+01  0.71310716077E+01  0.18188823491E+02  0.00000000000E+00 0.  1.
</event>
<event>
 7    1  0.3435408E-009  0.4614232E+02  0.7816164E-02  0.1320468E+00
        -11   -1    0    0    0    0  0.00000000000E+00  0.00000000000E+00  0.45593999997E+02  0.45594000000E+02  0.51100000000E-03 0.  1.
         11   -1    0    0    0    0 -0.00000000000E+00 -0.00000000000E+00 -0.45593999997E+02  0.45594000000E+02  0.51100000000E-03 0. -1.
    9900012    2    1    2    0    0  0.39823574048E+02  0.20736580190E+02 -0.36319023800E+01  0.46142317379E+02  0.99999965163E+01 0.  0.
        -12    1    1    2    0    0 -0.39823574048E+02 -0.20736580190E+02  0.36319023800E+01  0.45045682621E+02  0.00000000000E+00 0.  1.
         11    1    3    3    0    0  0.17492474896E+01  0.19306573610E+01 -0.15326768200E+01  0.30226483621E+01  0.51100000000E-03 0.  1.
        -11    1    3    3    0    0  0.36432489274E+01 -0.80430839664E-01 -0.12067879177E+01  0.38387588106E+01  0.51100000000E-03 0. -1.
         12    1    3    3    0    0  0.34431077631E+02  0.18886353668E+02 -0.89243764237E+00  0.39280910206E+02  0.00000000000E+00 0. -1.
</event>
<event>
 7    1  0.3435408E-009  0.4614232E+02  0.7816164E-02  0.1320468E+00
        -11   -1    0    0    0    0  0.00000000000E+00  0.00000000000E+00  0.45593999997E+02  0.45594000000E+02  0.51100000000E-03 0.  1.
         11   -1    0    0    0    0 -0.00000000000E+00 -0.00000000000E+00 -0.45593999997E+02  0.45594000000E+02  0.51100000000E-03 0. -1.
    9900012    2    1    2    0    0 -0.35181465282E+02  0.14394892350E+02 -0.24169507118E+02  0.46142317637E+02  0.99999988697E+01 0.  0.
        -12    1    1    2    0    0  0.35181465282E+02 -0.14394892350E+02  0.24169507118E+02  0.45045682363E+02  0.00000000000E+00 0.  1.
         11    1    3    3    0    0 -0.17084472699E+02  0.60516681275E+01 -0.11060655914E+02  0.21232993290E+02  0.51100000000E-03 0. -1.
        -11    1    3    3    0    0 -0.14277595960E+02  0.60301429655E+01 -0.13324297654E+02  0.20438915794E+02  0.51100000000E-03 0.  1.
        -12    1    3    3    0    0 -0.38193966225E+01  0.23130812575E+01  0.21544644927E+00  0.44704085536E+01  0.00000000000E+00 0.  1.
</event>
<event>
 7    1  0.3435408E-009  0.4614232E+02  0.7816164E-02  0.1320468E+00
        -11   -1    0    0    0    0  0.00000000000E+00  0.00000000000E+00  0.45593999997E+02  0.45594000000E+02  0.51100000000E-03 0.  1.
         11   -1    0    0    0    0 -0.00000000000E+00 -0.00000000000E+00 -0.45593999997E+02  0.45594000000E+02  0.51100000000E-03 0. -1.
    9900012    2    1    2    0    0 -0.21595341502E+02 -0.28841142429E+02 -0.27035960797E+02  0.46142318216E+02  0.10000004147E+02 0.  0.
        -12    1    1    2    0    0  0.21595341502E+02  0.28841142429E+02  0.27035960797E+02  0.45045681784E+02  0.00000000000E+00 0.  1.
         11    1    3    3    0    0  0.32308928899E+00  0.45348147603E+00 -0.28033231096E+00  0.62339281633E+00  0.51100000000E-03 0. -1.
        -11    1    3    3    0    0 -0.14719111871E+01 -0.29412543401E+01 -0.12067624537E+01  0.35033948560E+01  0.51100000000E-03 0.  1.
         12    1    3    3    0    0 -0.20446519604E+02 -0.26353369564E+02 -0.25548866033E+02  0.42015530544E+02  0.00000000000E+00 0. -1.
</event>
<event>
 7    1  0.3435408E-009  0.4614232E+02  0.7816164E-02  0.1320468E+00
        -11   -1    0    0    0    0  0.00000000000E+00  0.00000000000E+00  0.45593999997E+02  0.45594000000E+02  0.51100000000E-03 0.  1.
         11   -1    0    0    0    0 -0.00000000000E+00 -0.00000000000E+00 -0.45593999997E+02  0.45594000000E+02  0.51100000000E-03 0. -1.
    9900012    2    1    2    0    0  0.14082021140E+02  0.32600429242E+02  0.27713208154E+02  0.46142320825E+02  0.10000027940E+02 0.  0.
        -12    1    1    2    0    0 -0.14082021140E+02 -0.32600429242E+02 -0.27713208154E+02  0.45045679175E+02  0.00000000000E+00 0.  1.
         11    1    3    3    0    0  0.66131613745E+01  0.21962448643E+02  0.20949126165E+02  0.31063627301E+02  0.51100000000E-03 0. -1.
        -11    1    3    3    0    0  0.26248789060E+01  0.12469679508E+01  0.13144880855E+01  0.31894823294E+01  0.51100000000E-03 0.  1.
         12    1    3    3    0    0  0.48439808590E+01  0.93910126483E+01  0.54495939039E+01  0.11889211195E+02  0.00000000000E+00 0. -1.
</event>
<event>
 7    1  0.3435408E-009  0.4614232E+02  0.7816164E-02  0.1320468E+00
        -11   -1    0    0    0    0  0.00000000000E+00  0.00000000000E+00  0.45593999997E+02  0.45594000000E+02  0.51100000000E-03 0.  1.
         11   -1    0    0    0    0 -0.00000000000E+00 -0.00000000000E+00 -0.45593999997E+02  0.45594000000E+02  0.51100000000E-03 0. -1.
    9900012    2    1    2    0    0  0.52650281419E+01  0.13755251751E+02 -0.42569778494E+02  0.46142317487E+02  0.99999974979E+01 0.  0.
        -12    1    1    2    0    0 -0.52650281419E+01 -0.13755251751E+02  0.42569778494E+02  0.45045682513E+02  0.00000000000E+00 0.  1.
         11    1    3    3    0    0  0.49291841514E+00  0.31364807794E+01 -0.18471926234E+01  0.36732276124E+01  0.51100000000E-03 0.  1.
        -11    1    3    3    0    0  0.22441574565E+01  0.21150854641E+01 -0.82878524296E+01  0.88429818141E+01  0.51100000000E-03 0. -1.
         12    1    3    3    0    0  0.25279522703E+01  0.85036855073E+01 -0.32434733441E+02  0.33626108060E+02  0.00000000000E+00 0. -1.
</event>
<event>
 7    1  0.3435408E-009  0.4614232E+02  0.7816164E-02  0.1320468E+00
        -11   -1    0    0    0    0  0.00000000000E+00  0.00000000000E+00  0.45593999997E+02  0.45594000000E+02  0.51100000000E-03 0.  1.
         11   -1    0    0    0    0 -0.00000000000E+00 -0.00000000000E+00 -0.45593999997E+02  0.45594000000E+02  0.51100000000E-03 0. -1.
    9900012    2    1    2    0    0  0.29406987491E+02 -0.25133139983E+02 -0.23079597382E+02  0.46142318143E+02  0.10000003481E+02 0.  0.
        -12    1    1    2    0    0 -0.29406987491E+02  0.25133139983E+02  0.23079597382E+02  0.45045681857E+02  0.00000000000E+00 0.  1.
         11    1    3    3    0    0  0.18258852056E+00 -0.13110360214E+01 -0.24824847989E+01  0.28133405509E+01  0.51100000000E-03 0. -1.
        -11    1    3    3    0    0  0.16398123285E+01 -0.18152663136E+01 -0.30785964828E+01  0.39321664292E+01  0.51100000000E-03 0.  1.
         12    1    3    3    0    0  0.27584586642E+02 -0.22006837648E+02 -0.17518516100E+02  0.39396811163E+02  0.00000000000E+00 0. -1.
</event>
<event>
 7    1  0.3435408E-009  0.4614232E+02  0.7816164E-02  0.1320468E+00
        -11   -1    0    0    0    0  0.00000000000E+00  0.00000000000E+00  0.45593999997E+02  0.45594000000E+02  0.51100000000E-03 0.  1.
         11   -1    0    0    0    0 -0.00000000000E+00 -0.00000000000E+00 -0.45593999997E+02  0.45594000000E+02  0.51100000000E-03 0. -1.
    9900012    2    1    2    0    0 -0.14919771298E+02  0.42461758015E+02 -0.18743708235E+01  0.46142315020E+02  0.99999750036E+01 0.  0.
        -12    1    1    2    0    0  0.14919771298E+02 -0.42461758015E+02  0.18743708235E+01  0.45045684980E+02  0.00000000000E+00 0.  1.
         11    1    3    3    0    0 -0.52249693737E+01  0.20880038433E+02 -0.32763905453E+00  0.21526347985E+02  0.51100000000E-03 0. -1.
        -11    1    3    3    0    0 -0.92510079722E+01  0.19921804601E+02  0.46558886883E+00  0.21969893498E+02  0.51100000000E-03 0.  1.
        -12    1    3    3    0    0 -0.44379395218E+00  0.16599149811E+01 -0.20123206378E+01  0.26460735375E+01  0.00000000000E+00 0.  1.
</event>
<event>
 7    1  0.3435408E-009  0.4614232E+02  0.7816164E-02  0.1320468E+00
        -11   -1    0    0    0    0  0.00000000000E+00  0.00000000000E+00  0.45593999997E+02  0.45594000000E+02  0.51100000000E-03 0. -1.
         11   -1    0    0    0    0 -0.00000000000E+00 -0.00000000000E+00 -0.45593999997E+02  0.45594000000E+02  0.51100000000E-03 0.  1.
    9900012    2    1    2    0    0 -0.68576914832E+01 -0.30715557728E+02  0.32227939291E+02  0.46142317743E+02  0.99999998359E+01 0.  0.
        -12    1    1    2    0    0  0.68576914832E+01  0.30715557728E+02 -0.32227939291E+02  0.45045682257E+02  0.00000000000E+00 0.  1.
         11    1    3    3    0    0 -0.36828451107E+00 -0.14714014064E+02  0.12590507228E+02  0.19369014324E+02  0.51100000000E-03 0. -1.
        -11    1    3    3    0    0  0.85258621019E+00 -0.39823577935E+01  0.36744725671E+01  0.54852370732E+01  0.51100000000E-03 0.  1.
        -12    1    3    3    0    0 -0.73419931823E+01 -0.12019185871E+02  0.15962959496E+02  0.21288066346E+02  0.00000000000E+00 0.  1.
</event>
<event>
 7    1  0.3435408E-009  0.4614232E+02  0.7816164E-02  0.1320468E+00
        -11   -1    0    0    0    0  0.00000000000E+00  0.00000000000E+00  0.45593999997E+02  0.45594000000E+02  0.51100000000E-03 0. -1.
         11   -1    0    0    0    0 -0.00000000000E+00 -0.00000000000E+00 -0.45593999997E+02  0.45594000000E+02  0.51100000000E-03 0.  1.
    9900012    2    1    2    0    0  0.44788290084E+02  0.44556487406E+01  0.18082194397E+01  0.46142318832E+02  0.10000009765E+02 0.  0.
        -12    1    1    2    0    0 -0.44788290084E+02 -0.44556487406E+01 -0.18082194397E+01  0.45045681168E+02  0.00000000000E+00 0.  1.
         11    1    3    3    0    0  0.75598258490E+01  0.24933591852E+00 -0.27292649651E+01  0.80412699730E+01  0.51100000000E-03 0. -1.
        -11    1    3    3    0    0  0.26987196002E+00 -0.50194775889E+00  0.12999259607E-01  0.57004532217E+00  0.51100000000E-03 0.  1.
         12    1    3    3    0    0  0.36958592275E+02  0.47082605810E+01  0.45244851452E+01  0.37531003537E+02  0.00000000000E+00 0. -1.
</event>
<event>
 7    1  0.3435408E-009  0.4614232E+02  0.7816164E-02  0.1320468E+00
        -11   -1    0    0    0    0  0.00000000000E+00  0.00000000000E+00  0.45593999997E+02  0.45594000000E+02  0.51100000000E-03 0.  1.
         11   -1    0    0    0    0 -0.00000000000E+00 -0.00000000000E+00 -0.45593999997E+02  0.45594000000E+02  0.51100000000E-03 0. -1.
    9900012    2    1    2    0    0  0.73846150565E+01 -0.44214861068E+02  0.44302395773E+01  0.46142317616E+02  0.99999986725E+01 0.  0.
        -12    1    1    2    0    0 -0.73846150565E+01  0.44214861068E+02 -0.44302395773E+01  0.45045682384E+02  0.00000000000E+00 0.  1.
         11    1    3    3    0    0  0.33792390599E+01 -0.39188723682E+01  0.10953329612E+01  0.52892884038E+01  0.51100000000E-03 0. -1.
        -11    1    3    3    0    0  0.36587004362E+00 -0.17000257543E+02  0.30342722368E+01  0.17272794379E+02  0.51100000000E-03 0.  1.
         12    1    3    3    0    0  0.36395059530E+01 -0.23295731157E+02  0.30063437939E+00  0.23580234832E+02  0.00000000000E+00 0. -1.
</event>
<event>
 7    1  0.3435408E-009  0.4614232E+02  0.7816164E-02  0.1320468E+00
        -11   -1    0    0    0    0  0.00000000000E+00  0.00000000000E+00  0.45593999997E+02  0.45594000000E+02  0.51100000000E-03 0. -1.
         11   -1    0    0    0    0 -0.00000000000E+00 -0.00000000000E+00 -0.45593999997E+02  0.45594000000E+02  0.51100000000E-03 0.  1.
    9900012    2    1    2    0    0 -0.70633557819E+01  0.31286399165E+02  0.31628843132E+02  0.46142317793E+02  0.10000000292E+02 0.  0.
        -12    1    1    2    0    0  0.70633557819E+01 -0.31286399165E+02 -0.31628843132E+02  0.45045682207E+02  0.00000000000E+00 0.  1.
         11    1    3    3    0    0 -0.34651728519E+01  0.90068555018E+01  0.89357103329E+01  0.13152102050E+02  0.51100000000E-03 0. -1.
        -11    1    3    3    0    0 -0.54241232116E+01  0.99567517522E+01  0.12658546922E+02  0.16994023317E+02  0.51100000000E-03 0.  1.
        -12    1    3    3    0    0  0.18259402817E+01  0.12322791911E+02  0.10034585877E+02  0.15996192425E+02  0.00000000000E+00 0.  1.
</event>
<event>
 7    1  0.3435408E-009  0.4614232E+02  0.7816164E-02  0.1320468E+00
        -11   -1    0    0    0    0  0.00000000000E+00  0.00000000000E+00  0.45593999997E+02  0.45594000000E+02  0.51100000000E-03 0. -1.
         11   -1    0    0    0    0 -0.00000000000E+00 -0.00000000000E+00 -0.45593999997E+02  0.45594000000E+02  0.51100000000E-03 0.  1.
    9900012    2    1    2    0    0 -0.40447267369E+02 -0.19535423509E+02 -0.33910557927E+01  0.46142317980E+02  0.10000001992E+02 0.  0.
        -12    1    1    2    0    0  0.40447267369E+02  0.19535423509E+02  0.33910557927E+01  0.45045682020E+02  0.00000000000E+00 0.  1.
         11    1    3    3    0    0 -0.15352414041E+02 -0.31292816354E+01 -0.29796405825E+01  0.15948895845E+02  0.51100000000E-03 0. -1.
        -11    1    3    3    0    0 -0.87916578115E+01 -0.76149005217E+01 -0.88829135938E+00  0.11664862572E+02  0.51100000000E-03 0.  1.
         12    1    3    3    0    0 -0.16303195517E+02 -0.87912413517E+01  0.47687614916E+00  0.18528559562E+02  0.00000000000E+00 0. -1.
</event>
<event>
 7    1  0.3435408E-009  0.4614232E+02  0.7816164E-02  0.1320468E+00
        -11   -1    0    0    0    0  0.00000000000E+00  0.00000000000E+00  0.45593999997E+02  0.45594000000E+02  0.51100000000E-03 0.  1.
         11   -1    0    0    0    0 -0.00000000000E+00 -0.00000000000E+00 -0.45593999997E+02  0.45594000000E+02  0.51100000000E-03 0. -1.
    9900012    2    1    2    0    0  0.12171882889E+02 -0.26595470070E+02 -0.34258423176E+02  0.46142319632E+02  0.10000017063E+02 0.  0.
        -12    1    1    2    0    0 -0.12171882889E+02  0.26595470070E+02  0.34258423176E+02  0.45045680368E+02  0.00000000000E+00 0.  1.
         11    1    3    3    0    0  0.65913440710E+01 -0.19696942541E+02 -0.27174039260E+02  0.34202978994E+02  0.51100000000E-03 0. -1.
        -11    1    3    3    0    0  0.36336920671E+01 -0.65003809504E+01 -0.45813618262E+01  0.87434287887E+01  0.51100000000E-03 0.  1.
         12    1    3    3    0    0  0.19468467506E+01 -0.39814657907E+00 -0.25030220891E+01  0.31959118491E+01  0.00000000000E+00 0. -1.
</event>
<event>
 7    1  0.3435408E-009  0.4614232E+02  0.7816164E-02  0.1320468E+00
        -11   -1    0    0    0    0  0.00000000000E+00  0.00000000000E+00  0.45593999997E+02  0.45594000000E+02  0.51100000000E-03 0. -1.
         11   -1    0    0    0    0 -0.00000000000E+00 -0.00000000000E+00 -0.45593999997E+02  0.45594000000E+02  0.51100000000E-03 0.  1.
    9900012    2    1    2    0    0 -0.16290379123E+02  0.28467291429E+02  0.30876371850E+02  0.46142317944E+02  0.10000001664E+02 0.  0.
        -12    1    1    2    0    0  0.16290379123E+02 -0.28467291429E+02 -0.30876371850E+02  0.45045682056E+02  0.00000000000E+00 0.  1.
         11    1    3    3    0    0 -0.10190330868E+02  0.14452541717E+02  0.22179776188E+02  0.28366552087E+02  0.51100000000E-03 0. -1.
        -11    1    3    3    0    0 -0.20879739398E+01  0.71952442238E+01  0.32293196602E+01  0.81584116311E+01  0.51100000000E-03 0.  1.
         12    1    3    3    0    0 -0.40120743153E+01  0.68195054883E+01  0.54672760016E+01  0.96173542252E+01  0.00000000000E+00 0. -1.
</event>
<event>
 7    1  0.3435408E-009  0.4614232E+02  0.7816164E-02  0.1320468E+00
        -11   -1    0    0    0    0  0.00000000000E+00  0.00000000000E+00  0.45593999997E+02  0.45594000000E+02  0.51100000000E-03 0. -1.
         11   -1    0    0    0    0 -0.00000000000E+00 -0.00000000000E+00 -0.45593999997E+02  0.45594000000E+02  0.51100000000E-03 0.  1.
    9900012    2    1    2    0    0 -0.36899604524E+02 -0.14249969895E+02  0.21551590656E+02  0.46142317456E+02  0.99999972213E+01 0.  0.
        -12    1    1    2    0    0  0.36899604524E+02  0.14249969895E+02 -0.21551590656E+02  0.45045682544E+02  0.00000000000E+00 0.  1.
         11    1    3    3    0    0 -0.91829018922E+01 -0.50971627811E+01  0.51994476460E+01  0.11719258153E+02  0.51100000000E-03 0. -1.
        -11    1    3    3    0    0 -0.15349860703E+02 -0.91686808649E+01  0.10580240619E+02  0.20775572777E+02  0.51100000000E-03 0.  1.
        -12    1    3    3    0    0 -0.12366841928E+02  0.15873751523E-01  0.57719023914E+01  0.13647486526E+02  0.00000000000E+00 0.  1.
</event>
<event>
 7    1  0.3435408E-009  0.4614232E+02  0.7816164E-02  0.1320468E+00
        -11   -1    0    0    0    0  0.00000000000E+00  0.00000000000E+00  0.45593999997E+02  0.45594000000E+02  0.51100000000E-03 0.  1.
         11   -1    0    0    0    0 -0.00000000000E+00 -0.00000000000E+00 -0.45593999997E+02  0.45594000000E+02  0.51100000000E-03 0. -1.
    9900012    2    1    2    0    0  0.20794276205E+01  0.17282285045E+02 -0.41546505400E+02  0.46142317559E+02  0.99999981564E+01 0.  0.
        -12    1    1    2    0    0 -0.20794276205E+01 -0.17282285045E+02  0.41546505400E+02  0.45045682441E+02  0.00000000000E+00 0.  1.
         11    1    3    3    0    0 -0.96533237496E+00  0.89096532526E+01 -0.13215481771E+02  0.15967552924E+02  0.51100000000E-03 0. -1.
        -11    1    3    3    0    0  0.33093434583E+01  0.69516099810E+01 -0.15964448912E+02  0.17724002504E+02  0.51100000000E-03 0.  1.
         12    1    3    3    0    0 -0.26458346286E+00  0.14210218116E+01 -0.12366574717E+02  0.12450762130E+02  0.00000000000E+00 0. -1.
</event>
<event>
 7    1  0.3435408E-009  0.4614232E+02  0.7816164E-02  0.1320468E+00
        -11   -1    0    0    0    0  0.00000000000E+00  0.00000000000E+00  0.45593999997E+02  0.45594000000E+02  0.51100000000E-03 0. -1.
         11   -1    0    0    0    0 -0.00000000000E+00 -0.00000000000E+00 -0.45593999997E+02  0.45594000000E+02  0.51100000000E-03 0.  1.
    9900012    2    1    2    0    0 -0.43573053118E+02 -0.10312169896E+01 -0.11377131077E+02  0.46142317876E+02  0.10000001048E+02 0.  0.
        -12    1    1    2    0    0  0.43573053118E+02  0.10312169896E+01  0.11377131077E+02  0.45045682124E+02  0.00000000000E+00 0.  1.
         11    1    3    3    0    0 -0.11760037760E+02  0.18848661772E+01 -0.62965156788E+00  0.11926762762E+02  0.51100000000E-03 0. -1.
        -11    1    3    3    0    0 -0.13326868957E+02 -0.41316433137E+01 -0.43177519982E+01  0.14605440604E+02  0.51100000000E-03 0.  1.
        -12    1    3    3    0    0 -0.18486146401E+02  0.12155601469E+01 -0.64297275112E+01  0.19610114510E+02  0.00000000000E+00 0.  1.
</event>
<event>
 7    1  0.3435408E-009  0.4614232E+02  0.7816164E-02  0.1320468E+00
        -11   -1    0    0    0    0  0.00000000000E+00  0.00000000000E+00  0.45593999997E+02  0.45594000000E+02  0.51100000000E-03 0. -1.
         11   -1    0    0    0    0 -0.00000000000E+00 -0.00000000000E+00 -0.45593999997E+02  0.45594000000E+02  0.51100000000E-03 0.  1.
    9900012    2    1    2    0    0 -0.18552617304E+02 -0.40925093736E+02 -0.31702287949E+01  0.46142320332E+02  0.10000023447E+02 0.  0.
        -12    1    1    2    0    0  0.18552617304E+02  0.40925093736E+02  0.31702287949E+01  0.45045679668E+02  0.00000000000E+00 0.  1.
         11    1    3    3    0    0 -0.18742500415E+02 -0.36607194551E+02 -0.77554444399E+00  0.41133556668E+02  0.51100000000E-03 0. -1.
        -11    1    3    3    0    0 -0.58236848358E-01 -0.39487841360E+01 -0.20760335395E+01  0.44616368298E+01  0.51100000000E-03 0.  1.
         12    1    3    3    0    0  0.24811995969E+00 -0.36911504895E+00 -0.31865081135E+00  0.54712683478E+00  0.00000000000E+00 0. -1.
</event>
<event>
 7    1  0.3435408E-009  0.4614232E+02  0.7816164E-02  0.1320468E+00
        -11   -1    0    0    0    0  0.00000000000E+00  0.00000000000E+00  0.45593999997E+02  0.45594000000E+02  0.51100000000E-03 0.  1.
         11   -1    0    0    0    0 -0.00000000000E+00 -0.00000000000E+00 -0.45593999997E+02  0.45594000000E+02  0.51100000000E-03 0. -1.
    9900012    2    1    2    0    0  0.20677702709E+02  0.16905491022E+02 -0.36273274702E+02  0.46142317925E+02  0.10000001493E+02 0.  0.
        -12    1    1    2    0    0 -0.20677702709E+02 -0.16905491022E+02  0.36273274702E+02  0.45045682075E+02  0.00000000000E+00 0.  1.
         11    1    3    3    0    0  0.65671318700E+01  0.43441256392E+01 -0.11537462945E+02  0.13968238974E+02  0.51100000000E-03 0. -1.
        -11    1    3    3    0    0  0.88309823136E+01  0.39120852541E+01 -0.16486676781E+02  0.19107620762E+02  0.51100000000E-03 0.  1.
        -12    1    3    3    0    0  0.52795885251E+01  0.86492801283E+01 -0.82491349764E+01  0.13066458188E+02  0.00000000000E+00 0.  1.
</event>
<event>
 7    1  0.3435408E-009  0.4614232E+02  0.7816164E-02  0.1320468E+00
        -11   -1    0    0    0    0  0.00000000000E+00  0.00000000000E+00  0.45593999997E+02  0.45594000000E+02  0.51100000000E-03 0. -1.
         11   -1    0    0    0    0 -0.00000000000E+00 -0.00000000000E+00 -0.45593999997E+02  0.45594000000E+02  0.51100000000E-03 0.  1.
    9900012    2    1    2    0    0 -0.42011263644E+02  0.10955358019E+02 -0.12006138012E+02  0.46142317718E+02  0.99999996068E+01 0.  0.
        -12    1    1    2    0    0  0.42011263644E+02 -0.10955358019E+02  0.12006138012E+02  0.45045682282E+02  0.00000000000E+00 0.  1.
         11    1    3    3    0    0 -0.97889747794E+01 -0.86833052614E+00 -0.12557490141E+01  0.99073170425E+01  0.51100000000E-03 0. -1.
        -11    1    3    3    0    0 -0.22258127743E+01  0.80464240530E+00  0.37726709752E+00  0.23966690699E+01  0.51100000000E-03 0.  1.
         12    1    3    3    0    0 -0.29996476090E+02  0.11019046140E+02 -0.11127656096E+02  0.33838331606E+02  0.00000000000E+00 0. -1.
</event>
<event>
 7    1  0.3435408E-009  0.4614232E+02  0.7816164E-02  0.1320468E+00
        -11   -1    0    0    0    0  0.00000000000E+00  0.00000000000E+00  0.45593999997E+02  0.45594000000E+02  0.51100000000E-03 0. -1.
         11   -1    0    0    0    0 -0.00000000000E+00 -0.00000000000E+00 -0.45593999997E+02  0.45594000000E+02  0.51100000000E-03 0.  1.
    9900012    2    1    2    0    0 -0.30909254059E+02  0.33304487438E+01  0.32598148671E+02  0.46142321272E+02  0.10000032013E+02 0.  0.
        -12    1    1    2    0    0  0.30909254059E+02 -0.33304487438E+01 -0.32598148671E+02  0.45045678728E+02  0.00000000000E+00 0.  1.
         11    1    3    3    0    0 -0.97096676288E+01  0.39951173270E+00  0.10575386604E+02  0.14362313782E+02  0.51100000000E-03 0. -1.
        -11    1    3    3    0    0 -0.29479520212E+00  0.18226899006E+01  0.94985873716E+00  0.20763753433E+01  0.51100000000E-03 0.  1.
        -12    1    3    3    0    0 -0.20904791228E+02  0.11082471105E+01  0.21072903330E+02  0.29703632146E+02  0.00000000000E+00 0.  1.
</event>
<event>
 7    1  0.3435408E-009  0.4614232E+02  0.7816164E-02  0.1320468E+00
        -11   -1    0    0    0    0  0.00000000000E+00  0.00000000000E+00  0.45593999997E+02  0.45594000000E+02  0.51100000000E-03 0. -1.
         11   -1    0    0    0    0 -0.00000000000E+00 -0.00000000000E+00 -0.45593999997E+02  0.45594000000E+02  0.51100000000E-03 0.  1.
    9900012    2    1    2    0    0 -0.23754627083E+02 -0.29327817060E+02 -0.24590856066E+02  0.46142319148E+02  0.10000012644E+02 0.  0.
        -12    1    1    2    0    0  0.23754627083E+02  0.29327817060E+02  0.24590856066E+02  0.45045680852E+02  0.00000000000E+00 0.  1.
         11    1    3    3    0    0 -0.37719376210E+01 -0.35622799308E+01 -0.84534434845E+00  0.52566109853E+01  0.51100000000E-03 0. -1.
        -11    1    3    3    0    0 -0.66582418891E+01 -0.13913376442E+02 -0.10207383507E+02  0.18496078163E+02  0.51100000000E-03 0.  1.
        -12    1    3    3    0    0 -0.13324447573E+02 -0.11852160688E+02 -0.13538128210E+02  0.22389630000E+02  0.00000000000E+00 0.  1.
</event>
<event>
 7    1  0.3435408E-009  0.4614232E+02  0.7816164E-02  0.1320468E+00
        -11   -1    0    0    0    0  0.00000000000E+00  0.00000000000E+00  0.45593999997E+02  0.45594000000E+02  0.51100000000E-03 0.  1.
         11   -1    0    0    0    0 -0.00000000000E+00 -0.00000000000E+00 -0.45593999997E+02  0.45594000000E+02  0.51100000000E-03 0. -1.
    9900012    2    1    2    0    0  0.29836391086E+02  0.26255451232E+02 -0.21202701028E+02  0.46142317817E+02  0.10000000513E+02 0.  0.
        -12    1    1    2    0    0 -0.29836391086E+02 -0.26255451232E+02  0.21202701028E+02  0.45045682183E+02  0.00000000000E+00 0.  1.
         11    1    3    3    0    0  0.15108559458E+02  0.15533297413E+02 -0.10191463956E+02  0.23946144475E+02  0.51100000000E-03 0. -1.
        -11    1    3    3    0    0  0.81711459762E+01  0.24950243215E+01 -0.33275841142E+01  0.91687288774E+01  0.51100000000E-03 0.  1.
         12    1    3    3    0    0  0.65566856524E+01  0.82271294974E+01 -0.76836529572E+01  0.13027444465E+02  0.00000000000E+00 0. -1.
</event>
<event>
 7    1  0.3435408E-009  0.4614232E+02  0.7816164E-02  0.1320468E+00
        -11   -1    0    0    0    0  0.00000000000E+00  0.00000000000E+00  0.45593999997E+02  0.45594000000E+02  0.51100000000E-03 0.  1.
         11   -1    0    0    0    0 -0.00000000000E+00 -0.00000000000E+00 -0.45593999997E+02  0.45594000000E+02  0.51100000000E-03 0. -1.
    9900012    2    1    2    0    0 -0.30596883941E+01 -0.37800358018E+02 -0.24308120163E+02  0.46142318018E+02  0.10000002347E+02 0.  0.
        -12    1    1    2    0    0  0.30596883941E+01  0.37800358018E+02  0.24308120163E+02  0.45045681982E+02  0.00000000000E+00 0.  1.
         11    1    3    3    0    0 -0.33303675536E+00 -0.15218448638E+02 -0.14196948704E+02  0.20815029310E+02  0.51100000000E-03 0. -1.
        -11    1    3    3    0    0 -0.12834104905E+01 -0.12442657244E+01 -0.12316316041E+01  0.21707732146E+01  0.51100000000E-03 0.  1.
         12    1    3    3    0    0 -0.14432411483E+01 -0.21337643655E+02 -0.88795398548E+01  0.23156515494E+02  0.00000000000E+00 0. -1.
</event>
<event>
 7    1  0.3435408E-009  0.4614232E+02  0.7816164E-02  0.1320468E+00
        -11   -1    0    0    0    0  0.00000000000E+00  0.00000000000E+00  0.45593999997E+02  0.45594000000E+02  0.51100000000E-03 0.  1.
         11   -1    0    0    0    0 -0.00000000000E+00 -0.00000000000E+00 -0.45593999997E+02  0.45594000000E+02  0.51100000000E-03 0. -1.
    9900012    2    1    2    0    0 -0.84059657668E+01  0.29207870657E+02 -0.33246858196E+02  0.46142317091E+02  0.99999938938E+01 0.  0.
        -12    1    1    2    0    0  0.84059657668E+01 -0.29207870657E+02  0.33246858196E+02  0.45045682909E+02  0.00000000000E+00 0.  1.
         11    1    3    3    0    0 -0.10778924358E+01  0.29123521984E+01 -0.16080188308E+01  0.34970519373E+01  0.51100000000E-03 0. -1.
        -11    1    3    3    0    0 -0.44724871399E+01  0.83085123195E+01 -0.16300314980E+02  0.18834404341E+02  0.51100000000E-03 0.  1.
        -12    1    3    3    0    0 -0.28555861911E+01  0.17987006139E+02 -0.15338524386E+02  0.23810860813E+02  0.00000000000E+00 0.  1.
</event>
<event>
 7    1  0.3435408E-009  0.4614232E+02  0.7816164E-02  0.1320468E+00
        -11   -1    0    0    0    0  0.00000000000E+00  0.00000000000E+00  0.45593999997E+02  0.45594000000E+02  0.51100000000E-03 0. -1.
         11   -1    0    0    0    0 -0.00000000000E+00 -0.00000000000E+00 -0.45593999997E+02  0.45594000000E+02  0.51100000000E-03 0.  1.
    9900012    2    1    2    0    0  0.22178738951E+02  0.12867331153E+01  0.39186240101E+02  0.46142317001E+02  0.99999930725E+01 0.  0.
        -12    1    1    2    0    0 -0.22178738951E+02 -0.12867331153E+01 -0.39186240101E+02  0.45045682999E+02  0.00000000000E+00 0.  1.
         11    1    3    3    0    0  0.16751886002E+02  0.19132192775E+01  0.31368981123E+02  0.35613186737E+02  0.51100000000E-03 0. -1.
        -11    1    3    3    0    0  0.95352101027E+00  0.10490612655E+01  0.59815653597E-01  0.14189115651E+01  0.51100000000E-03 0.  1.
        -12    1    3    3    0    0  0.44733319379E+01 -0.16755474277E+01  0.77574433248E+01  0.91102186991E+01  0.00000000000E+00 0.  1.
</event>
<event>
 7    1  0.3435408E-009  0.4614232E+02  0.7816164E-02  0.1320468E+00
        -11   -1    0    0    0    0  0.00000000000E+00  0.00000000000E+00  0.45593999997E+02  0.45594000000E+02  0.51100000000E-03 0.  1.
         11   -1    0    0    0    0 -0.00000000000E+00 -0.00000000000E+00 -0.45593999997E+02  0.45594000000E+02  0.51100000000E-03 0. -1.
    9900012    2    1    2    0    0  0.30027032958E+02  0.34769690086E+01 -0.33397626471E+02  0.46142317903E+02  0.10000001291E+02 0.  0.
        -12    1    1    2    0    0 -0.30027032958E+02 -0.34769690086E+01  0.33397626471E+02  0.45045682097E+02  0.00000000000E+00 0.  1.
         11    1    3    3    0    0  0.97987984908E+01  0.32975643571E+01 -0.10062455740E+02  0.14427175688E+02  0.51100000000E-03 0. -1.
        -11    1    3    3    0    0  0.65728756616E+00  0.68536018907E+00  0.32667065247E+00  0.10042208471E+01  0.51100000000E-03 0.  1.
        -12    1    3    3    0    0  0.19570946901E+02 -0.50595553765E+00 -0.23661841383E+02  0.30710921367E+02  0.00000000000E+00 0.  1.
</event>
<event>
 7    1  0.3435408E-009  0.4614232E+02  0.7816164E-02  0.1320468E+00
        -11   -1    0    0    0    0  0.00000000000E+00  0.00000000000E+00  0.45593999997E+02  0.45594000000E+02  0.51100000000E-03 0. -1.
         11   -1    0    0    0    0 -0.00000000000E+00 -0.00000000000E+00 -0.45593999997E+02  0.45594000000E+02  0.51100000000E-03 0.  1.
    9900012    2    1    2    0    0 -0.30976697098E+02  0.97058848546E+01  0.31230650533E+02  0.46142317670E+02  0.99999991668E+01 0.  0.
        -12    1    1    2    0    0  0.30976697098E+02 -0.97058848546E+01 -0.31230650533E+02  0.45045682330E+02  0.00000000000E+00 0.  1.
         11    1    3    3    0    0 -0.21732589306E+02  0.82569937228E+01  0.27512088206E+02  0.36019416722E+02  0.51100000000E-03 0. -1.
        -11    1    3    3    0    0 -0.58673117318E+01  0.58068912622E+00  0.27400685382E+01  0.65015784756E+01  0.51100000000E-03 0.  1.
         12    1    3    3    0    0 -0.33767960598E+01  0.86820200560E+00  0.97849378885E+00  0.36213224721E+01  0.00000000000E+00 0. -1.
</event>
<event>
 7    1  0.3435408E-009  0.4614231E+02  0.7816164E-02  0.1320468E+00
        -11   -1    0    0    0    0  0.00000000000E+00  0.00000000000E+00  0.45593999997E+02  0.45594000000E+02  0.51100000000E-03 0. -1.
         11   -1    0    0    0    0 -0.00000000000E+00 -0.00000000000E+00 -0.45593999997E+02  0.45594000000E+02  0.51100000000E-03 0.  1.
    9900012    2    1    2    0    0 -0.17894252841E+02  0.35455611098E+02 -0.21255810811E+02  0.46142310569E+02  0.99999344177E+01 0.  0.
        -12    1    1    2    0    0  0.17894252841E+02 -0.35455611098E+02  0.21255810811E+02  0.45045689431E+02  0.00000000000E+00 0.  1.
         11    1    3    3    0    0 -0.26048679267E+01  0.39022509346E+01 -0.45513393859E+01  0.65366344352E+01  0.51100000000E-03 0. -1.
        -11    1    3    3    0    0 -0.24158377070E+01  0.22425687592E+01 -0.39511662300E+01  0.51455904719E+01  0.51100000000E-03 0.  1.
         12    1    3    3    0    0 -0.12873547207E+02  0.29310791404E+02 -0.12753305195E+02  0.34460085662E+02  0.00000000000E+00 0. -1.
</event>
<event>
 7    1  0.3435408E-009  0.4614232E+02  0.7816164E-02  0.1320468E+00
        -11   -1    0    0    0    0  0.00000000000E+00  0.00000000000E+00  0.45593999997E+02  0.45594000000E+02  0.51100000000E-03 0.  1.
         11   -1    0    0    0    0 -0.00000000000E+00 -0.00000000000E+00 -0.45593999997E+02  0.45594000000E+02  0.51100000000E-03 0. -1.
    9900012    2    1    2    0    0  0.11714163933E+02  0.41975402112E+02  0.11399893349E+02  0.46142316661E+02  0.99999899685E+01 0.  0.
        -12    1    1    2    0    0 -0.11714163933E+02 -0.41975402112E+02 -0.11399893349E+02  0.45045683339E+02  0.00000000000E+00 0.  1.
         11    1    3    3    0    0  0.11632466079E+01  0.16086051469E+02  0.16238883718E+01  0.16209602347E+02  0.51100000000E-03 0. -1.
        -11    1    3    3    0    0  0.64034916267E+01  0.11092292393E+02  0.57961665283E+01  0.14058421044E+02  0.51100000000E-03 0.  1.
         12    1    3    3    0    0  0.41474256987E+01  0.14797058249E+02  0.39798384486E+01  0.15874293270E+02  0.00000000000E+00 0. -1.
</event>
<event>
 7    1  0.3435408E-009  0.4614232E+02  0.7816164E-02  0.1320468E+00
        -11   -1    0    0    0    0  0.00000000000E+00  0.00000000000E+00  0.45593999997E+02  0.45594000000E+02  0.51100000000E-03 0.  1.
         11   -1    0    0    0    0 -0.00000000000E+00 -0.00000000000E+00 -0.45593999997E+02  0.45594000000E+02  0.51100000000E-03 0. -1.
    9900012    2    1    2    0    0  0.23969211469E+02 -0.34027797380E+02 -0.17224962377E+02  0.46142318500E+02  0.10000006736E+02 0.  0.
        -12    1    1    2    0    0 -0.23969211469E+02  0.34027797380E+02  0.17224962377E+02  0.45045681500E+02  0.00000000000E+00 0.  1.
         11    1    3    3    0    0  0.39461031273E+01 -0.85045284344E+01 -0.68529978293E+01  0.11613023435E+02  0.51100000000E-03 0. -1.
        -11    1    3    3    0    0  0.79051557337E+01 -0.92310300780E+01 -0.10854430139E+01  0.12201704400E+02  0.51100000000E-03 0.  1.
        -12    1    3    3    0    0  0.12117952608E+02 -0.16292238867E+02 -0.92865215334E+01  0.22327590665E+02  0.00000000000E+00 0.  1.
</event>
<event>
 7    1  0.3435408E-009  0.4614232E+02  0.7816164E-02  0.1320468E+00
        -11   -1    0    0    0    0  0.00000000000E+00  0.00000000000E+00  0.45593999997E+02  0.45594000000E+02  0.51100000000E-03 0. -1.
         11   -1    0    0    0    0 -0.00000000000E+00 -0.00000000000E+00 -0.45593999997E+02  0.45594000000E+02  0.51100000000E-03 0.  1.
    9900012    2    1    2    0    0  0.32002503938E+01 -0.43960917886E+02  0.92902919243E+01  0.46142318431E+02  0.10000006111E+02 0.  0.
        -12    1    1    2    0    0 -0.32002503938E+01  0.43960917886E+02 -0.92902919243E+01  0.45045681569E+02  0.00000000000E+00 0.  1.
         11    1    3    3    0    0  0.10197146546E+01 -0.21012948692E+02  0.27502233003E+01  0.21216681154E+02  0.51100000000E-03 0. -1.
        -11    1    3    3    0    0  0.42075847530E+01 -0.16653722736E+02  0.63409243532E+01  0.18310040206E+02  0.51100000000E-03 0.  1.
        -12    1    3    3    0    0 -0.20270490138E+01 -0.62942464576E+01  0.19914427077E+00  0.66155970716E+01  0.00000000000E+00 0.  1.
</event>
<event>
 7    1  0.3435408E-009  0.4614232E+02  0.7816164E-02  0.1320468E+00
        -11   -1    0    0    0    0  0.00000000000E+00  0.00000000000E+00  0.45593999997E+02  0.45594000000E+02  0.51100000000E-03 0. -1.
         11   -1    0    0    0    0 -0.00000000000E+00 -0.00000000000E+00 -0.45593999997E+02  0.45594000000E+02  0.51100000000E-03 0.  1.
    9900012    2    1    2    0    0  0.30328548724E+02 -0.30702129961E+02  0.12910144692E+02  0.46142317768E+02  0.10000000059E+02 0.  0.
        -12    1    1    2    0    0 -0.30328548724E+02  0.30702129961E+02 -0.12910144692E+02  0.45045682232E+02  0.00000000000E+00 0.  1.
         11    1    3    3    0    0  0.21918879463E+02 -0.21063661819E+02  0.10882555076E+02  0.32288467467E+02  0.51100000000E-03 0. -1.
        -11    1    3    3    0    0  0.21498684057E+01 -0.17789220981E-01  0.86417847585E+00  0.23171222060E+01  0.51100000000E-03 0.  1.
         12    1    3    3    0    0  0.62598008555E+01 -0.96206789211E+01  0.11634111401E+01  0.11536728095E+02  0.00000000000E+00 0. -1.
</event>
<event>
 7    1  0.3435408E-009  0.4614232E+02  0.7816164E-02  0.1320468E+00
        -11   -1    0    0    0    0  0.00000000000E+00  0.00000000000E+00  0.45593999997E+02  0.45594000000E+02  0.51100000000E-03 0. -1.
         11   -1    0    0    0    0 -0.00000000000E+00 -0.00000000000E+00 -0.45593999997E+02  0.45594000000E+02  0.51100000000E-03 0.  1.
    9900012    2    1    2    0    0 -0.12162877124E+02  0.41206907178E+02  0.13533982436E+02  0.46142318079E+02  0.10000002898E+02 0.  0.
        -12    1    1    2    0    0  0.12162877124E+02 -0.41206907178E+02 -0.13533982436E+02  0.45045681921E+02  0.00000000000E+00 0.  1.
         11    1    3    3    0    0 -0.70272021510E+01  0.19045248127E+02  0.75199337740E+01  0.21648382169E+02  0.51100000000E-03 0. -1.
        -11    1    3    3    0    0 -0.15151874299E+01  0.13243259351E+02  0.36761274615E+00  0.13334723491E+02  0.51100000000E-03 0.  1.
        -12    1    3    3    0    0 -0.36204875429E+01  0.89183996997E+01  0.56464359163E+01  0.11159212419E+02  0.00000000000E+00 0.  1.
</event>
<event>
 7    1  0.3435408E-009  0.4614232E+02  0.7816164E-02  0.1320468E+00
        -11   -1    0    0    0    0  0.00000000000E+00  0.00000000000E+00  0.45593999997E+02  0.45594000000E+02  0.51100000000E-03 0.  1.
         11   -1    0    0    0    0 -0.00000000000E+00 -0.00000000000E+00 -0.45593999997E+02  0.45594000000E+02  0.51100000000E-03 0. -1.
    9900012    2    1    2    0    0 -0.20453094117E+02  0.26663082805E+02 -0.29997741973E+02  0.46142316887E+02  0.99999920308E+01 0.  0.
        -12    1    1    2    0    0  0.20453094117E+02 -0.26663082805E+02  0.29997741973E+02  0.45045683113E+02  0.00000000000E+00 0.  1.
         11    1    3    3    0    0 -0.14638214600E+02  0.14463027637E+02 -0.14643806118E+02  0.25256633842E+02  0.51100000000E-03 0. -1.
        -11    1    3    3    0    0  0.59635169834E+00  0.58331808878E+00 -0.14054681510E+01  0.16343917295E+01  0.51100000000E-03 0.  1.
         12    1    3    3    0    0 -0.64112312149E+01  0.11616737079E+02 -0.13948467704E+02  0.19251291316E+02  0.00000000000E+00 0. -1.
</event>
<event>
 7    1  0.3435408E-009  0.4614231E+02  0.7816164E-02  0.1320468E+00
        -11   -1    0    0    0    0  0.00000000000E+00  0.00000000000E+00  0.45593999997E+02  0.45594000000E+02  0.51100000000E-03 0.  1.
         11   -1    0    0    0    0 -0.00000000000E+00 -0.00000000000E+00 -0.45593999997E+02  0.45594000000E+02  0.51100000000E-03 0. -1.
    9900012    2    1    2    0    0 -0.28843655535E+02  0.11950214600E+02 -0.32470751500E+02  0.46142314339E+02  0.99999687988E+01 0.  0.
        -12    1    1    2    0    0  0.28843655535E+02 -0.11950214600E+02  0.32470751500E+02  0.45045685661E+02  0.00000000000E+00 0.  1.
         11    1    3    3    0    0 -0.18774217044E+01  0.20121256572E+01 -0.19197624640E+01  0.33554210013E+01  0.51100000000E-03 0. -1.
        -11    1    3    3    0    0 -0.28988751543E+01  0.42970530201E+01 -0.43681558003E+01  0.67785637988E+01  0.51100000000E-03 0.  1.
        -12    1    3    3    0    0 -0.24067358677E+02  0.56410359231E+01 -0.26182833236E+02  0.36008329539E+02  0.00000000000E+00 0.  1.
</event>
<event>
 7    1  0.3435408E-009  0.4614232E+02  0.7816164E-02  0.1320468E+00
        -11   -1    0    0    0    0  0.00000000000E+00  0.00000000000E+00  0.45593999997E+02  0.45594000000E+02  0.51100000000E-03 0.  1.
         11   -1    0    0    0    0 -0.00000000000E+00 -0.00000000000E+00 -0.45593999997E+02  0.45594000000E+02  0.51100000000E-03 0. -1.
    9900012    2    1    2    0    0 -0.11140724068E+02  0.42067868153E+02 -0.11631519096E+02  0.46142317630E+02  0.99999988068E+01 0.  0.
        -12    1    1    2    0    0  0.11140724068E+02 -0.42067868153E+02  0.11631519096E+02  0.45045682370E+02  0.00000000000E+00 0.  1.
         11    1    3    3    0    0 -0.84072651067E+00  0.36743893613E+00  0.87344497635E+00  0.12667828643E+01  0.51100000000E-03 0.  1.
        -11    1    3    3    0    0 -0.49746092538E+01  0.14541486754E+02 -0.55357531926E+01  0.16335425856E+02  0.51100000000E-03 0. -1.
         12    1    3    3    0    0 -0.53253883035E+01  0.27158942463E+02 -0.69692108798E+01  0.28540108910E+02  0.00000000000E+00 0. -1.
</event>
<event>
 7    1  0.3435408E-009  0.4614232E+02  0.7816164E-02  0.1320468E+00
        -11   -1    0    0    0    0  0.00000000000E+00  0.00000000000E+00  0.45593999997E+02  0.45594000000E+02  0.51100000000E-03 0. -1.
         11   -1    0    0    0    0 -0.00000000000E+00 -0.00000000000E+00 -0.45593999997E+02  0.45594000000E+02  0.51100000000E-03 0.  1.
    9900012    2    1    2    0    0  0.23551708217E+02  0.44524738309E+01  0.38139297012E+02  0.46142318079E+02  0.10000002902E+02 0.  0.
        -12    1    1    2    0    0 -0.23551708217E+02 -0.44524738309E+01 -0.38139297012E+02  0.45045681921E+02  0.00000000000E+00 0.  1.
         11    1    3    3    0    0  0.13139902696E+02  0.23834583516E+01  0.14396706896E+02  0.19636778918E+02  0.51100000000E-03 0. -1.
        -11    1    3    3    0    0  0.18351077379E+01 -0.11921343781E+01  0.79006225147E+01  0.81980876530E+01  0.51100000000E-03 0.  1.
        -12    1    3    3    0    0  0.85766977831E+01  0.32611498574E+01  0.15841967601E+02  0.18307451508E+02  0.00000000000E+00 0.  1.
</event>
<event>
 7    1  0.3637857E-009  0.4614232E+02  0.7816164E-02  0.1320468E+00
        -11   -1    0    0    0    0  0.00000000000E+00  0.00000000000E+00  0.45593999997E+02  0.45594000000E+02  0.51100000000E-03 0. -1.
         11   -1    0    0    0    0 -0.00000000000E+00 -0.00000000000E+00 -0.45593999997E+02  0.45594000000E+02  0.51100000000E-03 0.  1.
    9900012    2    1    2    0    0 -0.45840800372E+00  0.42867014111E+01  0.44838900959E+02  0.46142323337E+02  0.10000050842E+02 0.  0.
        -12    1    1    2    0    0  0.45840800372E+00 -0.42867014111E+01 -0.44838900959E+02  0.45045676663E+02  0.00000000000E+00 0.  1.
         11    1    3    3    0    0 -0.16588750734E+01  0.34633647006E+01  0.25238304320E+02  0.25528783104E+02  0.51100000000E-03 0. -1.
        -11    1    3    3    0    0  0.32059528717E+01 -0.42572929149E+00  0.15881346158E+02  0.16207298828E+02  0.51100000000E-03 0.  1.
        -12    1    3    3    0    0 -0.20054858020E+01  0.12490660020E+01  0.37192504807E+01  0.44062414048E+01  0.00000000000E+00 0.  1.
</event>
<event>
 7    1  0.3435408E-009  0.4614232E+02  0.7816164E-02  0.1320468E+00
        -11   -1    0    0    0    0  0.00000000000E+00  0.00000000000E+00  0.45593999997E+02  0.45594000000E+02  0.51100000000E-03 0.  1.
         11   -1    0    0    0    0 -0.00000000000E+00 -0.00000000000E+00 -0.45593999997E+02  0.45594000000E+02  0.51100000000E-03 0. -1.
    9900012    2    1    2    0    0 -0.37018745408E+02 -0.19533565399E+02 -0.16648285576E+02  0.46142322056E+02  0.10000039164E+02 0.  0.
        -12    1    1    2    0    0  0.37018745408E+02  0.19533565399E+02  0.16648285576E+02  0.45045677944E+02  0.00000000000E+00 0.  1.
         11    1    3    3    0    0 -0.10766323504E+02 -0.48451403598E+01 -0.53710153403E+01  0.12970617293E+02  0.51100000000E-03 0. -1.
        -11    1    3    3    0    0 -0.18634849816E+00 -0.15325340205E+01  0.59208723241E+00  0.16534672173E+01  0.51100000000E-03 0.  1.
        -12    1    3    3    0    0 -0.26066073406E+02 -0.13155891019E+02 -0.11869357468E+02  0.31518237546E+02  0.00000000000E+00 0.  1.
</event>
<event>
 7    1  0.3435408E-009  0.4614232E+02  0.7816164E-02  0.1320468E+00
        -11   -1    0    0    0    0  0.00000000000E+00  0.00000000000E+00  0.45593999997E+02  0.45594000000E+02  0.51100000000E-03 0.  1.
         11   -1    0    0    0    0 -0.00000000000E+00 -0.00000000000E+00 -0.45593999997E+02  0.45594000000E+02  0.51100000000E-03 0. -1.
    9900012    2    1    2    0    0  0.14731674275E+02  0.12109271389E+02 -0.40810008177E+02  0.46142318210E+02  0.10000004091E+02 0.  0.
        -12    1    1    2    0    0 -0.14731674275E+02 -0.12109271389E+02  0.40810008177E+02  0.45045681790E+02  0.00000000000E+00 0.  1.
         11    1    3    3    0    0  0.27384226141E+00  0.30453712635E+01 -0.11547957989E+02  0.11945903469E+02  0.51100000000E-03 0. -1.
        -11    1    3    3    0    0  0.11938425900E+02  0.92805731474E+01 -0.25875725222E+02  0.29970121904E+02  0.51100000000E-03 0.  1.
        -12    1    3    3    0    0  0.25194061135E+01 -0.21667302207E+00 -0.33863249656E+01  0.42262928360E+01  0.00000000000E+00 0.  1.
</event>
<event>
 7    1  0.3435408E-009  0.4614232E+02  0.7816164E-02  0.1320468E+00
        -11   -1    0    0    0    0  0.00000000000E+00  0.00000000000E+00  0.45593999997E+02  0.45594000000E+02  0.51100000000E-03 0.  1.
         11   -1    0    0    0    0 -0.00000000000E+00 -0.00000000000E+00 -0.45593999997E+02  0.45594000000E+02  0.51100000000E-03 0. -1.
    9900012    2    1    2    0    0  0.40946395315E+02  0.71555440720E+01 -0.17358122026E+02  0.46142317626E+02  0.99999987707E+01 0.  0.
        -12    1    1    2    0    0 -0.40946395315E+02 -0.71555440720E+01  0.17358122026E+02  0.45045682374E+02  0.00000000000E+00 0.  1.
         11    1    3    3    0    0  0.16589885824E+01  0.20601987131E+01 -0.19968896090E+01  0.33142465547E+01  0.51100000000E-03 0.  1.
        -11    1    3    3    0    0  0.13677397474E+02 -0.78859574456E+00 -0.51139813458E+01  0.14623470531E+02  0.51100000000E-03 0. -1.
         12    1    3    3    0    0  0.25610009258E+02  0.58839411035E+01 -0.10247251071E+02  0.28204600540E+02  0.00000000000E+00 0. -1.
</event>
<event>
 7    1  0.3435408E-009  0.4614232E+02  0.7816164E-02  0.1320468E+00
        -11   -1    0    0    0    0  0.00000000000E+00  0.00000000000E+00  0.45593999997E+02  0.45594000000E+02  0.51100000000E-03 0.  1.
         11   -1    0    0    0    0 -0.00000000000E+00 -0.00000000000E+00 -0.45593999997E+02  0.45594000000E+02  0.51100000000E-03 0. -1.
    9900012    2    1    2    0    0 -0.18284871318E+02 -0.29286356969E+02 -0.28932444434E+02  0.46142316916E+02  0.99999922897E+01 0.  0.
        -12    1    1    2    0    0  0.18284871318E+02  0.29286356969E+02  0.28932444434E+02  0.45045683084E+02  0.00000000000E+00 0.  1.
         11    1    3    3    0    0 -0.40541420161E+01 -0.25338345367E+01 -0.67826180309E+01  0.82982102022E+01  0.51100000000E-03 0. -1.
        -11    1    3    3    0    0 -0.99124015821E+01 -0.20397293836E+02 -0.18819073195E+02  0.29469693197E+02  0.51100000000E-03 0.  1.
        -12    1    3    3    0    0 -0.43183277202E+01 -0.63552285963E+01 -0.33307532077E+01  0.83744135162E+01  0.00000000000E+00 0.  1.
</event>
<event>
 7    1  0.3435408E-009  0.4614232E+02  0.7816164E-02  0.1320468E+00
        -11   -1    0    0    0    0  0.00000000000E+00  0.00000000000E+00  0.45593999997E+02  0.45594000000E+02  0.51100000000E-03 0.  1.
         11   -1    0    0    0    0 -0.00000000000E+00 -0.00000000000E+00 -0.45593999997E+02  0.45594000000E+02  0.51100000000E-03 0. -1.
    9900012    2    1    2    0    0 -0.19437804627E+02  0.10097901018E+02 -0.39361372130E+02  0.46142317969E+02  0.10000001895E+02 0.  0.
        -12    1    1    2    0    0  0.19437804627E+02 -0.10097901018E+02  0.39361372130E+02  0.45045682031E+02  0.00000000000E+00 0.  1.
         11    1    3    3    0    0 -0.12809710605E+02  0.82242786931E+01 -0.26776623140E+02  0.30801217392E+02  0.51100000000E-03 0. -1.
        -11    1    3    3    0    0 -0.25294054687E+01 -0.19129711013E+01 -0.40469114343E+01  0.51414825564E+01  0.51100000000E-03 0.  1.
        -12    1    3    3    0    0 -0.40986885542E+01  0.37865934261E+01 -0.85378375558E+01  0.10199618021E+02  0.00000000000E+00 0.  1.
</event>
<event>
 7    1  0.3435408E-009  0.4614232E+02  0.7816164E-02  0.1320468E+00
        -11   -1    0    0    0    0  0.00000000000E+00  0.00000000000E+00  0.45593999997E+02  0.45594000000E+02  0.51100000000E-03 0.  1.
         11   -1    0    0    0    0 -0.00000000000E+00 -0.00000000000E+00 -0.45593999997E+02  0.45594000000E+02  0.51100000000E-03 0. -1.
    9900012    2    1    2    0    0  0.22361254340E+02  0.36576216460E+02 -0.13829975994E+02  0.46142317164E+02  0.99999945543E+01 0.  0.
        -12    1    1    2    0    0 -0.22361254340E+02 -0.36576216460E+02  0.13829975994E+02  0.45045682836E+02  0.00000000000E+00 0.  1.
         11    1    3    3    0    0  0.46919209582E+01  0.73263345433E+01 -0.14194882740E+01  0.88150012671E+01  0.51100000000E-03 0. -1.
        -11    1    3    3    0    0  0.17818771374E+02  0.29615151690E+02 -0.12716789375E+02  0.36827741652E+02  0.51100000000E-03 0.  1.
        -12    1    3    3    0    0 -0.14943799301E+00 -0.36526977351E+00  0.30630165585E+00  0.49957424430E+00  0.00000000000E+00 0.  1.
</event>
<event>
 7    1  0.3435408E-009  0.4614232E+02  0.7816164E-02  0.1320468E+00
        -11   -1    0    0    0    0  0.00000000000E+00  0.00000000000E+00  0.45593999997E+02  0.45594000000E+02  0.51100000000E-03 0. -1.
         11   -1    0    0    0    0 -0.00000000000E+00 -0.00000000000E+00 -0.45593999997E+02  0.45594000000E+02  0.51100000000E-03 0.  1.
    9900012    2    1    2    0    0 -0.86186395338E+01 -0.31106783871E+01  0.44103926353E+02  0.46142316664E+02  0.99999899963E+01 0.  0.
        -12    1    1    2    0    0  0.86186395338E+01  0.31106783871E+01 -0.44103926353E+02  0.45045683336E+02  0.00000000000E+00 0.  1.
         11    1    3    3    0    0 -0.46695527538E+00  0.30933315702E+01  0.92028838167E+01  0.97200729543E+01  0.51100000000E-03 0. -1.
        -11    1    3    3    0    0 -0.11292752937E+01 -0.61643233577E+00  0.26483333818E+01  0.29443032242E+01  0.51100000000E-03 0.  1.
         12    1    3    3    0    0 -0.70224089647E+01 -0.55875776216E+01  0.32252709155E+02  0.33477940486E+02  0.00000000000E+00 0. -1.
</event>
<event>
 7    1  0.3435408E-009  0.4614232E+02  0.7816164E-02  0.1320468E+00
        -11   -1    0    0    0    0  0.00000000000E+00  0.00000000000E+00  0.45593999997E+02  0.45594000000E+02  0.51100000000E-03 0. -1.
         11   -1    0    0    0    0 -0.00000000000E+00 -0.00000000000E+00 -0.45593999997E+02  0.45594000000E+02  0.51100000000E-03 0.  1.
    9900012    2    1    2    0    0 -0.97975672418E+00 -0.41403386681E+02  0.17717596285E+02  0.46142316855E+02  0.99999917350E+01 0.  0.
        -12    1    1    2    0    0  0.97975672418E+00  0.41403386681E+02 -0.17717596285E+02  0.45045683145E+02  0.00000000000E+00 0.  1.
         11    1    3    3    0    0  0.27187620765E+00 -0.47731847889E+01  0.10062735974E+01  0.48856725755E+01  0.51100000000E-03 0. -1.
        -11    1    3    3    0    0 -0.10400919886E+01 -0.35934535948E+02  0.17666715388E+02  0.40056029483E+02  0.51100000000E-03 0.  1.
        -12    1    3    3    0    0 -0.21154094319E+00 -0.69566594456E+00 -0.95539269996E+00  0.12006147959E+01  0.00000000000E+00 0.  1.
</event>
<event>
 7    1  0.3435408E-009  0.4614232E+02  0.7816164E-02  0.1320468E+00
        -11   -1    0    0    0    0  0.00000000000E+00  0.00000000000E+00  0.45593999997E+02  0.45594000000E+02  0.51100000000E-03 0.  1.
         11   -1    0    0    0    0 -0.00000000000E+00 -0.00000000000E+00 -0.45593999997E+02  0.45594000000E+02  0.51100000000E-03 0. -1.
    9900012    2    1    2    0    0 -0.19869766355E+02 -0.60792441186E+01 -0.39966844683E+02  0.46142317655E+02  0.99999990295E+01 0.  0.
        -12    1    1    2    0    0  0.19869766355E+02  0.60792441186E+01  0.39966844683E+02  0.45045682345E+02  0.00000000000E+00 0.  1.
         11    1    3    3    0    0 -0.16024243292E+02 -0.51736036148E+01 -0.33229409105E+02  0.37252331164E+02  0.51100000000E-03 0. -1.
        -11    1    3    3    0    0  0.78222345463E+00  0.42281619708E+00 -0.17195758702E+01  0.19358689273E+01  0.51100000000E-03 0.  1.
         12    1    3    3    0    0 -0.46277465172E+01 -0.13284567009E+01 -0.50178597080E+01  0.69541175632E+01  0.00000000000E+00 0. -1.
</event>
<event>
 7    1  0.3435408E-009  0.4614232E+02  0.7816164E-02  0.1320468E+00
        -11   -1    0    0    0    0  0.00000000000E+00  0.00000000000E+00  0.45593999997E+02  0.45594000000E+02  0.51100000000E-03 0. -1.
         11   -1    0    0    0    0 -0.00000000000E+00 -0.00000000000E+00 -0.45593999997E+02  0.45594000000E+02  0.51100000000E-03 0.  1.
    9900012    2    1    2    0    0 -0.24091597620E+02  0.67990582673E+01  0.37449715726E+02  0.46142317886E+02  0.10000001137E+02 0.  0.
        -12    1    1    2    0    0  0.24091597620E+02 -0.67990582673E+01 -0.37449715726E+02  0.45045682114E+02  0.00000000000E+00 0.  1.
         11    1    3    3    0    0 -0.10456367228E+02  0.59657582706E+01  0.14397236893E+02  0.18767160620E+02  0.51100000000E-03 0. -1.
        -11    1    3    3    0    0 -0.41505487403E+00 -0.62456265354E+00  0.44169182161E+01  0.44801245346E+01  0.51100000000E-03 0.  1.
        -12    1    3    3    0    0 -0.13220175518E+02  0.14578626503E+01  0.18635560617E+02  0.22895032731E+02  0.00000000000E+00 0.  1.
</event>
<event>
 7    1  0.3435408E-009  0.4614232E+02  0.7816164E-02  0.1320468E+00
        -11   -1    0    0    0    0  0.00000000000E+00  0.00000000000E+00  0.45593999997E+02  0.45594000000E+02  0.51100000000E-03 0.  1.
         11   -1    0    0    0    0 -0.00000000000E+00 -0.00000000000E+00 -0.45593999997E+02  0.45594000000E+02  0.51100000000E-03 0. -1.
    9900012    2    1    2    0    0  0.10953564812E+02 -0.19159021117E+02 -0.39269130929E+02  0.46142319672E+02  0.10000017425E+02 0.  0.
        -12    1    1    2    0    0 -0.10953564812E+02  0.19159021117E+02  0.39269130929E+02  0.45045680328E+02  0.00000000000E+00 0.  1.
         11    1    3    3    0    0  0.16510695699E+01 -0.59437013669E+01 -0.11562552140E+02  0.13105198545E+02  0.51100000000E-03 0. -1.
        -11    1    3    3    0    0  0.97083058099E+01 -0.11634464903E+02 -0.19634658405E+02  0.24801850460E+02  0.51100000000E-03 0.  1.
        -12    1    3    3    0    0 -0.40581056748E+00 -0.15808548471E+01 -0.80719203847E+01  0.82352706672E+01  0.00000000000E+00 0.  1.
</event>
<event>
 7    1  0.3435408E-009  0.4614232E+02  0.7816164E-02  0.1320468E+00
        -11   -1    0    0    0    0  0.00000000000E+00  0.00000000000E+00  0.45593999997E+02  0.45594000000E+02  0.51100000000E-03 0.  1.
         11   -1    0    0    0    0 -0.00000000000E+00 -0.00000000000E+00 -0.45593999997E+02  0.45594000000E+02  0.51100000000E-03 0. -1.
    9900012    2    1    2    0    0  0.27577892287E+02 -0.35574098995E+02 -0.17483745152E+01  0.46142317902E+02  0.10000001281E+02 0.  0.
        -12    1    1    2    0    0 -0.27577892287E+02  0.35574098995E+02  0.17483745152E+01  0.45045682098E+02  0.00000000000E+00 0.  1.
         11    1    3    3    0    0  0.72348969862E+01 -0.15460084778E+02 -0.28524021878E+01  0.17305899406E+02  0.51100000000E-03 0. -1.
        -11    1    3    3    0    0  0.50394319885E+01 -0.65823943438E+01  0.13938755542E+01  0.84063475651E+01  0.51100000000E-03 0.  1.
         12    1    3    3    0    0  0.15303563312E+02 -0.13531619873E+02 -0.28984788150E+00  0.20430070931E+02  0.00000000000E+00 0. -1.
</event>
<event>
 7    1  0.3435408E-009  0.4614232E+02  0.7816164E-02  0.1320468E+00
        -11   -1    0    0    0    0  0.00000000000E+00  0.00000000000E+00  0.45593999997E+02  0.45594000000E+02  0.51100000000E-03 0. -1.
         11   -1    0    0    0    0 -0.00000000000E+00 -0.00000000000E+00 -0.45593999997E+02  0.45594000000E+02  0.51100000000E-03 0.  1.
    9900012    2    1    2    0    0 -0.37164231888E+02 -0.12458119256E+01  0.25424030364E+02  0.46142317642E+02  0.99999989147E+01 0.  0.
        -12    1    1    2    0    0  0.37164231888E+02  0.12458119256E+01 -0.25424030364E+02  0.45045682358E+02  0.00000000000E+00 0.  1.
         11    1    3    3    0    0 -0.18450522377E+02  0.14295405185E+01  0.11945902097E+02  0.22026573479E+02  0.51100000000E-03 0. -1.
        -11    1    3    3    0    0 -0.74747748007E+01  0.31690236665E+00  0.19311139752E+01  0.77266996109E+01  0.51100000000E-03 0.  1.
        -12    1    3    3    0    0 -0.11238934710E+02 -0.29922548108E+01  0.11547014292E+02  0.16389044552E+02  0.00000000000E+00 0.  1.
</event>
<event>
 7    1  0.3435408E-009  0.4614232E+02  0.7816164E-02  0.1320468E+00
        -11   -1    0    0    0    0  0.00000000000E+00  0.00000000000E+00  0.45593999997E+02  0.45594000000E+02  0.51100000000E-03 0. -1.
         11   -1    0    0    0    0 -0.00000000000E+00 -0.00000000000E+00 -0.45593999997E+02  0.45594000000E+02  0.51100000000E-03 0.  1.
    9900012    2    1    2    0    0  0.71381273182E+01  0.44053504843E+02  0.61195808043E+01  0.46142318522E+02  0.10000006940E+02 0.  0.
        -12    1    1    2    0    0 -0.71381273182E+01 -0.44053504843E+02 -0.61195808043E+01  0.45045681478E+02  0.00000000000E+00 0.  1.
         11    1    3    3    0    0  0.37824210489E+01  0.56635303913E+01  0.28329169364E+00  0.68163435894E+01  0.51100000000E-03 0. -1.
        -11    1    3    3    0    0 -0.11365968805E+01  0.87269819714E+01  0.24428819376E+01  0.91334407110E+01  0.51100000000E-03 0.  1.
         12    1    3    3    0    0  0.44923031498E+01  0.29662992480E+02  0.33934071730E+01  0.30192534222E+02  0.00000000000E+00 0. -1.
</event>
<event>
 7    1  0.3435408E-009  0.4614232E+02  0.7816164E-02  0.1320468E+00
        -11   -1    0    0    0    0  0.00000000000E+00  0.00000000000E+00  0.45593999997E+02  0.45594000000E+02  0.51100000000E-03 0. -1.
         11   -1    0    0    0    0 -0.00000000000E+00 -0.00000000000E+00 -0.45593999997E+02  0.45594000000E+02  0.51100000000E-03 0.  1.
    9900012    2    1    2    0    0  0.12509723181E+01 -0.44970391061E+02 -0.22830912106E+01  0.46142317528E+02  0.99999978745E+01 0.  0.
        -12    1    1    2    0    0 -0.12509723181E+01  0.44970391061E+02  0.22830912106E+01  0.45045682472E+02  0.00000000000E+00 0.  1.
         11    1    3    3    0    0  0.40783778156E+01 -0.10178264737E+02 -0.15142883451E+01  0.11069024714E+02  0.51100000000E-03 0. -1.
        -11    1    3    3    0    0 -0.20149614800E+00 -0.91548688085E+01 -0.15637585023E+01  0.92896482448E+01  0.51100000000E-03 0.  1.
         12    1    3    3    0    0 -0.26259093496E+01 -0.25637257515E+02  0.79495563681E+00  0.25783644569E+02  0.00000000000E+00 0. -1.
</event>
<event>
 7    1  0.3435408E-009  0.4614232E+02  0.7816164E-02  0.1320468E+00
        -11   -1    0    0    0    0  0.00000000000E+00  0.00000000000E+00  0.45593999997E+02  0.45594000000E+02  0.51100000000E-03 0.  1.
         11   -1    0    0    0    0 -0.00000000000E+00 -0.00000000000E+00 -0.45593999997E+02  0.45594000000E+02  0.51100000000E-03 0. -1.
    9900012    2    1    2    0    0 -0.35364564566E+02 -0.22904830618E+02 -0.15932042955E+02  0.46142315575E+02  0.99999800645E+01 0.  0.
        -12    1    1    2    0    0  0.35364564566E+02  0.22904830618E+02  0.15932042955E+02  0.45045684425E+02  0.00000000000E+00 0.  1.
         11    1    3    3    0    0 -0.92245274153E+01 -0.47769812539E+01 -0.30664857576E+01  0.10831195276E+02  0.51100000000E-03 0. -1.
        -11    1    3    3    0    0 -0.24246890285E+01 -0.14933983578E+01 -0.42013978892E+01  0.50755393826E+01  0.51100000000E-03 0.  1.
        -12    1    3    3    0    0 -0.23715348123E+02 -0.16634451006E+02 -0.86641593083E+01  0.30235580917E+02  0.00000000000E+00 0.  1.
</event>
<event>
 7    1  0.3435408E-009  0.4614232E+02  0.7816164E-02  0.1320468E+00
        -11   -1    0    0    0    0  0.00000000000E+00  0.00000000000E+00  0.45593999997E+02  0.45594000000E+02  0.51100000000E-03 0.  1.
         11   -1    0    0    0    0 -0.00000000000E+00 -0.00000000000E+00 -0.45593999997E+02  0.45594000000E+02  0.51100000000E-03 0. -1.
    9900012    2    1    2    0    0 -0.11455352166E+02 -0.22323887555E+02 -0.37410321983E+02  0.46142320521E+02  0.10000025171E+02 0.  0.
        -12    1    1    2    0    0  0.11455352166E+02  0.22323887555E+02  0.37410321983E+02  0.45045679479E+02  0.00000000000E+00 0.  1.
         11    1    3    3    0    0 -0.96857937343E+01 -0.14715857683E+02 -0.27169405500E+02  0.32381285692E+02  0.51100000000E-03 0. -1.
        -11    1    3    3    0    0  0.17729375825E+00 -0.77462498178E+00 -0.46564849488E+01  0.47238045343E+01  0.51100000000E-03 0.  1.
         12    1    3    3    0    0 -0.19468521895E+01 -0.68334048901E+01 -0.55844315347E+01  0.90372302950E+01  0.00000000000E+00 0. -1.
</event>
<event>
 7    1  0.3435408E-009  0.4614232E+02  0.7816164E-02  0.1320468E+00
        -11   -1    0    0    0    0  0.00000000000E+00  0.00000000000E+00  0.45593999997E+02  0.45594000000E+02  0.51100000000E-03 0.  1.
         11   -1    0    0    0    0 -0.00000000000E+00 -0.00000000000E+00 -0.45593999997E+02  0.45594000000E+02  0.51100000000E-03 0. -1.
    9900012    2    1    2    0    0  0.21206860870E+02  0.22584399132E+02 -0.32700574750E+02  0.46142316288E+02  0.99999865661E+01 0.  0.
        -12    1    1    2    0    0 -0.21206860870E+02 -0.22584399132E+02  0.32700574750E+02  0.45045683712E+02  0.00000000000E+00 0.  1.
         11    1    3    3    0    0  0.17623055089E+02  0.16529757985E+02 -0.21716919139E+02  0.32487375192E+02  0.51100000000E-03 0. -1.
        -11    1    3    3    0    0  0.42858460051E+01  0.60364252154E+01 -0.98605318945E+01  0.12330328255E+02  0.51100000000E-03 0.  1.
         12    1    3    3    0    0 -0.70204022385E+00  0.18215930637E-01 -0.11231237172E+01  0.13246128416E+01  0.00000000000E+00 0. -1.
</event>
<event>
 7    1  0.3435408E-009  0.4614232E+02  0.7816164E-02  0.1320468E+00
        -11   -1    0    0    0    0  0.00000000000E+00  0.00000000000E+00  0.45593999997E+02  0.45594000000E+02  0.51100000000E-03 0. -1.
         11   -1    0    0    0    0 -0.00000000000E+00 -0.00000000000E+00 -0.45593999997E+02  0.45594000000E+02  0.51100000000E-03 0.  1.
    9900012    2    1    2    0    0 -0.20017347803E+02 -0.40282625527E+02  0.23935924931E+01  0.46142318548E+02  0.10000007180E+02 0.  0.
        -12    1    1    2    0    0  0.20017347803E+02  0.40282625527E+02 -0.23935924931E+01  0.45045681452E+02  0.00000000000E+00 0.  1.
         11    1    3    3    0    0 -0.94548231266E+01 -0.16712433753E+02  0.16344626739E+01  0.19270977941E+02  0.51100000000E-03 0. -1.
        -11    1    3    3    0    0  0.12676249831E+00 -0.75985659806E+01 -0.46485381321E+00  0.76138270942E+01  0.51100000000E-03 0.  1.
        -12    1    3    3    0    0 -0.10689287174E+02 -0.15971625794E+02  0.12239836324E+01  0.19257513513E+02  0.00000000000E+00 0.  1.
</event>
<event>
 7    1  0.3435408E-009  0.4614232E+02  0.7816164E-02  0.1320468E+00
        -11   -1    0    0    0    0  0.00000000000E+00  0.00000000000E+00  0.45593999997E+02  0.45594000000E+02  0.51100000000E-03 0.  1.
         11   -1    0    0    0    0 -0.00000000000E+00 -0.00000000000E+00 -0.45593999997E+02  0.45594000000E+02  0.51100000000E-03 0. -1.
    9900012    2    1    2    0    0  0.23876039132E+02  0.28372433287E+02 -0.25574466690E+02  0.46142316946E+02  0.99999925700E+01 0.  0.
        -12    1    1    2    0    0 -0.23876039132E+02 -0.28372433287E+02  0.25574466690E+02  0.45045683054E+02  0.00000000000E+00 0.  1.
         11    1    3    3    0    0  0.14213914781E+02  0.15052378902E+02 -0.16751931452E+02  0.26631498111E+02  0.51100000000E-03 0. -1.
        -11    1    3    3    0    0  0.49459695424E+01  0.11136870931E+02 -0.57586851213E+01  0.13477943591E+02  0.51100000000E-03 0.  1.
         12    1    3    3    0    0  0.47161548090E+01  0.21831834542E+01 -0.30638501170E+01  0.60328752446E+01  0.00000000000E+00 0. -1.
</event>
<event>
 7    1  0.3435408E-009  0.4614232E+02  0.7816164E-02  0.1320468E+00
        -11   -1    0    0    0    0  0.00000000000E+00  0.00000000000E+00  0.45593999997E+02  0.45594000000E+02  0.51100000000E-03 0.  1.
         11   -1    0    0    0    0 -0.00000000000E+00 -0.00000000000E+00 -0.45593999997E+02  0.45594000000E+02  0.51100000000E-03 0. -1.
    9900012    2    1    2    0    0  0.37670931043E+02  0.23910150352E+02 -0.61902435283E+01  0.46142318182E+02  0.10000003835E+02 0.  0.
        -12    1    1    2    0    0 -0.37670931043E+02 -0.23910150352E+02  0.61902435283E+01  0.45045681818E+02  0.00000000000E+00 0.  1.
         11    1    3    3    0    0  0.37933408660E+01  0.22510805954E+00  0.37913775962E+00  0.38188812846E+01  0.51100000000E-03 0. -1.
        -11    1    3    3    0    0  0.69456042856E+01  0.49820151417E+01 -0.39895932671E+01  0.94328547355E+01  0.51100000000E-03 0.  1.
         12    1    3    3    0    0  0.26931985892E+02  0.18703027151E+02 -0.25797880209E+01  0.32890582161E+02  0.00000000000E+00 0. -1.
</event>
<event>
 7    1  0.3435408E-009  0.4614232E+02  0.7816164E-02  0.1320468E+00
        -11   -1    0    0    0    0  0.00000000000E+00  0.00000000000E+00  0.45593999997E+02  0.45594000000E+02  0.51100000000E-03 0.  1.
         11   -1    0    0    0    0 -0.00000000000E+00 -0.00000000000E+00 -0.45593999997E+02  0.45594000000E+02  0.51100000000E-03 0. -1.
    9900012    2    1    2    0    0 -0.39930383428E+02 -0.86179371183E+01 -0.18984441808E+02  0.46142318835E+02  0.10000009791E+02 0.  0.
        -12    1    1    2    0    0  0.39930383428E+02  0.86179371183E+01  0.18984441808E+02  0.45045681165E+02  0.00000000000E+00 0.  1.
         11    1    3    3    0    0 -0.63559302754E+01 -0.17209085827E+01 -0.19588924221E+01  0.68699807714E+01  0.51100000000E-03 0. -1.
        -11    1    3    3    0    0 -0.21879246542E+02 -0.34672589439E+01 -0.15393957853E+02  0.26975864258E+02  0.51100000000E-03 0.  1.
        -12    1    3    3    0    0 -0.11695206611E+02 -0.34297695916E+01 -0.16315915324E+01  0.12296473806E+02  0.00000000000E+00 0.  1.
</event>
<event>
 7    1  0.3435408E-009  0.4614232E+02  0.7816164E-02  0.1320468E+00
        -11   -1    0    0    0    0  0.00000000000E+00  0.00000000000E+00  0.45593999997E+02  0.45594000000E+02  0.51100000000E-03 0.  1.
         11   -1    0    0    0    0 -0.00000000000E+00 -0.00000000000E+00 -0.45593999997E+02  0.45594000000E+02  0.51100000000E-03 0. -1.
    9900012    2    1    2    0    0 -0.21430305258E+02 -0.37208751061E+02 -0.13614853033E+02  0.46142319163E+02  0.10000012785E+02 0.  0.
        -12    1    1    2    0    0  0.21430305258E+02  0.37208751061E+02  0.13614853033E+02  0.45045680837E+02  0.00000000000E+00 0.  1.
         11    1    3    3    0    0 -0.15754668243E+02 -0.24705472569E+02 -0.11377793575E+02  0.31432851179E+02  0.51100000000E-03 0. -1.
        -11    1    3    3    0    0  0.24003298412E+00 -0.43854664095E+01  0.11352054708E+00  0.43934973129E+01  0.51100000000E-03 0.  1.
        -12    1    3    3    0    0 -0.59156699996E+01 -0.81178120820E+01 -0.23505800044E+01  0.10315970672E+02  0.00000000000E+00 0.  1.
</event>
<event>
 7    1  0.3435408E-009  0.4614232E+02  0.7816164E-02  0.1320468E+00
        -11   -1    0    0    0    0  0.00000000000E+00  0.00000000000E+00  0.45593999997E+02  0.45594000000E+02  0.51100000000E-03 0.  1.
         11   -1    0    0    0    0 -0.00000000000E+00 -0.00000000000E+00 -0.45593999997E+02  0.45594000000E+02  0.51100000000E-03 0. -1.
    9900012    2    1    2    0    0 -0.44041947393E+02  0.27078784278E+01 -0.90602274389E+01  0.46142318110E+02  0.10000003180E+02 0.  0.
        -12    1    1    2    0    0  0.44041947393E+02 -0.27078784278E+01  0.90602274389E+01  0.45045681890E+02  0.00000000000E+00 0.  1.
         11    1    3    3    0    0 -0.78949844142E+01 -0.12049742056E+01 -0.82043262315E-01  0.79868312298E+01  0.51100000000E-03 0. -1.
        -11    1    3    3    0    0 -0.85089961370E+00  0.33951950597E+00  0.94615681549E+00  0.13170104890E+01  0.51100000000E-03 0.  1.
         12    1    3    3    0    0 -0.35296063365E+02  0.35733331275E+01 -0.99243409920E+01  0.36838476391E+02  0.00000000000E+00 0. -1.
</event>
<event>
 7    1  0.3435408E-009  0.4614232E+02  0.7816164E-02  0.1320468E+00
        -11   -1    0    0    0    0  0.00000000000E+00  0.00000000000E+00  0.45593999997E+02  0.45594000000E+02  0.51100000000E-03 0.  1.
         11   -1    0    0    0    0 -0.00000000000E+00 -0.00000000000E+00 -0.45593999997E+02  0.45594000000E+02  0.51100000000E-03 0. -1.
    9900012    2    1    2    0    0  0.41219436648E+02  0.18163017997E+02  0.41981741555E+00  0.46142318442E+02  0.10000006209E+02 0.  0.
        -12    1    1    2    0    0 -0.41219436648E+02 -0.18163017997E+02 -0.41981741555E+00  0.45045681558E+02  0.00000000000E+00 0.  1.
         11    1    3    3    0    0  0.17523566972E+02  0.71421034093E+01 -0.73333740384E-01  0.18923277164E+02  0.51100000000E-03 0. -1.
        -11    1    3    3    0    0  0.20923572423E+02  0.72596730971E+01 -0.13681570757E+01  0.22189425195E+02  0.51100000000E-03 0.  1.
        -12    1    3    3    0    0  0.27722972533E+01  0.37612414909E+01  0.18613082317E+01  0.50296160834E+01  0.00000000000E+00 0.  1.
</event>
<event>
 7    1  0.3435408E-009  0.4614232E+02  0.7816164E-02  0.1320468E+00
        -11   -1    0    0    0    0  0.00000000000E+00  0.00000000000E+00  0.45593999997E+02  0.45594000000E+02  0.51100000000E-03 0.  1.
         11   -1    0    0    0    0 -0.00000000000E+00 -0.00000000000E+00 -0.45593999997E+02  0.45594000000E+02  0.51100000000E-03 0. -1.
    9900012    2    1    2    0    0 -0.16779959354E+02  0.38912303390E+02 -0.15276751205E+02  0.46142317427E+02  0.99999969542E+01 0.  0.
        -12    1    1    2    0    0  0.16779959354E+02 -0.38912303390E+02  0.15276751205E+02  0.45045682573E+02  0.00000000000E+00 0.  1.
         11    1    3    3    0    0 -0.13914435655E+02  0.27742804316E+02 -0.72076187157E+01  0.31862587446E+02  0.51100000000E-03 0.  1.
        -11    1    3    3    0    0 -0.24717744993E+01  0.99951077389E+01 -0.61424037854E+01  0.11989202326E+02  0.51100000000E-03 0. -1.
        -12    1    3    3    0    0 -0.39374919970E+00  0.11743913352E+01 -0.19267287042E+01  0.22905276554E+01  0.00000000000E+00 0.  1.
</event>
<event>
 7    1  0.3435408E-009  0.4614232E+02  0.7816164E-02  0.1320468E+00
        -11   -1    0    0    0    0  0.00000000000E+00  0.00000000000E+00  0.45593999997E+02  0.45594000000E+02  0.51100000000E-03 0.  1.
         11   -1    0    0    0    0 -0.00000000000E+00 -0.00000000000E+00 -0.45593999997E+02  0.45594000000E+02  0.51100000000E-03 0. -1.
    9900012    2    1    2    0    0  0.47411295821E+01 -0.15478780183E+01 -0.44768731761E+02  0.46142316749E+02  0.99999907691E+01 0.  0.
        -12    1    1    2    0    0 -0.47411295821E+01  0.15478780183E+01  0.44768731761E+02  0.45045683251E+02  0.00000000000E+00 0.  1.
         11    1    3    3    0    0  0.11339681941E+01 -0.32481698814E+01 -0.33041394777E+02  0.33220028003E+02  0.51100000000E-03 0. -1.
        -11    1    3    3    0    0  0.19965471262E+01 -0.51276670269E+00 -0.22228346110E+01  0.30315217446E+01  0.51100000000E-03 0.  1.
        -12    1    3    3    0    0  0.16106142618E+01  0.22130585658E+01 -0.95045023728E+01  0.98907670011E+01  0.00000000000E+00 0.  1.
</event>
<event>
 7    1  0.3435408E-009  0.4614232E+02  0.7816164E-02  0.1320468E+00
        -11   -1    0    0    0    0  0.00000000000E+00  0.00000000000E+00  0.45593999997E+02  0.45594000000E+02  0.51100000000E-03 0.  1.
         11   -1    0    0    0    0 -0.00000000000E+00 -0.00000000000E+00 -0.45593999997E+02  0.45594000000E+02  0.51100000000E-03 0. -1.
    9900012    2    1    2    0    0  0.12904815673E+02 -0.29344791755E+02 -0.31645890809E+02  0.46142317900E+02  0.10000001271E+02 0.  0.
        -12    1    1    2    0    0 -0.12904815673E+02  0.29344791755E+02  0.31645890809E+02  0.45045682100E+02  0.00000000000E+00 0.  1.
         11    1    3    3    0    0  0.34892016540E+01 -0.88816941163E+01 -0.94542350654E+01  0.13432854480E+02  0.51100000000E-03 0. -1.
        -11    1    3    3    0    0  0.38104155640E+01 -0.57942919234E+01 -0.21746034009E+01  0.72678735457E+01  0.51100000000E-03 0.  1.
        -12    1    3    3    0    0  0.56051984549E+01 -0.14668805715E+02 -0.20017052343E+02  0.25441589874E+02  0.00000000000E+00 0.  1.
</event>
<event>
 7    1  0.3435408E-009  0.4614232E+02  0.7816164E-02  0.1320468E+00
        -11   -1    0    0    0    0  0.00000000000E+00  0.00000000000E+00  0.45593999997E+02  0.45594000000E+02  0.51100000000E-03 0.  1.
         11   -1    0    0    0    0 -0.00000000000E+00 -0.00000000000E+00 -0.45593999997E+02  0.45594000000E+02  0.51100000000E-03 0. -1.
    9900012    2    1    2    0    0 -0.30953109362E+02 -0.58045632345E+01 -0.32207539394E+02  0.46142317328E+02  0.99999960501E+01 0.  0.
        -12    1    1    2    0    0  0.30953109362E+02  0.58045632345E+01  0.32207539394E+02  0.45045682672E+02  0.00000000000E+00 0.  1.
         11    1    3    3    0    0 -0.14021232493E+02 -0.47916252008E+01 -0.12955230663E+02  0.19682292409E+02  0.51100000000E-03 0. -1.
        -11    1    3    3    0    0 -0.33175740407E+01 -0.29007056770E+01 -0.47287584124E+01  0.64638647359E+01  0.51100000000E-03 0.  1.
         12    1    3    3    0    0 -0.13614302829E+02  0.18877676433E+01 -0.14523550319E+02  0.19996160183E+02  0.00000000000E+00 0. -1.
</event>
<event>
 7    1  0.3435408E-009  0.4614232E+02  0.7816164E-02  0.1320468E+00
        -11   -1    0    0    0    0  0.00000000000E+00  0.00000000000E+00  0.45593999997E+02  0.45594000000E+02  0.51100000000E-03 0. -1.
         11   -1    0    0    0    0 -0.00000000000E+00 -0.00000000000E+00 -0.45593999997E+02  0.45594000000E+02  0.51100000000E-03 0.  1.
    9900012    2    1    2    0    0 -0.34346701658E+02  0.29144016650E+02 -0.20965166780E+00  0.46142316799E+02  0.99999912236E+01 0.  0.
        -12    1    1    2    0    0  0.34346701658E+02 -0.29144016650E+02  0.20965166780E+00  0.45045683201E+02  0.00000000000E+00 0.  1.
         11    1    3    3    0    0 -0.16809776937E+02  0.10498297846E+02  0.27215068286E+01  0.20004735890E+02  0.51100000000E-03 0. -1.
        -11    1    3    3    0    0 -0.13327564753E+02  0.12164416886E+02 -0.35292716656E+01  0.18386211659E+02  0.51100000000E-03 0.  1.
         12    1    3    3    0    0 -0.42093599675E+01  0.64813019168E+01  0.59811316921E+00  0.77513692491E+01  0.00000000000E+00 0. -1.
</event>
<event>
 7    1  0.3435408E-009  0.4614232E+02  0.7816164E-02  0.1320468E+00
        -11   -1    0    0    0    0  0.00000000000E+00  0.00000000000E+00  0.45593999997E+02  0.45594000000E+02  0.51100000000E-03 0.  1.
         11   -1    0    0    0    0 -0.00000000000E+00 -0.00000000000E+00 -0.45593999997E+02  0.45594000000E+02  0.51100000000E-03 0. -1.
    9900012    2    1    2    0    0 -0.98409060478E+01 -0.41499106580E+02 -0.14494628630E+02  0.46142317212E+02  0.99999949902E+01 0.  0.
        -12    1    1    2    0    0  0.98409060478E+01  0.41499106580E+02  0.14494628630E+02  0.45045682788E+02  0.00000000000E+00 0.  1.
         11    1    3    3    0    0 -0.41436013918E+01 -0.28113602495E+02 -0.62817713552E+01  0.29103345673E+02  0.51100000000E-03 0. -1.
        -11    1    3    3    0    0 -0.93845609828E+00 -0.57281975732E+00 -0.11986794771E-01  0.10995300210E+01  0.51100000000E-03 0.  1.
         12    1    3    3    0    0 -0.47588485577E+01 -0.12812684327E+02 -0.82008704800E+01  0.15939441517E+02  0.00000000000E+00 0. -1.
</event>
<event>
 7    1  0.3435408E-009  0.4614232E+02  0.7816164E-02  0.1320468E+00
        -11   -1    0    0    0    0  0.00000000000E+00  0.00000000000E+00  0.45593999997E+02  0.45594000000E+02  0.51100000000E-03 0.  1.
         11   -1    0    0    0    0 -0.00000000000E+00 -0.00000000000E+00 -0.45593999997E+02  0.45594000000E+02  0.51100000000E-03 0. -1.
    9900012    2    1    2    0    0 -0.42352242247E+02 -0.58067537639E+00 -0.15331799334E+02  0.46142315656E+02  0.99999808027E+01 0.  0.
        -12    1    1    2    0    0  0.42352242247E+02  0.58067537639E+00  0.15331799334E+02  0.45045684344E+02  0.00000000000E+00 0.  1.
         11    1    3    3    0    0 -0.99492702789E+01  0.55466082137E+00 -0.93087113665E+00  0.10008104168E+02  0.51100000000E-03 0. -1.
        -11    1    3    3    0    0 -0.83963918350E+01 -0.31420389422E+01 -0.50745487148E+01  0.10301594512E+02  0.51100000000E-03 0.  1.
         12    1    3    3    0    0 -0.24006580133E+02  0.20067027444E+01 -0.93263794826E+01  0.25832616976E+02  0.00000000000E+00 0. -1.
</event>
<event>
 7    1  0.3435408E-009  0.4614232E+02  0.7816164E-02  0.1320468E+00
        -11   -1    0    0    0    0  0.00000000000E+00  0.00000000000E+00  0.45593999997E+02  0.45594000000E+02  0.51100000000E-03 0. -1.
         11   -1    0    0    0    0 -0.00000000000E+00 -0.00000000000E+00 -0.45593999997E+02  0.45594000000E+02  0.51100000000E-03 0.  1.
    9900012    2    1    2    0    0 -0.39192450374E+01  0.26886230399E+02  0.35928869377E+02  0.46142317394E+02  0.99999966550E+01 0.  0.
        -12    1    1    2    0    0  0.39192450374E+01 -0.26886230399E+02 -0.35928869377E+02  0.45045682606E+02  0.00000000000E+00 0.  1.
         11    1    3    3    0    0 -0.31342003019E+01  0.20483780499E+02  0.31609793622E+02  0.37796660278E+02  0.51100000000E-03 0. -1.
        -11    1    3    3    0    0 -0.16341062126E+01  0.55593341201E+01  0.41718285359E+01  0.71400737088E+01  0.51100000000E-03 0.  1.
         12    1    3    3    0    0  0.84906147704E+00  0.84311577947E+00  0.14724721891E+00  0.12055834077E+01  0.00000000000E+00 0. -1.
</event>
<event>
 7    1  0.3435408E-009  0.4614232E+02  0.7816164E-02  0.1320468E+00
        -11   -1    0    0    0    0  0.00000000000E+00  0.00000000000E+00  0.45593999997E+02  0.45594000000E+02  0.51100000000E-03 0. -1.
         11   -1    0    0    0    0 -0.00000000000E+00 -0.00000000000E+00 -0.45593999997E+02  0.45594000000E+02  0.51100000000E-03 0.  1.
    9900012    2    1    2    0    0  0.39355554683E+02  0.29937786226E+01 -0.21709239873E+02  0.46142317735E+02  0.99999997629E+01 0.  0.
        -12    1    1    2    0    0 -0.39355554683E+02 -0.29937786226E+01  0.21709239873E+02  0.45045682265E+02  0.00000000000E+00 0.  1.
         11    1    3    3    0    0  0.12775329367E+02 -0.72084411969E+00 -0.56019422910E+01  0.13968192953E+02  0.51100000000E-03 0. -1.
        -11    1    3    3    0    0  0.23560676990E+02  0.47517220825E+01 -0.11698917242E+02  0.26731049883E+02  0.51100000000E-03 0.  1.
        -12    1    3    3    0    0  0.30195483266E+01 -0.10370993402E+01 -0.44083803394E+01  0.54430748989E+01  0.00000000000E+00 0.  1.
</event>
<event>
 7    1  0.3435408E-009  0.4614231E+02  0.7816164E-02  0.1320468E+00
        -11   -1    0    0    0    0  0.00000000000E+00  0.00000000000E+00  0.45593999997E+02  0.45594000000E+02  0.51100000000E-03 0. -1.
         11   -1    0    0    0    0 -0.00000000000E+00 -0.00000000000E+00 -0.45593999997E+02  0.45594000000E+02  0.51100000000E-03 0.  1.
    9900012    2    1    2    0    0 -0.39004729342E+02  0.15678632489E+02  0.16184106718E+02  0.46142314990E+02  0.99999747343E+01 0.  0.
        -12    1    1    2    0    0  0.39004729342E+02 -0.15678632489E+02 -0.16184106718E+02  0.45045685010E+02  0.00000000000E+00 0.  1.
         11    1    3    3    0    0 -0.22260244593E+02  0.13027586739E+02  0.94683769326E+01  0.27475200956E+02  0.51100000000E-03 0. -1.
        -11    1    3    3    0    0 -0.48111749859E+01 -0.29938232063E+00  0.35110999594E+01  0.59636278979E+01  0.51100000000E-03 0.  1.
         12    1    3    3    0    0 -0.11933309763E+02  0.29504280701E+01  0.32046298257E+01  0.12703486137E+02  0.00000000000E+00 0. -1.
</event>
<event>
 7    1  0.3435408E-009  0.4614232E+02  0.7816164E-02  0.1320468E+00
        -11   -1    0    0    0    0  0.00000000000E+00  0.00000000000E+00  0.45593999997E+02  0.45594000000E+02  0.51100000000E-03 0.  1.
         11   -1    0    0    0    0 -0.00000000000E+00 -0.00000000000E+00 -0.45593999997E+02  0.45594000000E+02  0.51100000000E-03 0. -1.
    9900012    2    1    2    0    0  0.33144693549E+02 -0.22307350759E+02 -0.20806844755E+02  0.46142318775E+02  0.10000009245E+02 0.  0.
        -12    1    1    2    0    0 -0.33144693549E+02  0.22307350759E+02  0.20806844755E+02  0.45045681225E+02  0.00000000000E+00 0.  1.
         11    1    3    3    0    0  0.43938824883E+00 -0.23576667321E+01 -0.26346813972E+01  0.35627518547E+01  0.51100000000E-03 0. -1.
        -11    1    3    3    0    0  0.23241200232E+01 -0.86769655799E+00 -0.30352659418E+00  0.24993118760E+01  0.51100000000E-03 0.  1.
         12    1    3    3    0    0  0.30381185277E+02 -0.19081987469E+02 -0.17868636764E+02  0.40080255044E+02  0.00000000000E+00 0. -1.
</event>
<event>
 7    1  0.3435408E-009  0.4614232E+02  0.7816164E-02  0.1320468E+00
        -11   -1    0    0    0    0  0.00000000000E+00  0.00000000000E+00  0.45593999997E+02  0.45594000000E+02  0.51100000000E-03 0.  1.
         11   -1    0    0    0    0 -0.00000000000E+00 -0.00000000000E+00 -0.45593999997E+02  0.45594000000E+02  0.51100000000E-03 0. -1.
    9900012    2    1    2    0    0  0.19952768549E+02 -0.30770939352E+02 -0.26156256574E+02  0.46142318305E+02  0.10000004962E+02 0.  0.
        -12    1    1    2    0    0 -0.19952768549E+02  0.30770939352E+02  0.26156256574E+02  0.45045681695E+02  0.00000000000E+00 0.  1.
         11    1    3    3    0    0  0.48972529578E+01 -0.58234320160E+01 -0.10291168610E+02  0.12798577991E+02  0.51100000000E-03 0. -1.
        -11    1    3    3    0    0  0.33877993967E+01 -0.80335204291E+01 -0.37566778276E+01  0.94935380021E+01  0.51100000000E-03 0.  1.
         12    1    3    3    0    0  0.11667716195E+02 -0.16913986907E+02 -0.12108410137E+02  0.23850202312E+02  0.00000000000E+00 0. -1.
</event>
<event>
 7    1  0.3435408E-009  0.4614232E+02  0.7816164E-02  0.1320468E+00
        -11   -1    0    0    0    0  0.00000000000E+00  0.00000000000E+00  0.45593999997E+02  0.45594000000E+02  0.51100000000E-03 0.  1.
         11   -1    0    0    0    0 -0.00000000000E+00 -0.00000000000E+00 -0.45593999997E+02  0.45594000000E+02  0.51100000000E-03 0. -1.
    9900012    2    1    2    0    0 -0.21057639110E+02  0.58189428678E+01 -0.39393263234E+02  0.46142318196E+02  0.10000003964E+02 0.  0.
        -12    1    1    2    0    0  0.21057639110E+02 -0.58189428678E+01  0.39393263234E+02  0.45045681804E+02  0.00000000000E+00 0.  1.
         11    1    3    3    0    0 -0.10048974063E+02  0.15699654749E+01 -0.15273997128E+02  0.18350522059E+02  0.51100000000E-03 0. -1.
        -11    1    3    3    0    0 -0.11022738416E+02  0.55603777695E+01 -0.22820933449E+02  0.25946359415E+02  0.51100000000E-03 0.  1.
        -12    1    3    3    0    0  0.14073369277E-01 -0.13114003766E+01 -0.12983326568E+01  0.18454367221E+01  0.00000000000E+00 0.  1.
</event>
<event>
 7    1  0.3435408E-009  0.4614232E+02  0.7816164E-02  0.1320468E+00
        -11   -1    0    0    0    0  0.00000000000E+00  0.00000000000E+00  0.45593999997E+02  0.45594000000E+02  0.51100000000E-03 0.  1.
         11   -1    0    0    0    0 -0.00000000000E+00 -0.00000000000E+00 -0.45593999997E+02  0.45594000000E+02  0.51100000000E-03 0. -1.
    9900012    2    1    2    0    0 -0.70019792222E+01  0.44086959864E+02  0.60353739986E+01  0.46142317828E+02  0.10000000608E+02 0.  0.
        -12    1    1    2    0    0  0.70019792222E+01 -0.44086959864E+02 -0.60353739986E+01  0.45045682172E+02  0.00000000000E+00 0.  1.
         11    1    3    3    0    0 -0.29862505988E+01  0.26358458311E+02  0.58707997569E+01  0.27168958523E+02  0.51100000000E-03 0. -1.
        -11    1    3    3    0    0  0.12795207820E+01  0.21640023810E+01  0.30305147078E+00  0.25321769669E+01  0.51100000000E-03 0.  1.
         12    1    3    3    0    0 -0.52952494053E+01  0.15564499172E+02 -0.13847722914E+00  0.16441182338E+02  0.00000000000E+00 0. -1.
</event>
<event>
 7    1  0.3435408E-009  0.4614232E+02  0.7816164E-02  0.1320468E+00
        -11   -1    0    0    0    0  0.00000000000E+00  0.00000000000E+00  0.45593999997E+02  0.45594000000E+02  0.51100000000E-03 0.  1.
         11   -1    0    0    0    0 -0.00000000000E+00 -0.00000000000E+00 -0.45593999997E+02  0.45594000000E+02  0.51100000000E-03 0. -1.
    9900012    2    1    2    0    0  0.11079948317E+02  0.21449351261E+02 -0.38029903948E+02  0.46142317427E+02  0.99999969494E+01 0.  0.
        -12    1    1    2    0    0 -0.11079948317E+02 -0.21449351261E+02  0.38029903948E+02  0.45045682573E+02  0.00000000000E+00 0.  1.
         11    1    3    3    0    0  0.70877959732E+01  0.14173881849E+02 -0.18199514600E+02  0.24132097098E+02  0.51100000000E-03 0. -1.
        -11    1    3    3    0    0  0.32690125128E+01  0.15615927784E+01 -0.97380855764E+01  0.10390155233E+02  0.51100000000E-03 0.  1.
         12    1    3    3    0    0  0.72313983084E+00  0.57138766337E+01 -0.10092303771E+02  0.11620065095E+02  0.00000000000E+00 0. -1.
</event>
<event>
 7    1  0.3435408E-009  0.4614232E+02  0.7816164E-02  0.1320468E+00
        -11   -1    0    0    0    0  0.00000000000E+00  0.00000000000E+00  0.45593999997E+02  0.45594000000E+02  0.51100000000E-03 0.  1.
         11   -1    0    0    0    0 -0.00000000000E+00 -0.00000000000E+00 -0.45593999997E+02  0.45594000000E+02  0.51100000000E-03 0. -1.
    9900012    2    1    2    0    0 -0.39582706893E+02 -0.15191147012E+02 -0.15216833163E+02  0.46142316033E+02  0.99999842456E+01 0.  0.
        -12    1    1    2    0    0  0.39582706893E+02  0.15191147012E+02  0.15216833163E+02  0.45045683967E+02  0.00000000000E+00 0.  1.
         11    1    3    3    0    0 -0.94683664893E+01 -0.45652389402E+01 -0.70886106803E+01  0.12678318981E+02  0.51100000000E-03 0. -1.
        -11    1    3    3    0    0 -0.83413225640E+01 -0.14613575263E+01  0.40222151727E-01  0.84684618449E+01  0.51100000000E-03 0.  1.
        -12    1    3    3    0    0 -0.21773017840E+02 -0.91645505452E+01 -0.81684446347E+01  0.24995535207E+02  0.00000000000E+00 0.  1.
</event>
<event>
 7    1  0.3435408E-009  0.4614232E+02  0.7816164E-02  0.1320468E+00
        -11   -1    0    0    0    0  0.00000000000E+00  0.00000000000E+00  0.45593999997E+02  0.45594000000E+02  0.51100000000E-03 0.  1.
         11   -1    0    0    0    0 -0.00000000000E+00 -0.00000000000E+00 -0.45593999997E+02  0.45594000000E+02  0.51100000000E-03 0. -1.
    9900012    2    1    2    0    0 -0.36927518080E+02  0.22717700197E+02 -0.12222030028E+02  0.46142317501E+02  0.99999976236E+01 0.  0.
        -12    1    1    2    0    0  0.36927518080E+02 -0.22717700197E+02  0.12222030028E+02  0.45045682499E+02  0.00000000000E+00 0.  1.
         11    1    3    3    0    0  0.20748185376E+00  0.59631155027E+00 -0.43848754560E+00  0.76870525781E+00  0.51100000000E-03 0.  1.
        -11    1    3    3    0    0 -0.18555372805E+02  0.14321723541E+02 -0.40326240818E+01  0.23783937487E+02  0.51100000000E-03 0. -1.
        -12    1    3    3    0    0 -0.18579627129E+02  0.77996651064E+01 -0.77509184006E+01  0.21589674756E+02  0.00000000000E+00 0.  1.
</event>
<event>
 7    1  0.3435408E-009  0.4614232E+02  0.7816164E-02  0.1320468E+00
        -11   -1    0    0    0    0  0.00000000000E+00  0.00000000000E+00  0.45593999997E+02  0.45594000000E+02  0.51100000000E-03 0. -1.
         11   -1    0    0    0    0 -0.00000000000E+00 -0.00000000000E+00 -0.45593999997E+02  0.45594000000E+02  0.51100000000E-03 0.  1.
    9900012    2    1    2    0    0 -0.41392979784E+02  0.12019158070E+02 -0.13087187742E+02  0.46142318530E+02  0.10000007014E+02 0.  0.
        -12    1    1    2    0    0  0.41392979784E+02 -0.12019158070E+02  0.13087187742E+02  0.45045681470E+02  0.00000000000E+00 0.  1.
         11    1    3    3    0    0 -0.26546203044E+02  0.10670220663E+02 -0.82817383699E+01  0.29784923967E+02  0.51100000000E-03 0. -1.
        -11    1    3    3    0    0 -0.35475551311E+01 -0.11741745855E+01 -0.26496797556E+01  0.45808990858E+01  0.51100000000E-03 0.  1.
        -12    1    3    3    0    0 -0.11299221609E+02  0.25231119925E+01 -0.21557696164E+01  0.11776495477E+02  0.00000000000E+00 0.  1.
</event>
<event>
 7    1  0.3435408E-009  0.4614232E+02  0.7816164E-02  0.1320468E+00
        -11   -1    0    0    0    0  0.00000000000E+00  0.00000000000E+00  0.45593999997E+02  0.45594000000E+02  0.51100000000E-03 0.  1.
         11   -1    0    0    0    0 -0.00000000000E+00 -0.00000000000E+00 -0.45593999997E+02  0.45594000000E+02  0.51100000000E-03 0. -1.
    9900012    2    1    2    0    0 -0.19184241117E+01  0.72570907840E+00 -0.44998960257E+02  0.46142318420E+02  0.10000006011E+02 0.  0.
        -12    1    1    2    0    0  0.19184241117E+01 -0.72570907840E+00  0.44998960257E+02  0.45045681580E+02  0.00000000000E+00 0.  1.
         11    1    3    3    0    0  0.28780632497E+01  0.26253195568E+01 -0.22326073111E+02  0.22663386589E+02  0.51100000000E-03 0. -1.
        -11    1    3    3    0    0 -0.16042183382E+01  0.61610122880E+00 -0.37576392932E+01  0.41319427053E+01  0.51100000000E-03 0.  1.
         12    1    3    3    0    0 -0.31922690231E+01 -0.25157117072E+01 -0.18915247853E+02  0.19346989126E+02  0.00000000000E+00 0. -1.
</event>
<event>
 7    1  0.3435408E-009  0.4614231E+02  0.7816164E-02  0.1320468E+00
        -11   -1    0    0    0    0  0.00000000000E+00  0.00000000000E+00  0.45593999997E+02  0.45594000000E+02  0.51100000000E-03 0.  1.
         11   -1    0    0    0    0 -0.00000000000E+00 -0.00000000000E+00 -0.45593999997E+02  0.45594000000E+02  0.51100000000E-03 0. -1.
    9900012    2    1    2    0    0 -0.18083800630E+02  0.77960188616E+01 -0.40513114014E+02  0.46142310279E+02  0.99999317760E+01 0.  0.
        -12    1    1    2    0    0  0.18083800630E+02 -0.77960188616E+01  0.40513114014E+02  0.45045689721E+02  0.00000000000E+00 0.  1.
         11    1    3    3    0    0 -0.67692638106E+01  0.57141603673E+01 -0.15829672156E+02  0.18139820343E+02  0.51100000000E-03 0. -1.
        -11    1    3    3    0    0 -0.34947684133E+01  0.28674516373E+01 -0.46622131021E+01  0.64939907934E+01  0.51100000000E-03 0.  1.
        -12    1    3    3    0    0 -0.78197684062E+01 -0.78559314305E+00 -0.20021228755E+02  0.21508499143E+02  0.00000000000E+00 0.  1.
</event>
<event>
 7    1  0.3435408E-009  0.4614233E+02  0.7816164E-02  0.1320468E+00
        -11   -1    0    0    0    0  0.00000000000E+00  0.00000000000E+00  0.45593999997E+02  0.45594000000E+02  0.51100000000E-03 0.  1.
         11   -1    0    0    0    0 -0.00000000000E+00 -0.00000000000E+00 -0.45593999997E+02  0.45594000000E+02  0.51100000000E-03 0. -1.
    9900012    2    1    2    0    0  0.36858619731E+02 -0.17638877546E+02 -0.18958505508E+02  0.46142325616E+02  0.10000071631E+02 0.  0.
        -12    1    1    2    0    0 -0.36858619731E+02  0.17638877546E+02  0.18958505508E+02  0.45045674384E+02  0.00000000000E+00 0.  1.
         11    1    3    3    0    0  0.27968700755E+02 -0.92150739392E+01 -0.15351330198E+02  0.33208871536E+02  0.51100000000E-03 0. -1.
        -11    1    3    3    0    0  0.19355749365E+01 -0.24953790587E+01 -0.14542434230E+00  0.31614103628E+01  0.51100000000E-03 0.  1.
         12    1    3    3    0    0  0.69543440399E+01 -0.59284245484E+01 -0.34617509678E+01  0.97720437174E+01  0.00000000000E+00 0. -1.
</event>
<event>
 7    1  0.3435408E-009  0.4614232E+02  0.7816164E-02  0.1320468E+00
        -11   -1    0    0    0    0  0.00000000000E+00  0.00000000000E+00  0.45593999997E+02  0.45594000000E+02  0.51100000000E-03 0.  1.
         11   -1    0    0    0    0 -0.00000000000E+00 -0.00000000000E+00 -0.45593999997E+02  0.45594000000E+02  0.51100000000E-03 0. -1.
    9900012    2    1    2    0    0 -0.21498268199E+02  0.12702410513E+02 -0.37491153857E+02  0.46142318898E+02  0.10000010365E+02 0.  0.
        -12    1    1    2    0    0  0.21498268199E+02 -0.12702410513E+02  0.37491153857E+02  0.45045681102E+02  0.00000000000E+00 0.  1.
         11    1    3    3    0    0 -0.18619737671E+02  0.77769973848E+01 -0.26860776178E+02  0.33595797600E+02  0.51100000000E-03 0. -1.
        -11    1    3    3    0    0 -0.94515303163E+00  0.37057633282E+01 -0.40041717675E+01  0.55370920077E+01  0.51100000000E-03 0.  1.
         12    1    3    3    0    0 -0.19333774963E+01  0.12196498002E+01 -0.66262059122E+01  0.70094292898E+01  0.00000000000E+00 0. -1.
</event>
<event>
 7    1  0.3435408E-009  0.4614232E+02  0.7816164E-02  0.1320468E+00
        -11   -1    0    0    0    0  0.00000000000E+00  0.00000000000E+00  0.45593999997E+02  0.45594000000E+02  0.51100000000E-03 0.  1.
         11   -1    0    0    0    0 -0.00000000000E+00 -0.00000000000E+00 -0.45593999997E+02  0.45594000000E+02  0.51100000000E-03 0. -1.
    9900012    2    1    2    0    0 -0.26044343986E+00 -0.10846679291E+02 -0.43719505662E+02  0.46142318101E+02  0.10000003095E+02 0.  0.
        -12    1    1    2    0    0  0.26044343986E+00  0.10846679291E+02  0.43719505662E+02  0.45045681899E+02  0.00000000000E+00 0.  1.
         11    1    3    3    0    0 -0.21366080269E+01 -0.31967207570E+01 -0.22157330212E+02  0.22488472599E+02  0.51100000000E-03 0. -1.
        -11    1    3    3    0    0  0.29993846836E+01 -0.52850687718E+01 -0.92581743919E+01  0.11074387285E+02  0.51100000000E-03 0.  1.
        -12    1    3    3    0    0 -0.11232200966E+01 -0.23648897618E+01 -0.12304001059E+02  0.12579458217E+02  0.00000000000E+00 0.  1.
</event>
<event>
 7    1  0.3435408E-009  0.4614232E+02  0.7816164E-02  0.1320468E+00
        -11   -1    0    0    0    0  0.00000000000E+00  0.00000000000E+00  0.45593999997E+02  0.45594000000E+02  0.51100000000E-03 0.  1.
         11   -1    0    0    0    0 -0.00000000000E+00 -0.00000000000E+00 -0.45593999997E+02  0.45594000000E+02  0.51100000000E-03 0. -1.
    9900012    2    1    2    0    0  0.23172316183E+02  0.62287691050E+01 -0.38122953992E+02  0.46142318488E+02  0.10000006627E+02 0.  0.
        -12    1    1    2    0    0 -0.23172316183E+02 -0.62287691050E+01  0.38122953992E+02  0.45045681512E+02  0.00000000000E+00 0.  1.
         11    1    3    3    0    0  0.57330150248E+00  0.10955372396E+01 -0.17978045043E+00  0.12494789825E+01  0.51100000000E-03 0. -1.
        -11    1    3    3    0    0  0.53630670459E+01  0.16890261730E+01 -0.48672135618E+01  0.74367375690E+01  0.51100000000E-03 0.  1.
         12    1    3    3    0    0  0.17235947635E+02  0.34442056924E+01 -0.33075959979E+02  0.37456101936E+02  0.00000000000E+00 0. -1.
</event>
<event>
 7    1  0.3435408E-009  0.4614232E+02  0.7816164E-02  0.1320468E+00
        -11   -1    0    0    0    0  0.00000000000E+00  0.00000000000E+00  0.45593999997E+02  0.45594000000E+02  0.51100000000E-03 0.  1.
         11   -1    0    0    0    0 -0.00000000000E+00 -0.00000000000E+00 -0.45593999997E+02  0.45594000000E+02  0.51100000000E-03 0. -1.
    9900012    2    1    2    0    0 -0.31934964690E+02  0.19909922455E+02 -0.24756140488E+02  0.46142317923E+02  0.10000001476E+02 0.  0.
        -12    1    1    2    0    0  0.31934964690E+02 -0.19909922455E+02  0.24756140488E+02  0.45045682077E+02  0.00000000000E+00 0.  1.
         11    1    3    3    0    0 -0.18683518507E+02  0.10593544309E+02 -0.10261204241E+02  0.23803137557E+02  0.51100000000E-03 0. -1.
        -11    1    3    3    0    0 -0.11202152073E+02  0.77890368152E+01 -0.91890536856E+01  0.16449802840E+02  0.51100000000E-03 0.  1.
        -12    1    3    3    0    0 -0.20492941105E+01  0.15273413311E+01 -0.53058825612E+01  0.58893775262E+01  0.00000000000E+00 0.  1.
</event>
<event>
 7    1  0.3435408E-009  0.4614232E+02  0.7816164E-02  0.1320468E+00
        -11   -1    0    0    0    0  0.00000000000E+00  0.00000000000E+00  0.45593999997E+02  0.45594000000E+02  0.51100000000E-03 0. -1.
         11   -1    0    0    0    0 -0.00000000000E+00 -0.00000000000E+00 -0.45593999997E+02  0.45594000000E+02  0.51100000000E-03 0.  1.
    9900012    2    1    2    0    0 -0.42693123692E+02  0.10776115543E+02 -0.95018995669E+01  0.46142316831E+02  0.99999915220E+01 0.  0.
        -12    1    1    2    0    0  0.42693123692E+02 -0.10776115543E+02  0.95018995669E+01  0.45045683169E+02  0.00000000000E+00 0.  1.
         11    1    3    3    0    0 -0.19450816092E+02  0.55863906242E+01 -0.40231272755E+01  0.20633166509E+02  0.51100000000E-03 0. -1.
        -11    1    3    3    0    0 -0.17255801600E+01  0.27183041538E+01 -0.11752217673E+01  0.34275283842E+01  0.51100000000E-03 0.  1.
        -12    1    3    3    0    0 -0.21516727439E+02  0.24714207652E+01 -0.43035505242E+01  0.22081621938E+02  0.00000000000E+00 0.  1.
</event>
<event>
 7    1  0.3435408E-009  0.4614232E+02  0.7816164E-02  0.1320468E+00
        -11   -1    0    0    0    0  0.00000000000E+00  0.00000000000E+00  0.45593999997E+02  0.45594000000E+02  0.51100000000E-03 0.  1.
         11   -1    0    0    0    0 -0.00000000000E+00 -0.00000000000E+00 -0.45593999997E+02  0.45594000000E+02  0.51100000000E-03 0. -1.
    9900012    2    1    2    0    0  0.37309282219E+02 -0.16482090813E+01 -0.25187585322E+02  0.46142316664E+02  0.99999899943E+01 0.  0.
        -12    1    1    2    0    0 -0.37309282219E+02  0.16482090813E+01  0.25187585322E+02  0.45045683336E+02  0.00000000000E+00 0.  1.
         11    1    3    3    0    0  0.29604848448E+02 -0.25505377647E+01 -0.22829530439E+02  0.37471852834E+02  0.51100000000E-03 0. -1.
        -11    1    3    3    0    0  0.78272307571E+01  0.49172154896E+00 -0.19561806336E+01  0.80829434205E+01  0.51100000000E-03 0.  1.
         12    1    3    3    0    0 -0.12279698604E+00  0.41060713449E+00 -0.40187424934E+00  0.58752040897E+00  0.00000000000E+00 0. -1.
</event>
<event>
 7    1  0.3435408E-009  0.4614232E+02  0.7816164E-02  0.1320468E+00
        -11   -1    0    0    0    0  0.00000000000E+00  0.00000000000E+00  0.45593999997E+02  0.45594000000E+02  0.51100000000E-03 0. -1.
         11   -1    0    0    0    0 -0.00000000000E+00 -0.00000000000E+00 -0.45593999997E+02  0.45594000000E+02  0.51100000000E-03 0.  1.
    9900012    2    1    2    0    0  0.17724859167E+02  0.39923120422E+02  0.11003967344E+02  0.46142317920E+02  0.10000001451E+02 0.  0.
        -12    1    1    2    0    0 -0.17724859167E+02 -0.39923120422E+02 -0.11003967344E+02  0.45045682080E+02  0.00000000000E+00 0.  1.
         11    1    3    3    0    0  0.17516393046E+00  0.31768861735E+01  0.32946487093E+01  0.45801745099E+01  0.51100000000E-03 0. -1.
        -11    1    3    3    0    0  0.14662466226E+01  0.33316788770E+01 -0.19506323446E+00  0.36452727229E+01  0.51100000000E-03 0.  1.
         12    1    3    3    0    0  0.16083448614E+02  0.33414555372E+02  0.79043818691E+01  0.37916870687E+02  0.00000000000E+00 0. -1.
</event>
<event>
 7    1  0.3435408E-009  0.4614232E+02  0.7816164E-02  0.1320468E+00
        -11   -1    0    0    0    0  0.00000000000E+00  0.00000000000E+00  0.45593999997E+02  0.45594000000E+02  0.51100000000E-03 0.  1.
         11   -1    0    0    0    0 -0.00000000000E+00 -0.00000000000E+00 -0.45593999997E+02  0.45594000000E+02  0.51100000000E-03 0. -1.
    9900012    2    1    2    0    0  0.24756638519E+02  0.23298731587E+00 -0.37632010015E+02  0.46142316393E+02  0.99999875209E+01 0.  0.
        -12    1    1    2    0    0 -0.24756638519E+02 -0.23298731587E+00  0.37632010015E+02  0.45045683607E+02  0.00000000000E+00 0.  1.
         11    1    3    3    0    0  0.15343556953E+02 -0.85245937410E+00 -0.23487725567E+02  0.28068214754E+02  0.51100000000E-03 0. -1.
        -11    1    3    3    0    0  0.36671003540E+01 -0.14712852671E+01 -0.20712919197E+01  0.44612280620E+01  0.51100000000E-03 0.  1.
        -12    1    3    3    0    0  0.57459812123E+01  0.25567319570E+01 -0.12072992529E+02  0.13612873576E+02  0.00000000000E+00 0.  1.
</event>
<event>
 7    1  0.3435408E-009  0.4614232E+02  0.7816164E-02  0.1320468E+00
        -11   -1    0    0    0    0  0.00000000000E+00  0.00000000000E+00  0.45593999997E+02  0.45594000000E+02  0.51100000000E-03 0.  1.
         11   -1    0    0    0    0 -0.00000000000E+00 -0.00000000000E+00 -0.45593999997E+02  0.45594000000E+02  0.51100000000E-03 0. -1.
    9900012    2    1    2    0    0  0.23477458401E+02 -0.33990367323E+01 -0.38293196679E+02  0.46142318569E+02  0.10000007366E+02 0.  0.
        -12    1    1    2    0    0 -0.23477458401E+02  0.33990367323E+01  0.38293196679E+02  0.45045681431E+02  0.00000000000E+00 0.  1.
         11    1    3    3    0    0  0.14963593052E+02 -0.28754548090E+01 -0.29112753289E+02  0.32859241649E+02  0.51100000000E-03 0. -1.
        -11    1    3    3    0    0  0.78584214052E+01 -0.18180104285E+01 -0.83577123952E+01  0.11615132614E+02  0.51100000000E-03 0.  1.
        -12    1    3    3    0    0  0.65544394414E+00  0.12944285052E+01 -0.82273099447E+00  0.16679443061E+01  0.00000000000E+00 0.  1.
</event>
<event>
 7    1  0.3435408E-009  0.4614232E+02  0.7816164E-02  0.1320468E+00
        -11   -1    0    0    0    0  0.00000000000E+00  0.00000000000E+00  0.45593999997E+02  0.45594000000E+02  0.51100000000E-03 0.  1.
         11   -1    0    0    0    0 -0.00000000000E+00 -0.00000000000E+00 -0.45593999997E+02  0.45594000000E+02  0.51100000000E-03 0. -1.
    9900012    2    1    2    0    0  0.31555288356E+02 -0.21957976859E+02 -0.23478170035E+02  0.46142318307E+02  0.10000004976E+02 0.  0.
        -12    1    1    2    0    0 -0.31555288356E+02  0.21957976859E+02  0.23478170035E+02  0.45045681693E+02  0.00000000000E+00 0.  1.
         11    1    3    3    0    0  0.18773941316E+02 -0.79353555229E+01 -0.12105311628E+02  0.23705891877E+02  0.51100000000E-03 0. -1.
        -11    1    3    3    0    0  0.88004999206E+01 -0.74344447685E+01 -0.80391629042E+01  0.14048057102E+02  0.51100000000E-03 0.  1.
        -12    1    3    3    0    0  0.39808471197E+01 -0.65881765675E+01 -0.33336955030E+01  0.83883693279E+01  0.00000000000E+00 0.  1.
</event>
<event>
 7    1  0.3435408E-009  0.4614232E+02  0.7816164E-02  0.1320468E+00
        -11   -1    0    0    0    0  0.00000000000E+00  0.00000000000E+00  0.45593999997E+02  0.45594000000E+02  0.51100000000E-03 0.  1.
         11   -1    0    0    0    0 -0.00000000000E+00 -0.00000000000E+00 -0.45593999997E+02  0.45594000000E+02  0.51100000000E-03 0. -1.
    9900012    2    1    2    0    0  0.41400519190E+02 -0.17470475061E+02  0.31453048909E+01  0.46142318399E+02  0.10000005814E+02 0.  0.
        -12    1    1    2    0    0 -0.41400519190E+02  0.17470475061E+02 -0.31453048909E+01  0.45045681601E+02  0.00000000000E+00 0.  1.
         11    1    3    3    0    0  0.10581263225E+02 -0.35770314491E+01 -0.19995548378E+01  0.11347092369E+02  0.51100000000E-03 0. -1.
        -11    1    3    3    0    0  0.24823716863E+02 -0.13826768338E+02  0.43950239115E+01  0.28752611656E+02  0.51100000000E-03 0.  1.
        -12    1    3    3    0    0  0.59955391025E+01 -0.66675273319E-01  0.74983581709E+00  0.60426143741E+01  0.00000000000E+00 0.  1.
</event>
<event>
 7    1  0.3435408E-009  0.4614232E+02  0.7816164E-02  0.1320468E+00
        -11   -1    0    0    0    0  0.00000000000E+00  0.00000000000E+00  0.45593999997E+02  0.45594000000E+02  0.51100000000E-03 0.  1.
         11   -1    0    0    0    0 -0.00000000000E+00 -0.00000000000E+00 -0.45593999997E+02  0.45594000000E+02  0.51100000000E-03 0. -1.
    9900012    2    1    2    0    0 -0.94412734825E+01  0.44020714627E+02 -0.14671681498E+01  0.46142317147E+02  0.99999944032E+01 0.  0.
        -12    1    1    2    0    0  0.94412734825E+01 -0.44020714627E+02  0.14671681498E+01  0.45045682853E+02  0.00000000000E+00 0.  1.
         11    1    3    3    0    0 -0.36961554433E+01  0.11088130097E+02 -0.63176073660E+00  0.11705012430E+02  0.51100000000E-03 0. -1.
        -11    1    3    3    0    0 -0.24502527465E+00  0.20330033910E+02 -0.28841242984E+01  0.20535055135E+02  0.51100000000E-03 0.  1.
        -12    1    3    3    0    0 -0.55000927646E+01  0.12602550620E+02  0.20487168852E+01  0.13902249582E+02  0.00000000000E+00 0.  1.
</event>
<event>
 7    1  0.3435408E-009  0.4614232E+02  0.7816164E-02  0.1320468E+00
        -11   -1    0    0    0    0  0.00000000000E+00  0.00000000000E+00  0.45593999997E+02  0.45594000000E+02  0.51100000000E-03 0.  1.
         11   -1    0    0    0    0 -0.00000000000E+00 -0.00000000000E+00 -0.45593999997E+02  0.45594000000E+02  0.51100000000E-03 0. -1.
    9900012    2    1    2    0    0  0.40952896505E+02  0.18447085053E+02 -0.34174172657E+01  0.46142318521E+02  0.10000006932E+02 0.  0.
        -12    1    1    2    0    0 -0.40952896505E+02 -0.18447085053E+02  0.34174172657E+01  0.45045681479E+02  0.00000000000E+00 0.  1.
         11    1    3    3    0    0  0.16469341428E+02  0.62307993584E+01 -0.20433120514E+01  0.17726736646E+02  0.51100000000E-03 0. -1.
        -11    1    3    3    0    0  0.17510712465E+02  0.47030456234E+01 -0.78088861706E+00  0.18148098426E+02  0.51100000000E-03 0.  1.
        -12    1    3    3    0    0  0.69728426118E+01  0.75132400712E+01 -0.59321659725E+00  0.10267483450E+02  0.00000000000E+00 0.  1.
</event>
<event>
 7    1  0.3435408E-009  0.4614232E+02  0.7816164E-02  0.1320468E+00
        -11   -1    0    0    0    0  0.00000000000E+00  0.00000000000E+00  0.45593999997E+02  0.45594000000E+02  0.51100000000E-03 0.  1.
         11   -1    0    0    0    0 -0.00000000000E+00 -0.00000000000E+00 -0.45593999997E+02  0.45594000000E+02  0.51100000000E-03 0. -1.
    9900012    2    1    2    0    0 -0.27335250129E+02 -0.35261338512E+02  0.62077229492E+01  0.46142315218E+02  0.99999768109E+01 0.  0.
        -12    1    1    2    0    0  0.27335250129E+02  0.35261338512E+02 -0.62077229492E+01  0.45045684782E+02  0.00000000000E+00 0.  1.
         11    1    3    3    0    0 -0.87589119002E+01 -0.56306736785E+01  0.15165965494E+01  0.10522503937E+02  0.51100000000E-03 0. -1.
        -11    1    3    3    0    0 -0.14442807681E+02 -0.21234941872E+02  0.53721671759E+01  0.26236951623E+02  0.51100000000E-03 0.  1.
        -12    1    3    3    0    0 -0.41335305470E+01 -0.83957229612E+01 -0.68104077609E+00  0.93828596581E+01  0.00000000000E+00 0.  1.
</event>
<event>
 7    1  0.3435408E-009  0.4614232E+02  0.7816164E-02  0.1320468E+00
        -11   -1    0    0    0    0  0.00000000000E+00  0.00000000000E+00  0.45593999997E+02  0.45594000000E+02  0.51100000000E-03 0.  1.
         11   -1    0    0    0    0 -0.00000000000E+00 -0.00000000000E+00 -0.45593999997E+02  0.45594000000E+02  0.51100000000E-03 0. -1.
    9900012    2    1    2    0    0  0.33340724724E+02  0.11575529043E+02 -0.27991368834E+02  0.46142317333E+02  0.99999960934E+01 0.  0.
        -12    1    1    2    0    0 -0.33340724724E+02 -0.11575529043E+02  0.27991368834E+02  0.45045682667E+02  0.00000000000E+00 0.  1.
         11    1    3    3    0    0  0.63385882454E+01  0.34240561713E+01 -0.55965236678E+01  0.91226607431E+01  0.51100000000E-03 0. -1.
        -11    1    3    3    0    0  0.12011479910E+01  0.11304710314E+01  0.59762518063E+00  0.17543880320E+01  0.51100000000E-03 0.  1.
        -12    1    3    3    0    0  0.25800988488E+02  0.70210018407E+01 -0.22992470347E+02  0.35265268558E+02  0.00000000000E+00 0.  1.
</event>
<event>
 7    1  0.3435408E-009  0.4614232E+02  0.7816164E-02  0.1320468E+00
        -11   -1    0    0    0    0  0.00000000000E+00  0.00000000000E+00  0.45593999997E+02  0.45594000000E+02  0.51100000000E-03 0.  1.
         11   -1    0    0    0    0 -0.00000000000E+00 -0.00000000000E+00 -0.45593999997E+02  0.45594000000E+02  0.51100000000E-03 0. -1.
    9900012    2    1    2    0    0 -0.30420374605E+02  0.88543715784E+01 -0.32020531746E+02  0.46142317183E+02  0.99999947262E+01 0.  0.
        -12    1    1    2    0    0  0.30420374605E+02 -0.88543715784E+01  0.32020531746E+02  0.45045682817E+02  0.00000000000E+00 0.  1.
         11    1    3    3    0    0 -0.48720564013E+01  0.14735127306E+01 -0.15950783064E+01  0.53340836522E+01  0.51100000000E-03 0. -1.
        -11    1    3    3    0    0 -0.10319361257E+02  0.39550228129E+00 -0.98178838055E+01  0.14249087040E+02  0.51100000000E-03 0.  1.
         12    1    3    3    0    0 -0.15228956947E+02  0.69853565666E+01 -0.20607569634E+02  0.26559146490E+02  0.00000000000E+00 0. -1.
</event>
<event>
 7    1  0.3435408E-009  0.4614232E+02  0.7816164E-02  0.1320468E+00
        -11   -1    0    0    0    0  0.00000000000E+00  0.00000000000E+00  0.45593999997E+02  0.45594000000E+02  0.51100000000E-03 0. -1.
         11   -1    0    0    0    0 -0.00000000000E+00 -0.00000000000E+00 -0.45593999997E+02  0.45594000000E+02  0.51100000000E-03 0.  1.
    9900012    2    1    2    0    0  0.31799400338E+02 -0.24051171338E+02  0.20963124624E+02  0.46142319868E+02  0.10000019214E+02 0.  0.
        -12    1    1    2    0    0 -0.31799400338E+02  0.24051171338E+02 -0.20963124624E+02  0.45045680132E+02  0.00000000000E+00 0.  1.
         11    1    3    3    0    0  0.14041843761E+02 -0.10465047106E+02  0.14446672126E+02  0.22702355009E+02  0.51100000000E-03 0.  1.
        -11    1    3    3    0    0  0.12088710337E+02 -0.10103837529E+02  0.56168978555E+01  0.16726445893E+02  0.51100000000E-03 0. -1.
        -12    1    3    3    0    0  0.56688462393E+01 -0.34822867021E+01  0.89955464186E+00  0.67135189666E+01  0.00000000000E+00 0.  1.
</event>
<event>
 7    1  0.3435408E-009  0.4614232E+02  0.7816164E-02  0.1320468E+00
        -11   -1    0    0    0    0  0.00000000000E+00  0.00000000000E+00  0.45593999997E+02  0.45594000000E+02  0.51100000000E-03 0.  1.
         11   -1    0    0    0    0 -0.00000000000E+00 -0.00000000000E+00 -0.45593999997E+02  0.45594000000E+02  0.51100000000E-03 0. -1.
    9900012    2    1    2    0    0  0.28042990346E+02  0.18906928322E+02 -0.29752853606E+02  0.46142317146E+02  0.99999943884E+01 0.  0.
        -12    1    1    2    0    0 -0.28042990346E+02 -0.18906928322E+02  0.29752853606E+02  0.45045682854E+02  0.00000000000E+00 0.  1.
         11    1    3    3    0    0  0.84546172087E+01  0.69356241873E+01 -0.11874377065E+02  0.16142622648E+02  0.51100000000E-03 0. -1.
        -11    1    3    3    0    0  0.98135921615E+01  0.74687551829E+01 -0.52386818734E+01  0.13398980675E+02  0.51100000000E-03 0.  1.
        -12    1    3    3    0    0  0.97747809754E+01  0.45025489514E+01 -0.12639794668E+02  0.16600713822E+02  0.00000000000E+00 0.  1.
</event>
<event>
 7    1  0.3435408E-009  0.4614232E+02  0.7816164E-02  0.1320468E+00
        -11   -1    0    0    0    0  0.00000000000E+00  0.00000000000E+00  0.45593999997E+02  0.45594000000E+02  0.51100000000E-03 0. -1.
         11   -1    0    0    0    0 -0.00000000000E+00 -0.00000000000E+00 -0.45593999997E+02  0.45594000000E+02  0.51100000000E-03 0.  1.
    9900012    2    1    2    0    0  0.18625048487E+02 -0.38759438697E+02 -0.13413687196E+02  0.46142317372E+02  0.99999964496E+01 0.  0.
        -12    1    1    2    0    0 -0.18625048487E+02  0.38759438697E+02  0.13413687196E+02  0.45045682628E+02  0.00000000000E+00 0.  1.
         11    1    3    3    0    0  0.58810605641E+01 -0.13088778284E+02 -0.86086187023E+01  0.16733538375E+02  0.51100000000E-03 0. -1.
        -11    1    3    3    0    0  0.45576407550E+01 -0.10275631501E+02 -0.40762980923E+01  0.11957294778E+02  0.51100000000E-03 0.  1.
         12    1    3    3    0    0  0.81863471677E+01 -0.15395028912E+02 -0.72877040112E+00  0.17451484219E+02  0.00000000000E+00 0. -1.
</event>
<event>
 7    1  0.3435408E-009  0.4614232E+02  0.7816164E-02  0.1320468E+00
        -11   -1    0    0    0    0  0.00000000000E+00  0.00000000000E+00  0.45593999997E+02  0.45594000000E+02  0.51100000000E-03 0. -1.
         11   -1    0    0    0    0 -0.00000000000E+00 -0.00000000000E+00 -0.45593999997E+02  0.45594000000E+02  0.51100000000E-03 0.  1.
    9900012    2    1    2    0    0  0.44374370606E+02 -0.44831215364E+01  0.63190482280E+01  0.46142317456E+02  0.99999972154E+01 0.  0.
        -12    1    1    2    0    0 -0.44374370606E+02  0.44831215364E+01 -0.63190482280E+01  0.45045682544E+02  0.00000000000E+00 0.  1.
         11    1    3    3    0    0  0.15787530492E+02  0.16101062483E+01  0.11281674250E+01  0.15909472750E+02  0.51100000000E-03 0. -1.
        -11    1    3    3    0    0  0.40663173821E+01  0.96389317161E+00  0.15565012472E+01  0.44594532727E+01  0.51100000000E-03 0.  1.
         12    1    3    3    0    0  0.24520522731E+02 -0.70571209564E+01  0.36343795558E+01  0.25773391433E+02  0.00000000000E+00 0. -1.
</event>
<event>
 7    1  0.3435408E-009  0.4614232E+02  0.7816164E-02  0.1320468E+00
        -11   -1    0    0    0    0  0.00000000000E+00  0.00000000000E+00  0.45593999997E+02  0.45594000000E+02  0.51100000000E-03 0.  1.
         11   -1    0    0    0    0 -0.00000000000E+00 -0.00000000000E+00 -0.45593999997E+02  0.45594000000E+02  0.51100000000E-03 0. -1.
    9900012    2    1    2    0    0  0.25675257658E+02  0.30750014186E+02 -0.20599302831E+02  0.46142317572E+02  0.99999982783E+01 0.  0.
        -12    1    1    2    0    0 -0.25675257658E+02 -0.30750014186E+02  0.20599302831E+02  0.45045682428E+02  0.00000000000E+00 0.  1.
         11    1    3    3    0    0  0.21330379701E+02  0.23747833974E+02 -0.19718315413E+02  0.37520083684E+02  0.51100000000E-03 0. -1.
        -11    1    3    3    0    0  0.11561776537E+01  0.31785788304E+01 -0.13053064014E+01  0.36254565521E+01  0.51100000000E-03 0.  1.
         12    1    3    3    0    0  0.31887003035E+01  0.38236013817E+01  0.42431898346E+00  0.49967773366E+01  0.00000000000E+00 0. -1.
</event>
<event>
 7    1  0.3435408E-009  0.4614232E+02  0.7816164E-02  0.1320468E+00
        -11   -1    0    0    0    0  0.00000000000E+00  0.00000000000E+00  0.45593999997E+02  0.45594000000E+02  0.51100000000E-03 0.  1.
         11   -1    0    0    0    0 -0.00000000000E+00 -0.00000000000E+00 -0.45593999997E+02  0.45594000000E+02  0.51100000000E-03 0. -1.
    9900012    2    1    2    0    0  0.67176484478E+01 -0.25256005750E+02 -0.36689520945E+02  0.46142316807E+02  0.99999912994E+01 0.  0.
        -12    1    1    2    0    0 -0.67176484478E+01  0.25256005750E+02  0.36689520945E+02  0.45045683193E+02  0.00000000000E+00 0.  1.
         11    1    3    3    0    0  0.16769954428E+01 -0.86719157274E+01 -0.13144974515E+02  0.15836817590E+02  0.51100000000E-03 0. -1.
        -11    1    3    3    0    0  0.38360198511E+01 -0.74056747633E+01 -0.17101637953E+02  0.19026956876E+02  0.51100000000E-03 0.  1.
        -12    1    3    3    0    0  0.12046331539E+01 -0.91784152597E+01 -0.64429084766E+01  0.11278542342E+02  0.00000000000E+00 0.  1.
</event>
<event>
 7    1  0.3435408E-009  0.4614232E+02  0.7816164E-02  0.1320468E+00
        -11   -1    0    0    0    0  0.00000000000E+00  0.00000000000E+00  0.45593999997E+02  0.45594000000E+02  0.51100000000E-03 0.  1.
         11   -1    0    0    0    0 -0.00000000000E+00 -0.00000000000E+00 -0.45593999997E+02  0.45594000000E+02  0.51100000000E-03 0. -1.
    9900012    2    1    2    0    0  0.61096720726E+01 -0.17923016284E+02 -0.40872373251E+02  0.46142317624E+02  0.99999987494E+01 0.  0.
        -12    1    1    2    0    0 -0.61096720726E+01  0.17923016284E+02  0.40872373251E+02  0.45045682376E+02  0.00000000000E+00 0.  1.
         11    1    3    3    0    0  0.14548528529E+01 -0.12991123727E+02 -0.30617984076E+02  0.33291843471E+02  0.51100000000E-03 0. -1.
        -11    1    3    3    0    0 -0.49761543886E+00 -0.13917598831E+01 -0.22919511232E+01  0.27272067963E+01  0.51100000000E-03 0.  1.
         12    1    3    3    0    0  0.51524346585E+01 -0.35401326738E+01 -0.79624380517E+01  0.10123267357E+02  0.00000000000E+00 0. -1.
</event>
<event>
 7    1  0.3435408E-009  0.4614231E+02  0.7816164E-02  0.1320468E+00
        -11   -1    0    0    0    0  0.00000000000E+00  0.00000000000E+00  0.45593999997E+02  0.45594000000E+02  0.51100000000E-03 0. -1.
         11   -1    0    0    0    0 -0.00000000000E+00 -0.00000000000E+00 -0.45593999997E+02  0.45594000000E+02  0.51100000000E-03 0.  1.
    9900012    2    1    2    0    0 -0.32567683533E+01  0.36160781818E+02  0.26662804588E+02  0.46142313965E+02  0.99999653884E+01 0.  0.
        -12    1    1    2    0    0  0.32567683533E+01 -0.36160781818E+02 -0.26662804588E+02  0.45045686035E+02  0.00000000000E+00 0.  1.
         11    1    3    3    0    0 -0.65963298889E+00  0.47672684622E+01  0.39039669072E+00  0.48284960503E+01  0.51100000000E-03 0. -1.
        -11    1    3    3    0    0  0.38016895987E+00  0.18834277084E+02  0.13678557098E+02  0.23280409066E+02  0.51100000000E-03 0.  1.
         12    1    3    3    0    0 -0.29773043243E+01  0.12559236271E+02  0.12593850799E+02  0.18033408849E+02  0.00000000000E+00 0. -1.
</event>
<event>
 7    1  0.3435408E-009  0.4614232E+02  0.7816164E-02  0.1320468E+00
        -11   -1    0    0    0    0  0.00000000000E+00  0.00000000000E+00  0.45593999997E+02  0.45594000000E+02  0.51100000000E-03 0.  1.
         11   -1    0    0    0    0 -0.00000000000E+00 -0.00000000000E+00 -0.45593999997E+02  0.45594000000E+02  0.51100000000E-03 0. -1.
    9900012    2    1    2    0    0  0.56384681033E+01  0.28947943582E+01 -0.44597547082E+02  0.46142319156E+02  0.10000012723E+02 0.  0.
        -12    1    1    2    0    0 -0.56384681033E+01 -0.28947943582E+01  0.44597547082E+02  0.45045680844E+02  0.00000000000E+00 0.  1.
         11    1    3    3    0    0  0.29793933104E+01 -0.37686890551E+00 -0.14440077010E+02  0.14749055528E+02  0.51100000000E-03 0. -1.
        -11    1    3    3    0    0  0.48600646030E+01  0.25843543819E+00 -0.19619347843E+02  0.20214000763E+02  0.51100000000E-03 0.  1.
         12    1    3    3    0    0 -0.22009898101E+01  0.30132278256E+01 -0.10538122230E+02  0.11179262865E+02  0.00000000000E+00 0. -1.
</event>
<event>
 7    1  0.3435408E-009  0.4614232E+02  0.7816164E-02  0.1320468E+00
        -11   -1    0    0    0    0  0.00000000000E+00  0.00000000000E+00  0.45593999997E+02  0.45594000000E+02  0.51100000000E-03 0.  1.
         11   -1    0    0    0    0 -0.00000000000E+00 -0.00000000000E+00 -0.45593999997E+02  0.45594000000E+02  0.51100000000E-03 0. -1.
    9900012    2    1    2    0    0 -0.18653222625E+02  0.37136167530E+02 -0.17380329324E+02  0.46142317626E+02  0.99999987656E+01 0.  0.
        -12    1    1    2    0    0  0.18653222625E+02 -0.37136167530E+02  0.17380329324E+02  0.45045682374E+02  0.00000000000E+00 0.  1.
         11    1    3    3    0    0 -0.21911861812E+01  0.39263589346E+01 -0.13685651460E+01  0.47000598064E+01  0.51100000000E-03 0. -1.
        -11    1    3    3    0    0 -0.11285449913E+02  0.17130608364E+02 -0.12993688300E+02  0.24282814058E+02  0.51100000000E-03 0.  1.
        -12    1    3    3    0    0 -0.51765865313E+01  0.16079200231E+02 -0.30180758779E+01  0.17159443761E+02  0.00000000000E+00 0.  1.
</event>
<event>
 7    1  0.3435408E-009  0.4614232E+02  0.7816164E-02  0.1320468E+00
        -11   -1    0    0    0    0  0.00000000000E+00  0.00000000000E+00  0.45593999997E+02  0.45594000000E+02  0.51100000000E-03 0.  1.
         11   -1    0    0    0    0 -0.00000000000E+00 -0.00000000000E+00 -0.45593999997E+02  0.45594000000E+02  0.51100000000E-03 0. -1.
    9900012    2    1    2    0    0 -0.33309245051E+02 -0.16962305227E+02 -0.25137380291E+02  0.46142317716E+02  0.99999995924E+01 0.  0.
        -12    1    1    2    0    0  0.33309245051E+02  0.16962305227E+02  0.25137380291E+02  0.45045682284E+02  0.00000000000E+00 0.  1.
         11    1    3    3    0    0 -0.66913558180E+01 -0.16391746443E+01 -0.72678796718E+01  0.10014150557E+02  0.51100000000E-03 0. -1.
        -11    1    3    3    0    0 -0.25515160987E+02 -0.14925245394E+02 -0.15257749082E+02  0.33265376860E+02  0.51100000000E-03 0.  1.
        -12    1    3    3    0    0 -0.11027282453E+01 -0.39788518888E+00 -0.26117515374E+01  0.28627902996E+01  0.00000000000E+00 0.  1.
</event>
<event>
 7    1  0.3435408E-009  0.4614232E+02  0.7816164E-02  0.1320468E+00
        -11   -1    0    0    0    0  0.00000000000E+00  0.00000000000E+00  0.45593999997E+02  0.45594000000E+02  0.51100000000E-03 0. -1.
         11   -1    0    0    0    0 -0.00000000000E+00 -0.00000000000E+00 -0.45593999997E+02  0.45594000000E+02  0.51100000000E-03 0.  1.
    9900012    2    1    2    0    0  0.35605089624E+02 -0.17327032218E+02 -0.21474745219E+02  0.46142321685E+02  0.10000035781E+02 0.  0.
        -12    1    1    2    0    0 -0.35605089624E+02  0.17327032218E+02  0.21474745219E+02  0.45045678315E+02  0.00000000000E+00 0.  1.
         11    1    3    3    0    0  0.73603964789E+01 -0.46819597829E+01 -0.54858173396E+01  0.10304871464E+02  0.51100000000E-03 0. -1.
        -11    1    3    3    0    0  0.19605400519E+02 -0.47272885784E+01 -0.82242120793E+01  0.21779730287E+02  0.51100000000E-03 0.  1.
        -12    1    3    3    0    0  0.86392926265E+01 -0.79177838566E+01 -0.77647158005E+01  0.14057719934E+02  0.00000000000E+00 0.  1.
</event>
<event>
 7    1  0.3435408E-009  0.4614232E+02  0.7816164E-02  0.1320468E+00
        -11   -1    0    0    0    0  0.00000000000E+00  0.00000000000E+00  0.45593999997E+02  0.45594000000E+02  0.51100000000E-03 0.  1.
         11   -1    0    0    0    0 -0.00000000000E+00 -0.00000000000E+00 -0.45593999997E+02  0.45594000000E+02  0.51100000000E-03 0. -1.
    9900012    2    1    2    0    0  0.43216781982E+02  0.12340869030E+02 -0.30209485668E+01  0.46142318481E+02  0.10000006561E+02 0.  0.
        -12    1    1    2    0    0 -0.43216781982E+02 -0.12340869030E+02  0.30209485668E+01  0.45045681519E+02  0.00000000000E+00 0.  1.
         11    1    3    3    0    0  0.58206678500E+01  0.34820591895E+01 -0.57660850263E+00  0.68071571192E+01  0.51100000000E-03 0. -1.
        -11    1    3    3    0    0  0.21813246324E+02  0.41406144548E+01  0.24409663575E+01  0.22336533309E+02  0.51100000000E-03 0.  1.
        -12    1    3    3    0    0  0.15582867808E+02  0.47181953856E+01 -0.48853064217E+01  0.16998628052E+02  0.00000000000E+00 0.  1.
</event>
<event>
 7    1  0.3435408E-009  0.4614232E+02  0.7816164E-02  0.1320468E+00
        -11   -1    0    0    0    0  0.00000000000E+00  0.00000000000E+00  0.45593999997E+02  0.45594000000E+02  0.51100000000E-03 0. -1.
         11   -1    0    0    0    0 -0.00000000000E+00 -0.00000000000E+00 -0.45593999997E+02  0.45594000000E+02  0.51100000000E-03 0.  1.
    9900012    2    1    2    0    0 -0.43717638805E+02 -0.10111709847E+02 -0.39540910925E+01  0.46142318131E+02  0.10000003370E+02 0.  0.
        -12    1    1    2    0    0  0.43717638805E+02  0.10111709847E+02  0.39540910925E+01  0.45045681869E+02  0.00000000000E+00 0.  1.
         11    1    3    3    0    0 -0.82332212680E+01 -0.33709442270E+01 -0.12267228148E+01  0.89807597983E+01  0.51100000000E-03 0. -1.
        -11    1    3    3    0    0 -0.43489029964E+01  0.18537651593E+01 -0.88086524584E+00  0.48088799507E+01  0.51100000000E-03 0.  1.
        -12    1    3    3    0    0 -0.31135514541E+02 -0.85945307788E+01 -0.18465030318E+01  0.32352678382E+02  0.00000000000E+00 0.  1.
</event>
<event>
 7    1  0.3435408E-009  0.4614232E+02  0.7816164E-02  0.1320468E+00
        -11   -1    0    0    0    0  0.00000000000E+00  0.00000000000E+00  0.45593999997E+02  0.45594000000E+02  0.51100000000E-03 0. -1.
         11   -1    0    0    0    0 -0.00000000000E+00 -0.00000000000E+00 -0.45593999997E+02  0.45594000000E+02  0.51100000000E-03 0.  1.
    9900012    2    1    2    0    0  0.43897373718E+02  0.99154856199E+01  0.19537780033E+01  0.46142317378E+02  0.99999965072E+01 0.  0.
        -12    1    1    2    0    0 -0.43897373718E+02 -0.99154856199E+01 -0.19537780033E+01  0.45045682622E+02  0.00000000000E+00 0.  1.
         11    1    3    3    0    0  0.39361990260E+01  0.18800616431E+01  0.28864522323E+01  0.52306692979E+01  0.51100000000E-03 0. -1.
        -11    1    3    3    0    0  0.10962520914E+02  0.17931186449E+01 -0.17072157099E+01  0.11238626473E+02  0.51100000000E-03 0.  1.
         12    1    3    3    0    0  0.28998653778E+02  0.62423053318E+01  0.77454148098E+00  0.29673021607E+02  0.00000000000E+00 0. -1.
</event>
<event>
 7    1  0.3435408E-009  0.4614232E+02  0.7816164E-02  0.1320468E+00
        -11   -1    0    0    0    0  0.00000000000E+00  0.00000000000E+00  0.45593999997E+02  0.45594000000E+02  0.51100000000E-03 0.  1.
         11   -1    0    0    0    0 -0.00000000000E+00 -0.00000000000E+00 -0.45593999997E+02  0.45594000000E+02  0.51100000000E-03 0. -1.
    9900012    2    1    2    0    0  0.20434735082E+02  0.34343911069E+02 -0.20785351754E+02  0.46142317933E+02  0.10000001567E+02 0.  0.
        -12    1    1    2    0    0 -0.20434735082E+02 -0.34343911069E+02  0.20785351754E+02  0.45045682067E+02  0.00000000000E+00 0.  1.
         11    1    3    3    0    0  0.26369233214E+01  0.32573535600E+01 -0.28024071725E+01  0.50415476829E+01  0.51100000000E-03 0. -1.
        -11    1    3    3    0    0  0.54261786152E+01  0.35800734983E+01 -0.52771375924E+01  0.83730831865E+01  0.51100000000E-03 0.  1.
        -12    1    3    3    0    0  0.12371633145E+02  0.27506484010E+02 -0.12705806989E+02  0.32727687064E+02  0.00000000000E+00 0.  1.
</event>
<event>
 7    1  0.3435408E-009  0.4614232E+02  0.7816164E-02  0.1320468E+00
        -11   -1    0    0    0    0  0.00000000000E+00  0.00000000000E+00  0.45593999997E+02  0.45594000000E+02  0.51100000000E-03 0. -1.
         11   -1    0    0    0    0 -0.00000000000E+00 -0.00000000000E+00 -0.45593999997E+02  0.45594000000E+02  0.51100000000E-03 0.  1.
    9900012    2    1    2    0    0 -0.32872353501E+02 -0.13629547805E+02  0.27618062306E+02  0.46142316926E+02  0.99999923852E+01 0.  0.
        -12    1    1    2    0    0  0.32872353501E+02  0.13629547805E+02 -0.27618062306E+02  0.45045683074E+02  0.00000000000E+00 0.  1.
         11    1    3    3    0    0 -0.15549396773E+02 -0.27466474904E+01  0.14770237903E+02  0.21621464808E+02  0.51100000000E-03 0. -1.
        -11    1    3    3    0    0 -0.34817314994E+01 -0.34574094005E+01  0.48318030564E+01  0.68863963750E+01  0.51100000000E-03 0.  1.
         12    1    3    3    0    0 -0.13841225229E+02 -0.74254909141E+01  0.80160213458E+01  0.17634455743E+02  0.00000000000E+00 0. -1.
</event>
<event>
 7    1  0.3435408E-009  0.4614232E+02  0.7816164E-02  0.1320468E+00
        -11   -1    0    0    0    0  0.00000000000E+00  0.00000000000E+00  0.45593999997E+02  0.45594000000E+02  0.51100000000E-03 0.  1.
         11   -1    0    0    0    0 -0.00000000000E+00 -0.00000000000E+00 -0.45593999997E+02  0.45594000000E+02  0.51100000000E-03 0. -1.
    9900012    2    1    2    0    0 -0.32762847400E+02 -0.14582272055E+02 -0.27259249401E+02  0.46142317566E+02  0.99999982221E+01 0.  0.
        -12    1    1    2    0    0  0.32762847400E+02  0.14582272055E+02  0.27259249401E+02  0.45045682434E+02  0.00000000000E+00 0.  1.
         11    1    3    3    0    0 -0.11796849308E+02 -0.38907725476E+01 -0.14115295009E+02  0.18802800804E+02  0.51100000000E-03 0. -1.
        -11    1    3    3    0    0 -0.48565845916E+01 -0.71888817230E+00 -0.16504942169E+01  0.51795120929E+01  0.51100000000E-03 0.  1.
         12    1    3    3    0    0 -0.16109413500E+02 -0.99726113350E+01 -0.11493460176E+02  0.22160004670E+02  0.00000000000E+00 0. -1.
</event>
<event>
 7    1  0.3435408E-009  0.4614232E+02  0.7816164E-02  0.1320468E+00
        -11   -1    0    0    0    0  0.00000000000E+00  0.00000000000E+00  0.45593999997E+02  0.45594000000E+02  0.51100000000E-03 0.  1.
         11   -1    0    0    0    0 -0.00000000000E+00 -0.00000000000E+00 -0.45593999997E+02  0.45594000000E+02  0.51100000000E-03 0. -1.
    9900012    2    1    2    0    0  0.30629541695E+02  0.73249165384E+01 -0.32206992456E+02  0.46142316635E+02  0.99999897288E+01 0.  0.
        -12    1    1    2    0    0 -0.30629541695E+02 -0.73249165384E+01  0.32206992456E+02  0.45045683365E+02  0.00000000000E+00 0.  1.
         11    1    3    3    0    0  0.22354470608E+01  0.29157306123E+01 -0.48136260509E+01  0.60555515508E+01  0.51100000000E-03 0. -1.
        -11    1    3    3    0    0  0.27511283835E+02  0.44549560960E+01 -0.27550839577E+02  0.39188852161E+02  0.51100000000E-03 0.  1.
        -12    1    3    3    0    0  0.88281079975E+00 -0.45770169824E-01  0.15747317186E+00  0.89791292253E+00  0.00000000000E+00 0.  1.
</event>
<event>
 7    1  0.3435408E-009  0.4614232E+02  0.7816164E-02  0.1320468E+00
        -11   -1    0    0    0    0  0.00000000000E+00  0.00000000000E+00  0.45593999997E+02  0.45594000000E+02  0.51100000000E-03 0. -1.
         11   -1    0    0    0    0 -0.00000000000E+00 -0.00000000000E+00 -0.45593999997E+02  0.45594000000E+02  0.51100000000E-03 0.  1.
    9900012    2    1    2    0    0 -0.29576633806E+02 -0.66850620262E+01  0.33311352676E+02  0.46142317202E+02  0.99999949055E+01 0.  0.
        -12    1    1    2    0    0  0.29576633806E+02  0.66850620262E+01 -0.33311352676E+02  0.45045682798E+02  0.00000000000E+00 0.  1.
         11    1    3    3    0    0 -0.11316319358E+02 -0.44176135416E+01  0.13539267381E+02  0.18190276378E+02  0.51100000000E-03 0. -1.
        -11    1    3    3    0    0 -0.49841174143E+01  0.34893643124E+00  0.10259495870E+02  0.11411417037E+02  0.51100000000E-03 0.  1.
        -12    1    3    3    0    0 -0.13276197034E+02 -0.26163849158E+01  0.95125894244E+01  0.16540623787E+02  0.00000000000E+00 0.  1.
</event>
<event>
 7    1  0.3435408E-009  0.4614232E+02  0.7816164E-02  0.1320468E+00
        -11   -1    0    0    0    0  0.00000000000E+00  0.00000000000E+00  0.45593999997E+02  0.45594000000E+02  0.51100000000E-03 0. -1.
         11   -1    0    0    0    0 -0.00000000000E+00 -0.00000000000E+00 -0.45593999997E+02  0.45594000000E+02  0.51100000000E-03 0.  1.
    9900012    2    1    2    0    0  0.22706706945E+02  0.33150049487E+02  0.20361562220E+02  0.46142317218E+02  0.99999950484E+01 0.  0.
        -12    1    1    2    0    0 -0.22706706945E+02 -0.33150049487E+02 -0.20361562220E+02  0.45045682782E+02  0.00000000000E+00 0.  1.
         11    1    3    3    0    0  0.62187747205E+01  0.12921447615E+02  0.62661706927E+01  0.15649340654E+02  0.51100000000E-03 0. -1.
        -11    1    3    3    0    0  0.10889012613E+02  0.17946578237E+02  0.10794628228E+02  0.23604539075E+02  0.51100000000E-03 0.  1.
        -12    1    3    3    0    0  0.55989196114E+01  0.22820236346E+01  0.33007632987E+01  0.68884374889E+01  0.00000000000E+00 0.  1.
</event>
<event>
 7    1  0.3525179E-009  0.4614232E+02  0.7816164E-02  0.1320468E+00
        -11   -1    0    0    0    0  0.00000000000E+00  0.00000000000E+00  0.45593999997E+02  0.45594000000E+02  0.51100000000E-03 0.  1.
         11   -1    0    0    0    0 -0.00000000000E+00 -0.00000000000E+00 -0.45593999997E+02  0.45594000000E+02  0.51100000000E-03 0. -1.
    9900012    2    1    2    0    0  0.13051051757E+02  0.41260763412E+02 -0.12503310472E+02  0.46142319607E+02  0.10000016832E+02 0.  0.
        -12    1    1    2    0    0 -0.13051051757E+02 -0.41260763412E+02  0.12503310472E+02  0.45045680393E+02  0.00000000000E+00 0.  1.
         11    1    3    3    0    0  0.57139342493E+01  0.19350364457E+02 -0.21663826625E+01  0.20292335088E+02  0.51100000000E-03 0.  1.
        -11    1    3    3    0    0  0.79255473520E+00 -0.31150215026E-01 -0.26991797190E+00  0.83783609188E+00  0.51100000000E-03 0. -1.
         12    1    3    3    0    0  0.65445627722E+01  0.21941549170E+02 -0.10067009838E+02  0.25012148427E+02  0.00000000000E+00 0. -1.
</event>
<event>
 7    1  0.3435408E-009  0.4614232E+02  0.7816164E-02  0.1320468E+00
        -11   -1    0    0    0    0  0.00000000000E+00  0.00000000000E+00  0.45593999997E+02  0.45594000000E+02  0.51100000000E-03 0. -1.
         11   -1    0    0    0    0 -0.00000000000E+00 -0.00000000000E+00 -0.45593999997E+02  0.45594000000E+02  0.51100000000E-03 0.  1.
    9900012    2    1    2    0    0 -0.23038172376E+02 -0.58868731149E+00  0.38704127036E+02  0.46142318866E+02  0.10000010077E+02 0.  0.
        -12    1    1    2    0    0  0.23038172376E+02  0.58868731149E+00 -0.38704127036E+02  0.45045681134E+02  0.00000000000E+00 0.  1.
         11    1    3    3    0    0 -0.79067263640E+01 -0.16488082465E+01  0.90212423201E+01  0.12108579755E+02  0.51100000000E-03 0. -1.
        -11    1    3    3    0    0 -0.17851114380E+01  0.25859447403E+01  0.44455774395E+01  0.54439775971E+01  0.51100000000E-03 0.  1.
        -12    1    3    3    0    0 -0.13346334574E+02 -0.15258238053E+01  0.25237307277E+02  0.28589761514E+02  0.00000000000E+00 0.  1.
</event>
<event>
 7    1  0.3435408E-009  0.4614232E+02  0.7816164E-02  0.1320468E+00
        -11   -1    0    0    0    0  0.00000000000E+00  0.00000000000E+00  0.45593999997E+02  0.45594000000E+02  0.51100000000E-03 0. -1.
         11   -1    0    0    0    0 -0.00000000000E+00 -0.00000000000E+00 -0.45593999997E+02  0.45594000000E+02  0.51100000000E-03 0.  1.
    9900012    2    1    2    0    0 -0.29884089112E+02  0.99452213146E+01  0.32204770708E+02  0.46142318016E+02  0.10000002324E+02 0.  0.
        -12    1    1    2    0    0  0.29884089112E+02 -0.99452213146E+01 -0.32204770708E+02  0.45045681984E+02  0.00000000000E+00 0.  1.
         11    1    3    3    0    0 -0.67354327927E+01 -0.16219152527E+01  0.59812926326E+01  0.91527332425E+01  0.51100000000E-03 0. -1.
        -11    1    3    3    0    0 -0.11855764982E+02  0.77112526042E+01  0.13673587532E+02  0.19672050638E+02  0.51100000000E-03 0.  1.
         12    1    3    3    0    0 -0.11292891337E+02  0.38558839631E+01  0.12549890544E+02  0.17317534136E+02  0.00000000000E+00 0. -1.
</event>
<event>
 7    1  0.3435408E-009  0.4614232E+02  0.7816164E-02  0.1320468E+00
        -11   -1    0    0    0    0  0.00000000000E+00  0.00000000000E+00  0.45593999997E+02  0.45594000000E+02  0.51100000000E-03 0.  1.
         11   -1    0    0    0    0 -0.00000000000E+00 -0.00000000000E+00 -0.45593999997E+02  0.45594000000E+02  0.51100000000E-03 0. -1.
    9900012    2    1    2    0    0  0.21238755010E+02  0.25130852819E+02 -0.30764735139E+02  0.46142318676E+02  0.10000008344E+02 0.  0.
        -12    1    1    2    0    0 -0.21238755010E+02 -0.25130852819E+02  0.30764735139E+02  0.45045681324E+02  0.00000000000E+00 0.  1.
         11    1    3    3    0    0  0.71251457880E+01  0.11104021867E+02 -0.90608034464E+01  0.16005160527E+02  0.51100000000E-03 0. -1.
        -11    1    3    3    0    0  0.26300458375E+01  0.21494855668E+01 -0.79414576738E+00  0.34882799587E+01  0.51100000000E-03 0.  1.
         12    1    3    3    0    0  0.11483563384E+02  0.11877345385E+02 -0.20909785925E+02  0.26648878191E+02  0.00000000000E+00 0. -1.
</event>
<event>
 7    1  0.3435408E-009  0.4614232E+02  0.7816164E-02  0.1320468E+00
        -11   -1    0    0    0    0  0.00000000000E+00  0.00000000000E+00  0.45593999997E+02  0.45594000000E+02  0.51100000000E-03 0.  1.
         11   -1    0    0    0    0 -0.00000000000E+00 -0.00000000000E+00 -0.45593999997E+02  0.45594000000E+02  0.51100000000E-03 0. -1.
    9900012    2    1    2    0    0  0.58756211617E+01  0.44459117096E+02 -0.42399813874E+01  0.46142318085E+02  0.10000002952E+02 0.  0.
        -12    1    1    2    0    0 -0.58756211617E+01 -0.44459117096E+02  0.42399813874E+01  0.45045681915E+02  0.00000000000E+00 0.  1.
         11    1    3    3    0    0  0.11016075313E+01  0.16047837361E+02 -0.96989550374E+00  0.16114816806E+02  0.51100000000E-03 0. -1.
        -11    1    3    3    0    0 -0.11817442346E+01  0.16088592212E+02 -0.24450850305E+01  0.16316180922E+02  0.51100000000E-03 0.  1.
        -12    1    3    3    0    0  0.59557578650E+01  0.12322687523E+02 -0.82500085320E+00  0.13711320357E+02  0.00000000000E+00 0.  1.
</event>
<event>
 7    1  0.3435408E-009  0.4614232E+02  0.7816164E-02  0.1320468E+00
        -11   -1    0    0    0    0  0.00000000000E+00  0.00000000000E+00  0.45593999997E+02  0.45594000000E+02  0.51100000000E-03 0. -1.
         11   -1    0    0    0    0 -0.00000000000E+00 -0.00000000000E+00 -0.45593999997E+02  0.45594000000E+02  0.51100000000E-03 0.  1.
    9900012    2    1    2    0    0 -0.24305139433E+02 -0.24792951775E+02  0.28699882654E+02  0.46142317355E+02  0.99999962965E+01 0.  0.
        -12    1    1    2    0    0  0.24305139433E+02  0.24792951775E+02 -0.28699882654E+02  0.45045682645E+02  0.00000000000E+00 0.  1.
         11    1    3    3    0    0 -0.62087710871E+01 -0.34981003542E+01  0.44803018574E+01  0.84177579850E+01  0.51100000000E-03 0. -1.
        -11    1    3    3    0    0 -0.73992214757E+01 -0.96226093301E+01  0.15374747672E+02  0.19588924294E+02  0.51100000000E-03 0.  1.
        -12    1    3    3    0    0 -0.10697146871E+02 -0.11672242091E+02  0.88448331248E+01  0.18135635076E+02  0.00000000000E+00 0.  1.
</event>
<event>
 7    1  0.3435408E-009  0.4614232E+02  0.7816164E-02  0.1320468E+00
        -11   -1    0    0    0    0  0.00000000000E+00  0.00000000000E+00  0.45593999997E+02  0.45594000000E+02  0.51100000000E-03 0. -1.
         11   -1    0    0    0    0 -0.00000000000E+00 -0.00000000000E+00 -0.45593999997E+02  0.45594000000E+02  0.51100000000E-03 0.  1.
    9900012    2    1    2    0    0  0.97601110083E+01  0.13848358532E+02  0.41738191754E+02  0.46142318167E+02  0.10000003700E+02 0.  0.
        -12    1    1    2    0    0 -0.97601110083E+01 -0.13848358532E+02 -0.41738191754E+02  0.45045681833E+02  0.00000000000E+00 0.  1.
         11    1    3    3    0    0  0.39785242225E+01  0.18035854482E+01  0.57381100668E+01  0.72116213751E+01  0.51100000000E-03 0. -1.
        -11    1    3    3    0    0  0.56968597691E+01  0.69067361103E+01  0.28224704985E+02  0.29610660018E+02  0.51100000000E-03 0.  1.
        -12    1    3    3    0    0  0.84727016689E-01  0.51380369736E+01  0.77753767016E+01  0.93200367736E+01  0.00000000000E+00 0.  1.
</event>
<event>
 7    1  0.3435408E-009  0.4614232E+02  0.7816164E-02  0.1320468E+00
        -11   -1    0    0    0    0  0.00000000000E+00  0.00000000000E+00  0.45593999997E+02  0.45594000000E+02  0.51100000000E-03 0. -1.
         11   -1    0    0    0    0 -0.00000000000E+00 -0.00000000000E+00 -0.45593999997E+02  0.45594000000E+02  0.51100000000E-03 0.  1.
    9900012    2    1    2    0    0 -0.23334947810E+02  0.24001629176E+02  0.30141591031E+02  0.46142317606E+02  0.99999985864E+01 0.  0.
        -12    1    1    2    0    0  0.23334947810E+02 -0.24001629176E+02 -0.30141591031E+02  0.45045682394E+02  0.00000000000E+00 0.  1.
         11    1    3    3    0    0 -0.27224346979E+01  0.61928848721E+00  0.39141037108E+01  0.48078453630E+01  0.51100000000E-03 0.  1.
        -11    1    3    3    0    0 -0.16938924515E+02  0.14796420393E+02  0.20107002412E+02  0.30168738231E+02  0.51100000000E-03 0. -1.
         12    1    3    3    0    0 -0.36735885971E+01  0.85859202966E+01  0.61204849081E+01  0.11165734012E+02  0.00000000000E+00 0. -1.
</event>
<event>
 7    1  0.3435408E-009  0.4614232E+02  0.7816164E-02  0.1320468E+00
        -11   -1    0    0    0    0  0.00000000000E+00  0.00000000000E+00  0.45593999997E+02  0.45594000000E+02  0.51100000000E-03 0.  1.
         11   -1    0    0    0    0 -0.00000000000E+00 -0.00000000000E+00 -0.45593999997E+02  0.45594000000E+02  0.51100000000E-03 0. -1.
    9900012    2    1    2    0    0  0.32999488297E+02 -0.18302179383E+02 -0.24600354403E+02  0.46142318356E+02  0.10000005427E+02 0.  0.
        -12    1    1    2    0    0 -0.32999488297E+02  0.18302179383E+02  0.24600354403E+02  0.45045681644E+02  0.00000000000E+00 0.  1.
         11    1    3    3    0    0  0.26620771174E+02 -0.14588534892E+02 -0.22667520834E+02  0.37885449835E+02  0.51100000000E-03 0. -1.
        -11    1    3    3    0    0  0.24059675328E+00  0.51081889942E+00 -0.25202925842E-01  0.56520632895E+00  0.51100000000E-03 0.  1.
         12    1    3    3    0    0  0.61381203702E+01 -0.42244633899E+01 -0.19076306427E+01  0.76916621924E+01  0.00000000000E+00 0. -1.
</event>
<event>
 7    1  0.3435408E-009  0.4614232E+02  0.7816164E-02  0.1320468E+00
        -11   -1    0    0    0    0  0.00000000000E+00  0.00000000000E+00  0.45593999997E+02  0.45594000000E+02  0.51100000000E-03 0.  1.
         11   -1    0    0    0    0 -0.00000000000E+00 -0.00000000000E+00 -0.45593999997E+02  0.45594000000E+02  0.51100000000E-03 0. -1.
    9900012    2    1    2    0    0 -0.37612622755E+02 -0.75740351906E+01 -0.23601654565E+02  0.46142317656E+02  0.99999990445E+01 0.  0.
        -12    1    1    2    0    0  0.37612622755E+02  0.75740351906E+01  0.23601654565E+02  0.45045682344E+02  0.00000000000E+00 0.  1.
         11    1    3    3    0    0 -0.18552639271E+02 -0.37371127765E+01 -0.97034804127E+01  0.21267909352E+02  0.51100000000E-03 0. -1.
        -11    1    3    3    0    0 -0.13850705725E+01 -0.25573500059E+01 -0.19542587491E+01  0.35039387927E+01  0.51100000000E-03 0.  1.
        -12    1    3    3    0    0 -0.17674912912E+02 -0.12795724082E+01 -0.11943915403E+02  0.21370469512E+02  0.00000000000E+00 0.  1.
</event>
<event>
 7    1  0.3435408E-009  0.4614232E+02  0.7816164E-02  0.1320468E+00
        -11   -1    0    0    0    0  0.00000000000E+00  0.00000000000E+00  0.45593999997E+02  0.45594000000E+02  0.51100000000E-03 0. -1.
         11   -1    0    0    0    0 -0.00000000000E+00 -0.00000000000E+00 -0.45593999997E+02  0.45594000000E+02  0.51100000000E-03 0.  1.
    9900012    2    1    2    0    0 -0.38822191801E+02 -0.19919342337E+02 -0.11187967859E+02  0.46142318740E+02  0.10000008927E+02 0.  0.
        -12    1    1    2    0    0  0.38822191801E+02  0.19919342337E+02  0.11187967859E+02  0.45045681260E+02  0.00000000000E+00 0.  1.
         11    1    3    3    0    0 -0.96146365392E+00 -0.13481032757E+01  0.32078800937E+00  0.16866238490E+01  0.51100000000E-03 0.  1.
        -11    1    3    3    0    0 -0.15786891239E+02 -0.34720124862E+01 -0.51690223152E+01  0.16970550894E+02  0.51100000000E-03 0. -1.
        -12    1    3    3    0    0 -0.22073836908E+02 -0.15099226575E+02 -0.63397335531E+01  0.27485143997E+02  0.00000000000E+00 0.  1.
</event>
<event>
 7    1  0.3435408E-009  0.4614232E+02  0.7816164E-02  0.1320468E+00
        -11   -1    0    0    0    0  0.00000000000E+00  0.00000000000E+00  0.45593999997E+02  0.45594000000E+02  0.51100000000E-03 0.  1.
         11   -1    0    0    0    0 -0.00000000000E+00 -0.00000000000E+00 -0.45593999997E+02  0.45594000000E+02  0.51100000000E-03 0. -1.
    9900012    2    1    2    0    0  0.16220571263E+02  0.14825888463E+00 -0.42023620028E+02  0.46142317043E+02  0.99999934517E+01 0.  0.
        -12    1    1    2    0    0 -0.16220571263E+02 -0.14825888463E+00  0.42023620028E+02  0.45045682957E+02  0.00000000000E+00 0.  1.
         11    1    3    3    0    0  0.96949367163E+01  0.88161183466E-01 -0.16753201750E+02  0.19356377230E+02  0.51100000000E-03 0. -1.
        -11    1    3    3    0    0  0.18727634342E+00  0.17737214444E+01 -0.10089594849E+02  0.10246027751E+02  0.51100000000E-03 0.  1.
        -12    1    3    3    0    0  0.63383582030E+01 -0.17136237432E+01 -0.15180823429E+02  0.16539912062E+02  0.00000000000E+00 0.  1.
</event>
<event>
 7    1  0.3435408E-009  0.4614232E+02  0.7816164E-02  0.1320468E+00
        -11   -1    0    0    0    0  0.00000000000E+00  0.00000000000E+00  0.45593999997E+02  0.45594000000E+02  0.51100000000E-03 0. -1.
         11   -1    0    0    0    0 -0.00000000000E+00 -0.00000000000E+00 -0.45593999997E+02  0.45594000000E+02  0.51100000000E-03 0.  1.
    9900012    2    1    2    0    0 -0.14825612789E+02 -0.41259997781E+02  0.10340564981E+02  0.46142317680E+02  0.99999992646E+01 0.  0.
        -12    1    1    2    0    0  0.14825612789E+02  0.41259997781E+02 -0.10340564981E+02  0.45045682320E+02  0.00000000000E+00 0.  1.
         11    1    3    3    0    0 -0.22117064156E+01 -0.10205209065E+02  0.62291103301E+01  0.12158937169E+02  0.51100000000E-03 0. -1.
        -11    1    3    3    0    0 -0.84477582015E+01 -0.16123482701E+02  0.29296580666E+01  0.18436762451E+02  0.51100000000E-03 0.  1.
        -12    1    3    3    0    0 -0.41661481723E+01 -0.14931306016E+02  0.11817965845E+01  0.15546618060E+02  0.00000000000E+00 0.  1.
</event>
<event>
 7    1  0.3435408E-009  0.4614232E+02  0.7816164E-02  0.1320468E+00
        -11   -1    0    0    0    0  0.00000000000E+00  0.00000000000E+00  0.45593999997E+02  0.45594000000E+02  0.51100000000E-03 0.  1.
         11   -1    0    0    0    0 -0.00000000000E+00 -0.00000000000E+00 -0.45593999997E+02  0.45594000000E+02  0.51100000000E-03 0. -1.
    9900012    2    1    2    0    0 -0.35208156760E+02  0.22176326320E+02 -0.17254268336E+02  0.46142317329E+02  0.99999960631E+01 0.  0.
        -12    1    1    2    0    0  0.35208156760E+02 -0.22176326320E+02  0.17254268336E+02  0.45045682671E+02  0.00000000000E+00 0.  1.
         11    1    3    3    0    0 -0.13346139963E+02  0.59563347005E+01 -0.72356591223E+01  0.16308039066E+02  0.51100000000E-03 0. -1.
        -11    1    3    3    0    0 -0.17402116564E+02  0.15643131846E+02 -0.96855456768E+01  0.25324909283E+02  0.51100000000E-03 0.  1.
        -12    1    3    3    0    0 -0.44599002325E+01  0.57685977262E+00 -0.33306353662E+00  0.45093689803E+01  0.00000000000E+00 0.  1.
</event>
<event>
 7    1  0.3435408E-009  0.4614232E+02  0.7816164E-02  0.1320468E+00
        -11   -1    0    0    0    0  0.00000000000E+00  0.00000000000E+00  0.45593999997E+02  0.45594000000E+02  0.51100000000E-03 0.  1.
         11   -1    0    0    0    0 -0.00000000000E+00 -0.00000000000E+00 -0.45593999997E+02  0.45594000000E+02  0.51100000000E-03 0. -1.
    9900012    2    1    2    0    0 -0.99588439400E+00  0.21363931406E+02 -0.39644723914E+02  0.46142317798E+02  0.10000000333E+02 0.  0.
        -12    1    1    2    0    0  0.99588439400E+00 -0.21363931406E+02  0.39644723914E+02  0.45045682202E+02  0.00000000000E+00 0.  1.
         11    1    3    3    0    0 -0.16836385302E+01  0.11177402690E+02 -0.28519294382E+02  0.30677664871E+02  0.51100000000E-03 0. -1.
        -11    1    3    3    0    0  0.13266717777E+01  0.84219680269E+01 -0.10411124786E+02  0.13456638622E+02  0.51100000000E-03 0.  1.
         12    1    3    3    0    0 -0.63891764155E+00  0.17645606888E+01 -0.71430474652E+00  0.20080143047E+01  0.00000000000E+00 0. -1.
</event>
<event>
 7    1  0.3435408E-009  0.4614232E+02  0.7816164E-02  0.1320468E+00
        -11   -1    0    0    0    0  0.00000000000E+00  0.00000000000E+00  0.45593999997E+02  0.45594000000E+02  0.51100000000E-03 0. -1.
         11   -1    0    0    0    0 -0.00000000000E+00 -0.00000000000E+00 -0.45593999997E+02  0.45594000000E+02  0.51100000000E-03 0.  1.
    9900012    2    1    2    0    0 -0.99878034052E+01  0.38383942089E+02  0.21354860076E+02  0.46142320118E+02  0.10000021495E+02 0.  0.
        -12    1    1    2    0    0  0.99878034052E+01 -0.38383942089E+02 -0.21354860076E+02  0.45045679882E+02  0.00000000000E+00 0.  1.
         11    1    3    3    0    0 -0.25874497105E+01  0.80181325671E+01  0.88642107341E+01  0.12229455346E+02  0.51100000000E-03 0. -1.
        -11    1    3    3    0    0  0.17058148746E+00  0.28639094376E+01  0.27443019754E+00  0.28820804127E+01  0.51100000000E-03 0.  1.
         12    1    3    3    0    0 -0.75709351821E+01  0.27501900084E+02  0.12216219144E+02  0.31030784359E+02  0.00000000000E+00 0. -1.
</event>
<event>
 7    1  0.3435408E-009  0.4614232E+02  0.7816164E-02  0.1320468E+00
        -11   -1    0    0    0    0  0.00000000000E+00  0.00000000000E+00  0.45593999997E+02  0.45594000000E+02  0.51100000000E-03 0.  1.
         11   -1    0    0    0    0 -0.00000000000E+00 -0.00000000000E+00 -0.45593999997E+02  0.45594000000E+02  0.51100000000E-03 0. -1.
    9900012    2    1    2    0    0  0.41684611486E+02 -0.16641913613E+02 -0.38148806763E+01  0.46142318319E+02  0.10000005092E+02 0.  0.
        -12    1    1    2    0    0 -0.41684611486E+02  0.16641913613E+02  0.38148806763E+01  0.45045681681E+02  0.00000000000E+00 0.  1.
         11    1    3    3    0    0  0.29649689350E+02 -0.11498507979E+02 -0.48295507001E+01  0.32165887591E+02  0.51100000000E-03 0. -1.
        -11    1    3    3    0    0 -0.47851862807E-01 -0.10237146288E+01  0.63376310379E+00  0.12049636405E+01  0.51100000000E-03 0.  1.
        -12    1    3    3    0    0  0.12082773999E+02 -0.41196910061E+01  0.38090692001E+00  0.12771467088E+02  0.00000000000E+00 0.  1.
</event>
<event>
 7    1  0.3435408E-009  0.4614232E+02  0.7816164E-02  0.1320468E+00
        -11   -1    0    0    0    0  0.00000000000E+00  0.00000000000E+00  0.45593999997E+02  0.45594000000E+02  0.51100000000E-03 0.  1.
         11   -1    0    0    0    0 -0.00000000000E+00 -0.00000000000E+00 -0.45593999997E+02  0.45594000000E+02  0.51100000000E-03 0. -1.
    9900012    2    1    2    0    0  0.40380468741E+02 -0.31616049961E+01 -0.19711302421E+02  0.46142318242E+02  0.10000004382E+02 0.  0.
        -12    1    1    2    0    0 -0.40380468741E+02  0.31616049961E+01  0.19711302421E+02  0.45045681758E+02  0.00000000000E+00 0.  1.
         11    1    3    3    0    0  0.27512135051E+02 -0.93586141906E+00 -0.15142217922E+02  0.31417832126E+02  0.51100000000E-03 0. -1.
        -11    1    3    3    0    0  0.11437632856E+02 -0.31216839596E+01 -0.26126351584E+01  0.12140437341E+02  0.51100000000E-03 0.  1.
         12    1    3    3    0    0  0.14307008348E+01  0.89594038259E+00 -0.19564493410E+01  0.25840487750E+01  0.00000000000E+00 0. -1.
</event>
<event>
 7    1  0.3435408E-009  0.4614232E+02  0.7816164E-02  0.1320468E+00
        -11   -1    0    0    0    0  0.00000000000E+00  0.00000000000E+00  0.45593999997E+02  0.45594000000E+02  0.51100000000E-03 0.  1.
         11   -1    0    0    0    0 -0.00000000000E+00 -0.00000000000E+00 -0.45593999997E+02  0.45594000000E+02  0.51100000000E-03 0. -1.
    9900012    2    1    2    0    0  0.10152735161E+02  0.53971416444E+01 -0.43553488221E+02  0.46142317573E+02  0.99999982803E+01 0.  0.
        -12    1    1    2    0    0 -0.10152735161E+02 -0.53971416444E+01  0.43553488221E+02  0.45045682427E+02  0.00000000000E+00 0.  1.
         11    1    3    3    0    0  0.26045810525E+01  0.42365746573E+01 -0.30682148258E+02  0.31082577584E+02  0.51100000000E-03 0. -1.
        -11    1    3    3    0    0  0.38048531379E+00  0.47320762485E+00 -0.12247081021E+01  0.13669691754E+01  0.51100000000E-03 0.  1.
         12    1    3    3    0    0  0.71676687946E+01  0.68735936218E+00 -0.11646631861E+02  0.13692770813E+02  0.00000000000E+00 0. -1.
</event>
<event>
 7    1  0.3435408E-009  0.4614231E+02  0.7816164E-02  0.1320468E+00
        -11   -1    0    0    0    0  0.00000000000E+00  0.00000000000E+00  0.45593999997E+02  0.45594000000E+02  0.51100000000E-03 0.  1.
         11   -1    0    0    0    0 -0.00000000000E+00 -0.00000000000E+00 -0.45593999997E+02  0.45594000000E+02  0.51100000000E-03 0. -1.
    9900012    2    1    2    0    0  0.10409101823E+02 -0.11319650604E+02 -0.42339461199E+02  0.46142313578E+02  0.99999618581E+01 0.  0.
        -12    1    1    2    0    0 -0.10409101823E+02  0.11319650604E+02  0.42339461199E+02  0.45045686422E+02  0.00000000000E+00 0.  1.
         11    1    3    3    0    0  0.34398090064E+01 -0.38105835602E+01 -0.17157351238E+02  0.17908867491E+02  0.51100000000E-03 0. -1.
        -11    1    3    3    0    0  0.80475910629E+01 -0.38140084815E+01 -0.18132597895E+02  0.20201521955E+02  0.51100000000E-03 0.  1.
        -12    1    3    3    0    0 -0.10782982461E+01 -0.36950585625E+01 -0.70495120663E+01  0.80319241319E+01  0.00000000000E+00 0.  1.
</event>
<event>
 7    1  0.3435408E-009  0.4614232E+02  0.7816164E-02  0.1320468E+00
        -11   -1    0    0    0    0  0.00000000000E+00  0.00000000000E+00  0.45593999997E+02  0.45594000000E+02  0.51100000000E-03 0.  1.
         11   -1    0    0    0    0 -0.00000000000E+00 -0.00000000000E+00 -0.45593999997E+02  0.45594000000E+02  0.51100000000E-03 0. -1.
    9900012    2    1    2    0    0  0.29473447962E+02  0.16618371758E+01 -0.34024515013E+02  0.46142318082E+02  0.10000002929E+02 0.  0.
        -12    1    1    2    0    0 -0.29473447962E+02 -0.16618371758E+01  0.34024515013E+02  0.45045681918E+02  0.00000000000E+00 0.  1.
         11    1    3    3    0    0  0.10947849945E+02  0.36191263812E+01 -0.11850379440E+02  0.16534357783E+02  0.51100000000E-03 0. -1.
        -11    1    3    3    0    0  0.17916933834E+01  0.13138728846E+01 -0.10396333455E+01  0.24530113924E+01  0.51100000000E-03 0.  1.
        -12    1    3    3    0    0  0.16733904633E+02 -0.32711620900E+01 -0.21134502228E+02  0.27154948907E+02  0.00000000000E+00 0.  1.
</event>
<event>
 7    1  0.3435408E-009  0.4614232E+02  0.7816164E-02  0.1320468E+00
        -11   -1    0    0    0    0  0.00000000000E+00  0.00000000000E+00  0.45593999997E+02  0.45594000000E+02  0.51100000000E-03 0.  1.
         11   -1    0    0    0    0 -0.00000000000E+00 -0.00000000000E+00 -0.45593999997E+02  0.45594000000E+02  0.51100000000E-03 0. -1.
    9900012    2    1    2    0    0 -0.34291381659E+02 -0.22286377931E+02 -0.18882055929E+02  0.46142317261E+02  0.99999954362E+01 0.  0.
        -12    1    1    2    0    0  0.34291381659E+02  0.22286377931E+02  0.18882055929E+02  0.45045682739E+02  0.00000000000E+00 0.  1.
         11    1    3    3    0    0 -0.26427131129E+02 -0.18968841295E+02 -0.12643065656E+02  0.34900677776E+02  0.51100000000E-03 0. -1.
        -11    1    3    3    0    0 -0.77768096720E+01 -0.37299327798E+01 -0.50835005791E+01  0.10011650494E+02  0.51100000000E-03 0.  1.
         12    1    3    3    0    0 -0.87440857606E-01  0.41239614397E+00 -0.11554896942E+01  0.12299889905E+01  0.00000000000E+00 0. -1.
</event>
<event>
 7    1  0.3435408E-009  0.4614232E+02  0.7816164E-02  0.1320468E+00
        -11   -1    0    0    0    0  0.00000000000E+00  0.00000000000E+00  0.45593999997E+02  0.45594000000E+02  0.51100000000E-03 0.  1.
         11   -1    0    0    0    0 -0.00000000000E+00 -0.00000000000E+00 -0.45593999997E+02  0.45594000000E+02  0.51100000000E-03 0. -1.
    9900012    2    1    2    0    0  0.23425366348E+01 -0.11231293781E+02 -0.43560120710E+02  0.46142317031E+02  0.99999933378E+01 0.  0.
        -12    1    1    2    0    0 -0.23425366348E+01  0.11231293781E+02  0.43560120710E+02  0.45045682969E+02  0.00000000000E+00 0.  1.
         11    1    3    3    0    0  0.16034958643E+01 -0.84768437116E+01 -0.21277615875E+02  0.22960074388E+02  0.51100000000E-03 0. -1.
        -11    1    3    3    0    0 -0.23768995342E+01 -0.14897657084E+01 -0.71501151833E+01  0.76807031356E+01  0.51100000000E-03 0.  1.
        -12    1    3    3    0    0  0.31159403046E+01 -0.12646843612E+01 -0.15132389652E+02  0.15501539507E+02  0.00000000000E+00 0.  1.
</event>
<event>
 7    1  0.3435408E-009  0.4614231E+02  0.7816164E-02  0.1320468E+00
        -11   -1    0    0    0    0  0.00000000000E+00  0.00000000000E+00  0.45593999997E+02  0.45594000000E+02  0.51100000000E-03 0.  1.
         11   -1    0    0    0    0 -0.00000000000E+00 -0.00000000000E+00 -0.45593999997E+02  0.45594000000E+02  0.51100000000E-03 0. -1.
    9900012    2    1    2    0    0  0.25455857291E+02 -0.33883526075E+01 -0.37008547521E+02  0.46142309935E+02  0.99999286356E+01 0.  0.
        -12    1    1    2    0    0 -0.25455857291E+02  0.33883526075E+01  0.37008547521E+02  0.45045690065E+02  0.00000000000E+00 0.  1.
         11    1    3    3    0    0  0.11661524615E+02  0.10762365258E+01 -0.19008137769E+02  0.22326189624E+02  0.51100000000E-03 0. -1.
        -11    1    3    3    0    0  0.92989388043E+01 -0.56108304618E+01 -0.11366365518E+02  0.15720876143E+02  0.51100000000E-03 0.  1.
        -12    1    3    3    0    0  0.44953938723E+01  0.11462413285E+01 -0.66340442336E+01  0.80952441682E+01  0.00000000000E+00 0.  1.
</event>
<event>
 7    1  0.3435408E-009  0.4614232E+02  0.7816164E-02  0.1320468E+00
        -11   -1    0    0    0    0  0.00000000000E+00  0.00000000000E+00  0.45593999997E+02  0.45594000000E+02  0.51100000000E-03 0. -1.
         11   -1    0    0    0    0 -0.00000000000E+00 -0.00000000000E+00 -0.45593999997E+02  0.45594000000E+02  0.51100000000E-03 0.  1.
    9900012    2    1    2    0    0 -0.20513556383E+02 -0.12706106318E+02  0.38037643196E+02  0.46142318373E+02  0.10000005584E+02 0.  0.
        -12    1    1    2    0    0  0.20513556383E+02  0.12706106318E+02 -0.38037643196E+02  0.45045681627E+02  0.00000000000E+00 0.  1.
         11    1    3    3    0    0 -0.13449711483E+02 -0.37146618113E+01  0.23559156013E+02  0.27381148326E+02  0.51100000000E-03 0. -1.
        -11    1    3    3    0    0  0.30898078941E+00 -0.67438239650E+00  0.46637897631E+00  0.87622505990E+00  0.51100000000E-03 0.  1.
         12    1    3    3    0    0 -0.73728256897E+01 -0.83170621103E+01  0.14012108207E+02  0.17884944987E+02  0.00000000000E+00 0. -1.
</event>
<event>
 7    1  0.3435408E-009  0.4614232E+02  0.7816164E-02  0.1320468E+00
        -11   -1    0    0    0    0  0.00000000000E+00  0.00000000000E+00  0.45593999997E+02  0.45594000000E+02  0.51100000000E-03 0.  1.
         11   -1    0    0    0    0 -0.00000000000E+00 -0.00000000000E+00 -0.45593999997E+02  0.45594000000E+02  0.51100000000E-03 0. -1.
    9900012    2    1    2    0    0  0.21438267300E+02 -0.27480851145E+02 -0.28536239948E+02  0.46142317911E+02  0.10000001368E+02 0.  0.
        -12    1    1    2    0    0 -0.21438267300E+02  0.27480851145E+02  0.28536239948E+02  0.45045682089E+02  0.00000000000E+00 0.  1.
         11    1    3    3    0    0  0.13187490110E+02 -0.16063975648E+02 -0.12074667959E+02  0.24036614062E+02  0.51100000000E-03 0. -1.
        -11    1    3    3    0    0  0.72733390774E+01 -0.65872825055E+01 -0.11399674146E+02  0.15041486730E+02  0.51100000000E-03 0.  1.
        -12    1    3    3    0    0  0.97743811274E+00 -0.48295929918E+01 -0.50618978431E+01  0.70642171190E+01  0.00000000000E+00 0.  1.
</event>
<event>
 7    1  0.3435408E-009  0.4614232E+02  0.7816164E-02  0.1320468E+00
        -11   -1    0    0    0    0  0.00000000000E+00  0.00000000000E+00  0.45593999997E+02  0.45594000000E+02  0.51100000000E-03 0. -1.
         11   -1    0    0    0    0 -0.00000000000E+00 -0.00000000000E+00 -0.45593999997E+02  0.45594000000E+02  0.51100000000E-03 0.  1.
    9900012    2    1    2    0    0  0.31414386833E+02  0.29014903782E+01  0.32153243977E+02  0.46142318245E+02  0.10000004414E+02 0.  0.
        -12    1    1    2    0    0 -0.31414386833E+02 -0.29014903782E+01 -0.32153243977E+02  0.45045681755E+02  0.00000000000E+00 0.  1.
         11    1    3    3    0    0  0.97559850973E+01  0.46332556794E+01  0.12909668454E+02  0.16831691634E+02  0.51100000000E-03 0. -1.
        -11    1    3    3    0    0  0.63748656530E+01 -0.76016323278E+00  0.82750602530E+01  0.10473460874E+02  0.51100000000E-03 0.  1.
         12    1    3    3    0    0  0.15283536083E+02 -0.97160206845E+00  0.10968515271E+02  0.18837165737E+02  0.00000000000E+00 0. -1.
</event>
<event>
 7    1  0.3435408E-009  0.4614232E+02  0.7816164E-02  0.1320468E+00
        -11   -1    0    0    0    0  0.00000000000E+00  0.00000000000E+00  0.45593999997E+02  0.45594000000E+02  0.51100000000E-03 0.  1.
         11   -1    0    0    0    0 -0.00000000000E+00 -0.00000000000E+00 -0.45593999997E+02  0.45594000000E+02  0.51100000000E-03 0. -1.
    9900012    2    1    2    0    0 -0.42708529293E+02  0.66180161684E+01 -0.12700270593E+02  0.46142317793E+02  0.10000000289E+02 0.  0.
        -12    1    1    2    0    0  0.42708529293E+02 -0.66180161684E+01  0.12700270593E+02  0.45045682207E+02  0.00000000000E+00 0.  1.
         11    1    3    3    0    0 -0.62458294922E+01  0.20225934350E+01  0.61759215064E-01  0.65654462690E+01  0.51100000000E-03 0. -1.
        -11    1    3    3    0    0 -0.86125416752E+01 -0.15016091673E+01 -0.12532467678E+01  0.88318362712E+01  0.51100000000E-03 0.  1.
         12    1    3    3    0    0 -0.27850158126E+02  0.60970319006E+01 -0.11508783040E+02  0.30745035253E+02  0.00000000000E+00 0. -1.
</event>
<event>
 7    1  0.3435408E-009  0.4614232E+02  0.7816164E-02  0.1320468E+00
        -11   -1    0    0    0    0  0.00000000000E+00  0.00000000000E+00  0.45593999997E+02  0.45594000000E+02  0.51100000000E-03 0.  1.
         11   -1    0    0    0    0 -0.00000000000E+00 -0.00000000000E+00 -0.45593999997E+02  0.45594000000E+02  0.51100000000E-03 0. -1.
    9900012    2    1    2    0    0  0.33026130806E+00  0.43934802612E+02 -0.99366753268E+01  0.46142317969E+02  0.10000001898E+02 0.  0.
        -12    1    1    2    0    0 -0.33026130806E+00 -0.43934802612E+02  0.99366753268E+01  0.45045682031E+02  0.00000000000E+00 0.  1.
         11    1    3    3    0    0 -0.63387603337E+00  0.46194088010E+01 -0.39424803103E+01  0.61060533698E+01  0.51100000000E-03 0.  1.
        -11    1    3    3    0    0  0.14664857747E+01  0.18405668798E+02 -0.78050324238E+00  0.18480487277E+02  0.51100000000E-03 0. -1.
         12    1    3    3    0    0 -0.50234843327E+00  0.20909725013E+02 -0.52136917741E+01  0.21555777323E+02  0.00000000000E+00 0. -1.
</event>
<event>
 7    1  0.3435408E-009  0.4614232E+02  0.7816164E-02  0.1320468E+00
        -11   -1    0    0    0    0  0.00000000000E+00  0.00000000000E+00  0.45593999997E+02  0.45594000000E+02  0.51100000000E-03 0. -1.
         11   -1    0    0    0    0 -0.00000000000E+00 -0.00000000000E+00 -0.45593999997E+02  0.45594000000E+02  0.51100000000E-03 0.  1.
    9900012    2    1    2    0    0  0.35325297298E+02 -0.24895334224E+02  0.12706656481E+02  0.46142318584E+02  0.10000007506E+02 0.  0.
        -12    1    1    2    0    0 -0.35325297298E+02  0.24895334224E+02 -0.12706656481E+02  0.45045681416E+02  0.00000000000E+00 0.  1.
         11    1    3    3    0    0  0.14239397965E+02 -0.13365774438E+02  0.33738268557E+01  0.19818856896E+02  0.51100000000E-03 0. -1.
        -11    1    3    3    0    0  0.28485548957E+01 -0.86991730441E+00  0.31001027279E+01  0.42990299249E+01  0.51100000000E-03 0.  1.
        -12    1    3    3    0    0  0.18237344437E+02 -0.10659642481E+02  0.62327268970E+01  0.22024431763E+02  0.00000000000E+00 0.  1.
</event>
<event>
 7    1  0.3435408E-009  0.4614232E+02  0.7816164E-02  0.1320468E+00
        -11   -1    0    0    0    0  0.00000000000E+00  0.00000000000E+00  0.45593999997E+02  0.45594000000E+02  0.51100000000E-03 0.  1.
         11   -1    0    0    0    0 -0.00000000000E+00 -0.00000000000E+00 -0.45593999997E+02  0.45594000000E+02  0.51100000000E-03 0. -1.
    9900012    2    1    2    0    0 -0.11867259753E+02  0.35122167834E+02 -0.25587399213E+02  0.46142317345E+02  0.99999962041E+01 0.  0.
        -12    1    1    2    0    0  0.11867259753E+02 -0.35122167834E+02  0.25587399213E+02  0.45045682655E+02  0.00000000000E+00 0.  1.
         11    1    3    3    0    0 -0.31494782004E+01  0.49227417247E+01 -0.36978168063E+01  0.69156668816E+01  0.51100000000E-03 0. -1.
        -11    1    3    3    0    0 -0.41034210617E+01  0.24226531155E+02 -0.13878828540E+02  0.28220289831E+02  0.51100000000E-03 0.  1.
        -12    1    3    3    0    0 -0.46143604904E+01  0.59728949544E+01 -0.80107538661E+01  0.11006360633E+02  0.00000000000E+00 0.  1.
</event>
<event>
 7    1  0.3435408E-009  0.4614232E+02  0.7816164E-02  0.1320468E+00
        -11   -1    0    0    0    0  0.00000000000E+00  0.00000000000E+00  0.45593999997E+02  0.45594000000E+02  0.51100000000E-03 0.  1.
         11   -1    0    0    0    0 -0.00000000000E+00 -0.00000000000E+00 -0.45593999997E+02  0.45594000000E+02  0.51100000000E-03 0. -1.
    9900012    2    1    2    0    0 -0.83204767893E+01 -0.51515306954E+01 -0.43969817815E+02  0.46142317841E+02  0.10000000730E+02 0.  0.
        -12    1    1    2    0    0  0.83204767893E+01  0.51515306954E+01  0.43969817815E+02  0.45045682159E+02  0.00000000000E+00 0.  1.
         11    1    3    3    0    0 -0.62311874552E+00  0.50704280015E+00 -0.45583737890E+01  0.46286219584E+01  0.51100000000E-03 0. -1.
        -11    1    3    3    0    0 -0.14612186077E+00 -0.35534265087E+01 -0.45143924961E+01  0.57469932505E+01  0.51100000000E-03 0.  1.
        -12    1    3    3    0    0 -0.75512361830E+01 -0.21051469868E+01 -0.34897051530E+02  0.35766702632E+02  0.00000000000E+00 0.  1.
</event>
<event>
 7    1  0.3435408E-009  0.4614232E+02  0.7816164E-02  0.1320468E+00
        -11   -1    0    0    0    0  0.00000000000E+00  0.00000000000E+00  0.45593999997E+02  0.45594000000E+02  0.51100000000E-03 0.  1.
         11   -1    0    0    0    0 -0.00000000000E+00 -0.00000000000E+00 -0.45593999997E+02  0.45594000000E+02  0.51100000000E-03 0. -1.
    9900012    2    1    2    0    0  0.15872597847E+02 -0.15833841881E+02 -0.39069983304E+02  0.46142317560E+02  0.99999981617E+01 0.  0.
        -12    1    1    2    0    0 -0.15872597847E+02  0.15833841881E+02  0.39069983304E+02  0.45045682440E+02  0.00000000000E+00 0.  1.
         11    1    3    3    0    0  0.11359565110E+02 -0.66876113002E+01 -0.19211864453E+02  0.23299347639E+02  0.51100000000E-03 0.  1.
        -11    1    3    3    0    0  0.70352675452E+00 -0.60257099776E+01 -0.83110149988E+01  0.10289659917E+02  0.51100000000E-03 0. -1.
         12    1    3    3    0    0  0.38095059827E+01 -0.31205206031E+01 -0.11547103853E+02  0.12553310004E+02  0.00000000000E+00 0. -1.
</event>
<event>
 7    1  0.3435408E-009  0.4614232E+02  0.7816164E-02  0.1320468E+00
        -11   -1    0    0    0    0  0.00000000000E+00  0.00000000000E+00  0.45593999997E+02  0.45594000000E+02  0.51100000000E-03 0. -1.
         11   -1    0    0    0    0 -0.00000000000E+00 -0.00000000000E+00 -0.45593999997E+02  0.45594000000E+02  0.51100000000E-03 0.  1.
    9900012    2    1    2    0    0  0.39562246023E+02  0.21518498619E+02  0.94676338363E+00  0.46142318142E+02  0.10000003472E+02 0.  0.
        -12    1    1    2    0    0 -0.39562246023E+02 -0.21518498619E+02 -0.94676338363E+00  0.45045681858E+02  0.00000000000E+00 0.  1.
         11    1    3    3    0    0  0.25890710601E+02  0.18839659504E+02  0.39172933496E-01  0.32019731423E+02  0.51100000000E-03 0. -1.
        -11    1    3    3    0    0  0.87879311218E+00  0.80244345660E-01  0.59600822890E+00  0.10648673904E+01  0.51100000000E-03 0.  1.
         12    1    3    3    0    0  0.12792742309E+02  0.25985947692E+01  0.31158222123E+00  0.13057719328E+02  0.00000000000E+00 0. -1.
</event>
<event>
 7    1  0.3435408E-009  0.4614232E+02  0.7816164E-02  0.1320468E+00
        -11   -1    0    0    0    0  0.00000000000E+00  0.00000000000E+00  0.45593999997E+02  0.45594000000E+02  0.51100000000E-03 0.  1.
         11   -1    0    0    0    0 -0.00000000000E+00 -0.00000000000E+00 -0.45593999997E+02  0.45594000000E+02  0.51100000000E-03 0. -1.
    9900012    2    1    2    0    0 -0.19636522732E+02  0.37008347980E+02 -0.16550003911E+02  0.46142317913E+02  0.10000001386E+02 0.  0.
        -12    1    1    2    0    0  0.19636522732E+02 -0.37008347980E+02  0.16550003911E+02  0.45045682087E+02  0.00000000000E+00 0.  1.
         11    1    3    3    0    0 -0.49249525956E+01  0.15227702061E+02 -0.21268113424E+01  0.16145011455E+02  0.51100000000E-03 0. -1.
        -11    1    3    3    0    0 -0.53416356787E+01  0.86227062317E+01 -0.52558680701E+01  0.11424022230E+02  0.51100000000E-03 0.  1.
         12    1    3    3    0    0 -0.93699344578E+01  0.13157939687E+02 -0.91673244988E+01  0.18573284228E+02  0.00000000000E+00 0. -1.
</event>
<event>
 7    1  0.3435408E-009  0.4614232E+02  0.7816164E-02  0.1320468E+00
        -11   -1    0    0    0    0  0.00000000000E+00  0.00000000000E+00  0.45593999997E+02  0.45594000000E+02  0.51100000000E-03 0.  1.
         11   -1    0    0    0    0 -0.00000000000E+00 -0.00000000000E+00 -0.45593999997E+02  0.45594000000E+02  0.51100000000E-03 0. -1.
    9900012    2    1    2    0    0  0.82269398172E+01 -0.17555231277E+02 -0.40660113313E+02  0.46142317648E+02  0.99999989687E+01 0.  0.
        -12    1    1    2    0    0 -0.82269398172E+01  0.17555231277E+02  0.40660113313E+02  0.45045682352E+02  0.00000000000E+00 0.  1.
         11    1    3    3    0    0  0.88024578025E+00 -0.34730770890E+01 -0.10506796302E+02  0.11100894824E+02  0.51100000000E-03 0. -1.
        -11    1    3    3    0    0  0.51245140145E+01 -0.92671049309E+01 -0.26673127626E+02  0.28698355620E+02  0.51100000000E-03 0.  1.
        -12    1    3    3    0    0  0.22221800224E+01 -0.48150492574E+01 -0.34801893853E+01  0.63430672045E+01  0.00000000000E+00 0.  1.
</event>
<event>
 7    1  0.3435408E-009  0.4614232E+02  0.7816164E-02  0.1320468E+00
        -11   -1    0    0    0    0  0.00000000000E+00  0.00000000000E+00  0.45593999997E+02  0.45594000000E+02  0.51100000000E-03 0.  1.
         11   -1    0    0    0    0 -0.00000000000E+00 -0.00000000000E+00 -0.45593999997E+02  0.45594000000E+02  0.51100000000E-03 0. -1.
    9900012    2    1    2    0    0  0.34455473963E+02  0.59716493295E+00 -0.29009950035E+02  0.46142317709E+02  0.99999995261E+01 0.  0.
        -12    1    1    2    0    0 -0.34455473963E+02 -0.59716493295E+00  0.29009950035E+02  0.45045682291E+02  0.00000000000E+00 0.  1.
         11    1    3    3    0    0  0.82323493501E+01 -0.92455149274E+00 -0.46238606330E+01  0.94871733777E+01  0.51100000000E-03 0. -1.
        -11    1    3    3    0    0  0.14013259661E+02 -0.30272200068E+01 -0.12716649096E+02  0.19163733243E+02  0.51100000000E-03 0.  1.
        -12    1    3    3    0    0  0.12209864952E+02  0.45489364325E+01 -0.11669440306E+02  0.17491411089E+02  0.00000000000E+00 0.  1.
</event>
<event>
 7    1  0.3435408E-009  0.4614232E+02  0.7816164E-02  0.1320468E+00
        -11   -1    0    0    0    0  0.00000000000E+00  0.00000000000E+00  0.45593999997E+02  0.45594000000E+02  0.51100000000E-03 0. -1.
         11   -1    0    0    0    0 -0.00000000000E+00 -0.00000000000E+00 -0.45593999997E+02  0.45594000000E+02  0.51100000000E-03 0.  1.
    9900012    2    1    2    0    0 -0.30904993182E+02  0.48955689492E+01  0.32404137698E+02  0.46142319420E+02  0.10000015132E+02 0.  0.
        -12    1    1    2    0    0  0.30904993182E+02 -0.48955689492E+01 -0.32404137698E+02  0.45045680580E+02  0.00000000000E+00 0.  1.
         11    1    3    3    0    0 -0.10778436344E+02  0.90377907031E-02  0.15769110320E+02  0.19100775174E+02  0.51100000000E-03 0.  1.
        -11    1    3    3    0    0 -0.19811919983E+02  0.37846656185E+01  0.15629118161E+02  0.25516763157E+02  0.51100000000E-03 0. -1.
        -12    1    3    3    0    0 -0.31463685530E+00  0.11018655400E+01  0.10059092170E+01  0.15247810898E+01  0.00000000000E+00 0.  1.
</event>
<event>
 7    1  0.3435408E-009  0.4614232E+02  0.7816164E-02  0.1320468E+00
        -11   -1    0    0    0    0  0.00000000000E+00  0.00000000000E+00  0.45593999997E+02  0.45594000000E+02  0.51100000000E-03 0.  1.
         11   -1    0    0    0    0 -0.00000000000E+00 -0.00000000000E+00 -0.45593999997E+02  0.45594000000E+02  0.51100000000E-03 0. -1.
    9900012    2    1    2    0    0 -0.20185238061E+01 -0.28137839746E+02 -0.35118387271E+02  0.46142316650E+02  0.99999898716E+01 0.  0.
        -12    1    1    2    0    0  0.20185238061E+01  0.28137839746E+02  0.35118387271E+02  0.45045683350E+02  0.00000000000E+00 0.  1.
         11    1    3    3    0    0 -0.13927466621E+01 -0.87882709829E+01 -0.17032612337E+02  0.19216746172E+02  0.51100000000E-03 0. -1.
        -11    1    3    3    0    0 -0.24497020580E+01 -0.15349235210E+02 -0.14394391239E+02  0.21184866322E+02  0.51100000000E-03 0.  1.
         12    1    3    3    0    0  0.18239249141E+01 -0.40003335528E+01 -0.36913836952E+01  0.57407041564E+01  0.00000000000E+00 0. -1.
</event>
<event>
 7    1  0.3435408E-009  0.4614232E+02  0.7816164E-02  0.1320468E+00
        -11   -1    0    0    0    0  0.00000000000E+00  0.00000000000E+00  0.45593999997E+02  0.45594000000E+02  0.51100000000E-03 0.  1.
         11   -1    0    0    0    0 -0.00000000000E+00 -0.00000000000E+00 -0.45593999997E+02  0.45594000000E+02  0.51100000000E-03 0. -1.
    9900012    2    1    2    0    0 -0.42954864091E+02 -0.36446650588E+01 -0.13065584835E+02  0.46142318303E+02  0.10000004942E+02 0.  0.
        -12    1    1    2    0    0  0.42954864091E+02  0.36446650588E+01  0.13065584835E+02  0.45045681697E+02  0.00000000000E+00 0.  1.
         11    1    3    3    0    0 -0.13984670425E+02  0.33747750185E+00 -0.60998768816E+01  0.15260845199E+02  0.51100000000E-03 0.  1.
        -11    1    3    3    0    0 -0.12720756161E+02 -0.52820355737E+01 -0.27844853701E+01  0.14052433816E+02  0.51100000000E-03 0. -1.
         12    1    3    3    0    0 -0.16249437505E+02  0.12998930131E+01 -0.41812225836E+01  0.16829039288E+02  0.00000000000E+00 0. -1.
</event>
<event>
 7    1  0.3435408E-009  0.4614232E+02  0.7816164E-02  0.1320468E+00
        -11   -1    0    0    0    0  0.00000000000E+00  0.00000000000E+00  0.45593999997E+02  0.45594000000E+02  0.51100000000E-03 0. -1.
         11   -1    0    0    0    0 -0.00000000000E+00 -0.00000000000E+00 -0.45593999997E+02  0.45594000000E+02  0.51100000000E-03 0.  1.
    9900012    2    1    2    0    0  0.14810077968E+02  0.38806159316E+02 -0.17431499479E+02  0.46142316695E+02  0.99999902789E+01 0.  0.
        -12    1    1    2    0    0 -0.14810077968E+02 -0.38806159316E+02  0.17431499479E+02  0.45045683305E+02  0.00000000000E+00 0.  1.
         11    1    3    3    0    0  0.40525925708E+01  0.17711303295E+02 -0.91721098900E+01  0.20352920455E+02  0.51100000000E-03 0. -1.
        -11    1    3    3    0    0  0.94023210198E+01  0.20620013757E+02 -0.66190343904E+01  0.23609324947E+02  0.51100000000E-03 0.  1.
        -12    1    3    3    0    0  0.13551643778E+01  0.47484226407E+00 -0.16403551987E+01  0.21800712935E+01  0.00000000000E+00 0.  1.
</event>
<event>
 7    1  0.3435408E-009  0.4614232E+02  0.7816164E-02  0.1320468E+00
        -11   -1    0    0    0    0  0.00000000000E+00  0.00000000000E+00  0.45593999997E+02  0.45594000000E+02  0.51100000000E-03 0. -1.
         11   -1    0    0    0    0 -0.00000000000E+00 -0.00000000000E+00 -0.45593999997E+02  0.45594000000E+02  0.51100000000E-03 0.  1.
    9900012    2    1    2    0    0  0.37553502179E+02 -0.24856833104E+02 -0.99287856170E+00  0.46142317791E+02  0.10000000274E+02 0.  0.
        -12    1    1    2    0    0 -0.37553502179E+02  0.24856833104E+02  0.99287856170E+00  0.45045682209E+02  0.00000000000E+00 0.  1.
         11    1    3    3    0    0  0.30243704192E+02 -0.23123722065E+02  0.93381218820E+00  0.38082281586E+02  0.51100000000E-03 0. -1.
        -11    1    3    3    0    0  0.29820030062E+01 -0.16452706496E+01 -0.14626011471E+01  0.37065428388E+01  0.51100000000E-03 0.  1.
         12    1    3    3    0    0  0.43277949807E+01 -0.87840389592E-01 -0.46408960283E+00  0.43534933660E+01  0.00000000000E+00 0. -1.
</event>
<event>
 7    1  0.3435408E-009  0.4614232E+02  0.7816164E-02  0.1320468E+00
        -11   -1    0    0    0    0  0.00000000000E+00  0.00000000000E+00  0.45593999997E+02  0.45594000000E+02  0.51100000000E-03 0.  1.
         11   -1    0    0    0    0 -0.00000000000E+00 -0.00000000000E+00 -0.45593999997E+02  0.45594000000E+02  0.51100000000E-03 0. -1.
    9900012    2    1    2    0    0 -0.28685008562E+02 -0.34669390070E+02 -0.20777832531E+01  0.46142317551E+02  0.99999980868E+01 0.  0.
        -12    1    1    2    0    0  0.28685008562E+02  0.34669390070E+02  0.20777832531E+01  0.45045682449E+02  0.00000000000E+00 0.  1.
         11    1    3    3    0    0 -0.12910175371E+02 -0.12265134044E+02 -0.26155200600E+01  0.17998530126E+02  0.51100000000E-03 0. -1.
        -11    1    3    3    0    0 -0.65984182517E+01 -0.10745841169E+02  0.33400250910E+01  0.13044845485E+02  0.51100000000E-03 0.  1.
        -12    1    3    3    0    0 -0.91764149397E+01 -0.11658414856E+02 -0.28022882842E+01  0.15098941941E+02  0.00000000000E+00 0.  1.
</event>
<event>
 7    1  0.3435408E-009  0.4614232E+02  0.7816164E-02  0.1320468E+00
        -11   -1    0    0    0    0  0.00000000000E+00  0.00000000000E+00  0.45593999997E+02  0.45594000000E+02  0.51100000000E-03 0. -1.
         11   -1    0    0    0    0 -0.00000000000E+00 -0.00000000000E+00 -0.45593999997E+02  0.45594000000E+02  0.51100000000E-03 0.  1.
    9900012    2    1    2    0    0  0.13820751037E+02  0.80249202007E+01  0.42115330626E+02  0.46142316775E+02  0.99999910089E+01 0.  0.
        -12    1    1    2    0    0 -0.13820751037E+02 -0.80249202007E+01 -0.42115330626E+02  0.45045683225E+02  0.00000000000E+00 0.  1.
         11    1    3    3    0    0  0.54386930210E+01  0.59231661796E+01  0.27866770811E+02  0.29003796219E+02  0.51100000000E-03 0. -1.
        -11    1    3    3    0    0  0.35651497575E+00 -0.20178108337E+00 -0.19618333656E+00  0.45420996929E+00  0.51100000000E-03 0.  1.
         12    1    3    3    0    0  0.80255430404E+01  0.23035351045E+01  0.14444743151E+02  0.16684310587E+02  0.00000000000E+00 0. -1.
</event>
<event>
 7    1  0.3435408E-009  0.4614232E+02  0.7816164E-02  0.1320468E+00
        -11   -1    0    0    0    0  0.00000000000E+00  0.00000000000E+00  0.45593999997E+02  0.45594000000E+02  0.51100000000E-03 0.  1.
         11   -1    0    0    0    0 -0.00000000000E+00 -0.00000000000E+00 -0.45593999997E+02  0.45594000000E+02  0.51100000000E-03 0. -1.
    9900012    2    1    2    0    0  0.62498058655E+01 -0.49241187371E+01 -0.44337416205E+02  0.46142317694E+02  0.99999993909E+01 0.  0.
        -12    1    1    2    0    0 -0.62498058655E+01  0.49241187371E+01  0.44337416205E+02  0.45045682306E+02  0.00000000000E+00 0.  1.
         11    1    3    3    0    0  0.78662591144E+01 -0.31403245282E+01 -0.24039667096E+02  0.25488139692E+02  0.51100000000E-03 0. -1.
        -11    1    3    3    0    0 -0.10148386727E+00  0.42069643408E+00 -0.10168337159E+02  0.10177542204E+02  0.51100000000E-03 0.  1.
         12    1    3    3    0    0 -0.15149693817E+01 -0.22044906429E+01 -0.10129411949E+02  0.10476635798E+02  0.00000000000E+00 0. -1.
</event>
<event>
 7    1  0.3435408E-009  0.4614232E+02  0.7816164E-02  0.1320468E+00
        -11   -1    0    0    0    0  0.00000000000E+00  0.00000000000E+00  0.45593999997E+02  0.45594000000E+02  0.51100000000E-03 0.  1.
         11   -1    0    0    0    0 -0.00000000000E+00 -0.00000000000E+00 -0.45593999997E+02  0.45594000000E+02  0.51100000000E-03 0. -1.
    9900012    2    1    2    0    0  0.16066947078E+02  0.38975548591E+02 -0.15870514534E+02  0.46142318654E+02  0.10000008142E+02 0.  0.
        -12    1    1    2    0    0 -0.16066947078E+02 -0.38975548591E+02  0.15870514534E+02  0.45045681346E+02  0.00000000000E+00 0.  1.
         11    1    3    3    0    0  0.34211336719E+01  0.41258955521E+01 -0.16781997542E+01  0.56163622019E+01  0.51100000000E-03 0. -1.
        -11    1    3    3    0    0  0.66906965513E+01  0.27229013534E+02 -0.12535571737E+02  0.30713598900E+02  0.51100000000E-03 0.  1.
        -12    1    3    3    0    0  0.59551168545E+01  0.76206395052E+01 -0.16567430427E+01  0.98123575520E+01  0.00000000000E+00 0.  1.
</event>
<event>
 7    1  0.3435408E-009  0.4614232E+02  0.7816164E-02  0.1320468E+00
        -11   -1    0    0    0    0  0.00000000000E+00  0.00000000000E+00  0.45593999997E+02  0.45594000000E+02  0.51100000000E-03 0. -1.
         11   -1    0    0    0    0 -0.00000000000E+00 -0.00000000000E+00 -0.45593999997E+02  0.45594000000E+02  0.51100000000E-03 0.  1.
    9900012    2    1    2    0    0  0.74138449596E+00  0.10748978947E+02  0.43738121697E+02  0.46142317755E+02  0.99999999441E+01 0.  0.
        -12    1    1    2    0    0 -0.74138449596E+00 -0.10748978947E+02 -0.43738121697E+02  0.45045682245E+02  0.00000000000E+00 0.  1.
         11    1    3    3    0    0 -0.49303972915E+00  0.11763171611E+02  0.31348861175E+02  0.33486809220E+02  0.51100000000E-03 0. -1.
        -11    1    3    3    0    0 -0.50000919347E+00 -0.63247299097E+00  0.39155723531E+01  0.39977166472E+01  0.51100000000E-03 0.  1.
         12    1    3    3    0    0  0.17344334186E+01 -0.38171967274E+00  0.84736881688E+01  0.86577918879E+01  0.00000000000E+00 0. -1.
</event>
<event>
 7    1  0.3435408E-009  0.4614232E+02  0.7816164E-02  0.1320468E+00
        -11   -1    0    0    0    0  0.00000000000E+00  0.00000000000E+00  0.45593999997E+02  0.45594000000E+02  0.51100000000E-03 0. -1.
         11   -1    0    0    0    0 -0.00000000000E+00 -0.00000000000E+00 -0.45593999997E+02  0.45594000000E+02  0.51100000000E-03 0.  1.
    9900012    2    1    2    0    0 -0.25702165761E+02  0.35718209171E+02  0.96292099134E+01  0.46142317912E+02  0.10000001380E+02 0.  0.
        -12    1    1    2    0    0  0.25702165761E+02 -0.35718209171E+02 -0.96292099134E+01  0.45045682088E+02  0.00000000000E+00 0.  1.
         11    1    3    3    0    0 -0.14275905217E+02  0.12923222371E+02  0.36083015939E+01  0.19591605010E+02  0.51100000000E-03 0. -1.
        -11    1    3    3    0    0 -0.10566225434E+02  0.22047870872E+02  0.48661094879E+01  0.24928552941E+02  0.51100000000E-03 0.  1.
        -12    1    3    3    0    0 -0.86003510992E+00  0.74711592769E+00  0.11547988316E+01  0.16221599616E+01  0.00000000000E+00 0.  1.
</event>
<event>
 7    1  0.3435408E-009  0.4614231E+02  0.7816164E-02  0.1320468E+00
        -11   -1    0    0    0    0  0.00000000000E+00  0.00000000000E+00  0.45593999997E+02  0.45594000000E+02  0.51100000000E-03 0.  1.
         11   -1    0    0    0    0 -0.00000000000E+00 -0.00000000000E+00 -0.45593999997E+02  0.45594000000E+02  0.51100000000E-03 0. -1.
    9900012    2    1    2    0    0  0.39133770114E+02 -0.70012661599E+01 -0.21181238611E+02  0.46142305863E+02  0.99998915021E+01 0.  0.
        -12    1    1    2    0    0 -0.39133770114E+02  0.70012661599E+01  0.21181238611E+02  0.45045694137E+02  0.00000000000E+00 0.  1.
         11    1    3    3    0    0  0.40638187746E+01 -0.87668846190E+00 -0.54054441180E+01  0.68192398452E+01  0.51100000000E-03 0. -1.
        -11    1    3    3    0    0  0.15792633719E+02 -0.67655924515E-01 -0.75814508140E+01  0.17518283415E+02  0.51100000000E-03 0.  1.
        -12    1    3    3    0    0  0.19277317621E+02 -0.60569217735E+01 -0.81943436791E+01  0.21804782603E+02  0.00000000000E+00 0.  1.
</event>
<event>
 7    1  0.3435408E-009  0.4614232E+02  0.7816164E-02  0.1320468E+00
        -11   -1    0    0    0    0  0.00000000000E+00  0.00000000000E+00  0.45593999997E+02  0.45594000000E+02  0.51100000000E-03 0.  1.
         11   -1    0    0    0    0 -0.00000000000E+00 -0.00000000000E+00 -0.45593999997E+02  0.45594000000E+02  0.51100000000E-03 0. -1.
    9900012    2    1    2    0    0  0.22237885619E+02  0.54643633848E+01 -0.38790854900E+02  0.46142320431E+02  0.10000024342E+02 0.  0.
        -12    1    1    2    0    0 -0.22237885619E+02 -0.54643633848E+01  0.38790854900E+02  0.45045679569E+02  0.00000000000E+00 0.  1.
         11    1    3    3    0    0  0.43242789628E+01  0.34585366193E+01 -0.48447120064E+01  0.73574519218E+01  0.51100000000E-03 0. -1.
        -11    1    3    3    0    0  0.10735045804E+02 -0.13785397993E+01 -0.19655547616E+02  0.22438407536E+02  0.51100000000E-03 0.  1.
        -12    1    3    3    0    0  0.71785608520E+01  0.33843665648E+01 -0.14290595278E+02  0.16346460973E+02  0.00000000000E+00 0.  1.
</event>
<event>
 7    1  0.3435408E-009  0.4614232E+02  0.7816164E-02  0.1320468E+00
        -11   -1    0    0    0    0  0.00000000000E+00  0.00000000000E+00  0.45593999997E+02  0.45594000000E+02  0.51100000000E-03 0. -1.
         11   -1    0    0    0    0 -0.00000000000E+00 -0.00000000000E+00 -0.45593999997E+02  0.45594000000E+02  0.51100000000E-03 0.  1.
    9900012    2    1    2    0    0 -0.35411600712E+02  0.54805940439E+01  0.27296428483E+02  0.46142318920E+02  0.10000010567E+02 0.  0.
        -12    1    1    2    0    0  0.35411600712E+02 -0.54805940439E+01 -0.27296428483E+02  0.45045681080E+02  0.00000000000E+00 0.  1.
         11    1    3    3    0    0 -0.53829848548E+00  0.57822985732E+00  0.70896092931E+00  0.10614805169E+01  0.51100000000E-03 0. -1.
        -11    1    3    3    0    0 -0.22724849379E+02  0.27683141842E+01  0.22468718310E+02  0.32076870880E+02  0.51100000000E-03 0.  1.
        -12    1    3    3    0    0 -0.12148452847E+02  0.21340500023E+01  0.41187492436E+01  0.13003967522E+02  0.00000000000E+00 0.  1.
</event>
<event>
 7    1  0.3435408E-009  0.4614232E+02  0.7816164E-02  0.1320468E+00
        -11   -1    0    0    0    0  0.00000000000E+00  0.00000000000E+00  0.45593999997E+02  0.45594000000E+02  0.51100000000E-03 0.  1.
         11   -1    0    0    0    0 -0.00000000000E+00 -0.00000000000E+00 -0.45593999997E+02  0.45594000000E+02  0.51100000000E-03 0. -1.
    9900012    2    1    2    0    0  0.24081260862E+01  0.73348039734E+01 -0.44379218681E+02  0.46142317950E+02  0.10000001725E+02 0.  0.
        -12    1    1    2    0    0 -0.24081260862E+01 -0.73348039734E+01  0.44379218681E+02  0.45045682050E+02  0.00000000000E+00 0.  1.
         11    1    3    3    0    0 -0.21695731244E+01  0.20059209422E+01 -0.17632003531E+02  0.17877872221E+02  0.51100000000E-03 0. -1.
        -11    1    3    3    0    0  0.38012354901E+01  0.86877870557E-01 -0.99799309192E+01  0.10679698518E+02  0.51100000000E-03 0.  1.
         12    1    3    3    0    0  0.77646372042E+00  0.52420051607E+01 -0.16767284231E+02  0.17584747211E+02  0.00000000000E+00 0. -1.
</event>
<event>
 7    1  0.3435408E-009  0.4614232E+02  0.7816164E-02  0.1320468E+00
        -11   -1    0    0    0    0  0.00000000000E+00  0.00000000000E+00  0.45593999997E+02  0.45594000000E+02  0.51100000000E-03 0.  1.
         11   -1    0    0    0    0 -0.00000000000E+00 -0.00000000000E+00 -0.45593999997E+02  0.45594000000E+02  0.51100000000E-03 0. -1.
    9900012    2    1    2    0    0  0.31799701684E+02  0.11364070735E+02 -0.29811916369E+02  0.46142317760E+02  0.99999999862E+01 0.  0.
        -12    1    1    2    0    0 -0.31799701684E+02 -0.11364070735E+02  0.29811916369E+02  0.45045682240E+02  0.00000000000E+00 0.  1.
         11    1    3    3    0    0  0.88551596682E+01  0.60692630120E+01 -0.10471047155E+02  0.14996420741E+02  0.51100000000E-03 0. -1.
        -11    1    3    3    0    0  0.50039428232E+01  0.28776463191E+01 -0.76999313282E+01  0.96233692040E+01  0.51100000000E-03 0.  1.
        -12    1    3    3    0    0  0.17940599193E+02  0.24171614036E+01 -0.11640937886E+02  0.21522527814E+02  0.00000000000E+00 0.  1.
</event>
<event>
 7    1  0.3435408E-009  0.4614232E+02  0.7816164E-02  0.1320468E+00
        -11   -1    0    0    0    0  0.00000000000E+00  0.00000000000E+00  0.45593999997E+02  0.45594000000E+02  0.51100000000E-03 0.  1.
         11   -1    0    0    0    0 -0.00000000000E+00 -0.00000000000E+00 -0.45593999997E+02  0.45594000000E+02  0.51100000000E-03 0. -1.
    9900012    2    1    2    0    0  0.17879910097E+02  0.35011842170E+02 -0.21990753099E+02  0.46142317643E+02  0.99999989189E+01 0.  0.
        -12    1    1    2    0    0 -0.17879910097E+02 -0.35011842170E+02  0.21990753099E+02  0.45045682357E+02  0.00000000000E+00 0.  1.
         11    1    3    3    0    0  0.45452469377E+01  0.47824502167E+01 -0.24935727371E+01  0.70532974598E+01  0.51100000000E-03 0. -1.
        -11    1    3    3    0    0  0.20454325963E+01  0.13671200175E+02 -0.73788534484E+01  0.15669492245E+02  0.51100000000E-03 0.  1.
        -12    1    3    3    0    0  0.11289230563E+02  0.16558191778E+02 -0.12118326914E+02  0.23419527938E+02  0.00000000000E+00 0.  1.
</event>
<event>
 7    1  0.3435408E-009  0.4614232E+02  0.7816164E-02  0.1320468E+00
        -11   -1    0    0    0    0  0.00000000000E+00  0.00000000000E+00  0.45593999997E+02  0.45594000000E+02  0.51100000000E-03 0.  1.
         11   -1    0    0    0    0 -0.00000000000E+00 -0.00000000000E+00 -0.45593999997E+02  0.45594000000E+02  0.51100000000E-03 0. -1.
    9900012    2    1    2    0    0  0.17041152564E+02 -0.41439621721E+02  0.46335589695E+01  0.46142323206E+02  0.10000049653E+02 0.  0.
        -12    1    1    2    0    0 -0.17041152564E+02  0.41439621721E+02 -0.46335589695E+01  0.45045676794E+02  0.00000000000E+00 0.  1.
         11    1    3    3    0    0  0.85431699061E+01 -0.22503760065E+02 -0.70469611348E+00  0.24081145446E+02  0.51100000000E-03 0. -1.
        -11    1    3    3    0    0  0.78467961504E+01 -0.11588815384E+02  0.40865492666E+01  0.14579874382E+02  0.51100000000E-03 0.  1.
         12    1    3    3    0    0  0.65118650742E+00 -0.73470462714E+01  0.12517058164E+01  0.74813033779E+01  0.00000000000E+00 0. -1.
</event>
<event>
 7    1  0.3435408E-009  0.4614232E+02  0.7816164E-02  0.1320468E+00
        -11   -1    0    0    0    0  0.00000000000E+00  0.00000000000E+00  0.45593999997E+02  0.45594000000E+02  0.51100000000E-03 0.  1.
         11   -1    0    0    0    0 -0.00000000000E+00 -0.00000000000E+00 -0.45593999997E+02  0.45594000000E+02  0.51100000000E-03 0. -1.
    9900012    2    1    2    0    0 -0.86611420121E+01  0.97895517077E+01 -0.43107573799E+02  0.46142316273E+02  0.99999864325E+01 0.  0.
        -12    1    1    2    0    0  0.86611420121E+01 -0.97895517077E+01  0.43107573799E+02  0.45045683727E+02  0.00000000000E+00 0.  1.
         11    1    3    3    0    0 -0.13178925261E+01  0.47503681920E+01 -0.16110824718E+02  0.16848190171E+02  0.51100000000E-03 0. -1.
        -11    1    3    3    0    0 -0.48593640558E+01  0.38695144820E+01 -0.81445584204E+01  0.10243065629E+02  0.51100000000E-03 0.  1.
        -12    1    3    3    0    0 -0.24838854302E+01  0.11696690337E+01 -0.18852190660E+02  0.19051060474E+02  0.00000000000E+00 0.  1.
</event>
<event>
 7    1  0.3435408E-009  0.4614232E+02  0.7816164E-02  0.1320468E+00
        -11   -1    0    0    0    0  0.00000000000E+00  0.00000000000E+00  0.45593999997E+02  0.45594000000E+02  0.51100000000E-03 0.  1.
         11   -1    0    0    0    0 -0.00000000000E+00 -0.00000000000E+00 -0.45593999997E+02  0.45594000000E+02  0.51100000000E-03 0. -1.
    9900012    2    1    2    0    0 -0.48447638026E+00 -0.15643229761E+02 -0.42239411476E+02  0.46142320556E+02  0.10000025485E+02 0.  0.
        -12    1    1    2    0    0  0.48447638026E+00  0.15643229761E+02  0.42239411476E+02  0.45045679444E+02  0.00000000000E+00 0.  1.
         11    1    3    3    0    0  0.23715817311E+01 -0.67748988662E+01 -0.14688550365E+02  0.16348613600E+02  0.51100000000E-03 0. -1.
        -11    1    3    3    0    0 -0.59308213128E+00 -0.16132640594E+01 -0.64621153247E+00  0.18362889059E+01  0.51100000000E-03 0.  1.
         12    1    3    3    0    0 -0.22629759801E+01 -0.72550668353E+01 -0.26904649579E+02  0.27957418051E+02  0.00000000000E+00 0. -1.
</event>
<event>
 7    1  0.3435408E-009  0.4614232E+02  0.7816164E-02  0.1320468E+00
        -11   -1    0    0    0    0  0.00000000000E+00  0.00000000000E+00  0.45593999997E+02  0.45594000000E+02  0.51100000000E-03 0.  1.
         11   -1    0    0    0    0 -0.00000000000E+00 -0.00000000000E+00 -0.45593999997E+02  0.45594000000E+02  0.51100000000E-03 0. -1.
    9900012    2    1    2    0    0  0.34921755795E+02 -0.17746712098E+02  0.22240476280E+02  0.46142316486E+02  0.99999883686E+01 0.  0.
        -12    1    1    2    0    0 -0.34921755795E+02  0.17746712098E+02 -0.22240476280E+02  0.45045683514E+02  0.00000000000E+00 0.  1.
         11    1    3    3    0    0  0.16019625289E+02 -0.56979380296E+01  0.75804504063E+01  0.18616071573E+02  0.51100000000E-03 0. -1.
        -11    1    3    3    0    0  0.17136487654E+02 -0.10895774825E+02  0.15180748629E+02  0.25354136691E+02  0.51100000000E-03 0.  1.
        -12    1    3    3    0    0  0.17656428526E+01 -0.11529992434E+01 -0.52072275539E+00  0.21721082216E+01  0.00000000000E+00 0.  1.
</event>
<event>
 7    1  0.3435408E-009  0.4614231E+02  0.7816164E-02  0.1320468E+00
        -11   -1    0    0    0    0  0.00000000000E+00  0.00000000000E+00  0.45593999997E+02  0.45594000000E+02  0.51100000000E-03 0.  1.
         11   -1    0    0    0    0 -0.00000000000E+00 -0.00000000000E+00 -0.45593999997E+02  0.45594000000E+02  0.51100000000E-03 0. -1.
    9900012    2    1    2    0    0 -0.62703652339E+01  0.29457981194E+02 -0.33496626044E+02  0.46142311055E+02  0.99999388499E+01 0.  0.
        -12    1    1    2    0    0  0.62703652339E+01 -0.29457981194E+02  0.33496626044E+02  0.45045688945E+02  0.00000000000E+00 0.  1.
         11    1    3    3    0    0 -0.83736155400E+00  0.48586541190E+01 -0.56954775506E+01  0.75330046469E+01  0.51100000000E-03 0. -1.
        -11    1    3    3    0    0  0.72503611838E+00  0.61779794693E+00 -0.45337662337E+01  0.46327516876E+01  0.51100000000E-03 0.  1.
        -12    1    3    3    0    0 -0.61580397983E+01  0.23981529128E+02 -0.23267382260E+02  0.33976554721E+02  0.00000000000E+00 0.  1.
</event>
<event>
 7    1  0.3435408E-009  0.4614232E+02  0.7816164E-02  0.1320468E+00
        -11   -1    0    0    0    0  0.00000000000E+00  0.00000000000E+00  0.45593999997E+02  0.45594000000E+02  0.51100000000E-03 0.  1.
         11   -1    0    0    0    0 -0.00000000000E+00 -0.00000000000E+00 -0.45593999997E+02  0.45594000000E+02  0.51100000000E-03 0. -1.
    9900012    2    1    2    0    0  0.17429301197E+02 -0.23924661248E+02 -0.33955018368E+02  0.46142320647E+02  0.10000026316E+02 0.  0.
        -12    1    1    2    0    0 -0.17429301197E+02  0.23924661248E+02  0.33955018368E+02  0.45045679353E+02  0.00000000000E+00 0.  1.
         11    1    3    3    0    0  0.56607446648E+01 -0.62028599181E+01 -0.14123920758E+02  0.16431817890E+02  0.51100000000E-03 0. -1.
        -11    1    3    3    0    0  0.11371943057E+02 -0.12622627823E+02 -0.14714094610E+02  0.22475684695E+02  0.51100000000E-03 0.  1.
         12    1    3    3    0    0  0.39661347502E+00 -0.50991735062E+01 -0.51170029996E+01  0.72348180622E+01  0.00000000000E+00 0. -1.
</event>
<event>
 7    1  0.3435408E-009  0.4614232E+02  0.7816164E-02  0.1320468E+00
        -11   -1    0    0    0    0  0.00000000000E+00  0.00000000000E+00  0.45593999997E+02  0.45594000000E+02  0.51100000000E-03 0.  1.
         11   -1    0    0    0    0 -0.00000000000E+00 -0.00000000000E+00 -0.45593999997E+02  0.45594000000E+02  0.51100000000E-03 0. -1.
    9900012    2    1    2    0    0  0.16212900257E+02 -0.35631590078E+02 -0.22285537316E+02  0.46142317413E+02  0.99999968263E+01 0.  0.
        -12    1    1    2    0    0 -0.16212900257E+02  0.35631590078E+02  0.22285537316E+02  0.45045682587E+02  0.00000000000E+00 0.  1.
         11    1    3    3    0    0  0.90043359618E-01 -0.20406424199E+01  0.39349077536E-01  0.20430070738E+01  0.51100000000E-03 0. -1.
        -11    1    3    3    0    0  0.98268609135E+01 -0.23280765042E+02 -0.11069302452E+02  0.27587871853E+02  0.51100000000E-03 0.  1.
         12    1    3    3    0    0  0.62959959838E+01 -0.10310182617E+02 -0.11255583942E+02  0.16511438486E+02  0.00000000000E+00 0. -1.
</event>
<event>
 7    1  0.3435408E-009  0.4614232E+02  0.7816164E-02  0.1320468E+00
        -11   -1    0    0    0    0  0.00000000000E+00  0.00000000000E+00  0.45593999997E+02  0.45594000000E+02  0.51100000000E-03 0.  1.
         11   -1    0    0    0    0 -0.00000000000E+00 -0.00000000000E+00 -0.45593999997E+02  0.45594000000E+02  0.51100000000E-03 0. -1.
    9900012    2    1    2    0    0  0.18676815352E+02 -0.40824518884E+02  0.36944171064E+01  0.46142317726E+02  0.99999996791E+01 0.  0.
        -12    1    1    2    0    0 -0.18676815352E+02  0.40824518884E+02 -0.36944171064E+01  0.45045682274E+02  0.00000000000E+00 0.  1.
         11    1    3    3    0    0  0.68722085447E+01 -0.13277413849E+02 -0.26507188287E+01  0.15183651714E+02  0.51100000000E-03 0. -1.
        -11    1    3    3    0    0  0.13586936682E+01 -0.14451099394E+01 -0.45132321307E+00  0.20342281398E+01  0.51100000000E-03 0.  1.
         12    1    3    3    0    0  0.10445913139E+02 -0.26101995096E+02  0.67964591482E+01  0.28924437872E+02  0.00000000000E+00 0. -1.
</event>
<event>
 7    1  0.3435408E-009  0.4614232E+02  0.7816164E-02  0.1320468E+00
        -11   -1    0    0    0    0  0.00000000000E+00  0.00000000000E+00  0.45593999997E+02  0.45594000000E+02  0.51100000000E-03 0.  1.
         11   -1    0    0    0    0 -0.00000000000E+00 -0.00000000000E+00 -0.45593999997E+02  0.45594000000E+02  0.51100000000E-03 0. -1.
    9900012    2    1    2    0    0 -0.38283105207E+02 -0.11143750618E+02 -0.20960301277E+02  0.46142317057E+02  0.99999935826E+01 0.  0.
        -12    1    1    2    0    0  0.38283105207E+02  0.11143750618E+02  0.20960301277E+02  0.45045682943E+02  0.00000000000E+00 0.  1.
         11    1    3    3    0    0 -0.14169201893E+01 -0.94018599159E+00 -0.28726644939E+01  0.33382351740E+01  0.51100000000E-03 0. -1.
        -11    1    3    3    0    0 -0.14029939943E+01  0.74869406873E+00 -0.20043052214E+00  0.16028436018E+01  0.51100000000E-03 0.  1.
        -12    1    3    3    0    0 -0.35463191024E+02 -0.10952258695E+02 -0.17887206261E+02  0.41201238281E+02  0.00000000000E+00 0.  1.
</event>
<event>
 7    1  0.3435408E-009  0.4614232E+02  0.7816164E-02  0.1320468E+00
        -11   -1    0    0    0    0  0.00000000000E+00  0.00000000000E+00  0.45593999997E+02  0.45594000000E+02  0.51100000000E-03 0.  1.
         11   -1    0    0    0    0 -0.00000000000E+00 -0.00000000000E+00 -0.45593999997E+02  0.45594000000E+02  0.51100000000E-03 0. -1.
    9900012    2    1    2    0    0 -0.40722364905E+02 -0.89685044825E+01 -0.17040197449E+02  0.46142318684E+02  0.10000008419E+02 0.  0.
        -12    1    1    2    0    0  0.40722364905E+02  0.89685044825E+01  0.17040197449E+02  0.45045681316E+02  0.00000000000E+00 0.  1.
         11    1    3    3    0    0 -0.40387893708E+01 -0.18962075225E+01 -0.47849599290E+01  0.65424203728E+01  0.51100000000E-03 0. -1.
        -11    1    3    3    0    0 -0.11362243958E+02 -0.19274480254E+01 -0.15380647889E+01  0.11626748781E+02  0.51100000000E-03 0.  1.
         12    1    3    3    0    0 -0.25321331576E+02 -0.51448489345E+01 -0.10717172731E+02  0.27973149531E+02  0.00000000000E+00 0. -1.
</event>
<event>
 7    1  0.3435408E-009  0.4614232E+02  0.7816164E-02  0.1320468E+00
        -11   -1    0    0    0    0  0.00000000000E+00  0.00000000000E+00  0.45593999997E+02  0.45594000000E+02  0.51100000000E-03 0.  1.
         11   -1    0    0    0    0 -0.00000000000E+00 -0.00000000000E+00 -0.45593999997E+02  0.45594000000E+02  0.51100000000E-03 0. -1.
    9900012    2    1    2    0    0 -0.15732278443E+02  0.39076044349E+02 -0.15958439851E+02  0.46142316195E+02  0.99999857223E+01 0.  0.
        -12    1    1    2    0    0  0.15732278443E+02 -0.39076044349E+02  0.15958439851E+02  0.45045683805E+02  0.00000000000E+00 0.  1.
         11    1    3    3    0    0 -0.76510835392E+01  0.27531388744E+02 -0.72765943684E+01  0.29486696515E+02  0.51100000000E-03 0.  1.
        -11    1    3    3    0    0 -0.64578764410E+01  0.86494575400E+01 -0.74479049318E+01  0.13114441353E+02  0.51100000000E-03 0. -1.
        -12    1    3    3    0    0 -0.16233184625E+01  0.28951980650E+01 -0.12339405504E+01  0.35411783276E+01  0.00000000000E+00 0.  1.
</event>
<event>
 7    1  0.3435408E-009  0.4614233E+02  0.7816164E-02  0.1320468E+00
        -11   -1    0    0    0    0  0.00000000000E+00  0.00000000000E+00  0.45593999997E+02  0.45594000000E+02  0.51100000000E-03 0.  1.
         11   -1    0    0    0    0 -0.00000000000E+00 -0.00000000000E+00 -0.45593999997E+02  0.45594000000E+02  0.51100000000E-03 0. -1.
    9900012    2    1    2    0    0  0.28029811517E+02  0.34273719146E+02 -0.82918429242E+01  0.46142325215E+02  0.10000067970E+02 0.  0.
        -12    1    1    2    0    0 -0.28029811517E+02 -0.34273719146E+02  0.82918429242E+01  0.45045674785E+02  0.00000000000E+00 0.  1.
         11    1    3    3    0    0  0.18288731005E+02  0.25630009656E+02 -0.76851888794E+01  0.32410449011E+02  0.51100000000E-03 0. -1.
        -11    1    3    3    0    0  0.20639617772E+01  0.89191388562E+00  0.13861158840E+01  0.26413568676E+01  0.51100000000E-03 0.  1.
         12    1    3    3    0    0  0.76771187344E+01  0.77517956046E+01 -0.19927699288E+01  0.11090519336E+02  0.00000000000E+00 0. -1.
</event>
<event>
 7    1  0.3435408E-009  0.4614232E+02  0.7816164E-02  0.1320468E+00
        -11   -1    0    0    0    0  0.00000000000E+00  0.00000000000E+00  0.45593999997E+02  0.45594000000E+02  0.51100000000E-03 0.  1.
         11   -1    0    0    0    0 -0.00000000000E+00 -0.00000000000E+00 -0.45593999997E+02  0.45594000000E+02  0.51100000000E-03 0. -1.
    9900012    2    1    2    0    0 -0.24335400381E+02  0.25312208132E+02 -0.28216908191E+02  0.46142317631E+02  0.99999988145E+01 0.  0.
        -12    1    1    2    0    0  0.24335400381E+02 -0.25312208132E+02  0.28216908191E+02  0.45045682369E+02  0.00000000000E+00 0.  1.
         11    1    3    3    0    0 -0.12059477369E+01  0.40715968214E+01 -0.75250083358E+00  0.43125941597E+01  0.51100000000E-03 0. -1.
        -11    1    3    3    0    0 -0.22304867458E+01  0.34275266430E+01 -0.36542926870E+01  0.54842378974E+01  0.51100000000E-03 0.  1.
         12    1    3    3    0    0 -0.20898965899E+02  0.17813084667E+02 -0.23810114670E+02  0.36345485574E+02  0.00000000000E+00 0. -1.
</event>
<event>
 7    1  0.3435408E-009  0.4614232E+02  0.7816164E-02  0.1320468E+00
        -11   -1    0    0    0    0  0.00000000000E+00  0.00000000000E+00  0.45593999997E+02  0.45594000000E+02  0.51100000000E-03 0.  1.
         11   -1    0    0    0    0 -0.00000000000E+00 -0.00000000000E+00 -0.45593999997E+02  0.45594000000E+02  0.51100000000E-03 0. -1.
    9900012    2    1    2    0    0  0.13261419154E+02 -0.16051681332E+02 -0.39944860216E+02  0.46142316863E+02  0.99999918137E+01 0.  0.
        -12    1    1    2    0    0 -0.13261419154E+02  0.16051681332E+02  0.39944860216E+02  0.45045683137E+02  0.00000000000E+00 0.  1.
         11    1    3    3    0    0 -0.13249766638E+01 -0.13802300456E+01 -0.27089563526E+01  0.33164805019E+01  0.51100000000E-03 0. -1.
        -11    1    3    3    0    0  0.10909885094E+02 -0.87705768388E+01 -0.21958216299E+02  0.26040581295E+02  0.51100000000E-03 0.  1.
         12    1    3    3    0    0  0.36765107238E+01 -0.59008744481E+01 -0.15277687564E+02  0.16785255067E+02  0.00000000000E+00 0. -1.
</event>
<event>
 7    1  0.3435408E-009  0.4614232E+02  0.7816164E-02  0.1320468E+00
        -11   -1    0    0    0    0  0.00000000000E+00  0.00000000000E+00  0.45593999997E+02  0.45594000000E+02  0.51100000000E-03 0. -1.
         11   -1    0    0    0    0 -0.00000000000E+00 -0.00000000000E+00 -0.45593999997E+02  0.45594000000E+02  0.51100000000E-03 0.  1.
    9900012    2    1    2    0    0 -0.99225339915E+01 -0.43832762361E+02 -0.30570777924E+01  0.46142318057E+02  0.10000002702E+02 0.  0.
        -12    1    1    2    0    0  0.99225339915E+01  0.43832762361E+02  0.30570777924E+01  0.45045681943E+02  0.00000000000E+00 0.  1.
         11    1    3    3    0    0 -0.83546931550E+01 -0.25105203232E+02  0.34642153491E+00  0.26461143875E+02  0.51100000000E-03 0. -1.
        -11    1    3    3    0    0  0.10477479733E+01 -0.13742166294E+01  0.27671229744E+00  0.17500906025E+01  0.51100000000E-03 0.  1.
         12    1    3    3    0    0 -0.26155888099E+01 -0.17353342500E+02 -0.36802116248E+01  0.17931083580E+02  0.00000000000E+00 0. -1.
</event>
<event>
 7    1  0.3435408E-009  0.4614232E+02  0.7816164E-02  0.1320468E+00
        -11   -1    0    0    0    0  0.00000000000E+00  0.00000000000E+00  0.45593999997E+02  0.45594000000E+02  0.51100000000E-03 0.  1.
         11   -1    0    0    0    0 -0.00000000000E+00 -0.00000000000E+00 -0.45593999997E+02  0.45594000000E+02  0.51100000000E-03 0. -1.
    9900012    2    1    2    0    0  0.12900601759E+01 -0.41431203637E+02 -0.17632487321E+02  0.46142317642E+02  0.99999989094E+01 0.  0.
        -12    1    1    2    0    0 -0.12900601759E+01  0.41431203637E+02  0.17632487321E+02  0.45045682358E+02  0.00000000000E+00 0.  1.
         11    1    3    3    0    0  0.48731705145E+00 -0.13550238940E+02 -0.88489284072E+01  0.16191046521E+02  0.51100000000E-03 0. -1.
        -11    1    3    3    0    0 -0.23072595217E+01 -0.16549449298E+02 -0.67727508227E+01  0.18029916044E+02  0.51100000000E-03 0.  1.
        -12    1    3    3    0    0  0.31100026462E+01 -0.11331515398E+02 -0.20108080909E+01  0.11921355077E+02  0.00000000000E+00 0.  1.
</event>
<event>
 7    1  0.3435408E-009  0.4614232E+02  0.7816164E-02  0.1320468E+00
        -11   -1    0    0    0    0  0.00000000000E+00  0.00000000000E+00  0.45593999997E+02  0.45594000000E+02  0.51100000000E-03 0. -1.
         11   -1    0    0    0    0 -0.00000000000E+00 -0.00000000000E+00 -0.45593999997E+02  0.45594000000E+02  0.51100000000E-03 0.  1.
    9900012    2    1    2    0    0  0.31266519690E+02 -0.13420447915E+02  0.29519649352E+02  0.46142319035E+02  0.10000011613E+02 0.  0.
        -12    1    1    2    0    0 -0.31266519690E+02  0.13420447915E+02 -0.29519649352E+02  0.45045680965E+02  0.00000000000E+00 0.  1.
         11    1    3    3    0    0  0.92971301320E+01 -0.58353281481E+01  0.88303545917E+01  0.14087684187E+02  0.51100000000E-03 0. -1.
        -11    1    3    3    0    0  0.62627798561E+00 -0.22751362574E+01  0.11069165144E+01  0.26064791455E+01  0.51100000000E-03 0.  1.
         12    1    3    3    0    0  0.21343111572E+02 -0.53099835094E+01  0.19582378246E+02  0.29448155702E+02  0.00000000000E+00 0. -1.
</event>
<event>
 7    1  0.3435408E-009  0.4614232E+02  0.7816164E-02  0.1320468E+00
        -11   -1    0    0    0    0  0.00000000000E+00  0.00000000000E+00  0.45593999997E+02  0.45594000000E+02  0.51100000000E-03 0. -1.
         11   -1    0    0    0    0 -0.00000000000E+00 -0.00000000000E+00 -0.45593999997E+02  0.45594000000E+02  0.51100000000E-03 0.  1.
    9900012    2    1    2    0    0  0.40245599525E+02  0.10537390074E+02  0.17273350863E+02  0.46142317402E+02  0.99999967238E+01 0.  0.
        -12    1    1    2    0    0 -0.40245599525E+02 -0.10537390074E+02 -0.17273350863E+02  0.45045682598E+02  0.00000000000E+00 0.  1.
         11    1    3    3    0    0  0.18577062734E+02  0.71851412306E+01  0.97926384927E+01  0.22195253619E+02  0.51100000000E-03 0. -1.
        -11    1    3    3    0    0  0.21909226598E+02  0.35620366340E+01  0.77686660268E+01  0.23517110520E+02  0.51100000000E-03 0.  1.
        -12    1    3    3    0    0 -0.24068980599E+00 -0.20978779084E+00 -0.28795365697E+00  0.42995326310E+00  0.00000000000E+00 0.  1.
</event>
<event>
 7    1  0.3435408E-009  0.4614232E+02  0.7816164E-02  0.1320468E+00
        -11   -1    0    0    0    0  0.00000000000E+00  0.00000000000E+00  0.45593999997E+02  0.45594000000E+02  0.51100000000E-03 0.  1.
         11   -1    0    0    0    0 -0.00000000000E+00 -0.00000000000E+00 -0.45593999997E+02  0.45594000000E+02  0.51100000000E-03 0. -1.
    9900012    2    1    2    0    0  0.25048690427E+02  0.36776951542E+02  0.70094549269E+01  0.46142317463E+02  0.99999972787E+01 0.  0.
        -12    1    1    2    0    0 -0.25048690427E+02 -0.36776951542E+02 -0.70094549269E+01  0.45045682537E+02  0.00000000000E+00 0.  1.
         11    1    3    3    0    0  0.10706193615E+02  0.18218286583E+02  0.10014990357E+01  0.21154941464E+02  0.51100000000E-03 0. -1.
        -11    1    3    3    0    0  0.48907770232E+01  0.11352331276E+02  0.27467327035E+01  0.12662530004E+02  0.51100000000E-03 0.  1.
        -12    1    3    3    0    0  0.94517197892E+01  0.72063336831E+01  0.32612231877E+01  0.12324845995E+02  0.00000000000E+00 0.  1.
</event>
<event>
 7    1  0.3435408E-009  0.4614232E+02  0.7816164E-02  0.1320468E+00
        -11   -1    0    0    0    0  0.00000000000E+00  0.00000000000E+00  0.45593999997E+02  0.45594000000E+02  0.51100000000E-03 0.  1.
         11   -1    0    0    0    0 -0.00000000000E+00 -0.00000000000E+00 -0.45593999997E+02  0.45594000000E+02  0.51100000000E-03 0. -1.
    9900012    2    1    2    0    0  0.27950390112E+01  0.39243688969E+02 -0.21937048756E+02  0.46142317909E+02  0.10000001346E+02 0.  0.
        -12    1    1    2    0    0 -0.27950390112E+01 -0.39243688969E+02  0.21937048756E+02  0.45045682091E+02  0.00000000000E+00 0.  1.
         11    1    3    3    0    0 -0.58138122847E+00  0.14502260039E+02 -0.66886730377E+01  0.15980985503E+02  0.51100000000E-03 0. -1.
        -11    1    3    3    0    0 -0.78168324781E+00  0.17948310363E+02 -0.11719199486E+02  0.21449767141E+02  0.51100000000E-03 0.  1.
        -12    1    3    3    0    0  0.41581034874E+01  0.67931185669E+01 -0.35291762321E+01  0.87115652643E+01  0.00000000000E+00 0.  1.
</event>
<event>
 7    1  0.3435408E-009  0.4614232E+02  0.7816164E-02  0.1320468E+00
        -11   -1    0    0    0    0  0.00000000000E+00  0.00000000000E+00  0.45593999997E+02  0.45594000000E+02  0.51100000000E-03 0.  1.
         11   -1    0    0    0    0 -0.00000000000E+00 -0.00000000000E+00 -0.45593999997E+02  0.45594000000E+02  0.51100000000E-03 0. -1.
    9900012    2    1    2    0    0 -0.16009038200E+02  0.39980713117E+02 -0.13204802267E+02  0.46142317317E+02  0.99999959514E+01 0.  0.
        -12    1    1    2    0    0  0.16009038200E+02 -0.39980713117E+02  0.13204802267E+02  0.45045682683E+02  0.00000000000E+00 0.  1.
         11    1    3    3    0    0 -0.13455399472E+02  0.25373078754E+02 -0.10834760981E+02  0.30695813170E+02  0.51100000000E-03 0. -1.
        -11    1    3    3    0    0 -0.17192618224E+01  0.10884513757E+02 -0.12627167858E+00  0.11020183562E+02  0.51100000000E-03 0.  1.
         12    1    3    3    0    0 -0.83437690599E+00  0.37231206062E+01 -0.22437696081E+01  0.44263205853E+01  0.00000000000E+00 0. -1.
</event>
<event>
 7    1  0.3435408E-009  0.4614232E+02  0.7816164E-02  0.1320468E+00
        -11   -1    0    0    0    0  0.00000000000E+00  0.00000000000E+00  0.45593999997E+02  0.45594000000E+02  0.51100000000E-03 0. -1.
         11   -1    0    0    0    0 -0.00000000000E+00 -0.00000000000E+00 -0.45593999997E+02  0.45594000000E+02  0.51100000000E-03 0.  1.
    9900012    2    1    2    0    0  0.11081812442E+02 -0.33527393853E+02  0.27968213301E+02  0.46142315847E+02  0.99999825492E+01 0.  0.
        -12    1    1    2    0    0 -0.11081812442E+02  0.33527393853E+02 -0.27968213301E+02  0.45045684153E+02  0.00000000000E+00 0.  1.
         11    1    3    3    0    0  0.45229389556E+01 -0.61659416393E+01  0.90540698061E+01  0.11851244382E+02  0.51100000000E-03 0. -1.
        -11    1    3    3    0    0  0.17985467150E+01 -0.80376631315E+01  0.84745613196E+01  0.11817655805E+02  0.51100000000E-03 0.  1.
         12    1    3    3    0    0  0.47603267713E+01 -0.19323789082E+02  0.10439582175E+02  0.22473415660E+02  0.00000000000E+00 0. -1.
</event>
<event>
 7    1  0.3435408E-009  0.4614232E+02  0.7816164E-02  0.1320468E+00
        -11   -1    0    0    0    0  0.00000000000E+00  0.00000000000E+00  0.45593999997E+02  0.45594000000E+02  0.51100000000E-03 0. -1.
         11   -1    0    0    0    0 -0.00000000000E+00 -0.00000000000E+00 -0.45593999997E+02  0.45594000000E+02  0.51100000000E-03 0.  1.
    9900012    2    1    2    0    0 -0.17161575840E+02  0.20936979981E+02  0.36003288888E+02  0.46142316225E+02  0.99999859898E+01 0.  0.
        -12    1    1    2    0    0  0.17161575840E+02 -0.20936979981E+02 -0.36003288888E+02  0.45045683775E+02  0.00000000000E+00 0.  1.
         11    1    3    3    0    0 -0.92768591766E+01  0.56385478925E+01  0.99449659528E+01  0.14722624990E+02  0.51100000000E-03 0.  1.
        -11    1    3    3    0    0 -0.81389154964E+00  0.27642244229E+01  0.67410478047E+01  0.73311037287E+01  0.51100000000E-03 0. -1.
         12    1    3    3    0    0 -0.70708251141E+01  0.12534207666E+02  0.19317275130E+02  0.24088587506E+02  0.00000000000E+00 0. -1.
</event>
<event>
 7    1  0.3435408E-009  0.4614232E+02  0.7816164E-02  0.1320468E+00
        -11   -1    0    0    0    0  0.00000000000E+00  0.00000000000E+00  0.45593999997E+02  0.45594000000E+02  0.51100000000E-03 0. -1.
         11   -1    0    0    0    0 -0.00000000000E+00 -0.00000000000E+00 -0.45593999997E+02  0.45594000000E+02  0.51100000000E-03 0.  1.
    9900012    2    1    2    0    0  0.19296432683E+02 -0.27080832820E+02 -0.30387326050E+02  0.46142318687E+02  0.10000008445E+02 0.  0.
        -12    1    1    2    0    0 -0.19296432683E+02  0.27080832820E+02  0.30387326050E+02  0.45045681313E+02  0.00000000000E+00 0.  1.
         11    1    3    3    0    0  0.47423327224E+01 -0.98485553641E+01 -0.90631382687E+01  0.14199444987E+02  0.51100000000E-03 0. -1.
        -11    1    3    3    0    0  0.89345828169E+01 -0.10708869065E+02 -0.79979836601E+01  0.16077138727E+02  0.51100000000E-03 0.  1.
        -12    1    3    3    0    0  0.56195171434E+01 -0.65234083907E+01 -0.13326204121E+02  0.15865734973E+02  0.00000000000E+00 0.  1.
</event>
<event>
 7    1  0.3435408E-009  0.4614232E+02  0.7816164E-02  0.1320468E+00
        -11   -1    0    0    0    0  0.00000000000E+00  0.00000000000E+00  0.45593999997E+02  0.45594000000E+02  0.51100000000E-03 0.  1.
         11   -1    0    0    0    0 -0.00000000000E+00 -0.00000000000E+00 -0.45593999997E+02  0.45594000000E+02  0.51100000000E-03 0. -1.
    9900012    2    1    2    0    0  0.82267658378E+01  0.10816246974E+02 -0.42946974903E+02  0.46142317321E+02  0.99999959846E+01 0.  0.
        -12    1    1    2    0    0 -0.82267658378E+01 -0.10816246974E+02  0.42946974903E+02  0.45045682679E+02  0.00000000000E+00 0.  1.
         11    1    3    3    0    0  0.10992397244E+01 -0.47576724712E-01 -0.11253347341E+02  0.11307007480E+02  0.51100000000E-03 0. -1.
        -11    1    3    3    0    0  0.59458764752E+00  0.30313419083E+01 -0.27095671481E+01  0.41090537386E+01  0.51100000000E-03 0.  1.
        -12    1    3    3    0    0  0.65329384658E+01  0.78324817906E+01 -0.28984060413E+02  0.30726256102E+02  0.00000000000E+00 0.  1.
</event>
<event>
 7    1  0.3435408E-009  0.4614232E+02  0.7816164E-02  0.1320468E+00
        -11   -1    0    0    0    0  0.00000000000E+00  0.00000000000E+00  0.45593999997E+02  0.45594000000E+02  0.51100000000E-03 0.  1.
         11   -1    0    0    0    0 -0.00000000000E+00 -0.00000000000E+00 -0.45593999997E+02  0.45594000000E+02  0.51100000000E-03 0. -1.
    9900012    2    1    2    0    0 -0.33379537861E+02 -0.15180272555E+02 -0.26162558547E+02  0.46142315497E+02  0.99999793518E+01 0.  0.
        -12    1    1    2    0    0  0.33379537861E+02  0.15180272555E+02  0.26162558547E+02  0.45045684503E+02  0.00000000000E+00 0.  1.
         11    1    3    3    0    0 -0.14587827784E+02 -0.86307641695E+01 -0.83665284189E+01  0.18902211713E+02  0.51100000000E-03 0. -1.
        -11    1    3    3    0    0 -0.18981411283E+02 -0.64212061018E+01 -0.17998376664E+02  0.26934502500E+02  0.51100000000E-03 0.  1.
         12    1    3    3    0    0  0.18970120664E+00 -0.12830228358E+00  0.20234653621E+00  0.30560128352E+00  0.00000000000E+00 0. -1.
</event>
<event>
 7    1  0.3435408E-009  0.4614232E+02  0.7816164E-02  0.1320468E+00
        -11   -1    0    0    0    0  0.00000000000E+00  0.00000000000E+00  0.45593999997E+02  0.45594000000E+02  0.51100000000E-03 0. -1.
         11   -1    0    0    0    0 -0.00000000000E+00 -0.00000000000E+00 -0.45593999997E+02  0.45594000000E+02  0.51100000000E-03 0.  1.
    9900012    2    1    2    0    0 -0.41091667711E+02  0.93975883667E+01  0.15883125336E+02  0.46142317712E+02  0.99999995486E+01 0.  0.
        -12    1    1    2    0    0  0.41091667711E+02 -0.93975883667E+01 -0.15883125336E+02  0.45045682288E+02  0.00000000000E+00 0.  1.
         11    1    3    3    0    0 -0.49194177662E+01  0.10353224813E+00  0.93992718865E+00  0.50094763664E+01  0.51100000000E-03 0. -1.
        -11    1    3    3    0    0 -0.35950459530E+02  0.91322771222E+01  0.15737291670E+02  0.40292634255E+02  0.51100000000E-03 0.  1.
        -12    1    3    3    0    0 -0.22179041500E+00  0.16177899633E+00 -0.79409352250E+00  0.84020709014E+00  0.00000000000E+00 0.  1.
</event>
<event>
 7    1  0.3435408E-009  0.4614232E+02  0.7816164E-02  0.1320468E+00
        -11   -1    0    0    0    0  0.00000000000E+00  0.00000000000E+00  0.45593999997E+02  0.45594000000E+02  0.51100000000E-03 0.  1.
         11   -1    0    0    0    0 -0.00000000000E+00 -0.00000000000E+00 -0.45593999997E+02  0.45594000000E+02  0.51100000000E-03 0. -1.
    9900012    2    1    2    0    0  0.12561006433E+02  0.63916463013E+01 -0.42784126397E+02  0.46142317670E+02  0.99999991673E+01 0.  0.
        -12    1    1    2    0    0 -0.12561006433E+02 -0.63916463013E+01  0.42784126397E+02  0.45045682330E+02  0.00000000000E+00 0.  1.
         11    1    3    3    0    0  0.76495893012E+01  0.30354121556E+01 -0.24167616098E+02  0.25530444797E+02  0.51100000000E-03 0. -1.
        -11    1    3    3    0    0  0.58083254445E+01  0.57264978956E+00 -0.13698050718E+02  0.14889632836E+02  0.51100000000E-03 0.  1.
        -12    1    3    3    0    0 -0.89690831260E+00  0.27835843561E+01 -0.49184595815E+01  0.57222400372E+01  0.00000000000E+00 0.  1.
</event>
<event>
 7    1  0.3435408E-009  0.4614231E+02  0.7816164E-02  0.1320468E+00
        -11   -1    0    0    0    0  0.00000000000E+00  0.00000000000E+00  0.45593999997E+02  0.45594000000E+02  0.51100000000E-03 0.  1.
         11   -1    0    0    0    0 -0.00000000000E+00 -0.00000000000E+00 -0.45593999997E+02  0.45594000000E+02  0.51100000000E-03 0. -1.
    9900012    2    1    2    0    0 -0.17665689703E+01  0.25428072547E+02 -0.37140360020E+02  0.46142312284E+02  0.99999500583E+01 0.  0.
        -12    1    1    2    0    0  0.17665689703E+01 -0.25428072547E+02  0.37140360020E+02  0.45045687716E+02  0.00000000000E+00 0.  1.
         11    1    3    3    0    0 -0.26680606035E+00  0.89960653896E+01 -0.10057281988E+02  0.13496269826E+02  0.51100000000E-03 0. -1.
        -11    1    3    3    0    0 -0.41109120128E+01  0.60006046542E+01 -0.13360137888E+02  0.15211842047E+02  0.51100000000E-03 0.  1.
        -12    1    3    3    0    0  0.26111491028E+01  0.10431402503E+02 -0.13722940143E+02  0.17434200412E+02  0.00000000000E+00 0.  1.
</event>
<event>
 7    1  0.3435408E-009  0.4614232E+02  0.7816164E-02  0.1320468E+00
        -11   -1    0    0    0    0  0.00000000000E+00  0.00000000000E+00  0.45593999997E+02  0.45594000000E+02  0.51100000000E-03 0. -1.
         11   -1    0    0    0    0 -0.00000000000E+00 -0.00000000000E+00 -0.45593999997E+02  0.45594000000E+02  0.51100000000E-03 0.  1.
    9900012    2    1    2    0    0  0.23454733166E+02 -0.22553619126E+02  0.31150010583E+02  0.46142318710E+02  0.10000008653E+02 0.  0.
        -12    1    1    2    0    0 -0.23454733166E+02  0.22553619126E+02 -0.31150010583E+02  0.45045681290E+02  0.00000000000E+00 0.  1.
         11    1    3    3    0    0  0.22125067149E+01 -0.32790357602E+01  0.74986540161E+01  0.84780347838E+01  0.51100000000E-03 0. -1.
        -11    1    3    3    0    0  0.12241663704E+02 -0.70371389082E+01  0.11225664061E+02  0.18038713594E+02  0.51100000000E-03 0.  1.
        -12    1    3    3    0    0  0.90005627472E+01 -0.12237444457E+02  0.12425692506E+02  0.19625570332E+02  0.00000000000E+00 0.  1.
</event>
<event>
 7    1  0.3435408E-009  0.4614232E+02  0.7816164E-02  0.1320468E+00
        -11   -1    0    0    0    0  0.00000000000E+00  0.00000000000E+00  0.45593999997E+02  0.45594000000E+02  0.51100000000E-03 0. -1.
         11   -1    0    0    0    0 -0.00000000000E+00 -0.00000000000E+00 -0.45593999997E+02  0.45594000000E+02  0.51100000000E-03 0.  1.
    9900012    2    1    2    0    0  0.25232524893E+02 -0.35738556741E+02  0.10732600816E+02  0.46142317957E+02  0.10000001789E+02 0.  0.
        -12    1    1    2    0    0 -0.25232524893E+02  0.35738556741E+02 -0.10732600816E+02  0.45045682043E+02  0.00000000000E+00 0.  1.
         11    1    3    3    0    0  0.75227711299E+01 -0.15290174787E+02  0.71398531245E+01  0.18475904129E+02  0.51100000000E-03 0. -1.
        -11    1    3    3    0    0  0.64596558236E+01 -0.10920608878E+02  0.15164742435E+01  0.12778362415E+02  0.51100000000E-03 0.  1.
         12    1    3    3    0    0  0.11250097939E+02 -0.95277730764E+01  0.20762734479E+01  0.14888051413E+02  0.00000000000E+00 0. -1.
</event>
<event>
 7    1  0.3435408E-009  0.4614232E+02  0.7816164E-02  0.1320468E+00
        -11   -1    0    0    0    0  0.00000000000E+00  0.00000000000E+00  0.45593999997E+02  0.45594000000E+02  0.51100000000E-03 0. -1.
         11   -1    0    0    0    0 -0.00000000000E+00 -0.00000000000E+00 -0.45593999997E+02  0.45594000000E+02  0.51100000000E-03 0.  1.
    9900012    2    1    2    0    0  0.30018559375E+02 -0.29728411565E+02 -0.15627577340E+02  0.46142317247E+02  0.99999953137E+01 0.  0.
        -12    1    1    2    0    0 -0.30018559375E+02  0.29728411565E+02  0.15627577340E+02  0.45045682753E+02  0.00000000000E+00 0.  1.
         11    1    3    3    0    0  0.14248691192E+02 -0.13434115252E+02 -0.33974325683E+01  0.19875693739E+02  0.51100000000E-03 0. -1.
        -11    1    3    3    0    0  0.10857553824E+02 -0.99400929687E+01 -0.10415418432E+02  0.18032550143E+02  0.51100000000E-03 0.  1.
        -12    1    3    3    0    0  0.49123143591E+01 -0.63542033436E+01 -0.18147263402E+01  0.82340733653E+01  0.00000000000E+00 0.  1.
</event>
<event>
 7    1  0.3435408E-009  0.4614232E+02  0.7816164E-02  0.1320468E+00
        -11   -1    0    0    0    0  0.00000000000E+00  0.00000000000E+00  0.45593999997E+02  0.45594000000E+02  0.51100000000E-03 0.  1.
         11   -1    0    0    0    0 -0.00000000000E+00 -0.00000000000E+00 -0.45593999997E+02  0.45594000000E+02  0.51100000000E-03 0. -1.
    9900012    2    1    2    0    0  0.38797787873E+02  0.89578785770E+01 -0.21061851380E+02  0.46142317454E+02  0.99999972031E+01 0.  0.
        -12    1    1    2    0    0 -0.38797787873E+02 -0.89578785770E+01  0.21061851380E+02  0.45045682546E+02  0.00000000000E+00 0.  1.
         11    1    3    3    0    0  0.21586686646E+02  0.47852593441E+01 -0.95425353372E+01  0.24082020851E+02  0.51100000000E-03 0. -1.
        -11    1    3    3    0    0  0.94447340298E+01  0.53283934771E+01 -0.54528850364E+01  0.12137904820E+02  0.51100000000E-03 0.  1.
         12    1    3    3    0    0  0.77663671975E+01 -0.11557742442E+01 -0.60664310064E+01  0.99223917835E+01  0.00000000000E+00 0. -1.
</event>
<event>
 7    1  0.3435408E-009  0.4614232E+02  0.7816164E-02  0.1320468E+00
        -11   -1    0    0    0    0  0.00000000000E+00  0.00000000000E+00  0.45593999997E+02  0.45594000000E+02  0.51100000000E-03 0.  1.
         11   -1    0    0    0    0 -0.00000000000E+00 -0.00000000000E+00 -0.45593999997E+02  0.45594000000E+02  0.51100000000E-03 0. -1.
    9900012    2    1    2    0    0 -0.15207353927E+02 -0.41160233955E+02 -0.10182584870E+02  0.46142317550E+02  0.99999980790E+01 0.  0.
        -12    1    1    2    0    0  0.15207353927E+02  0.41160233955E+02  0.10182584870E+02  0.45045682450E+02  0.00000000000E+00 0.  1.
         11    1    3    3    0    0 -0.10963567646E+02 -0.26740658429E+02 -0.46818523302E+01  0.29277676995E+02  0.51100000000E-03 0. -1.
        -11    1    3    3    0    0  0.35580566680E+00 -0.58183637918E+01 -0.36325222666E+00  0.58405399860E+01  0.51100000000E-03 0.  1.
        -12    1    3    3    0    0 -0.45995919479E+01 -0.86012117345E+01 -0.51374803135E+01  0.11024100569E+02  0.00000000000E+00 0.  1.
</event>
<event>
 7    1  0.3435408E-009  0.4614232E+02  0.7816164E-02  0.1320468E+00
        -11   -1    0    0    0    0  0.00000000000E+00  0.00000000000E+00  0.45593999997E+02  0.45594000000E+02  0.51100000000E-03 0. -1.
         11   -1    0    0    0    0 -0.00000000000E+00 -0.00000000000E+00 -0.45593999997E+02  0.45594000000E+02  0.51100000000E-03 0.  1.
    9900012    2    1    2    0    0 -0.42676924285E+02  0.70365675123E+01 -0.12580950627E+02  0.46142317993E+02  0.10000002116E+02 0.  0.
        -12    1    1    2    0    0  0.42676924285E+02 -0.70365675123E+01  0.12580950627E+02  0.45045682007E+02  0.00000000000E+00 0.  1.
         11    1    3    3    0    0 -0.30429656106E+02  0.34302957822E+01 -0.94719592418E+01  0.32053843951E+02  0.51100000000E-03 0. -1.
        -11    1    3    3    0    0 -0.11267887833E+01  0.71228436148E+00  0.12221058016E+01  0.18084647703E+01  0.51100000000E-03 0.  1.
        -12    1    3    3    0    0 -0.11120479396E+02  0.28939873686E+01 -0.43310971865E+01  0.12280009272E+02  0.00000000000E+00 0.  1.
</event>
<event>
 7    1  0.3435408E-009  0.4614232E+02  0.7816164E-02  0.1320468E+00
        -11   -1    0    0    0    0  0.00000000000E+00  0.00000000000E+00  0.45593999997E+02  0.45594000000E+02  0.51100000000E-03 0.  1.
         11   -1    0    0    0    0 -0.00000000000E+00 -0.00000000000E+00 -0.45593999997E+02  0.45594000000E+02  0.51100000000E-03 0. -1.
    9900012    2    1    2    0    0 -0.34148674101E+02 -0.44540897292E+01 -0.29036918560E+02  0.46142317658E+02  0.99999990569E+01 0.  0.
        -12    1    1    2    0    0  0.34148674101E+02  0.44540897292E+01  0.29036918560E+02  0.45045682342E+02  0.00000000000E+00 0.  1.
         11    1    3    3    0    0 -0.28672102131E+02 -0.40369770253E+01 -0.24667915864E+02  0.38038042765E+02  0.51100000000E-03 0. -1.
        -11    1    3    3    0    0 -0.15429731064E+01 -0.14720231575E+01 -0.14084443709E-02  0.21325150476E+01  0.51100000000E-03 0.  1.
        -12    1    3    3    0    0 -0.39335988642E+01  0.10549104536E+01 -0.43675942526E+01  0.59717598448E+01  0.00000000000E+00 0.  1.
</event>
<event>
 7    1  0.3435408E-009  0.4614232E+02  0.7816164E-02  0.1320468E+00
        -11   -1    0    0    0    0  0.00000000000E+00  0.00000000000E+00  0.45593999997E+02  0.45594000000E+02  0.51100000000E-03 0.  1.
         11   -1    0    0    0    0 -0.00000000000E+00 -0.00000000000E+00 -0.45593999997E+02  0.45594000000E+02  0.51100000000E-03 0. -1.
    9900012    2    1    2    0    0  0.43157679066E+02  0.77393393792E+00 -0.12881351089E+02  0.46142318276E+02  0.10000004692E+02 0.  0.
        -12    1    1    2    0    0 -0.43157679066E+02 -0.77393393792E+00  0.12881351089E+02  0.45045681724E+02  0.00000000000E+00 0.  1.
         11    1    3    3    0    0  0.24357543815E+02 -0.18779700097E+01 -0.94237433124E+01  0.26184416173E+02  0.51100000000E-03 0. -1.
        -11    1    3    3    0    0  0.33837376503E+01  0.17017783703E+01 -0.23831111068E+01  0.44749244592E+01  0.51100000000E-03 0.  1.
        -12    1    3    3    0    0  0.15416397601E+02  0.95012557730E+00 -0.10744966701E+01  0.15482977644E+02  0.00000000000E+00 0.  1.
</event>
<event>
 7    1  0.3435408E-009  0.4614232E+02  0.7816164E-02  0.1320468E+00
        -11   -1    0    0    0    0  0.00000000000E+00  0.00000000000E+00  0.45593999997E+02  0.45594000000E+02  0.51100000000E-03 0. -1.
         11   -1    0    0    0    0 -0.00000000000E+00 -0.00000000000E+00 -0.45593999997E+02  0.45594000000E+02  0.51100000000E-03 0.  1.
    9900012    2    1    2    0    0 -0.12056410226E+02 -0.66588898141E+00  0.43397155157E+02  0.46142317506E+02  0.99999976746E+01 0.  0.
        -12    1    1    2    0    0  0.12056410226E+02  0.66588898141E+00 -0.43397155157E+02  0.45045682494E+02  0.00000000000E+00 0.  1.
         11    1    3    3    0    0 -0.59996661583E+00  0.63667150497E+00  0.44652652012E+01  0.45501542966E+01  0.51100000000E-03 0. -1.
        -11    1    3    3    0    0 -0.10525395063E+02  0.64870689141E+00  0.20688250223E+02  0.23220862590E+02  0.51100000000E-03 0.  1.
        -12    1    3    3    0    0 -0.93104854671E+00 -0.19512673778E+01  0.18243639732E+02  0.18371300619E+02  0.00000000000E+00 0.  1.
</event>
<event>
 7    1  0.3435408E-009  0.4614232E+02  0.7816164E-02  0.1320468E+00
        -11   -1    0    0    0    0  0.00000000000E+00  0.00000000000E+00  0.45593999997E+02  0.45594000000E+02  0.51100000000E-03 0.  1.
         11   -1    0    0    0    0 -0.00000000000E+00 -0.00000000000E+00 -0.45593999997E+02  0.45594000000E+02  0.51100000000E-03 0. -1.
    9900012    2    1    2    0    0 -0.40730498449E+02  0.18357266702E+02  0.57576761348E+01  0.46142316754E+02  0.99999908159E+01 0.  0.
        -12    1    1    2    0    0  0.40730498449E+02 -0.18357266702E+02 -0.57576761348E+01  0.45045683246E+02  0.00000000000E+00 0.  1.
         11    1    3    3    0    0 -0.21002857924E+02  0.97969178949E+01  0.40360150402E+01  0.23524222812E+02  0.51100000000E-03 0. -1.
        -11    1    3    3    0    0 -0.35409312470E+01  0.43818624906E+01  0.17548924592E+01  0.59007254458E+01  0.51100000000E-03 0.  1.
         12    1    3    3    0    0 -0.16186709277E+02  0.41784863162E+01 -0.33231364581E-01  0.16717368497E+02  0.00000000000E+00 0. -1.
</event>
<event>
 7    1  0.3435408E-009  0.4614231E+02  0.7816164E-02  0.1320468E+00
        -11   -1    0    0    0    0  0.00000000000E+00  0.00000000000E+00  0.45593999997E+02  0.45594000000E+02  0.51100000000E-03 0.  1.
         11   -1    0    0    0    0 -0.00000000000E+00 -0.00000000000E+00 -0.45593999997E+02  0.45594000000E+02  0.51100000000E-03 0. -1.
    9900012    2    1    2    0    0 -0.69891044500E+01  0.18129387728E+02 -0.40639778160E+02  0.46142313755E+02  0.99999634718E+01 0.  0.
        -12    1    1    2    0    0  0.69891044500E+01 -0.18129387728E+02  0.40639778160E+02  0.45045686245E+02  0.00000000000E+00 0.  1.
         11    1    3    3    0    0 -0.50431233711E+00  0.85486083396E+01 -0.21307009911E+02  0.22963486387E+02  0.51100000000E-03 0. -1.
        -11    1    3    3    0    0 -0.62737742869E+00  0.32488942507E+01 -0.21314890806E+01  0.39360084162E+01  0.51100000000E-03 0.  1.
        -12    1    3    3    0    0 -0.58574146842E+01  0.63318851375E+01 -0.17201279168E+02  0.19242818952E+02  0.00000000000E+00 0.  1.
</event>
<event>
 7    1  0.3435408E-009  0.4614232E+02  0.7816164E-02  0.1320468E+00
        -11   -1    0    0    0    0  0.00000000000E+00  0.00000000000E+00  0.45593999997E+02  0.45594000000E+02  0.51100000000E-03 0.  1.
         11   -1    0    0    0    0 -0.00000000000E+00 -0.00000000000E+00 -0.45593999997E+02  0.45594000000E+02  0.51100000000E-03 0. -1.
    9900012    2    1    2    0    0  0.36291439834E+02  0.36040662332E+01 -0.26439659270E+02  0.46142317843E+02  0.10000000751E+02 0.  0.
        -12    1    1    2    0    0 -0.36291439834E+02 -0.36040662332E+01  0.26439659270E+02  0.45045682157E+02  0.00000000000E+00 0.  1.
         11    1    3    3    0    0  0.11274236898E+02 -0.81768927430E+00 -0.91376081777E+01  0.14535230196E+02  0.51100000000E-03 0. -1.
        -11    1    3    3    0    0  0.11027508862E+02 -0.13470110480E+01 -0.93050820860E+01  0.14491547307E+02  0.51100000000E-03 0.  1.
        -12    1    3    3    0    0  0.13989694073E+02  0.57687665555E+01 -0.79969690068E+01  0.17115540340E+02  0.00000000000E+00 0.  1.
</event>
<event>
 7    1  0.3435408E-009  0.4614231E+02  0.7816164E-02  0.1320468E+00
        -11   -1    0    0    0    0  0.00000000000E+00  0.00000000000E+00  0.45593999997E+02  0.45594000000E+02  0.51100000000E-03 0.  1.
         11   -1    0    0    0    0 -0.00000000000E+00 -0.00000000000E+00 -0.45593999997E+02  0.45594000000E+02  0.51100000000E-03 0. -1.
    9900012    2    1    2    0    0  0.44445587150E+02  0.67117142708E+01 -0.29421810491E+01  0.46142314803E+02  0.99999730275E+01 0.  0.
        -12    1    1    2    0    0 -0.44445587150E+02 -0.67117142708E+01  0.29421810491E+01  0.45045685197E+02  0.00000000000E+00 0.  1.
         11    1    3    3    0    0  0.43089686393E+02  0.66772881145E+01 -0.23610704449E+01  0.43667858934E+02  0.51100000000E-03 0. -1.
        -11    1    3    3    0    0 -0.37653924285E+00  0.25400240623E+00  0.27356676074E+00  0.53022453497E+00  0.51100000000E-03 0.  1.
         12    1    3    3    0    0  0.17324399994E+01 -0.21957624990E+00 -0.85467736502E+00  0.19442313338E+01  0.00000000000E+00 0. -1.
</event>
<event>
 7    1  0.3435408E-009  0.4614232E+02  0.7816164E-02  0.1320468E+00
        -11   -1    0    0    0    0  0.00000000000E+00  0.00000000000E+00  0.45593999997E+02  0.45594000000E+02  0.51100000000E-03 0. -1.
         11   -1    0    0    0    0 -0.00000000000E+00 -0.00000000000E+00 -0.45593999997E+02  0.45594000000E+02  0.51100000000E-03 0.  1.
    9900012    2    1    2    0    0 -0.20670089773E+02 -0.32533859019E+02  0.23311132199E+02  0.46142317872E+02  0.10000001015E+02 0.  0.
        -12    1    1    2    0    0  0.20670089773E+02  0.32533859019E+02 -0.23311132199E+02  0.45045682128E+02  0.00000000000E+00 0.  1.
         11    1    3    3    0    0 -0.15136111453E+02 -0.23209112643E+02  0.13463008460E+02  0.30806125635E+02  0.51100000000E-03 0. -1.
        -11    1    3    3    0    0  0.42019582708E+00 -0.31520704889E+01  0.26902881217E+01  0.41653047114E+01  0.51100000000E-03 0.  1.
         12    1    3    3    0    0 -0.59541741473E+01 -0.61726758876E+01  0.71578356179E+01  0.11170887526E+02  0.00000000000E+00 0. -1.
</event>
<event>
 7    1  0.3435408E-009  0.4614232E+02  0.7816164E-02  0.1320468E+00
        -11   -1    0    0    0    0  0.00000000000E+00  0.00000000000E+00  0.45593999997E+02  0.45594000000E+02  0.51100000000E-03 0.  1.
         11   -1    0    0    0    0 -0.00000000000E+00 -0.00000000000E+00 -0.45593999997E+02  0.45594000000E+02  0.51100000000E-03 0. -1.
    9900012    2    1    2    0    0  0.12919263505E+02 -0.24984854845E+02 -0.35184700948E+02  0.46142317389E+02  0.99999966023E+01 0.  0.
        -12    1    1    2    0    0 -0.12919263505E+02  0.24984854845E+02  0.35184700948E+02  0.45045682611E+02  0.00000000000E+00 0.  1.
         11    1    3    3    0    0 -0.52787339695E-02 -0.37353513319E+01 -0.63534033188E+01  0.73701161070E+01  0.51100000000E-03 0. -1.
        -11    1    3    3    0    0  0.10126744151E+02 -0.11266717384E+02 -0.13668219248E+02  0.20403678231E+02  0.51100000000E-03 0.  1.
        -12    1    3    3    0    0  0.27977980881E+01 -0.99827861293E+01 -0.15163078381E+02  0.18368523050E+02  0.00000000000E+00 0.  1.
</event>
<event>
 7    1  0.3435408E-009  0.4614232E+02  0.7816164E-02  0.1320468E+00
        -11   -1    0    0    0    0  0.00000000000E+00  0.00000000000E+00  0.45593999997E+02  0.45594000000E+02  0.51100000000E-03 0.  1.
         11   -1    0    0    0    0 -0.00000000000E+00 -0.00000000000E+00 -0.45593999997E+02  0.45594000000E+02  0.51100000000E-03 0. -1.
    9900012    2    1    2    0    0  0.42425893619E+02  0.11891443632E+02 -0.93675230485E+01  0.46142319085E+02  0.10000012077E+02 0.  0.
        -12    1    1    2    0    0 -0.42425893619E+02 -0.11891443632E+02  0.93675230485E+01  0.45045680915E+02  0.00000000000E+00 0.  1.
         11    1    3    3    0    0  0.28495524957E+02  0.50003392831E+01 -0.61105013660E+01  0.29569182652E+02  0.51100000000E-03 0. -1.
        -11    1    3    3    0    0  0.39913906722E+01 -0.19245866382E+00 -0.13632348656E+01  0.42221616970E+01  0.51100000000E-03 0.  1.
         12    1    3    3    0    0  0.99389779896E+01  0.70835630125E+01 -0.18937868169E+01  0.12350974736E+02  0.00000000000E+00 0. -1.
</event>
<event>
 7    1  0.3435408E-009  0.4614232E+02  0.7816164E-02  0.1320468E+00
        -11   -1    0    0    0    0  0.00000000000E+00  0.00000000000E+00  0.45593999997E+02  0.45594000000E+02  0.51100000000E-03 0. -1.
         11   -1    0    0    0    0 -0.00000000000E+00 -0.00000000000E+00 -0.45593999997E+02  0.45594000000E+02  0.51100000000E-03 0.  1.
    9900012    2    1    2    0    0  0.25069118985E+02 -0.36455507592E+02  0.84645593025E+01  0.46142317359E+02  0.99999963310E+01 0.  0.
        -12    1    1    2    0    0 -0.25069118985E+02  0.36455507592E+02 -0.84645593025E+01  0.45045682641E+02  0.00000000000E+00 0.  1.
         11    1    3    3    0    0  0.67783256945E+00 -0.34427921622E+01  0.56585213734E+00  0.35542177433E+01  0.51100000000E-03 0. -1.
        -11    1    3    3    0    0  0.59414134649E+01 -0.38770133616E+01 -0.44041209261E+00  0.71081354545E+01  0.51100000000E-03 0.  1.
        -12    1    3    3    0    0  0.18449872950E+02 -0.29135702068E+02  0.83391192577E+01  0.35479964161E+02  0.00000000000E+00 0.  1.
</event>
<event>
 7    1  0.3435408E-009  0.4614232E+02  0.7816164E-02  0.1320468E+00
        -11   -1    0    0    0    0  0.00000000000E+00  0.00000000000E+00  0.45593999997E+02  0.45594000000E+02  0.51100000000E-03 0.  1.
         11   -1    0    0    0    0 -0.00000000000E+00 -0.00000000000E+00 -0.45593999997E+02  0.45594000000E+02  0.51100000000E-03 0. -1.
    9900012    2    1    2    0    0  0.25423434130E+02  0.12861449738E+02 -0.34890480011E+02  0.46142317768E+02  0.10000000065E+02 0.  0.
        -12    1    1    2    0    0 -0.25423434130E+02 -0.12861449738E+02  0.34890480011E+02  0.45045682232E+02  0.00000000000E+00 0.  1.
         11    1    3    3    0    0  0.21038858774E+02  0.95700458146E+01 -0.31749476205E+02  0.39271473043E+02  0.51100000000E-03 0. -1.
        -11    1    3    3    0    0  0.19683295215E+01  0.61062214323E+00  0.38244362807E-01  0.20612237626E+01  0.51100000000E-03 0.  1.
         12    1    3    3    0    0  0.24162458350E+01  0.26807817804E+01 -0.31792481681E+01  0.48096209625E+01  0.00000000000E+00 0. -1.
</event>
<event>
 7    1  0.3435408E-009  0.4614233E+02  0.7816164E-02  0.1320468E+00
        -11   -1    0    0    0    0  0.00000000000E+00  0.00000000000E+00  0.45593999997E+02  0.45594000000E+02  0.51100000000E-03 0.  1.
         11   -1    0    0    0    0 -0.00000000000E+00 -0.00000000000E+00 -0.45593999997E+02  0.45594000000E+02  0.51100000000E-03 0. -1.
    9900012    2    1    2    0    0 -0.22959957434E+02  0.41109627762E+01 -0.38536378868E+02  0.46142332544E+02  0.10000134797E+02 0.  0.
        -12    1    1    2    0    0  0.22959957434E+02 -0.41109627762E+01  0.38536378868E+02  0.45045667456E+02  0.00000000000E+00 0.  1.
         11    1    3    3    0    0 -0.19197323582E+02  0.30377137167E+01 -0.32771361216E+02  0.38101536105E+02  0.51100000000E-03 0. -1.
        -11    1    3    3    0    0 -0.70817781782E+00 -0.13558782877E+01 -0.25977563677E+01  0.30146741383E+01  0.51100000000E-03 0.  1.
         12    1    3    3    0    0 -0.30544560341E+01  0.24291273473E+01 -0.31672612841E+01  0.50261223001E+01  0.00000000000E+00 0. -1.
</event>
<event>
 7    1  0.3435408E-009  0.4614232E+02  0.7816164E-02  0.1320468E+00
        -11   -1    0    0    0    0  0.00000000000E+00  0.00000000000E+00  0.45593999997E+02  0.45594000000E+02  0.51100000000E-03 0.  1.
         11   -1    0    0    0    0 -0.00000000000E+00 -0.00000000000E+00 -0.45593999997E+02  0.45594000000E+02  0.51100000000E-03 0. -1.
    9900012    2    1    2    0    0  0.16959893055E+02 -0.17669544232E+02 -0.37805592595E+02  0.46142316552E+02  0.99999889772E+01 0.  0.
        -12    1    1    2    0    0 -0.16959893055E+02  0.17669544232E+02  0.37805592595E+02  0.45045683448E+02  0.00000000000E+00 0.  1.
         11    1    3    3    0    0  0.76679285462E+01 -0.36193161999E+01 -0.10010488349E+02  0.13118934987E+02  0.51100000000E-03 0. -1.
        -11    1    3    3    0    0  0.31215622102E+01 -0.99171853838E+01 -0.16708478725E+02  0.19679125442E+02  0.51100000000E-03 0.  1.
        -12    1    3    3    0    0  0.61704022989E+01 -0.41330426481E+01 -0.11086625521E+02  0.13344256124E+02  0.00000000000E+00 0.  1.
</event>
<event>
 7    1  0.3435408E-009  0.4614232E+02  0.7816164E-02  0.1320468E+00
        -11   -1    0    0    0    0  0.00000000000E+00  0.00000000000E+00  0.45593999997E+02  0.45594000000E+02  0.51100000000E-03 0.  1.
         11   -1    0    0    0    0 -0.00000000000E+00 -0.00000000000E+00 -0.45593999997E+02  0.45594000000E+02  0.51100000000E-03 0. -1.
    9900012    2    1    2    0    0  0.33424889666E+02  0.19521231496E+01 -0.30134356867E+02  0.46142317656E+02  0.99999990450E+01 0.  0.
        -12    1    1    2    0    0 -0.33424889666E+02 -0.19521231496E+01  0.30134356867E+02  0.45045682344E+02  0.00000000000E+00 0.  1.
         11    1    3    3    0    0  0.26276728269E+01 -0.21731903007E+01 -0.30245689528E+01  0.45580081373E+01  0.51100000000E-03 0. -1.
        -11    1    3    3    0    0  0.68902771851E+01  0.10780938454E+01 -0.33342673585E+01  0.77301710916E+01  0.51100000000E-03 0.  1.
         12    1    3    3    0    0  0.23906939654E+02  0.30472196049E+01 -0.23775520556E+02  0.33854138427E+02  0.00000000000E+00 0. -1.
</event>
<event>
 7    1  0.3435408E-009  0.4614232E+02  0.7816164E-02  0.1320468E+00
        -11   -1    0    0    0    0  0.00000000000E+00  0.00000000000E+00  0.45593999997E+02  0.45594000000E+02  0.51100000000E-03 0.  1.
         11   -1    0    0    0    0 -0.00000000000E+00 -0.00000000000E+00 -0.45593999997E+02  0.45594000000E+02  0.51100000000E-03 0. -1.
    9900012    2    1    2    0    0  0.35449409494E+01 -0.44370838725E+02  0.69119863685E+01  0.46142317732E+02  0.99999997306E+01 0.  0.
        -12    1    1    2    0    0 -0.35449409494E+01  0.44370838725E+02 -0.69119863685E+01  0.45045682268E+02  0.00000000000E+00 0.  1.
         11    1    3    3    0    0 -0.12310665302E+01 -0.54876500998E+01  0.15196130568E+01  0.58257233476E+01  0.51100000000E-03 0. -1.
        -11    1    3    3    0    0  0.33613001872E+01 -0.14540645002E+02  0.55775123259E+01  0.15932273536E+02  0.51100000000E-03 0.  1.
        -12    1    3    3    0    0  0.14147072924E+01 -0.24342543623E+02 -0.18513901408E+00  0.24384320848E+02  0.00000000000E+00 0.  1.
</event>
<event>
 7    1  0.3435408E-009  0.4614231E+02  0.7816164E-02  0.1320468E+00
        -11   -1    0    0    0    0  0.00000000000E+00  0.00000000000E+00  0.45593999997E+02  0.45594000000E+02  0.51100000000E-03 0.  1.
         11   -1    0    0    0    0 -0.00000000000E+00 -0.00000000000E+00 -0.45593999997E+02  0.45594000000E+02  0.51100000000E-03 0. -1.
    9900012    2    1    2    0    0 -0.26435691035E+02  0.33949376215E+02 -0.13330732700E+02  0.46142308306E+02  0.99999137779E+01 0.  0.
        -12    1    1    2    0    0  0.26435691035E+02 -0.33949376215E+02  0.13330732700E+02  0.45045691694E+02  0.00000000000E+00 0.  1.
         11    1    3    3    0    0 -0.21180495592E+02  0.23839035712E+02 -0.13436584569E+02  0.34604260177E+02  0.51100000000E-03 0. -1.
        -11    1    3    3    0    0 -0.17836304696E+01  0.20788271336E+01  0.47764526548E+00  0.27804685152E+01  0.51100000000E-03 0.  1.
         12    1    3    3    0    0 -0.34715649727E+01  0.80315133695E+01 -0.37179339673E+00  0.87575796140E+01  0.00000000000E+00 0. -1.
</event>
<event>
 7    1  0.3435408E-009  0.4614232E+02  0.7816164E-02  0.1320468E+00
        -11   -1    0    0    0    0  0.00000000000E+00  0.00000000000E+00  0.45593999997E+02  0.45594000000E+02  0.51100000000E-03 0.  1.
         11   -1    0    0    0    0 -0.00000000000E+00 -0.00000000000E+00 -0.45593999997E+02  0.45594000000E+02  0.51100000000E-03 0. -1.
    9900012    2    1    2    0    0 -0.31398842164E+02  0.32188139847E+02  0.26739189732E+01  0.46142317868E+02  0.10000000976E+02 0.  0.
        -12    1    1    2    0    0  0.31398842164E+02 -0.32188139847E+02 -0.26739189732E+01  0.45045682132E+02  0.00000000000E+00 0.  1.
         11    1    3    3    0    0 -0.20358984625E+02  0.20169844513E+02 -0.24273536462E+01  0.28761135733E+02  0.51100000000E-03 0. -1.
        -11    1    3    3    0    0 -0.10818862382E+02  0.12139393250E+02  0.47341696616E+01  0.16935909021E+02  0.51100000000E-03 0.  1.
        -12    1    3    3    0    0 -0.22099515724E+00 -0.12109791632E+00  0.36710295789E+00  0.44527311456E+00  0.00000000000E+00 0.  1.
</event>
<event>
 7    1  0.3435408E-009  0.4614232E+02  0.7816164E-02  0.1320468E+00
        -11   -1    0    0    0    0  0.00000000000E+00  0.00000000000E+00  0.45593999997E+02  0.45594000000E+02  0.51100000000E-03 0.  1.
         11   -1    0    0    0    0 -0.00000000000E+00 -0.00000000000E+00 -0.45593999997E+02  0.45594000000E+02  0.51100000000E-03 0. -1.
    9900012    2    1    2    0    0  0.65801044094E+00 -0.98794869018E+01 -0.43944005676E+02  0.46142324580E+02  0.10000062184E+02 0.  0.
        -12    1    1    2    0    0 -0.65801044094E+00  0.98794869018E+01  0.43944005676E+02  0.45045675420E+02  0.00000000000E+00 0.  1.
         11    1    3    3    0    0 -0.89826053188E+00 -0.70788174011E+01 -0.25230149819E+02  0.26219782378E+02  0.51100000000E-03 0. -1.
        -11    1    3    3    0    0  0.35349538642E+01 -0.19179040572E+01 -0.15723923990E+02  0.16230096755E+02  0.51100000000E-03 0.  1.
        -12    1    3    3    0    0 -0.19786828914E+01 -0.88276544342E+00 -0.29899318670E+01  0.36924454474E+01  0.00000000000E+00 0.  1.
</event>
<event>
 7    1  0.3435408E-009  0.4614232E+02  0.7816164E-02  0.1320468E+00
        -11   -1    0    0    0    0  0.00000000000E+00  0.00000000000E+00  0.45593999997E+02  0.45594000000E+02  0.51100000000E-03 0.  1.
         11   -1    0    0    0    0 -0.00000000000E+00 -0.00000000000E+00 -0.45593999997E+02  0.45594000000E+02  0.51100000000E-03 0. -1.
    9900012    2    1    2    0    0 -0.19554777292E+02  0.25985928648E+02 -0.31168183479E+02  0.46142318031E+02  0.10000002464E+02 0.  0.
        -12    1    1    2    0    0  0.19554777292E+02 -0.25985928648E+02  0.31168183479E+02  0.45045681969E+02  0.00000000000E+00 0.  1.
         11    1    3    3    0    0 -0.95422962910E+01  0.16074626297E+02 -0.14218736428E+02  0.23486623745E+02  0.51100000000E-03 0. -1.
        -11    1    3    3    0    0 -0.90983167499E+01  0.10539950544E+02 -0.15690925122E+02  0.20977965978E+02  0.51100000000E-03 0.  1.
        -12    1    3    3    0    0 -0.91416425111E+00 -0.62864819248E+00 -0.12585219293E+01  0.16777283077E+01  0.00000000000E+00 0.  1.
</event>
<event>
 7    1  0.3435408E-009  0.4614232E+02  0.7816164E-02  0.1320468E+00
        -11   -1    0    0    0    0  0.00000000000E+00  0.00000000000E+00  0.45593999997E+02  0.45594000000E+02  0.51100000000E-03 0. -1.
         11   -1    0    0    0    0 -0.00000000000E+00 -0.00000000000E+00 -0.45593999997E+02  0.45594000000E+02  0.51100000000E-03 0.  1.
    9900012    2    1    2    0    0 -0.35430240490E+02 -0.27817171205E+02  0.12920255108E+00  0.46142315985E+02  0.99999838064E+01 0.  0.
        -12    1    1    2    0    0  0.35430240490E+02  0.27817171205E+02 -0.12920255108E+00  0.45045684015E+02  0.00000000000E+00 0.  1.
         11    1    3    3    0    0 -0.21989924430E+02 -0.17986155126E+02 -0.22741505058E+01  0.28499654619E+02  0.51100000000E-03 0. -1.
        -11    1    3    3    0    0 -0.95107872996E+01 -0.37303595778E+01  0.16198925954E+01  0.10343824724E+02  0.51100000000E-03 0.  1.
        -12    1    3    3    0    0 -0.39295287611E+01 -0.61006565014E+01  0.78346046156E+00  0.72988366421E+01  0.00000000000E+00 0.  1.
</event>
<event>
 7    1  0.3435408E-009  0.4614232E+02  0.7816164E-02  0.1320468E+00
        -11   -1    0    0    0    0  0.00000000000E+00  0.00000000000E+00  0.45593999997E+02  0.45594000000E+02  0.51100000000E-03 0.  1.
         11   -1    0    0    0    0 -0.00000000000E+00 -0.00000000000E+00 -0.45593999997E+02  0.45594000000E+02  0.51100000000E-03 0. -1.
    9900012    2    1    2    0    0 -0.37468553939E+01  0.24570368077E+02 -0.37568219393E+02  0.46142322947E+02  0.10000047292E+02 0.  0.
        -12    1    1    2    0    0  0.37468553939E+01 -0.24570368077E+02  0.37568219393E+02  0.45045677053E+02  0.00000000000E+00 0.  1.
         11    1    3    3    0    0 -0.12056212308E+01  0.16199287707E+02 -0.22647219331E+02  0.27870539794E+02  0.51100000000E-03 0. -1.
        -11    1    3    3    0    0  0.16602731340E+01  0.13657987462E+01 -0.48450599950E+01  0.53006150313E+01  0.51100000000E-03 0.  1.
         12    1    3    3    0    0 -0.42015072970E+01  0.70052816244E+01 -0.10075940067E+02  0.12971168122E+02  0.00000000000E+00 0. -1.
</event>
<event>
 7    1  0.3435408E-009  0.4614232E+02  0.7816164E-02  0.1320468E+00
        -11   -1    0    0    0    0  0.00000000000E+00  0.00000000000E+00  0.45593999997E+02  0.45594000000E+02  0.51100000000E-03 0.  1.
         11   -1    0    0    0    0 -0.00000000000E+00 -0.00000000000E+00 -0.45593999997E+02  0.45594000000E+02  0.51100000000E-03 0. -1.
    9900012    2    1    2    0    0  0.44940691405E+02 -0.74492411117E-01 -0.30727997018E+01  0.46142318841E+02  0.10000009845E+02 0.  0.
        -12    1    1    2    0    0 -0.44940691405E+02  0.74492411117E-01  0.30727997018E+01  0.45045681159E+02  0.00000000000E+00 0.  1.
         11    1    3    3    0    0  0.37607119550E+01 -0.17540409853E+01  0.34278209612E+00  0.41637860192E+01  0.51100000000E-03 0. -1.
        -11    1    3    3    0    0  0.11146578042E+02 -0.27450826905E+01 -0.74742030036E+00  0.11503926216E+02  0.51100000000E-03 0.  1.
         12    1    3    3    0    0  0.30033401408E+02  0.44246312647E+01 -0.26681614976E+01  0.30474606605E+02  0.00000000000E+00 0. -1.
</event>
<event>
 7    1  0.3435408E-009  0.4614232E+02  0.7816164E-02  0.1320468E+00
        -11   -1    0    0    0    0  0.00000000000E+00  0.00000000000E+00  0.45593999997E+02  0.45594000000E+02  0.51100000000E-03 0.  1.
         11   -1    0    0    0    0 -0.00000000000E+00 -0.00000000000E+00 -0.45593999997E+02  0.45594000000E+02  0.51100000000E-03 0. -1.
    9900012    2    1    2    0    0 -0.38877901157E+02  0.20922257521E+02 -0.89376411222E+01  0.46142317777E+02  0.10000000142E+02 0.  0.
        -12    1    1    2    0    0  0.38877901157E+02 -0.20922257521E+02  0.89376411222E+01  0.45045682223E+02  0.00000000000E+00 0.  1.
         11    1    3    3    0    0 -0.25567204064E+02  0.10321474424E+02 -0.27051533317E+01  0.27704378945E+02  0.51100000000E-03 0. -1.
        -11    1    3    3    0    0 -0.59418263781E+01  0.69025846972E+01 -0.32978819071E+01  0.96864338920E+01  0.51100000000E-03 0.  1.
        -12    1    3    3    0    0 -0.73688707143E+01  0.36981984008E+01 -0.29346058834E+01  0.87515049395E+01  0.00000000000E+00 0.  1.
</event>
<event>
 7    1  0.3435408E-009  0.4614232E+02  0.7816164E-02  0.1320468E+00
        -11   -1    0    0    0    0  0.00000000000E+00  0.00000000000E+00  0.45593999997E+02  0.45594000000E+02  0.51100000000E-03 0.  1.
         11   -1    0    0    0    0 -0.00000000000E+00 -0.00000000000E+00 -0.45593999997E+02  0.45594000000E+02  0.51100000000E-03 0. -1.
    9900012    2    1    2    0    0 -0.71024101369E+01  0.44260063634E+02  0.44402728526E+01  0.46142317791E+02  0.10000000271E+02 0.  0.
        -12    1    1    2    0    0  0.71024101369E+01 -0.44260063634E+02 -0.44402728526E+01  0.45045682209E+02  0.00000000000E+00 0.  1.
         11    1    3    3    0    0 -0.66792937848E+01  0.26834162532E+02  0.25730588853E+01  0.27772394145E+02  0.51100000000E-03 0.  1.
        -11    1    3    3    0    0 -0.97545651815E+00  0.37615646735E+01 -0.16927466091E+01  0.42386643598E+01  0.51100000000E-03 0. -1.
        -12    1    3    3    0    0  0.55234016606E+00  0.13664336429E+02  0.35599605764E+01  0.14131259286E+02  0.00000000000E+00 0.  1.
</event>
<event>
 7    1  0.3435408E-009  0.4614232E+02  0.7816164E-02  0.1320468E+00
        -11   -1    0    0    0    0  0.00000000000E+00  0.00000000000E+00  0.45593999997E+02  0.45594000000E+02  0.51100000000E-03 0. -1.
         11   -1    0    0    0    0 -0.00000000000E+00 -0.00000000000E+00 -0.45593999997E+02  0.45594000000E+02  0.51100000000E-03 0.  1.
    9900012    2    1    2    0    0  0.12663391018E+02 -0.85914691396E+01  0.42366716222E+02  0.46142318104E+02  0.10000003130E+02 0.  0.
        -12    1    1    2    0    0 -0.12663391018E+02  0.85914691396E+01 -0.42366716222E+02  0.45045681896E+02  0.00000000000E+00 0.  1.
         11    1    3    3    0    0  0.97851454595E+01 -0.43293144411E+01  0.26518260585E+02  0.28595632183E+02  0.51100000000E-03 0. -1.
        -11    1    3    3    0    0  0.27802821694E+01 -0.55528869866E+01  0.12523561424E+02  0.13978702151E+02  0.51100000000E-03 0.  1.
        -12    1    3    3    0    0  0.97963388748E-01  0.12907322881E+01  0.33248942119E+01  0.35679837703E+01  0.00000000000E+00 0.  1.
</event>
<event>
 7    1  0.3435408E-009  0.4614232E+02  0.7816164E-02  0.1320468E+00
        -11   -1    0    0    0    0  0.00000000000E+00  0.00000000000E+00  0.45593999997E+02  0.45594000000E+02  0.51100000000E-03 0.  1.
         11   -1    0    0    0    0 -0.00000000000E+00 -0.00000000000E+00 -0.45593999997E+02  0.45594000000E+02  0.51100000000E-03 0. -1.
    9900012    2    1    2    0    0 -0.35275960249E+02  0.46213379151E+01 -0.27629031165E+02  0.46142317646E+02  0.99999989535E+01 0.  0.
        -12    1    1    2    0    0  0.35275960249E+02 -0.46213379151E+01  0.27629031165E+02  0.45045682354E+02  0.00000000000E+00 0.  1.
         11    1    3    3    0    0 -0.18197084880E+02  0.34388614497E+01 -0.11162972282E+02  0.21623404372E+02  0.51100000000E-03 0. -1.
        -11    1    3    3    0    0 -0.11198849029E+02  0.36646223409E+01 -0.10529085801E+02  0.15802067097E+02  0.51100000000E-03 0.  1.
         12    1    3    3    0    0 -0.58800263397E+01 -0.24821458755E+01 -0.59369730827E+01  0.87168461778E+01  0.00000000000E+00 0. -1.
</event>
<event>
 7    1  0.3435408E-009  0.4614232E+02  0.7816164E-02  0.1320468E+00
        -11   -1    0    0    0    0  0.00000000000E+00  0.00000000000E+00  0.45593999997E+02  0.45594000000E+02  0.51100000000E-03 0.  1.
         11   -1    0    0    0    0 -0.00000000000E+00 -0.00000000000E+00 -0.45593999997E+02  0.45594000000E+02  0.51100000000E-03 0. -1.
    9900012    2    1    2    0    0  0.22256508831E+02  0.23762059434E+02 -0.31130785913E+02  0.46142317794E+02  0.10000000296E+02 0.  0.
        -12    1    1    2    0    0 -0.22256508831E+02 -0.23762059434E+02  0.31130785913E+02  0.45045682206E+02  0.00000000000E+00 0.  1.
         11    1    3    3    0    0  0.23573834036E+01  0.66486630443E+00 -0.12554386196E+01  0.27523499238E+01  0.51100000000E-03 0. -1.
        -11    1    3    3    0    0  0.26419225281E+01  0.45853267785E+01 -0.95990476217E+01  0.10961144640E+02  0.51100000000E-03 0.  1.
         12    1    3    3    0    0  0.17257202900E+02  0.18511866351E+02 -0.20276299671E+02  0.32428823230E+02  0.00000000000E+00 0. -1.
</event>
<event>
 7    1  0.3435408E-009  0.4614232E+02  0.7816164E-02  0.1320468E+00
        -11   -1    0    0    0    0  0.00000000000E+00  0.00000000000E+00  0.45593999997E+02  0.45594000000E+02  0.51100000000E-03 0.  1.
         11   -1    0    0    0    0 -0.00000000000E+00 -0.00000000000E+00 -0.45593999997E+02  0.45594000000E+02  0.51100000000E-03 0. -1.
    9900012    2    1    2    0    0 -0.17306175829E+02 -0.33201370979E+02 -0.25045533202E+02  0.46142317742E+02  0.99999998297E+01 0.  0.
        -12    1    1    2    0    0  0.17306175829E+02  0.33201370979E+02  0.25045533202E+02  0.45045682258E+02  0.00000000000E+00 0.  1.
         11    1    3    3    0    0 -0.14228021865E+01  0.10701329053E+00 -0.18147526737E+01  0.23084941919E+01  0.51100000000E-03 0.  1.
        -11    1    3    3    0    0 -0.69989814950E+01 -0.12883052680E+02 -0.68366250564E+01  0.16177089687E+02  0.51100000000E-03 0. -1.
         12    1    3    3    0    0 -0.88843921470E+01 -0.20425331590E+02 -0.16394155472E+02  0.27656733864E+02  0.00000000000E+00 0. -1.
</event>
<event>
 7    1  0.3435408E-009  0.4614232E+02  0.7816164E-02  0.1320468E+00
        -11   -1    0    0    0    0  0.00000000000E+00  0.00000000000E+00  0.45593999997E+02  0.45594000000E+02  0.51100000000E-03 0. -1.
         11   -1    0    0    0    0 -0.00000000000E+00 -0.00000000000E+00 -0.45593999997E+02  0.45594000000E+02  0.51100000000E-03 0.  1.
    9900012    2    1    2    0    0  0.36393744726E+02  0.23670509210E+02  0.12013149700E+02  0.46142318440E+02  0.10000006194E+02 0.  0.
        -12    1    1    2    0    0 -0.36393744726E+02 -0.23670509210E+02 -0.12013149700E+02  0.45045681560E+02  0.00000000000E+00 0.  1.
         11    1    3    3    0    0  0.13151653586E+01  0.29839135578E+01  0.18772138817E+01  0.37626230557E+01  0.51100000000E-03 0. -1.
        -11    1    3    3    0    0  0.24244237990E+02  0.12937621283E+02  0.93835899392E+01  0.29038196924E+02  0.51100000000E-03 0.  1.
        -12    1    3    3    0    0  0.10834341377E+02  0.77489743693E+01  0.75234587933E+00  0.13341498461E+02  0.00000000000E+00 0.  1.
</event>
<event>
 7    1  0.3435408E-009  0.4614232E+02  0.7816164E-02  0.1320468E+00
        -11   -1    0    0    0    0  0.00000000000E+00  0.00000000000E+00  0.45593999997E+02  0.45594000000E+02  0.51100000000E-03 0. -1.
         11   -1    0    0    0    0 -0.00000000000E+00 -0.00000000000E+00 -0.45593999997E+02  0.45594000000E+02  0.51100000000E-03 0.  1.
    9900012    2    1    2    0    0  0.18668321672E+01 -0.31787138484E+02  0.31862301673E+02  0.46142317596E+02  0.99999984901E+01 0.  0.
        -12    1    1    2    0    0 -0.18668321672E+01  0.31787138484E+02 -0.31862301673E+02  0.45045682404E+02  0.00000000000E+00 0.  1.
         11    1    3    3    0    0  0.16611020495E+00 -0.21434939473E+02  0.19595605517E+02  0.29042589049E+02  0.51100000000E-03 0.  1.
        -11    1    3    3    0    0  0.80193517795E-01 -0.81191138059E+01  0.55408061732E+01  0.98299019987E+01  0.51100000000E-03 0. -1.
        -12    1    3    3    0    0  0.16205284444E+01 -0.22330852053E+01  0.67258899833E+01  0.72698265481E+01  0.00000000000E+00 0.  1.
</event>
<event>
 7    1  0.3435408E-009  0.4614232E+02  0.7816164E-02  0.1320468E+00
        -11   -1    0    0    0    0  0.00000000000E+00  0.00000000000E+00  0.45593999997E+02  0.45594000000E+02  0.51100000000E-03 0.  1.
         11   -1    0    0    0    0 -0.00000000000E+00 -0.00000000000E+00 -0.45593999997E+02  0.45594000000E+02  0.51100000000E-03 0. -1.
    9900012    2    1    2    0    0  0.33008168706E+02 -0.15829680625E+01 -0.30611576517E+02  0.46142316455E+02  0.99999880871E+01 0.  0.
        -12    1    1    2    0    0 -0.33008168706E+02  0.15829680625E+01  0.30611576517E+02  0.45045683545E+02  0.00000000000E+00 0.  1.
         11    1    3    3    0    0  0.17565155042E+02 -0.31437411829E+01 -0.21295359544E+02  0.27783270481E+02  0.51100000000E-03 0. -1.
        -11    1    3    3    0    0  0.14295119831E+01 -0.73807799066E+00 -0.75445933945E+00  0.17769279069E+01  0.51100000000E-03 0.  1.
         12    1    3    3    0    0  0.14013501681E+02  0.22988511110E+01 -0.85617576335E+01  0.16582118067E+02  0.00000000000E+00 0. -1.
</event>
<event>
 7    1  0.3435408E-009  0.4614232E+02  0.7816164E-02  0.1320468E+00
        -11   -1    0    0    0    0  0.00000000000E+00  0.00000000000E+00  0.45593999997E+02  0.45594000000E+02  0.51100000000E-03 0.  1.
         11   -1    0    0    0    0 -0.00000000000E+00 -0.00000000000E+00 -0.45593999997E+02  0.45594000000E+02  0.51100000000E-03 0. -1.
    9900012    2    1    2    0    0  0.44101254432E+02  0.86643359004E+01 -0.30202729770E+01  0.46142318654E+02  0.10000008146E+02 0.  0.
        -12    1    1    2    0    0 -0.44101254432E+02 -0.86643359004E+01  0.30202729770E+01  0.45045681346E+02  0.00000000000E+00 0.  1.
         11    1    3    3    0    0  0.23113632945E+02  0.26201787822E+01  0.30421992608E+01  0.23459760045E+02  0.51100000000E-03 0. -1.
        -11    1    3    3    0    0  0.10963789730E+02  0.31098947418E+01 -0.27219213291E+01  0.11716867608E+02  0.51100000000E-03 0.  1.
         12    1    3    3    0    0  0.10023831756E+02  0.29342623764E+01 -0.33405509087E+01  0.10965691002E+02  0.00000000000E+00 0. -1.
</event>
<event>
 7    1  0.3435408E-009  0.4614232E+02  0.7816164E-02  0.1320468E+00
        -11   -1    0    0    0    0  0.00000000000E+00  0.00000000000E+00  0.45593999997E+02  0.45594000000E+02  0.51100000000E-03 0.  1.
         11   -1    0    0    0    0 -0.00000000000E+00 -0.00000000000E+00 -0.45593999997E+02  0.45594000000E+02  0.51100000000E-03 0. -1.
    9900012    2    1    2    0    0  0.12643987904E+02  0.16040807148E+02 -0.40148918607E+02  0.46142316639E+02  0.99999897703E+01 0.  0.
        -12    1    1    2    0    0 -0.12643987904E+02 -0.16040807148E+02  0.40148918607E+02  0.45045683361E+02  0.00000000000E+00 0.  1.
         11    1    3    3    0    0  0.48196240514E+01  0.12944727172E+01 -0.79570335338E+01  0.93924873453E+01  0.51100000000E-03 0. -1.
        -11    1    3    3    0    0  0.18252096291E+01  0.71055486533E+01 -0.18998891085E+02  0.20366101113E+02  0.51100000000E-03 0.  1.
         12    1    3    3    0    0  0.59991542240E+01  0.76407857776E+01 -0.13192993989E+02  0.16383728181E+02  0.00000000000E+00 0. -1.
</event>
<event>
 7    1  0.3435408E-009  0.4614232E+02  0.7816164E-02  0.1320468E+00
        -11   -1    0    0    0    0  0.00000000000E+00  0.00000000000E+00  0.45593999997E+02  0.45594000000E+02  0.51100000000E-03 0. -1.
         11   -1    0    0    0    0 -0.00000000000E+00 -0.00000000000E+00 -0.45593999997E+02  0.45594000000E+02  0.51100000000E-03 0.  1.
    9900012    2    1    2    0    0 -0.44908685433E+01  0.14097083900E+02  0.42546654765E+02  0.46142317560E+02  0.99999981689E+01 0.  0.
        -12    1    1    2    0    0  0.44908685433E+01 -0.14097083900E+02 -0.42546654765E+02  0.45045682440E+02  0.00000000000E+00 0.  1.
         11    1    3    3    0    0 -0.48647669704E+01  0.14032186134E+02  0.30746521194E+02  0.34145523443E+02  0.51100000000E-03 0. -1.
        -11    1    3    3    0    0  0.76725109732E+00 -0.74589585709E+00  0.38563685291E+01  0.40020761323E+01  0.51100000000E-03 0.  1.
         12    1    3    3    0    0 -0.39335267026E+00  0.81079362303E+00  0.79437650415E+01  0.79947179848E+01  0.00000000000E+00 0. -1.
</event>
<event>
 7    1  0.3435408E-009  0.4614232E+02  0.7816164E-02  0.1320468E+00
        -11   -1    0    0    0    0  0.00000000000E+00  0.00000000000E+00  0.45593999997E+02  0.45594000000E+02  0.51100000000E-03 0. -1.
         11   -1    0    0    0    0 -0.00000000000E+00 -0.00000000000E+00 -0.45593999997E+02  0.45594000000E+02  0.51100000000E-03 0.  1.
    9900012    2    1    2    0    0  0.92802526837E+01  0.43711208770E+02  0.56851194780E+01  0.46142318237E+02  0.10000004342E+02 0.  0.
        -12    1    1    2    0    0 -0.92802526837E+01 -0.43711208770E+02 -0.56851194780E+01  0.45045681763E+02  0.00000000000E+00 0.  1.
         11    1    3    3    0    0  0.78678463027E+00  0.70798586401E+01  0.81967156043E+00  0.71704456030E+01  0.51100000000E-03 0. -1.
        -11    1    3    3    0    0  0.22068816927E+01  0.24927565638E+02  0.56801169559E+01  0.25661597462E+02  0.51100000000E-03 0.  1.
        -12    1    3    3    0    0  0.62865863608E+01  0.11703784492E+02 -0.81466903837E+00  0.13310275172E+02  0.00000000000E+00 0.  1.
</event>
<event>
 7    1  0.3435408E-009  0.4614232E+02  0.7816164E-02  0.1320468E+00
        -11   -1    0    0    0    0  0.00000000000E+00  0.00000000000E+00  0.45593999997E+02  0.45594000000E+02  0.51100000000E-03 0. -1.
         11   -1    0    0    0    0 -0.00000000000E+00 -0.00000000000E+00 -0.45593999997E+02  0.45594000000E+02  0.51100000000E-03 0.  1.
    9900012    2    1    2    0    0  0.28271945244E+01  0.44762125784E+02  0.41800194889E+01  0.46142317671E+02  0.99999991774E+01 0.  0.
        -12    1    1    2    0    0 -0.28271945244E+01 -0.44762125784E+02 -0.41800194889E+01  0.45045682329E+02  0.00000000000E+00 0.  1.
         11    1    3    3    0    0  0.64409088688E+00  0.36076204404E+02  0.44496204609E+01  0.36355281594E+02  0.51100000000E-03 0. -1.
        -11    1    3    3    0    0  0.19210391227E+01  0.31376402520E+01  0.14770029105E+01  0.39644312985E+01  0.51100000000E-03 0.  1.
         12    1    3    3    0    0  0.26206451487E+00  0.55482811280E+01 -0.17466038825E+01  0.58226047786E+01  0.00000000000E+00 0. -1.
</event>
<event>
 7    1  0.3435408E-009  0.4614232E+02  0.7816164E-02  0.1320468E+00
        -11   -1    0    0    0    0  0.00000000000E+00  0.00000000000E+00  0.45593999997E+02  0.45594000000E+02  0.51100000000E-03 0. -1.
         11   -1    0    0    0    0 -0.00000000000E+00 -0.00000000000E+00 -0.45593999997E+02  0.45594000000E+02  0.51100000000E-03 0.  1.
    9900012    2    1    2    0    0  0.21066144491E+02  0.39781319428E+02  0.16666283070E+01  0.46142317975E+02  0.10000001948E+02 0.  0.
        -12    1    1    2    0    0 -0.21066144491E+02 -0.39781319428E+02 -0.16666283070E+01  0.45045682025E+02  0.00000000000E+00 0.  1.
         11    1    3    3    0    0  0.98967202352E+00  0.31621975747E+01 -0.19267417195E+01  0.38329203136E+01  0.51100000000E-03 0. -1.
        -11    1    3    3    0    0  0.57224878199E+00  0.27408884237E+01 -0.94528833073E+00  0.29552509722E+01  0.51100000000E-03 0.  1.
         12    1    3    3    0    0  0.19504223686E+02  0.33878233430E+02  0.45386583572E+01  0.39354146689E+02  0.00000000000E+00 0. -1.
</event>
<event>
 7    1  0.3435408E-009  0.4614232E+02  0.7816164E-02  0.1320468E+00
        -11   -1    0    0    0    0  0.00000000000E+00  0.00000000000E+00  0.45593999997E+02  0.45594000000E+02  0.51100000000E-03 0.  1.
         11   -1    0    0    0    0 -0.00000000000E+00 -0.00000000000E+00 -0.45593999997E+02  0.45594000000E+02  0.51100000000E-03 0. -1.
    9900012    2    1    2    0    0  0.14204935076E+01 -0.37079690048E+02 -0.25538054820E+02  0.46142318078E+02  0.10000002890E+02 0.  0.
        -12    1    1    2    0    0 -0.14204935076E+01  0.37079690048E+02  0.25538054820E+02  0.45045681922E+02  0.00000000000E+00 0.  1.
         11    1    3    3    0    0 -0.59750162126E+00 -0.14073575822E+02 -0.13289050474E+02  0.19365469459E+02  0.51100000000E-03 0. -1.
        -11    1    3    3    0    0 -0.13999534922E+01 -0.21137336364E+01 -0.56879434317E+00  0.25983200211E+01  0.51100000000E-03 0.  1.
         12    1    3    3    0    0  0.34179486210E+01 -0.20892380589E+02 -0.11680210003E+02  0.24178528598E+02  0.00000000000E+00 0. -1.
</event>
<event>
 7    1  0.3435408E-009  0.4614232E+02  0.7816164E-02  0.1320468E+00
        -11   -1    0    0    0    0  0.00000000000E+00  0.00000000000E+00  0.45593999997E+02  0.45594000000E+02  0.51100000000E-03 0.  1.
         11   -1    0    0    0    0 -0.00000000000E+00 -0.00000000000E+00 -0.45593999997E+02  0.45594000000E+02  0.51100000000E-03 0. -1.
    9900012    2    1    2    0    0 -0.11560394089E+01 -0.29803188497E+02 -0.33757176994E+02  0.46142317962E+02  0.10000001828E+02 0.  0.
        -12    1    1    2    0    0  0.11560394089E+01  0.29803188497E+02  0.33757176994E+02  0.45045682038E+02  0.00000000000E+00 0.  1.
         11    1    3    3    0    0 -0.10890340604E+01 -0.11878233877E+02 -0.18502790763E+02  0.22014352171E+02  0.51100000000E-03 0. -1.
        -11    1    3    3    0    0 -0.51876519809E+00 -0.18097873243E+02 -0.15202534485E+02  0.23641471787E+02  0.51100000000E-03 0.  1.
        -12    1    3    3    0    0  0.45175984956E+00  0.17291862254E+00 -0.51851745760E-01  0.48649400329E+00  0.00000000000E+00 0.  1.
</event>
<event>
 7    1  0.3435408E-009  0.4614232E+02  0.7816164E-02  0.1320468E+00
        -11   -1    0    0    0    0  0.00000000000E+00  0.00000000000E+00  0.45593999997E+02  0.45594000000E+02  0.51100000000E-03 0.  1.
         11   -1    0    0    0    0 -0.00000000000E+00 -0.00000000000E+00 -0.45593999997E+02  0.45594000000E+02  0.51100000000E-03 0. -1.
    9900012    2    1    2    0    0 -0.32756128096E+02 -0.29518849084E+02 -0.92079877829E+01  0.46142318541E+02  0.10000007111E+02 0.  0.
        -12    1    1    2    0    0  0.32756128096E+02  0.29518849084E+02  0.92079877829E+01  0.45045681459E+02  0.00000000000E+00 0.  1.
         11    1    3    3    0    0 -0.15265259381E+02 -0.19450033881E+02 -0.37496977891E+01  0.25007842684E+02  0.51100000000E-03 0. -1.
        -11    1    3    3    0    0 -0.95458841102E+01 -0.48874754676E+01 -0.13915710255E+01  0.10814240152E+02  0.51100000000E-03 0.  1.
        -12    1    3    3    0    0 -0.79449846053E+01 -0.51813397353E+01 -0.40667189682E+01  0.10320235705E+02  0.00000000000E+00 0.  1.
</event>
<event>
 7    1  0.3435408E-009  0.4614232E+02  0.7816164E-02  0.1320468E+00
        -11   -1    0    0    0    0  0.00000000000E+00  0.00000000000E+00  0.45593999997E+02  0.45594000000E+02  0.51100000000E-03 0.  1.
         11   -1    0    0    0    0 -0.00000000000E+00 -0.00000000000E+00 -0.45593999997E+02  0.45594000000E+02  0.51100000000E-03 0. -1.
    9900012    2    1    2    0    0 -0.46156839577E+01  0.19600929530E+02 -0.40294076006E+02  0.46142317210E+02  0.99999949733E+01 0.  0.
        -12    1    1    2    0    0  0.46156839577E+01 -0.19600929530E+02  0.40294076006E+02  0.45045682790E+02  0.00000000000E+00 0.  1.
         11    1    3    3    0    0 -0.17741875599E+01  0.10768613585E+02 -0.20326078043E+02  0.23070765676E+02  0.51100000000E-03 0. -1.
        -11    1    3    3    0    0 -0.32891048633E+00  0.82432529535E+01 -0.11064256311E+02  0.13801346649E+02  0.51100000000E-03 0.  1.
        -12    1    3    3    0    0 -0.25125859114E+01  0.58906299099E+00 -0.89037416529E+01  0.92702048840E+01  0.00000000000E+00 0.  1.
</event>
<event>
 7    1  0.3435408E-009  0.4614232E+02  0.7816164E-02  0.1320468E+00
        -11   -1    0    0    0    0  0.00000000000E+00  0.00000000000E+00  0.45593999997E+02  0.45594000000E+02  0.51100000000E-03 0.  1.
         11   -1    0    0    0    0 -0.00000000000E+00 -0.00000000000E+00 -0.45593999997E+02  0.45594000000E+02  0.51100000000E-03 0. -1.
    9900012    2    1    2    0    0 -0.28802766573E+02  0.36661256764E+01 -0.34439414667E+02  0.46142321824E+02  0.10000037049E+02 0.  0.
        -12    1    1    2    0    0  0.28802766573E+02 -0.36661256764E+01  0.34439414667E+02  0.45045678176E+02  0.00000000000E+00 0.  1.
         11    1    3    3    0    0 -0.18037948957E+02  0.58009148037E+01 -0.23773142321E+02  0.30400337354E+02  0.51100000000E-03 0. -1.
        -11    1    3    3    0    0 -0.65767967802E+01  0.34387839706E+00 -0.49746168929E+01  0.82534430229E+01  0.51100000000E-03 0.  1.
         12    1    3    3    0    0 -0.41880208360E+01 -0.24786675244E+01 -0.56916554522E+01  0.74885414472E+01  0.00000000000E+00 0. -1.
</event>
<event>
 7    1  0.3435408E-009  0.4614232E+02  0.7816164E-02  0.1320468E+00
        -11   -1    0    0    0    0  0.00000000000E+00  0.00000000000E+00  0.45593999997E+02  0.45594000000E+02  0.51100000000E-03 0.  1.
         11   -1    0    0    0    0 -0.00000000000E+00 -0.00000000000E+00 -0.45593999997E+02  0.45594000000E+02  0.51100000000E-03 0. -1.
    9900012    2    1    2    0    0  0.10865366441E+02 -0.12497251409E+02 -0.41891242608E+02  0.46142315546E+02  0.99999797995E+01 0.  0.
        -12    1    1    2    0    0 -0.10865366441E+02  0.12497251409E+02  0.41891242608E+02  0.45045684454E+02  0.00000000000E+00 0.  1.
         11    1    3    3    0    0  0.50579825806E+01 -0.73125709782E+01 -0.14489464855E+02  0.17000043357E+02  0.51100000000E-03 0. -1.
        -11    1    3    3    0    0  0.34588170469E+01  0.20530989292E+00 -0.15305827121E+02  0.15693116696E+02  0.51100000000E-03 0.  1.
        -12    1    3    3    0    0  0.23485668132E+01 -0.53899903239E+01 -0.12095950632E+02  0.13449155493E+02  0.00000000000E+00 0.  1.
</event>
<event>
 7    1  0.3435408E-009  0.4614232E+02  0.7816164E-02  0.1320468E+00
        -11   -1    0    0    0    0  0.00000000000E+00  0.00000000000E+00  0.45593999997E+02  0.45594000000E+02  0.51100000000E-03 0. -1.
         11   -1    0    0    0    0 -0.00000000000E+00 -0.00000000000E+00 -0.45593999997E+02  0.45594000000E+02  0.51100000000E-03 0.  1.
    9900012    2    1    2    0    0  0.41625618221E+02 -0.13661204408E+02 -0.10478209161E+02  0.46142318016E+02  0.10000002323E+02 0.  0.
        -12    1    1    2    0    0 -0.41625618221E+02  0.13661204408E+02  0.10478209161E+02  0.45045681984E+02  0.00000000000E+00 0.  1.
         11    1    3    3    0    0  0.22442440142E+02 -0.65523750813E+01 -0.28848523417E+01  0.23556721165E+02  0.51100000000E-03 0. -1.
        -11    1    3    3    0    0  0.39492246464E+01 -0.40250259520E+01 -0.29496985517E+01  0.63637984749E+01  0.51100000000E-03 0.  1.
         12    1    3    3    0    0  0.15233953433E+02 -0.30838033749E+01 -0.46436582677E+01  0.16221798376E+02  0.00000000000E+00 0. -1.
</event>
<event>
 7    1  0.3435408E-009  0.4614232E+02  0.7816164E-02  0.1320468E+00
        -11   -1    0    0    0    0  0.00000000000E+00  0.00000000000E+00  0.45593999997E+02  0.45594000000E+02  0.51100000000E-03 0. -1.
         11   -1    0    0    0    0 -0.00000000000E+00 -0.00000000000E+00 -0.45593999997E+02  0.45594000000E+02  0.51100000000E-03 0.  1.
    9900012    2    1    2    0    0 -0.30569023094E+02  0.32756037124E+02  0.46572953307E+01  0.46142317180E+02  0.99999946969E+01 0.  0.
        -12    1    1    2    0    0  0.30569023094E+02 -0.32756037124E+02 -0.46572953307E+01  0.45045682820E+02  0.00000000000E+00 0.  1.
         11    1    3    3    0    0 -0.17850194246E+02  0.14483666895E+02  0.48229120530E+01  0.23487582300E+02  0.51100000000E-03 0. -1.
        -11    1    3    3    0    0 -0.16087634957E+01  0.51068272734E+01  0.73443048932E+00  0.54043679732E+01  0.51100000000E-03 0.  1.
        -12    1    3    3    0    0 -0.11110065352E+02  0.13165542955E+02 -0.90004721159E+00  0.17250366907E+02  0.00000000000E+00 0.  1.
</event>
<event>
 7    1  0.3435408E-009  0.4614232E+02  0.7816164E-02  0.1320468E+00
        -11   -1    0    0    0    0  0.00000000000E+00  0.00000000000E+00  0.45593999997E+02  0.45594000000E+02  0.51100000000E-03 0.  1.
         11   -1    0    0    0    0 -0.00000000000E+00 -0.00000000000E+00 -0.45593999997E+02  0.45594000000E+02  0.51100000000E-03 0. -1.
    9900012    2    1    2    0    0 -0.38829727251E+02 -0.12840942372E+02 -0.18880567933E+02  0.46142319132E+02  0.10000012501E+02 0.  0.
        -12    1    1    2    0    0  0.38829727251E+02  0.12840942372E+02  0.18880567933E+02  0.45045680868E+02  0.00000000000E+00 0.  1.
         11    1    3    3    0    0 -0.59963135845E+01 -0.44178058523E+01 -0.29631735256E+01  0.80158083034E+01  0.51100000000E-03 0. -1.
        -11    1    3    3    0    0 -0.14641428476E-01  0.19688864077E+00  0.42169351118E+00  0.46562343882E+00  0.51100000000E-03 0.  1.
         12    1    3    3    0    0 -0.32818772238E+02 -0.86200251604E+01 -0.16339087919E+02  0.37660887390E+02  0.00000000000E+00 0. -1.
</event>
<event>
 7    1  0.3435408E-009  0.4614232E+02  0.7816164E-02  0.1320468E+00
        -11   -1    0    0    0    0  0.00000000000E+00  0.00000000000E+00  0.45593999997E+02  0.45594000000E+02  0.51100000000E-03 0.  1.
         11   -1    0    0    0    0 -0.00000000000E+00 -0.00000000000E+00 -0.45593999997E+02  0.45594000000E+02  0.51100000000E-03 0. -1.
    9900012    2    1    2    0    0  0.19331256158E+01  0.44911914458E+02 -0.28803538263E+01  0.46142317930E+02  0.10000001543E+02 0.  0.
        -12    1    1    2    0    0 -0.19331256158E+01 -0.44911914458E+02  0.28803538263E+01  0.45045682070E+02  0.00000000000E+00 0.  1.
         11    1    3    3    0    0  0.84434159289E+00  0.55690514788E+01 -0.64722423547E+00  0.56697571880E+01  0.51100000000E-03 0. -1.
        -11    1    3    3    0    0 -0.23839129492E+01  0.77170393168E+01  0.21449684070E+01  0.83568311276E+01  0.51100000000E-03 0.  1.
        -12    1    3    3    0    0  0.34726969721E+01  0.31625823663E+02 -0.43780979978E+01  0.32115729615E+02  0.00000000000E+00 0.  1.
</event>
<event>
 7    1  0.3435408E-009  0.4614232E+02  0.7816164E-02  0.1320468E+00
        -11   -1    0    0    0    0  0.00000000000E+00  0.00000000000E+00  0.45593999997E+02  0.45594000000E+02  0.51100000000E-03 0.  1.
         11   -1    0    0    0    0 -0.00000000000E+00 -0.00000000000E+00 -0.45593999997E+02  0.45594000000E+02  0.51100000000E-03 0. -1.
    9900012    2    1    2    0    0 -0.28219722962E+02 -0.29289533077E+02 -0.19361920391E+02  0.46142317930E+02  0.10000001538E+02 0.  0.
        -12    1    1    2    0    0  0.28219722962E+02  0.29289533077E+02  0.19361920391E+02  0.45045682070E+02  0.00000000000E+00 0.  1.
         11    1    3    3    0    0 -0.52594830901E+01 -0.39068121543E+01 -0.39101162536E+01  0.76298330887E+01  0.51100000000E-03 0. -1.
        -11    1    3    3    0    0 -0.58869551620E+01 -0.12652446894E+02 -0.54104011260E+01  0.14967066984E+02  0.51100000000E-03 0.  1.
        -12    1    3    3    0    0 -0.17073284710E+02 -0.12730274028E+02 -0.10041403012E+02  0.23545417857E+02  0.00000000000E+00 0.  1.
</event>
<event>
 7    1  0.3435408E-009  0.4614232E+02  0.7816164E-02  0.1320468E+00
        -11   -1    0    0    0    0  0.00000000000E+00  0.00000000000E+00  0.45593999997E+02  0.45594000000E+02  0.51100000000E-03 0. -1.
         11   -1    0    0    0    0 -0.00000000000E+00 -0.00000000000E+00 -0.45593999997E+02  0.45594000000E+02  0.51100000000E-03 0.  1.
    9900012    2    1    2    0    0 -0.30871024483E+01 -0.12560665113E+02  0.43148731821E+02  0.46142316884E+02  0.99999920028E+01 0.  0.
        -12    1    1    2    0    0  0.30871024483E+01  0.12560665113E+02 -0.43148731821E+02  0.45045683116E+02  0.00000000000E+00 0.  1.
         11    1    3    3    0    0  0.24749128441E+01 -0.23898552716E+00  0.56513553390E+01  0.61741497469E+01  0.51100000000E-03 0. -1.
        -11    1    3    3    0    0 -0.36937369841E+01 -0.10831881474E+02  0.30849553730E+02  0.32903925522E+02  0.51100000000E-03 0.  1.
        -12    1    3    3    0    0 -0.18682783082E+01 -0.14897981118E+01  0.66478227525E+01  0.70642416153E+01  0.00000000000E+00 0.  1.
</event>
<event>
 7    1  0.3435408E-009  0.4614232E+02  0.7816164E-02  0.1320468E+00
        -11   -1    0    0    0    0  0.00000000000E+00  0.00000000000E+00  0.45593999997E+02  0.45594000000E+02  0.51100000000E-03 0. -1.
         11   -1    0    0    0    0 -0.00000000000E+00 -0.00000000000E+00 -0.45593999997E+02  0.45594000000E+02  0.51100000000E-03 0.  1.
    9900012    2    1    2    0    0  0.43374338979E+02 -0.96427043537E+01  0.74025794693E+01  0.46142320829E+02  0.10000027977E+02 0.  0.
        -12    1    1    2    0    0 -0.43374338979E+02  0.96427043537E+01 -0.74025794693E+01  0.45045679171E+02  0.00000000000E+00 0.  1.
         11    1    3    3    0    0  0.61191095919E+01 -0.45442340657E+00 -0.37191744916E+00  0.61472209721E+01  0.51100000000E-03 0. -1.
        -11    1    3    3    0    0  0.36945863716E+02 -0.10034989905E+02  0.72922050889E+01  0.38972735643E+02  0.51100000000E-03 0.  1.
        -12    1    3    3    0    0  0.30936567124E+00  0.84670895811E+00  0.48229182951E+00  0.10223642145E+01  0.00000000000E+00 0.  1.
</event>
<event>
 7    1  0.3435408E-009  0.4614232E+02  0.7816164E-02  0.1320468E+00
        -11   -1    0    0    0    0  0.00000000000E+00  0.00000000000E+00  0.45593999997E+02  0.45594000000E+02  0.51100000000E-03 0.  1.
         11   -1    0    0    0    0 -0.00000000000E+00 -0.00000000000E+00 -0.45593999997E+02  0.45594000000E+02  0.51100000000E-03 0. -1.
    9900012    2    1    2    0    0 -0.90711852124E+00  0.24296458846E+02 -0.37920610655E+02  0.46142317755E+02  0.99999999412E+01 0.  0.
        -12    1    1    2    0    0  0.90711852124E+00 -0.24296458846E+02  0.37920610655E+02  0.45045682245E+02  0.00000000000E+00 0.  1.
         11    1    3    3    0    0 -0.43365592348E+00  0.12088382248E+02 -0.21342424029E+02  0.24531940538E+02  0.51100000000E-03 0. -1.
        -11    1    3    3    0    0  0.17775859325E+01  0.11080992665E+02 -0.14563804351E+02  0.18386206994E+02  0.51100000000E-03 0.  1.
         12    1    3    3    0    0 -0.22510485303E+01  0.11270839334E+01 -0.20143822751E+01  0.32241702233E+01  0.00000000000E+00 0. -1.
</event>
<event>
 7    1  0.3435408E-009  0.4614232E+02  0.7816164E-02  0.1320468E+00
        -11   -1    0    0    0    0  0.00000000000E+00  0.00000000000E+00  0.45593999997E+02  0.45594000000E+02  0.51100000000E-03 0.  1.
         11   -1    0    0    0    0 -0.00000000000E+00 -0.00000000000E+00 -0.45593999997E+02  0.45594000000E+02  0.51100000000E-03 0. -1.
    9900012    2    1    2    0    0 -0.13012869436E+02  0.90799145439E+01 -0.42158438205E+02  0.46142317288E+02  0.99999956874E+01 0.  0.
        -12    1    1    2    0    0  0.13012869436E+02 -0.90799145439E+01  0.42158438205E+02  0.45045682712E+02  0.00000000000E+00 0.  1.
         11    1    3    3    0    0 -0.59298188395E+01  0.67946677835E+01 -0.12580856587E+02  0.15479283397E+02  0.51100000000E-03 0. -1.
        -11    1    3    3    0    0 -0.78151205171E+00 -0.56498230198E+00 -0.18541530642E+01  0.20899401751E+01  0.51100000000E-03 0.  1.
         12    1    3    3    0    0 -0.63015385448E+01  0.28502290624E+01 -0.27723428554E+02  0.28573093716E+02  0.00000000000E+00 0. -1.
</event>
<event>
 7    1  0.3435408E-009  0.4614232E+02  0.7816164E-02  0.1320468E+00
        -11   -1    0    0    0    0  0.00000000000E+00  0.00000000000E+00  0.45593999997E+02  0.45594000000E+02  0.51100000000E-03 0. -1.
         11   -1    0    0    0    0 -0.00000000000E+00 -0.00000000000E+00 -0.45593999997E+02  0.45594000000E+02  0.51100000000E-03 0.  1.
    9900012    2    1    2    0    0  0.26362019759E+01  0.43850294727E+02 -0.99657172155E+01  0.46142318430E+02  0.10000006100E+02 0.  0.
        -12    1    1    2    0    0 -0.26362019759E+01 -0.43850294727E+02  0.99657172155E+01  0.45045681570E+02  0.00000000000E+00 0.  1.
         11    1    3    3    0    0  0.53815594452E+01  0.25254334806E+02 -0.42691345742E+01  0.26171895591E+02  0.51100000000E-03 0. -1.
        -11    1    3    3    0    0 -0.25905786294E+01  0.14060716429E+02 -0.27489671532E+01  0.14559246712E+02  0.51100000000E-03 0.  1.
        -12    1    3    3    0    0 -0.15477883995E+00  0.45352434914E+01 -0.29476154882E+01  0.54111761274E+01  0.00000000000E+00 0.  1.
</event>
<event>
 7    1  0.3435408E-009  0.4614233E+02  0.7816164E-02  0.1320468E+00
        -11   -1    0    0    0    0  0.00000000000E+00  0.00000000000E+00  0.45593999997E+02  0.45594000000E+02  0.51100000000E-03 0. -1.
         11   -1    0    0    0    0 -0.00000000000E+00 -0.00000000000E+00 -0.45593999997E+02  0.45594000000E+02  0.51100000000E-03 0.  1.
    9900012    2    1    2    0    0 -0.62300654962E+00  0.38656589159E+02  0.23116932435E+02  0.46142327758E+02  0.10000091156E+02 0.  0.
        -12    1    1    2    0    0  0.62300654962E+00 -0.38656589159E+02 -0.23116932435E+02  0.45045672242E+02  0.00000000000E+00 0.  1.
         11    1    3    3    0    0  0.20327028484E+01  0.14598946458E+02  0.87580012118E+01  0.17145369755E+02  0.51100000000E-03 0. -1.
        -11    1    3    3    0    0  0.20926290890E+01  0.62750846025E+01  0.53356524608E+01  0.84985275617E+01  0.51100000000E-03 0.  1.
         12    1    3    3    0    0 -0.47483384870E+01  0.17782558099E+02  0.90232787620E+01  0.20498430441E+02  0.00000000000E+00 0. -1.
</event>
<event>
 7    1  0.3844280E-009  0.4614232E+02  0.7816164E-02  0.1320468E+00
        -11   -1    0    0    0    0  0.00000000000E+00  0.00000000000E+00  0.45593999997E+02  0.45594000000E+02  0.51100000000E-03 0. -1.
         11   -1    0    0    0    0 -0.00000000000E+00 -0.00000000000E+00 -0.45593999997E+02  0.45594000000E+02  0.51100000000E-03 0.  1.
    9900012    2    1    2    0    0 -0.46906116788E+01  0.43950410956E+02  0.86875090100E+01  0.46142320142E+02  0.10000021710E+02 0.  0.
        -12    1    1    2    0    0  0.46906116788E+01 -0.43950410956E+02 -0.86875090100E+01  0.45045679858E+02  0.00000000000E+00 0.  1.
         11    1    3    3    0    0 -0.53071300787E+01  0.27559147984E+02  0.92475152840E+01  0.29549768298E+02  0.51100000000E-03 0. -1.
        -11    1    3    3    0    0 -0.73027969049E+00  0.69224026032E+01 -0.92158203861E+00  0.70215582275E+01  0.51100000000E-03 0.  1.
         12    1    3    3    0    0  0.13467980903E+01  0.94688603684E+01  0.36157576454E+00  0.95709936164E+01  0.00000000000E+00 0. -1.
</event>
<event>
 7    1  0.3435408E-009  0.4614232E+02  0.7816164E-02  0.1320468E+00
        -11   -1    0    0    0    0  0.00000000000E+00  0.00000000000E+00  0.45593999997E+02  0.45594000000E+02  0.51100000000E-03 0. -1.
         11   -1    0    0    0    0 -0.00000000000E+00 -0.00000000000E+00 -0.45593999997E+02  0.45594000000E+02  0.51100000000E-03 0.  1.
    9900012    2    1    2    0    0  0.18481381264E+02 -0.27736927395E+02  0.30302058652E+02  0.46142319261E+02  0.10000013673E+02 0.  0.
        -12    1    1    2    0    0 -0.18481381264E+02  0.27736927395E+02 -0.30302058652E+02  0.45045680739E+02  0.00000000000E+00 0.  1.
         11    1    3    3    0    0  0.61391999832E+01 -0.75271786455E+01  0.11148741177E+02  0.14786569071E+02  0.51100000000E-03 0. -1.
        -11    1    3    3    0    0  0.11874293200E+01 -0.26053183300E+01  0.61688122480E+01  0.68008761790E+01  0.51100000000E-03 0.  1.
         12    1    3    3    0    0  0.11154751961E+02 -0.17604430419E+02  0.12984505227E+02  0.24554874011E+02  0.00000000000E+00 0. -1.
</event>
<event>
 7    1  0.3435408E-009  0.4614233E+02  0.7816164E-02  0.1320468E+00
        -11   -1    0    0    0    0  0.00000000000E+00  0.00000000000E+00  0.45593999997E+02  0.45594000000E+02  0.51100000000E-03 0.  1.
         11   -1    0    0    0    0 -0.00000000000E+00 -0.00000000000E+00 -0.45593999997E+02  0.45594000000E+02  0.51100000000E-03 0. -1.
    9900012    2    1    2    0    0 -0.83704763160E+01 -0.22941285645E+02 -0.37851617874E+02  0.46142329437E+02  0.10000106466E+02 0.  0.
        -12    1    1    2    0    0  0.83704763160E+01  0.22941285645E+02  0.37851617874E+02  0.45045670563E+02  0.00000000000E+00 0.  1.
         11    1    3    3    0    0  0.40164975213E+00 -0.61701439622E+01 -0.13209232313E+02  0.14584780341E+02  0.51100000000E-03 0. -1.
        -11    1    3    3    0    0 -0.81015663695E+01 -0.99225169549E+01 -0.15302840489E+02  0.19956669252E+02  0.51100000000E-03 0.  1.
         12    1    3    3    0    0 -0.67055969871E+00 -0.68486247278E+01 -0.93395450725E+01  0.11600879843E+02  0.00000000000E+00 0. -1.
</event>
<event>
 7    1  0.3435408E-009  0.4614232E+02  0.7816164E-02  0.1320468E+00
        -11   -1    0    0    0    0  0.00000000000E+00  0.00000000000E+00  0.45593999997E+02  0.45594000000E+02  0.51100000000E-03 0.  1.
         11   -1    0    0    0    0 -0.00000000000E+00 -0.00000000000E+00 -0.45593999997E+02  0.45594000000E+02  0.51100000000E-03 0. -1.
    9900012    2    1    2    0    0 -0.37093660070E+01 -0.14187598491E+02 -0.42591855284E+02  0.46142317813E+02  0.10000000478E+02 0.  0.
        -12    1    1    2    0    0  0.37093660070E+01  0.14187598491E+02  0.42591855284E+02  0.45045682187E+02  0.00000000000E+00 0.  1.
         11    1    3    3    0    0 -0.11748241012E+01 -0.69379465950E+01 -0.13544508657E+02  0.15263323021E+02  0.51100000000E-03 0. -1.
        -11    1    3    3    0    0  0.19367214494E+01 -0.23801819674E+01 -0.15546804959E+02  0.15846744172E+02  0.51100000000E-03 0.  1.
        -12    1    3    3    0    0 -0.44712633552E+01 -0.48694699286E+01 -0.13500541668E+02  0.15032250620E+02  0.00000000000E+00 0.  1.
</event>
<event>
 7    1  0.3435408E-009  0.4614232E+02  0.7816164E-02  0.1320468E+00
        -11   -1    0    0    0    0  0.00000000000E+00  0.00000000000E+00  0.45593999997E+02  0.45594000000E+02  0.51100000000E-03 0. -1.
         11   -1    0    0    0    0 -0.00000000000E+00 -0.00000000000E+00 -0.45593999997E+02  0.45594000000E+02  0.51100000000E-03 0.  1.
    9900012    2    1    2    0    0 -0.18469611869E+02  0.40144565051E+02 -0.87407554069E+01  0.46142317956E+02  0.10000001775E+02 0.  0.
        -12    1    1    2    0    0  0.18469611869E+02 -0.40144565051E+02  0.87407554069E+01  0.45045682044E+02  0.00000000000E+00 0.  1.
         11    1    3    3    0    0 -0.93033954242E+01  0.17887421633E+02 -0.18423062892E+01  0.20246162892E+02  0.51100000000E-03 0. -1.
        -11    1    3    3    0    0 -0.72426440495E+01  0.10891785145E+02 -0.58277308841E+01  0.14319543428E+02  0.51100000000E-03 0.  1.
        -12    1    3    3    0    0 -0.19235723954E+01  0.11365358273E+02 -0.10707182336E+01  0.11576611636E+02  0.00000000000E+00 0.  1.
</event>
<event>
 7    1  0.3435408E-009  0.4614232E+02  0.7816164E-02  0.1320468E+00
        -11   -1    0    0    0    0  0.00000000000E+00  0.00000000000E+00  0.45593999997E+02  0.45594000000E+02  0.51100000000E-03 0.  1.
         11   -1    0    0    0    0 -0.00000000000E+00 -0.00000000000E+00 -0.45593999997E+02  0.45594000000E+02  0.51100000000E-03 0. -1.
    9900012    2    1    2    0    0 -0.17886748488E+02 -0.85150558695E+01 -0.40455796813E+02  0.46142318257E+02  0.10000004520E+02 0.  0.
        -12    1    1    2    0    0  0.17886748488E+02  0.85150558695E+01  0.40455796813E+02  0.45045681743E+02  0.00000000000E+00 0.  1.
         11    1    3    3    0    0 -0.98247567513E+01 -0.45047862122E+01 -0.16766828655E+02  0.19948571062E+02  0.51100000000E-03 0. -1.
        -11    1    3    3    0    0 -0.33306462625E+01 -0.32152732900E+01 -0.18730755468E+02  0.19294361547E+02  0.51100000000E-03 0.  1.
        -12    1    3    3    0    0 -0.47313454745E+01 -0.79499636723E+00 -0.49582126903E+01  0.68993856470E+01  0.00000000000E+00 0.  1.
</event>
<event>
 7    1  0.3435408E-009  0.4614232E+02  0.7816164E-02  0.1320468E+00
        -11   -1    0    0    0    0  0.00000000000E+00  0.00000000000E+00  0.45593999997E+02  0.45594000000E+02  0.51100000000E-03 0. -1.
         11   -1    0    0    0    0 -0.00000000000E+00 -0.00000000000E+00 -0.45593999997E+02  0.45594000000E+02  0.51100000000E-03 0.  1.
    9900012    2    1    2    0    0  0.12722501736E+02  0.23035345674E+02  0.36559873244E+02  0.46142317273E+02  0.99999955501E+01 0.  0.
        -12    1    1    2    0    0 -0.12722501736E+02 -0.23035345674E+02 -0.36559873244E+02  0.45045682727E+02  0.00000000000E+00 0.  1.
         11    1    3    3    0    0  0.76298621773E+01  0.89264631460E+01  0.12702406546E+02  0.17298776646E+02  0.51100000000E-03 0. -1.
        -11    1    3    3    0    0  0.67860895801E+00  0.31878639712E+01  0.15325444337E+01  0.36016217901E+01  0.51100000000E-03 0.  1.
         12    1    3    3    0    0  0.44140306005E+01  0.10921018557E+02  0.22324922264E+02  0.25241918837E+02  0.00000000000E+00 0. -1.
</event>
<event>
 7    1  0.3531397E-009  0.4614232E+02  0.7816164E-02  0.1320468E+00
        -11   -1    0    0    0    0  0.00000000000E+00  0.00000000000E+00  0.45593999997E+02  0.45594000000E+02  0.51100000000E-03 0. -1.
         11   -1    0    0    0    0 -0.00000000000E+00 -0.00000000000E+00 -0.45593999997E+02  0.45594000000E+02  0.51100000000E-03 0.  1.
    9900012    2    1    2    0    0 -0.72043104853E+00  0.35781047708E+02  0.27355276203E+02  0.46142317276E+02  0.99999955725E+01 0.  0.
        -12    1    1    2    0    0  0.72043104853E+00 -0.35781047708E+02 -0.27355276203E+02  0.45045682724E+02  0.00000000000E+00 0.  1.
         11    1    3    3    0    0 -0.25269803674E+01  0.14556246281E+02  0.13976756830E+02  0.20337641636E+02  0.51100000000E-03 0. -1.
        -11    1    3    3    0    0  0.31306491394E+00 -0.42988268877E-01 -0.33057514159E+00  0.45731588313E+00  0.51100000000E-03 0.  1.
         12    1    3    3    0    0  0.14934844049E+01  0.21267789696E+02  0.13709094514E+02  0.25347359756E+02  0.00000000000E+00 0. -1.
</event>
<event>
 7    1  0.3435408E-009  0.4614232E+02  0.7816164E-02  0.1320468E+00
        -11   -1    0    0    0    0  0.00000000000E+00  0.00000000000E+00  0.45593999997E+02  0.45594000000E+02  0.51100000000E-03 0.  1.
         11   -1    0    0    0    0 -0.00000000000E+00 -0.00000000000E+00 -0.45593999997E+02  0.45594000000E+02  0.51100000000E-03 0. -1.
    9900012    2    1    2    0    0  0.98527723772E+01 -0.75107699357E+01 -0.43308477908E+02  0.46142322658E+02  0.10000044653E+02 0.  0.
        -12    1    1    2    0    0 -0.98527723772E+01  0.75107699357E+01  0.43308477908E+02  0.45045677342E+02  0.00000000000E+00 0.  1.
         11    1    3    3    0    0  0.58461548949E+01 -0.33609325526E+01 -0.12371618359E+02  0.14090079338E+02  0.51100000000E-03 0. -1.
        -11    1    3    3    0    0  0.54391816981E+01 -0.41987277401E+01 -0.23758612753E+02  0.24732280372E+02  0.51100000000E-03 0.  1.
        -12    1    3    3    0    0 -0.14325642158E+01  0.48890356908E-01 -0.71782467952E+01  0.73199629475E+01  0.00000000000E+00 0.  1.
</event>
<event>
 7    1  0.3435408E-009  0.4614232E+02  0.7816164E-02  0.1320468E+00
        -11   -1    0    0    0    0  0.00000000000E+00  0.00000000000E+00  0.45593999997E+02  0.45594000000E+02  0.51100000000E-03 0.  1.
         11   -1    0    0    0    0 -0.00000000000E+00 -0.00000000000E+00 -0.45593999997E+02  0.45594000000E+02  0.51100000000E-03 0. -1.
    9900012    2    1    2    0    0 -0.50342364523E+01  0.51817330471E+01 -0.44462564026E+02  0.46142317701E+02  0.99999994501E+01 0.  0.
        -12    1    1    2    0    0  0.50342364523E+01 -0.51817330471E+01  0.44462564026E+02  0.45045682299E+02  0.00000000000E+00 0.  1.
         11    1    3    3    0    0 -0.42853465228E+00 -0.18123579135E+01 -0.77479223063E+01  0.79685998444E+01  0.51100000000E-03 0. -1.
        -11    1    3    3    0    0 -0.59061199087E+00 -0.11692812591E+01 -0.35507310143E+01  0.37846706837E+01  0.51100000000E-03 0.  1.
         12    1    3    3    0    0 -0.40150898091E+01  0.81633722196E+01 -0.33163910705E+02  0.34389047173E+02  0.00000000000E+00 0. -1.
</event>
<event>
 7    1  0.3435408E-009  0.4614232E+02  0.7816164E-02  0.1320468E+00
        -11   -1    0    0    0    0  0.00000000000E+00  0.00000000000E+00  0.45593999997E+02  0.45594000000E+02  0.51100000000E-03 0.  1.
         11   -1    0    0    0    0 -0.00000000000E+00 -0.00000000000E+00 -0.45593999997E+02  0.45594000000E+02  0.51100000000E-03 0. -1.
    9900012    2    1    2    0    0  0.21766239483E+02  0.24944260161E+02 -0.30547147216E+02  0.46142317641E+02  0.99999989014E+01 0.  0.
        -12    1    1    2    0    0 -0.21766239483E+02 -0.24944260161E+02  0.30547147216E+02  0.45045682359E+02  0.00000000000E+00 0.  1.
         11    1    3    3    0    0  0.16647571052E+02  0.12856122280E+02 -0.17432841927E+02  0.27318958251E+02  0.51100000000E-03 0. -1.
        -11    1    3    3    0    0 -0.39481182286E+00  0.15617005976E+01 -0.17994587475E+01  0.24151267414E+01  0.51100000000E-03 0.  1.
         12    1    3    3    0    0  0.55134802545E+01  0.10526437283E+02 -0.11314846541E+02  0.16408232649E+02  0.00000000000E+00 0. -1.
</event>
<event>
 7    1  0.3435408E-009  0.4614232E+02  0.7816164E-02  0.1320468E+00
        -11   -1    0    0    0    0  0.00000000000E+00  0.00000000000E+00  0.45593999997E+02  0.45594000000E+02  0.51100000000E-03 0.  1.
         11   -1    0    0    0    0 -0.00000000000E+00 -0.00000000000E+00 -0.45593999997E+02  0.45594000000E+02  0.51100000000E-03 0. -1.
    9900012    2    1    2    0    0 -0.11335207692E+02 -0.92760804201E+01 -0.42597896995E+02  0.46142318411E+02  0.10000005928E+02 0.  0.
        -12    1    1    2    0    0  0.11335207692E+02  0.92760804201E+01  0.42597896995E+02  0.45045681589E+02  0.00000000000E+00 0.  1.
         11    1    3    3    0    0 -0.66694912866E+01 -0.21620948897E+01 -0.28386779444E+02  0.29239801911E+02  0.51100000000E-03 0. -1.
        -11    1    3    3    0    0 -0.35523041561E+01 -0.27276902595E+01 -0.55624001483E+01  0.71413902456E+01  0.51100000000E-03 0.  1.
         12    1    3    3    0    0 -0.11134122493E+01 -0.43862952709E+01 -0.86487174027E+01  0.97611262543E+01  0.00000000000E+00 0. -1.
</event>
<event>
 7    1  0.3435408E-009  0.4614232E+02  0.7816164E-02  0.1320468E+00
        -11   -1    0    0    0    0  0.00000000000E+00  0.00000000000E+00  0.45593999997E+02  0.45594000000E+02  0.51100000000E-03 0.  1.
         11   -1    0    0    0    0 -0.00000000000E+00 -0.00000000000E+00 -0.45593999997E+02  0.45594000000E+02  0.51100000000E-03 0. -1.
    9900012    2    1    2    0    0  0.31159736335E+01 -0.19727295717E+02 -0.40376205828E+02  0.46142317798E+02  0.10000000336E+02 0.  0.
        -12    1    1    2    0    0 -0.31159736335E+01  0.19727295717E+02  0.40376205828E+02  0.45045682202E+02  0.00000000000E+00 0.  1.
         11    1    3    3    0    0  0.15788498240E+01 -0.13291908851E+02 -0.22546521525E+02  0.26220473696E+02  0.51100000000E-03 0. -1.
        -11    1    3    3    0    0  0.34804366098E+01 -0.42619136324E+01 -0.14428152612E+02  0.15441791828E+02  0.51100000000E-03 0.  1.
         12    1    3    3    0    0 -0.19433128003E+01 -0.21734732335E+01 -0.34015316902E+01  0.44800522738E+01  0.00000000000E+00 0. -1.
</event>
<event>
 7    1  0.3435408E-009  0.4614232E+02  0.7816164E-02  0.1320468E+00
        -11   -1    0    0    0    0  0.00000000000E+00  0.00000000000E+00  0.45593999997E+02  0.45594000000E+02  0.51100000000E-03 0.  1.
         11   -1    0    0    0    0 -0.00000000000E+00 -0.00000000000E+00 -0.45593999997E+02  0.45594000000E+02  0.51100000000E-03 0. -1.
    9900012    2    1    2    0    0 -0.11649317458E+01  0.34439342386E+02 -0.29011863461E+02  0.46142316617E+02  0.99999895683E+01 0.  0.
        -12    1    1    2    0    0  0.11649317458E+01 -0.34439342386E+02  0.29011863461E+02  0.45045683383E+02  0.00000000000E+00 0.  1.
         11    1    3    3    0    0 -0.29859308685E+01  0.43711858049E+01 -0.43837203982E+01  0.68731399872E+01  0.51100000000E-03 0. -1.
        -11    1    3    3    0    0 -0.68730279409E+00  0.16005782945E+02 -0.10353382119E+02  0.19074852407E+02  0.51100000000E-03 0.  1.
         12    1    3    3    0    0  0.25083019168E+01  0.14062373636E+02 -0.14274760945E+02  0.20194324222E+02  0.00000000000E+00 0. -1.
</event>
<event>
 7    1  0.3435408E-009  0.4614232E+02  0.7816164E-02  0.1320468E+00
        -11   -1    0    0    0    0  0.00000000000E+00  0.00000000000E+00  0.45593999997E+02  0.45594000000E+02  0.51100000000E-03 0.  1.
         11   -1    0    0    0    0 -0.00000000000E+00 -0.00000000000E+00 -0.45593999997E+02  0.45594000000E+02  0.51100000000E-03 0. -1.
    9900012    2    1    2    0    0 -0.21210202847E+02 -0.33110534860E+02 -0.21975742980E+02  0.46142317599E+02  0.99999985186E+01 0.  0.
        -12    1    1    2    0    0  0.21210202847E+02  0.33110534860E+02  0.21975742980E+02  0.45045682401E+02  0.00000000000E+00 0.  1.
         11    1    3    3    0    0 -0.46920670343E+01 -0.92394637473E+01 -0.81324662288E+01  0.13172706275E+02  0.51100000000E-03 0. -1.
        -11    1    3    3    0    0 -0.38394243220E+00 -0.53133346924E+01 -0.26893319411E+01  0.59675324797E+01  0.51100000000E-03 0.  1.
        -12    1    3    3    0    0 -0.16134193380E+02 -0.18557736420E+02 -0.11153944810E+02  0.27002078844E+02  0.00000000000E+00 0.  1.
</event>
<event>
 7    1  0.3435408E-009  0.4614232E+02  0.7816164E-02  0.1320468E+00
        -11   -1    0    0    0    0  0.00000000000E+00  0.00000000000E+00  0.45593999997E+02  0.45594000000E+02  0.51100000000E-03 0.  1.
         11   -1    0    0    0    0 -0.00000000000E+00 -0.00000000000E+00 -0.45593999997E+02  0.45594000000E+02  0.51100000000E-03 0. -1.
    9900012    2    1    2    0    0 -0.40270568722E+02 -0.67561717853E+01 -0.19019698388E+02  0.46142317753E+02  0.99999999216E+01 0.  0.
        -12    1    1    2    0    0  0.40270568722E+02  0.67561717853E+01  0.19019698388E+02  0.45045682247E+02  0.00000000000E+00 0.  1.
         11    1    3    3    0    0 -0.25218221492E+02 -0.12865487579E+01 -0.84633487322E+01  0.26631601058E+02  0.51100000000E-03 0. -1.
        -11    1    3    3    0    0 -0.50989534034E+01 -0.17616580856E+00 -0.38684222698E+01  0.64027377988E+01  0.51100000000E-03 0.  1.
         12    1    3    3    0    0 -0.99533938268E+01 -0.52934572189E+01 -0.66879273861E+01  0.13107978895E+02  0.00000000000E+00 0. -1.
</event>
<event>
 7    1  0.3435408E-009  0.4614232E+02  0.7816164E-02  0.1320468E+00
        -11   -1    0    0    0    0  0.00000000000E+00  0.00000000000E+00  0.45593999997E+02  0.45594000000E+02  0.51100000000E-03 0.  1.
         11   -1    0    0    0    0 -0.00000000000E+00 -0.00000000000E+00 -0.45593999997E+02  0.45594000000E+02  0.51100000000E-03 0. -1.
    9900012    2    1    2    0    0  0.18878134105E+02 -0.15214363614E+02 -0.37963828938E+02  0.46142321904E+02  0.10000037776E+02 0.  0.
        -12    1    1    2    0    0 -0.18878134105E+02  0.15214363614E+02  0.37963828938E+02  0.45045678096E+02  0.00000000000E+00 0.  1.
         11    1    3    3    0    0  0.11748376272E+02 -0.94620266731E+01 -0.17487491771E+02  0.23094732353E+02  0.51100000000E-03 0. -1.
        -11    1    3    3    0    0  0.64926891705E+01 -0.64666020164E+01 -0.19953269095E+02  0.21956887351E+02  0.51100000000E-03 0.  1.
         12    1    3    3    0    0  0.63706866282E+00  0.71426507516E+00 -0.52306807238E+00  0.10907021991E+01  0.00000000000E+00 0. -1.
</event>
<event>
 7    1  0.3435408E-009  0.4614232E+02  0.7816164E-02  0.1320468E+00
        -11   -1    0    0    0    0  0.00000000000E+00  0.00000000000E+00  0.45593999997E+02  0.45594000000E+02  0.51100000000E-03 0.  1.
         11   -1    0    0    0    0 -0.00000000000E+00 -0.00000000000E+00 -0.45593999997E+02  0.45594000000E+02  0.51100000000E-03 0. -1.
    9900012    2    1    2    0    0  0.38680744524E+02 -0.14437484784E+02 -0.18013113128E+02  0.46142320869E+02  0.10000028339E+02 0.  0.
        -12    1    1    2    0    0 -0.38680744524E+02  0.14437484784E+02  0.18013113128E+02  0.45045679131E+02  0.00000000000E+00 0.  1.
         11    1    3    3    0    0  0.10281114999E+02 -0.24300301416E+01 -0.88798189660E+01  0.13800636118E+02  0.51100000000E-03 0. -1.
        -11    1    3    3    0    0  0.57838152817E+01 -0.23663358529E+01 -0.43906178178E+00  0.62645702240E+01  0.51100000000E-03 0.  1.
         12    1    3    3    0    0  0.22615814243E+02 -0.96411187893E+01 -0.86942323800E+01  0.26077114527E+02  0.00000000000E+00 0. -1.
</event>
<event>
 7    1  0.3435408E-009  0.4614232E+02  0.7816164E-02  0.1320468E+00
        -11   -1    0    0    0    0  0.00000000000E+00  0.00000000000E+00  0.45593999997E+02  0.45594000000E+02  0.51100000000E-03 0. -1.
         11   -1    0    0    0    0 -0.00000000000E+00 -0.00000000000E+00 -0.45593999997E+02  0.45594000000E+02  0.51100000000E-03 0.  1.
    9900012    2    1    2    0    0 -0.14563695479E+02  0.42499413466E+02  0.32881732680E+01  0.46142318138E+02  0.10000003438E+02 0.  0.
        -12    1    1    2    0    0  0.14563695479E+02 -0.42499413466E+02 -0.32881732680E+01  0.45045681862E+02  0.00000000000E+00 0.  1.
         11    1    3    3    0    0 -0.13994698349E+02  0.32445554904E+02  0.38115224318E+01  0.35540024176E+02  0.51100000000E-03 0. -1.
        -11    1    3    3    0    0 -0.71987425737E+00  0.41406595256E+01 -0.17648520708E+01  0.45582873260E+01  0.51100000000E-03 0.  1.
         12    1    3    3    0    0  0.15087712736E+00  0.59131990365E+01  0.12415029069E+01  0.60440066364E+01  0.00000000000E+00 0. -1.
</event>
<event>
 7    1  0.3435408E-009  0.4614232E+02  0.7816164E-02  0.1320468E+00
        -11   -1    0    0    0    0  0.00000000000E+00  0.00000000000E+00  0.45593999997E+02  0.45594000000E+02  0.51100000000E-03 0. -1.
         11   -1    0    0    0    0 -0.00000000000E+00 -0.00000000000E+00 -0.45593999997E+02  0.45594000000E+02  0.51100000000E-03 0.  1.
    9900012    2    1    2    0    0  0.38017809656E+02  0.17187003838E+02  0.16981359778E+02  0.46142317278E+02  0.99999955988E+01 0.  0.
        -12    1    1    2    0    0 -0.38017809656E+02 -0.17187003838E+02 -0.16981359778E+02  0.45045682722E+02  0.00000000000E+00 0.  1.
         11    1    3    3    0    0  0.15042731987E+02  0.33324095077E+01  0.89928972426E+01  0.17839869390E+02  0.51100000000E-03 0. -1.
        -11    1    3    3    0    0  0.88180714655E+00 -0.27780862524E+00  0.30264523464E+00  0.97280824171E+00  0.51100000000E-03 0.  1.
         12    1    3    3    0    0  0.22093270522E+02  0.14132402956E+02  0.76858173004E+01  0.27329639647E+02  0.00000000000E+00 0. -1.
</event>
<event>
 7    1  0.3435408E-009  0.4614232E+02  0.7816164E-02  0.1320468E+00
        -11   -1    0    0    0    0  0.00000000000E+00  0.00000000000E+00  0.45593999997E+02  0.45594000000E+02  0.51100000000E-03 0.  1.
         11   -1    0    0    0    0 -0.00000000000E+00 -0.00000000000E+00 -0.45593999997E+02  0.45594000000E+02  0.51100000000E-03 0. -1.
    9900012    2    1    2    0    0 -0.41306182842E+02  0.11723994025E+02 -0.13618398512E+02  0.46142317022E+02  0.99999932629E+01 0.  0.
        -12    1    1    2    0    0  0.41306182842E+02 -0.11723994025E+02  0.13618398512E+02  0.45045682978E+02  0.00000000000E+00 0.  1.
         11    1    3    3    0    0 -0.15900739449E+02  0.36937170067E+01 -0.43343877138E+01  0.16889759544E+02  0.51100000000E-03 0. -1.
        -11    1    3    3    0    0 -0.24523578426E+02  0.76651969480E+01 -0.67804221823E+01  0.26573205834E+02  0.51100000000E-03 0.  1.
        -12    1    3    3    0    0 -0.88186496837E+00  0.36508006999E+00 -0.25035886157E+01  0.26793516448E+01  0.00000000000E+00 0.  1.
</event>
<event>
 7    1  0.3435408E-009  0.4614232E+02  0.7816164E-02  0.1320468E+00
        -11   -1    0    0    0    0  0.00000000000E+00  0.00000000000E+00  0.45593999997E+02  0.45594000000E+02  0.51100000000E-03 0.  1.
         11   -1    0    0    0    0 -0.00000000000E+00 -0.00000000000E+00 -0.45593999997E+02  0.45594000000E+02  0.51100000000E-03 0. -1.
    9900012    2    1    2    0    0  0.24363634594E+02 -0.26833815692E+02 -0.26748329698E+02  0.46142317667E+02  0.99999991423E+01 0.  0.
        -12    1    1    2    0    0 -0.24363634594E+02  0.26833815692E+02  0.26748329698E+02  0.45045682333E+02  0.00000000000E+00 0.  1.
         11    1    3    3    0    0  0.12755294113E+02 -0.12242280135E+02 -0.14595882771E+02  0.22926202149E+02  0.51100000000E-03 0. -1.
        -11    1    3    3    0    0  0.32895998962E+01 -0.38881429925E+01 -0.12644647668E+00  0.50946160188E+01  0.51100000000E-03 0.  1.
        -12    1    3    3    0    0  0.83187405851E+01 -0.10703392564E+02 -0.12026000450E+02  0.18121499500E+02  0.00000000000E+00 0.  1.
</event>
<event>
 7    1  0.3435408E-009  0.4614232E+02  0.7816164E-02  0.1320468E+00
        -11   -1    0    0    0    0  0.00000000000E+00  0.00000000000E+00  0.45593999997E+02  0.45594000000E+02  0.51100000000E-03 0.  1.
         11   -1    0    0    0    0 -0.00000000000E+00 -0.00000000000E+00 -0.45593999997E+02  0.45594000000E+02  0.51100000000E-03 0. -1.
    9900012    2    1    2    0    0  0.10822618342E+02 -0.55609644719E+01 -0.43371189291E+02  0.46142318141E+02  0.10000003468E+02 0.  0.
        -12    1    1    2    0    0 -0.10822618342E+02  0.55609644719E+01  0.43371189291E+02  0.45045681859E+02  0.00000000000E+00 0.  1.
         11    1    3    3    0    0  0.72817370952E+01  0.91869911760E+00 -0.16387755088E+02  0.17956230681E+02  0.51100000000E-03 0. -1.
        -11    1    3    3    0    0  0.40771102699E+01 -0.59476599440E+01 -0.22155900256E+02  0.23299815523E+02  0.51100000000E-03 0.  1.
         12    1    3    3    0    0 -0.53622902355E+00 -0.53200364551E+00 -0.48275339464E+01  0.48862719376E+01  0.00000000000E+00 0. -1.
</event>
<event>
 7    1  0.3435408E-009  0.4614232E+02  0.7816164E-02  0.1320468E+00
        -11   -1    0    0    0    0  0.00000000000E+00  0.00000000000E+00  0.45593999997E+02  0.45594000000E+02  0.51100000000E-03 0. -1.
         11   -1    0    0    0    0 -0.00000000000E+00 -0.00000000000E+00 -0.45593999997E+02  0.45594000000E+02  0.51100000000E-03 0.  1.
    9900012    2    1    2    0    0  0.37098224036E+02  0.25463924545E+02 -0.21033142566E+01  0.46142316403E+02  0.99999876124E+01 0.  0.
        -12    1    1    2    0    0 -0.37098224036E+02 -0.25463924545E+02  0.21033142566E+01  0.45045683597E+02  0.00000000000E+00 0.  1.
         11    1    3    3    0    0  0.18616802086E+02  0.11777831177E+02  0.18651731146E+01  0.22108403338E+02  0.51100000000E-03 0. -1.
        -11    1    3    3    0    0  0.37914059108E+01  0.37317748081E+00 -0.13244397714E+01  0.40333808625E+01  0.51100000000E-03 0.  1.
         12    1    3    3    0    0  0.14690016040E+02  0.13312915887E+02 -0.26440475998E+01  0.20000532202E+02  0.00000000000E+00 0. -1.
</event>
<event>
 7    1  0.3435408E-009  0.4614232E+02  0.7816164E-02  0.1320468E+00
        -11   -1    0    0    0    0  0.00000000000E+00  0.00000000000E+00  0.45593999997E+02  0.45594000000E+02  0.51100000000E-03 0.  1.
         11   -1    0    0    0    0 -0.00000000000E+00 -0.00000000000E+00 -0.45593999997E+02  0.45594000000E+02  0.51100000000E-03 0. -1.
    9900012    2    1    2    0    0 -0.44788758368E+02 -0.47864237282E+01 -0.41337022260E+00  0.46142316486E+02  0.99999883749E+01 0.  0.
        -12    1    1    2    0    0  0.44788758368E+02  0.47864237282E+01  0.41337022260E+00  0.45045683514E+02  0.00000000000E+00 0.  1.
         11    1    3    3    0    0 -0.99905984654E+01 -0.19922556875E+01  0.20155091583E+01  0.10384768551E+02  0.51100000000E-03 0. -1.
        -11    1    3    3    0    0 -0.10206587070E+02  0.25131124972E+01 -0.10092451397E+01  0.10559769413E+02  0.51100000000E-03 0.  1.
         12    1    3    3    0    0 -0.24591572832E+02 -0.53072805378E+01 -0.14196342412E+01  0.25197778522E+02  0.00000000000E+00 0. -1.
</event>
<event>
 7    1  0.3435408E-009  0.4614232E+02  0.7816164E-02  0.1320468E+00
        -11   -1    0    0    0    0  0.00000000000E+00  0.00000000000E+00  0.45593999997E+02  0.45594000000E+02  0.51100000000E-03 0. -1.
         11   -1    0    0    0    0 -0.00000000000E+00 -0.00000000000E+00 -0.45593999997E+02  0.45594000000E+02  0.51100000000E-03 0.  1.
    9900012    2    1    2    0    0 -0.28113715267E+02 -0.22541997003E+02  0.27029445899E+02  0.46142316960E+02  0.99999926905E+01 0.  0.
        -12    1    1    2    0    0  0.28113715267E+02  0.22541997003E+02 -0.27029445899E+02  0.45045683040E+02  0.00000000000E+00 0.  1.
         11    1    3    3    0    0 -0.88934260405E+01 -0.11110063553E+02  0.10575147866E+02  0.17730208446E+02  0.51100000000E-03 0. -1.
        -11    1    3    3    0    0 -0.66780598798E+00 -0.24013450518E+01  0.22891403564E+01  0.33841670656E+01  0.51100000000E-03 0.  1.
         12    1    3    3    0    0 -0.18552483238E+02 -0.90305883984E+01  0.14165157677E+02  0.25027941448E+02  0.00000000000E+00 0. -1.
</event>
<event>
 7    1  0.3435408E-009  0.4614232E+02  0.7816164E-02  0.1320468E+00
        -11   -1    0    0    0    0  0.00000000000E+00  0.00000000000E+00  0.45593999997E+02  0.45594000000E+02  0.51100000000E-03 0.  1.
         11   -1    0    0    0    0 -0.00000000000E+00 -0.00000000000E+00 -0.45593999997E+02  0.45594000000E+02  0.51100000000E-03 0. -1.
    9900012    2    1    2    0    0 -0.14516519749E+02 -0.64094533440E+01 -0.42158072349E+02  0.46142317610E+02  0.99999986246E+01 0.  0.
        -12    1    1    2    0    0  0.14516519749E+02  0.64094533440E+01  0.42158072349E+02  0.45045682390E+02  0.00000000000E+00 0.  1.
         11    1    3    3    0    0 -0.55077552603E+01 -0.42444788007E+01 -0.21466698930E+02  0.22564798503E+02  0.51100000000E-03 0. -1.
        -11    1    3    3    0    0  0.10352948888E+01 -0.45248157531E-01 -0.20214470097E+01  0.22715922118E+01  0.51100000000E-03 0.  1.
        -12    1    3    3    0    0 -0.10044059378E+02 -0.21197263858E+01 -0.18669926409E+02  0.21305926895E+02  0.00000000000E+00 0.  1.
</event>
<event>
 7    1  0.3435408E-009  0.4614232E+02  0.7816164E-02  0.1320468E+00
        -11   -1    0    0    0    0  0.00000000000E+00  0.00000000000E+00  0.45593999997E+02  0.45594000000E+02  0.51100000000E-03 0. -1.
         11   -1    0    0    0    0 -0.00000000000E+00 -0.00000000000E+00 -0.45593999997E+02  0.45594000000E+02  0.51100000000E-03 0.  1.
    9900012    2    1    2    0    0 -0.28696618174E+02 -0.17144671634E+02  0.30194003438E+02  0.46142317591E+02  0.99999984508E+01 0.  0.
        -12    1    1    2    0    0  0.28696618174E+02  0.17144671634E+02 -0.30194003438E+02  0.45045682409E+02  0.00000000000E+00 0.  1.
         11    1    3    3    0    0 -0.76680196986E+01 -0.94097699674E+01  0.80551920651E+01  0.14568061518E+02  0.51100000000E-03 0.  1.
        -11    1    3    3    0    0 -0.16428995737E+02 -0.50569762028E+01  0.16832763918E+02  0.24058820641E+02  0.51100000000E-03 0. -1.
        -12    1    3    3    0    0 -0.45996027383E+01 -0.26779254643E+01  0.53060474548E+01  0.75154354322E+01  0.00000000000E+00 0.  1.
</event>
<event>
 7    1  0.3435408E-009  0.4614232E+02  0.7816164E-02  0.1320468E+00
        -11   -1    0    0    0    0  0.00000000000E+00  0.00000000000E+00  0.45593999997E+02  0.45594000000E+02  0.51100000000E-03 0.  1.
         11   -1    0    0    0    0 -0.00000000000E+00 -0.00000000000E+00 -0.45593999997E+02  0.45594000000E+02  0.51100000000E-03 0. -1.
    9900012    2    1    2    0    0 -0.20813781378E+02 -0.35518379501E+02 -0.18285100253E+02  0.46142315758E+02  0.99999817325E+01 0.  0.
        -12    1    1    2    0    0  0.20813781378E+02  0.35518379501E+02  0.18285100253E+02  0.45045684242E+02  0.00000000000E+00 0.  1.
         11    1    3    3    0    0 -0.46219079430E+01 -0.93523489751E+01 -0.41959210904E+01  0.11244297152E+02  0.51100000000E-03 0. -1.
        -11    1    3    3    0    0 -0.10402872684E+02 -0.88126960168E+01 -0.60704599193E+01  0.14924270671E+02  0.51100000000E-03 0.  1.
        -12    1    3    3    0    0 -0.57890007505E+01 -0.17353334509E+02 -0.80187192428E+01  0.19973747935E+02  0.00000000000E+00 0.  1.
</event>
<event>
 7    1  0.3435408E-009  0.4614232E+02  0.7816164E-02  0.1320468E+00
        -11   -1    0    0    0    0  0.00000000000E+00  0.00000000000E+00  0.45593999997E+02  0.45594000000E+02  0.51100000000E-03 0. -1.
         11   -1    0    0    0    0 -0.00000000000E+00 -0.00000000000E+00 -0.45593999997E+02  0.45594000000E+02  0.51100000000E-03 0.  1.
    9900012    2    1    2    0    0 -0.10492759512E+01 -0.12561026392E+02  0.43246191776E+02  0.46142317996E+02  0.10000002142E+02 0.  0.
        -12    1    1    2    0    0  0.10492759512E+01  0.12561026392E+02 -0.43246191776E+02  0.45045682004E+02  0.00000000000E+00 0.  1.
         11    1    3    3    0    0  0.57704387463E+00 -0.12350906517E+02  0.27681350051E+02  0.30317239524E+02  0.51100000000E-03 0. -1.
        -11    1    3    3    0    0 -0.83917681871E+00 -0.97100345312E+00  0.12588987169E+02  0.12654235008E+02  0.51100000000E-03 0.  1.
         12    1    3    3    0    0 -0.78714300717E+00  0.76088357824E+00  0.29758545569E+01  0.31708434646E+01  0.00000000000E+00 0. -1.
</event>
<event>
 7    1  0.3435408E-009  0.4614232E+02  0.7816164E-02  0.1320468E+00
        -11   -1    0    0    0    0  0.00000000000E+00  0.00000000000E+00  0.45593999997E+02  0.45594000000E+02  0.51100000000E-03 0.  1.
         11   -1    0    0    0    0 -0.00000000000E+00 -0.00000000000E+00 -0.45593999997E+02  0.45594000000E+02  0.51100000000E-03 0. -1.
    9900012    2    1    2    0    0  0.86199652772E+01  0.21299931726E+02 -0.38744323734E+02  0.46142317471E+02  0.99999973517E+01 0.  0.
        -12    1    1    2    0    0 -0.86199652772E+01 -0.21299931726E+02  0.38744323734E+02  0.45045682529E+02  0.00000000000E+00 0.  1.
         11    1    3    3    0    0  0.28268417629E+01  0.70178137553E+01 -0.18307745174E+02  0.19809449206E+02  0.51100000000E-03 0. -1.
        -11    1    3    3    0    0 -0.35536863035E-01 -0.49435942007E+00 -0.64279635500E-01  0.49978619179E+00  0.51100000000E-03 0.  1.
         12    1    3    3    0    0  0.58286603774E+01  0.14776477390E+02 -0.20372298925E+02  0.25833082072E+02  0.00000000000E+00 0. -1.
</event>
<event>
 7    1  0.3435408E-009  0.4614232E+02  0.7816164E-02  0.1320468E+00
        -11   -1    0    0    0    0  0.00000000000E+00  0.00000000000E+00  0.45593999997E+02  0.45594000000E+02  0.51100000000E-03 0.  1.
         11   -1    0    0    0    0 -0.00000000000E+00 -0.00000000000E+00 -0.45593999997E+02  0.45594000000E+02  0.51100000000E-03 0. -1.
    9900012    2    1    2    0    0  0.34957593362E+02 -0.67893856954E+01 -0.27585946358E+02  0.46142317318E+02  0.99999959629E+01 0.  0.
        -12    1    1    2    0    0 -0.34957593362E+02  0.67893856954E+01  0.27585946358E+02  0.45045682682E+02  0.00000000000E+00 0.  1.
         11    1    3    3    0    0  0.10674874559E+02 -0.54012215566E+01 -0.10299769181E+02  0.15786430457E+02  0.51100000000E-03 0. -1.
        -11    1    3    3    0    0  0.34822165233E+01  0.91606440709E+00 -0.73675086634E+00  0.36752969966E+01  0.51100000000E-03 0.  1.
        -12    1    3    3    0    0  0.20800502280E+02 -0.23042285459E+01 -0.16549426311E+02  0.26680589864E+02  0.00000000000E+00 0.  1.
</event>
<event>
 7    1  0.3435408E-009  0.4614232E+02  0.7816164E-02  0.1320468E+00
        -11   -1    0    0    0    0  0.00000000000E+00  0.00000000000E+00  0.45593999997E+02  0.45594000000E+02  0.51100000000E-03 0. -1.
         11   -1    0    0    0    0 -0.00000000000E+00 -0.00000000000E+00 -0.45593999997E+02  0.45594000000E+02  0.51100000000E-03 0.  1.
    9900012    2    1    2    0    0 -0.34352271635E+02  0.25575297142E+02  0.13962057647E+02  0.46142318252E+02  0.10000004480E+02 0.  0.
        -12    1    1    2    0    0  0.34352271635E+02 -0.25575297142E+02 -0.13962057647E+02  0.45045681748E+02  0.00000000000E+00 0.  1.
         11    1    3    3    0    0 -0.62925610333E+01  0.35876206454E+01 -0.10371023709E+01  0.73173033176E+01  0.51100000000E-03 0. -1.
        -11    1    3    3    0    0 -0.63782942890E+01  0.68490182028E+01  0.35598732706E+01  0.10013210591E+02  0.51100000000E-03 0.  1.
         12    1    3    3    0    0 -0.21681416312E+02  0.15138658294E+02  0.11439286747E+02  0.28811804344E+02  0.00000000000E+00 0. -1.
</event>
<event>
 7    1  0.3435408E-009  0.4614232E+02  0.7816164E-02  0.1320468E+00
        -11   -1    0    0    0    0  0.00000000000E+00  0.00000000000E+00  0.45593999997E+02  0.45594000000E+02  0.51100000000E-03 0. -1.
         11   -1    0    0    0    0 -0.00000000000E+00 -0.00000000000E+00 -0.45593999997E+02  0.45594000000E+02  0.51100000000E-03 0.  1.
    9900012    2    1    2    0    0 -0.20414988481E+01 -0.76388957847E+01  0.44346286128E+02  0.46142317191E+02  0.99999948009E+01 0.  0.
        -12    1    1    2    0    0  0.20414988481E+01  0.76388957847E+01 -0.44346286128E+02  0.45045682809E+02  0.00000000000E+00 0.  1.
         11    1    3    3    0    0  0.25939785398E+01 -0.45796434003E+00  0.45833224784E+01  0.52863315450E+01  0.51100000000E-03 0. -1.
        -11    1    3    3    0    0  0.34099801009E+00 -0.13724749504E+01  0.11111755330E+02  0.11201387142E+02  0.51100000000E-03 0.  1.
         12    1    3    3    0    0 -0.49764753980E+01 -0.58084564943E+01  0.28651208320E+02  0.29654598504E+02  0.00000000000E+00 0. -1.
</event>
<event>
 7    1  0.3435408E-009  0.4614232E+02  0.7816164E-02  0.1320468E+00
        -11   -1    0    0    0    0  0.00000000000E+00  0.00000000000E+00  0.45593999997E+02  0.45594000000E+02  0.51100000000E-03 0. -1.
         11   -1    0    0    0    0 -0.00000000000E+00 -0.00000000000E+00 -0.45593999997E+02  0.45594000000E+02  0.51100000000E-03 0.  1.
    9900012    2    1    2    0    0  0.38809200182E+02 -0.49197727254E+01  0.22332830331E+02  0.46142317709E+02  0.99999995290E+01 0.  0.
        -12    1    1    2    0    0 -0.38809200182E+02  0.49197727254E+01 -0.22332830331E+02  0.45045682291E+02  0.00000000000E+00 0.  1.
         11    1    3    3    0    0  0.77855555458E+01  0.88818912180E+00  0.61228600323E+01  0.99445045281E+01  0.51100000000E-03 0.  1.
        -11    1    3    3    0    0  0.12429696845E+01 -0.18481164376E+01  0.45000739317E+00  0.22722268633E+01  0.51100000000E-03 0. -1.
         12    1    3    3    0    0  0.29780674951E+02 -0.39598454097E+01  0.15759962906E+02  0.33925586318E+02  0.00000000000E+00 0. -1.
</event>
<event>
 7    1  0.3435408E-009  0.4614232E+02  0.7816164E-02  0.1320468E+00
        -11   -1    0    0    0    0  0.00000000000E+00  0.00000000000E+00  0.45593999997E+02  0.45594000000E+02  0.51100000000E-03 0. -1.
         11   -1    0    0    0    0 -0.00000000000E+00 -0.00000000000E+00 -0.45593999997E+02  0.45594000000E+02  0.51100000000E-03 0.  1.
    9900012    2    1    2    0    0 -0.43767510878E+02  0.75534657856E+01  0.75142408119E+01  0.46142315758E+02  0.99999817361E+01 0.  0.
        -12    1    1    2    0    0  0.43767510878E+02 -0.75534657856E+01 -0.75142408119E+01  0.45045684242E+02  0.00000000000E+00 0.  1.
         11    1    3    3    0    0 -0.18133559448E+02 -0.55175030290E+00  0.47408352752E-01  0.18142013518E+02  0.51100000000E-03 0. -1.
        -11    1    3    3    0    0 -0.63555353490E+01  0.30766109380E+01  0.20982286634E+01  0.73662017500E+01  0.51100000000E-03 0.  1.
         12    1    3    3    0    0 -0.19278416080E+02  0.50286051506E+01  0.53686037958E+01  0.20634100490E+02  0.00000000000E+00 0. -1.
</event>
<event>
 7    1  0.3435408E-009  0.4614232E+02  0.7816164E-02  0.1320468E+00
        -11   -1    0    0    0    0  0.00000000000E+00  0.00000000000E+00  0.45593999997E+02  0.45594000000E+02  0.51100000000E-03 0.  1.
         11   -1    0    0    0    0 -0.00000000000E+00 -0.00000000000E+00 -0.45593999997E+02  0.45594000000E+02  0.51100000000E-03 0. -1.
    9900012    2    1    2    0    0  0.17193203759E+02  0.36226612859E+02 -0.20521688333E+02  0.46142318445E+02  0.10000006233E+02 0.  0.
        -12    1    1    2    0    0 -0.17193203759E+02 -0.36226612859E+02  0.20521688333E+02  0.45045681555E+02  0.00000000000E+00 0.  1.
         11    1    3    3    0    0  0.24821616936E+01  0.69738190229E+01 -0.29361764748E+00  0.74082042373E+01  0.51100000000E-03 0. -1.
        -11    1    3    3    0    0  0.33782893161E+01  0.39194095014E+01 -0.43522891581E+01  0.67614370307E+01  0.51100000000E-03 0.  1.
         12    1    3    3    0    0  0.11332752749E+02  0.25333384335E+02 -0.15875781527E+02  0.31972677177E+02  0.00000000000E+00 0. -1.
</event>
<event>
 7    1  0.3435408E-009  0.4614233E+02  0.7816164E-02  0.1320468E+00
        -11   -1    0    0    0    0  0.00000000000E+00  0.00000000000E+00  0.45593999997E+02  0.45594000000E+02  0.51100000000E-03 0.  1.
         11   -1    0    0    0    0 -0.00000000000E+00 -0.00000000000E+00 -0.45593999997E+02  0.45594000000E+02  0.51100000000E-03 0. -1.
    9900012    2    1    2    0    0  0.33374004863E+02 -0.52917058973E+01 -0.29787349549E+02  0.46142328232E+02  0.10000095479E+02 0.  0.
        -12    1    1    2    0    0 -0.33374004863E+02  0.52917058973E+01  0.29787349549E+02  0.45045671768E+02  0.00000000000E+00 0.  1.
         11    1    3    3    0    0  0.86571313069E+01 -0.11842664570E+01 -0.10935492291E+02  0.13997621277E+02  0.51100000000E-03 0. -1.
        -11    1    3    3    0    0  0.15994454976E+01  0.15556797863E+01 -0.14582431233E+01  0.26654903424E+01  0.51100000000E-03 0.  1.
         12    1    3    3    0    0  0.23117428059E+02 -0.56631192266E+01 -0.17393614134E+02  0.29479216612E+02  0.00000000000E+00 0. -1.
</event>
<event>
 7    1  0.3435408E-009  0.4614232E+02  0.7816164E-02  0.1320468E+00
        -11   -1    0    0    0    0  0.00000000000E+00  0.00000000000E+00  0.45593999997E+02  0.45594000000E+02  0.51100000000E-03 0. -1.
         11   -1    0    0    0    0 -0.00000000000E+00 -0.00000000000E+00 -0.45593999997E+02  0.45594000000E+02  0.51100000000E-03 0.  1.
    9900012    2    1    2    0    0  0.43466549582E+02  0.78167166360E+01  0.88696976916E+01  0.46142317314E+02  0.99999959241E+01 0.  0.
        -12    1    1    2    0    0 -0.43466549582E+02 -0.78167166360E+01 -0.88696976916E+01  0.45045682686E+02  0.00000000000E+00 0.  1.
         11    1    3    3    0    0  0.32017782586E+02  0.59266931524E+01  0.62678672968E+01  0.33159467037E+02  0.51100000000E-03 0. -1.
        -11    1    3    3    0    0  0.33763304668E+01 -0.48163353809E+00  0.30247838610E+01  0.45586067996E+01  0.51100000000E-03 0.  1.
         12    1    3    3    0    0  0.80724365288E+01  0.23716570217E+01 -0.42295346628E+00  0.84242434779E+01  0.00000000000E+00 0. -1.
</event>
<event>
 7    1  0.3435408E-009  0.4614232E+02  0.7816164E-02  0.1320468E+00
        -11   -1    0    0    0    0  0.00000000000E+00  0.00000000000E+00  0.45593999997E+02  0.45594000000E+02  0.51100000000E-03 0. -1.
         11   -1    0    0    0    0 -0.00000000000E+00 -0.00000000000E+00 -0.45593999997E+02  0.45594000000E+02  0.51100000000E-03 0.  1.
    9900012    2    1    2    0    0  0.36136809321E+02 -0.26271949125E+02  0.57471002776E+01  0.46142318072E+02  0.10000002836E+02 0.  0.
        -12    1    1    2    0    0 -0.36136809321E+02  0.26271949125E+02 -0.57471002776E+01  0.45045681928E+02  0.00000000000E+00 0.  1.
         11    1    3    3    0    0  0.76614572615E+01 -0.19286656977E+01  0.94960999629E+00  0.79573512019E+01  0.51100000000E-03 0. -1.
        -11    1    3    3    0    0  0.53557989695E+01 -0.20416633144E+01  0.20407029171E+00  0.57353828675E+01  0.51100000000E-03 0.  1.
         12    1    3    3    0    0  0.23119553090E+02 -0.22301620113E+02  0.45934199896E+01  0.32449584003E+02  0.00000000000E+00 0. -1.
</event>
<event>
 7    1  0.3435408E-009  0.4614232E+02  0.7816164E-02  0.1320468E+00
        -11   -1    0    0    0    0  0.00000000000E+00  0.00000000000E+00  0.45593999997E+02  0.45594000000E+02  0.51100000000E-03 0. -1.
         11   -1    0    0    0    0 -0.00000000000E+00 -0.00000000000E+00 -0.45593999997E+02  0.45594000000E+02  0.51100000000E-03 0.  1.
    9900012    2    1    2    0    0 -0.77475506784E+01  0.32749441832E+02  0.29942662124E+02  0.46142317667E+02  0.99999991379E+01 0.  0.
        -12    1    1    2    0    0  0.77475506784E+01 -0.32749441832E+02 -0.29942662124E+02  0.45045682333E+02  0.00000000000E+00 0.  1.
         11    1    3    3    0    0 -0.15093884114E+01  0.95656843061E+01  0.52022058769E+01  0.10992884784E+02  0.51100000000E-03 0. -1.
        -11    1    3    3    0    0 -0.48645883669E+01  0.16119553004E+02  0.21360262085E+02  0.27198621392E+02  0.51100000000E-03 0.  1.
        -12    1    3    3    0    0 -0.13735739000E+01  0.70642045225E+01  0.33801941616E+01  0.79508114909E+01  0.00000000000E+00 0.  1.
</event>
<event>
 7    1  0.3435408E-009  0.4614231E+02  0.7816164E-02  0.1320468E+00
        -11   -1    0    0    0    0  0.00000000000E+00  0.00000000000E+00  0.45593999997E+02  0.45594000000E+02  0.51100000000E-03 0. -1.
         11   -1    0    0    0    0 -0.00000000000E+00 -0.00000000000E+00 -0.45593999997E+02  0.45594000000E+02  0.51100000000E-03 0.  1.
    9900012    2    1    2    0    0  0.39618538717E+02  0.11707351429E+02  0.17956142603E+02  0.46142314916E+02  0.99999740554E+01 0.  0.
        -12    1    1    2    0    0 -0.39618538717E+02 -0.11707351429E+02 -0.17956142603E+02  0.45045685084E+02  0.00000000000E+00 0.  1.
         11    1    3    3    0    0  0.56930958290E+01 -0.11076571219E+01  0.10473380888E+01  0.58936543631E+01  0.51100000000E-03 0. -1.
        -11    1    3    3    0    0  0.58499674821E+01  0.21997523440E+01  0.11742051556E+01  0.63592285636E+01  0.51100000000E-03 0.  1.
         12    1    3    3    0    0  0.28075475406E+02  0.10615256207E+02  0.15734599358E+02  0.33889431989E+02  0.00000000000E+00 0. -1.
</event>
<event>
 7    1  0.3435408E-009  0.4614232E+02  0.7816164E-02  0.1320468E+00
        -11   -1    0    0    0    0  0.00000000000E+00  0.00000000000E+00  0.45593999997E+02  0.45594000000E+02  0.51100000000E-03 0. -1.
         11   -1    0    0    0    0 -0.00000000000E+00 -0.00000000000E+00 -0.45593999997E+02  0.45594000000E+02  0.51100000000E-03 0.  1.
    9900012    2    1    2    0    0  0.12287138331E+02 -0.40689756850E+02 -0.14915876946E+02  0.46142318010E+02  0.10000002267E+02 0.  0.
        -12    1    1    2    0    0 -0.12287138331E+02  0.40689756850E+02  0.14915876946E+02  0.45045681990E+02  0.00000000000E+00 0.  1.
         11    1    3    3    0    0  0.58687254838E+01 -0.16395663001E+02 -0.99915586095E+01  0.20077124987E+02  0.51100000000E-03 0. -1.
        -11    1    3    3    0    0  0.56620048898E+01 -0.12035750480E+02 -0.29769385486E+01  0.13630104635E+02  0.51100000000E-03 0.  1.
         12    1    3    3    0    0  0.75640795776E+00 -0.12258343369E+02 -0.19473797883E+01  0.12435088387E+02  0.00000000000E+00 0. -1.
</event>
<event>
 7    1  0.3435408E-009  0.4614232E+02  0.7816164E-02  0.1320468E+00
        -11   -1    0    0    0    0  0.00000000000E+00  0.00000000000E+00  0.45593999997E+02  0.45594000000E+02  0.51100000000E-03 0. -1.
         11   -1    0    0    0    0 -0.00000000000E+00 -0.00000000000E+00 -0.45593999997E+02  0.45594000000E+02  0.51100000000E-03 0.  1.
    9900012    2    1    2    0    0 -0.19496287591E+02 -0.31477915106E+02  0.25654415144E+02  0.46142318901E+02  0.10000010393E+02 0.  0.
        -12    1    1    2    0    0  0.19496287591E+02  0.31477915106E+02 -0.25654415144E+02  0.45045681099E+02  0.00000000000E+00 0.  1.
         11    1    3    3    0    0 -0.83486834633E+01 -0.15626912373E+02  0.82183607919E+01  0.19530549410E+02  0.51100000000E-03 0. -1.
        -11    1    3    3    0    0 -0.29846175207E+01 -0.27734370078E+01  0.66432497567E+01  0.77931163325E+01  0.51100000000E-03 0.  1.
        -12    1    3    3    0    0 -0.81629866071E+01 -0.13077565725E+02  0.10792804596E+02  0.18818653158E+02  0.00000000000E+00 0.  1.
</event>
<event>
 7    1  0.3435408E-009  0.4614232E+02  0.7816164E-02  0.1320468E+00
        -11   -1    0    0    0    0  0.00000000000E+00  0.00000000000E+00  0.45593999997E+02  0.45594000000E+02  0.51100000000E-03 0.  1.
         11   -1    0    0    0    0 -0.00000000000E+00 -0.00000000000E+00 -0.45593999997E+02  0.45594000000E+02  0.51100000000E-03 0. -1.
    9900012    2    1    2    0    0  0.66595751544E+01 -0.36533973128E+02 -0.25495730384E+02  0.46142318724E+02  0.10000008783E+02 0.  0.
        -12    1    1    2    0    0 -0.66595751544E+01  0.36533973128E+02  0.25495730384E+02  0.45045681276E+02  0.00000000000E+00 0.  1.
         11    1    3    3    0    0  0.45743244873E+01 -0.17691189265E+02 -0.12113763897E+02  0.21923637885E+02  0.51100000000E-03 0. -1.
        -11    1    3    3    0    0 -0.22201698363E+00 -0.31823260803E+01  0.41933735161E+00  0.32175044519E+01  0.51100000000E-03 0.  1.
        -12    1    3    3    0    0  0.23072676507E+01 -0.15660457783E+02 -0.13801303839E+02  0.21001176387E+02  0.00000000000E+00 0.  1.
</event>
<event>
 7    1  0.3435408E-009  0.4614232E+02  0.7816164E-02  0.1320468E+00
        -11   -1    0    0    0    0  0.00000000000E+00  0.00000000000E+00  0.45593999997E+02  0.45594000000E+02  0.51100000000E-03 0.  1.
         11   -1    0    0    0    0 -0.00000000000E+00 -0.00000000000E+00 -0.45593999997E+02  0.45594000000E+02  0.51100000000E-03 0. -1.
    9900012    2    1    2    0    0  0.40973810437E+02 -0.16663707904E+02 -0.85194532927E+01  0.46142318884E+02  0.10000010236E+02 0.  0.
        -12    1    1    2    0    0 -0.40973810437E+02  0.16663707904E+02  0.85194532927E+01  0.45045681116E+02  0.00000000000E+00 0.  1.
         11    1    3    3    0    0  0.17680677330E+02 -0.90943278531E+01 -0.70535515173E+00  0.19894991231E+02  0.51100000000E-03 0. -1.
        -11    1    3    3    0    0  0.26425460182E+01 -0.28067254117E+01 -0.14660130279E+01  0.41243122401E+01  0.51100000000E-03 0.  1.
         12    1    3    3    0    0  0.20650587089E+02 -0.47626546392E+01 -0.63480851130E+01  0.22123015412E+02  0.00000000000E+00 0. -1.
</event>
<event>
 7    1  0.3435408E-009  0.4614231E+02  0.7816164E-02  0.1320468E+00
        -11   -1    0    0    0    0  0.00000000000E+00  0.00000000000E+00  0.45593999997E+02  0.45594000000E+02  0.51100000000E-03 0. -1.
         11   -1    0    0    0    0 -0.00000000000E+00 -0.00000000000E+00 -0.45593999997E+02  0.45594000000E+02  0.51100000000E-03 0.  1.
    9900012    2    1    2    0    0  0.37662989701E+02  0.20324075333E+02  0.14055067518E+02  0.46142314810E+02  0.99999730885E+01 0.  0.
        -12    1    1    2    0    0 -0.37662989701E+02 -0.20324075333E+02 -0.14055067518E+02  0.45045685190E+02  0.00000000000E+00 0.  1.
         11    1    3    3    0    0  0.32108062066E+02  0.18752294420E+02  0.15151704446E+02  0.40151592042E+02  0.51100000000E-03 0. -1.
        -11    1    3    3    0    0  0.47382729656E+01  0.11056768952E+01 -0.53361186806E+00  0.48947414620E+01  0.51100000000E-03 0.  1.
         12    1    3    3    0    0  0.81665466925E+00  0.46610401778E+00 -0.56302506038E+00  0.10959813059E+01  0.00000000000E+00 0. -1.
</event>
<event>
 7    1  0.3435408E-009  0.4614232E+02  0.7816164E-02  0.1320468E+00
        -11   -1    0    0    0    0  0.00000000000E+00  0.00000000000E+00  0.45593999997E+02  0.45594000000E+02  0.51100000000E-03 0. -1.
         11   -1    0    0    0    0 -0.00000000000E+00 -0.00000000000E+00 -0.45593999997E+02  0.45594000000E+02  0.51100000000E-03 0.  1.
    9900012    2    1    2    0    0  0.40246621001E+02  0.19716985781E+02 -0.45346924588E+01  0.46142318010E+02  0.10000002267E+02 0.  0.
        -12    1    1    2    0    0 -0.40246621001E+02 -0.19716985781E+02  0.45346924588E+01  0.45045681990E+02  0.00000000000E+00 0.  1.
         11    1    3    3    0    0  0.18150904512E+02  0.83823508953E+01 -0.31415338471E+01  0.20238289857E+02  0.51100000000E-03 0. -1.
        -11    1    3    3    0    0  0.99024406838E+00  0.29108175840E+01 -0.77653692444E+00  0.31711909716E+01  0.51100000000E-03 0.  1.
         12    1    3    3    0    0  0.21105472420E+02  0.84238173015E+01 -0.61662168732E+00  0.22732837181E+02  0.00000000000E+00 0. -1.
</event>
<event>
 7    1  0.3435408E-009  0.4614232E+02  0.7816164E-02  0.1320468E+00
        -11   -1    0    0    0    0  0.00000000000E+00  0.00000000000E+00  0.45593999997E+02  0.45594000000E+02  0.51100000000E-03 0.  1.
         11   -1    0    0    0    0 -0.00000000000E+00 -0.00000000000E+00 -0.45593999997E+02  0.45594000000E+02  0.51100000000E-03 0. -1.
    9900012    2    1    2    0    0 -0.28811784721E+02  0.27844576643E+02 -0.20583346153E+02  0.46142317342E+02  0.99999961814E+01 0.  0.
        -12    1    1    2    0    0  0.28811784721E+02 -0.27844576643E+02  0.20583346153E+02  0.45045682658E+02  0.00000000000E+00 0.  1.
         11    1    3    3    0    0 -0.97637004737E+01  0.66851900878E+01 -0.98993861047E+01  0.15427879276E+02  0.51100000000E-03 0. -1.
        -11    1    3    3    0    0 -0.26570747708E+01  0.13112402131E+01 -0.37926200840E+00  0.29871787972E+01  0.51100000000E-03 0.  1.
         12    1    3    3    0    0 -0.16391009477E+02  0.19848146342E+02 -0.10304698040E+02  0.27727259269E+02  0.00000000000E+00 0. -1.
</event>
<event>
 7    1  0.3435408E-009  0.4614232E+02  0.7816164E-02  0.1320468E+00
        -11   -1    0    0    0    0  0.00000000000E+00  0.00000000000E+00  0.45593999997E+02  0.45594000000E+02  0.51100000000E-03 0. -1.
         11   -1    0    0    0    0 -0.00000000000E+00 -0.00000000000E+00 -0.45593999997E+02  0.45594000000E+02  0.51100000000E-03 0.  1.
    9900012    2    1    2    0    0  0.28721916174E+02 -0.33317853546E+02  0.96997786469E+01  0.46142317195E+02  0.99999948364E+01 0.  0.
        -12    1    1    2    0    0 -0.28721916174E+02  0.33317853546E+02 -0.96997786469E+01  0.45045682805E+02  0.00000000000E+00 0.  1.
         11    1    3    3    0    0  0.13910379378E+02 -0.98371569149E+01  0.50815952067E+01  0.17778945996E+02  0.51100000000E-03 0. -1.
        -11    1    3    3    0    0  0.61447674539E+00 -0.13300793173E+01  0.10724152269E+01  0.18157002344E+01  0.51100000000E-03 0.  1.
         12    1    3    3    0    0  0.14197060051E+02 -0.22150617313E+02  0.35457682133E+01  0.26547670965E+02  0.00000000000E+00 0. -1.
</event>
<event>
 7    1  0.3435408E-009  0.4614232E+02  0.7816164E-02  0.1320468E+00
        -11   -1    0    0    0    0  0.00000000000E+00  0.00000000000E+00  0.45593999997E+02  0.45594000000E+02  0.51100000000E-03 0.  1.
         11   -1    0    0    0    0 -0.00000000000E+00 -0.00000000000E+00 -0.45593999997E+02  0.45594000000E+02  0.51100000000E-03 0. -1.
    9900012    2    1    2    0    0  0.17222828134E+02 -0.39505303456E+02 -0.13107958648E+02  0.46142318853E+02  0.10000009953E+02 0.  0.
        -12    1    1    2    0    0 -0.17222828134E+02  0.39505303456E+02  0.13107958648E+02  0.45045681147E+02  0.00000000000E+00 0.  1.
         11    1    3    3    0    0  0.37751070286E+01 -0.13112826970E+02 -0.40785081427E+01  0.14241906233E+02  0.51100000000E-03 0. -1.
        -11    1    3    3    0    0  0.21407210376E+01 -0.12500868599E+02 -0.35922846374E+01  0.13181764354E+02  0.51100000000E-03 0.  1.
        -12    1    3    3    0    0  0.11307000068E+02 -0.13891607887E+02 -0.54371658678E+01  0.18718648266E+02  0.00000000000E+00 0.  1.
</event>
<event>
 7    1  0.3435408E-009  0.4614232E+02  0.7816164E-02  0.1320468E+00
        -11   -1    0    0    0    0  0.00000000000E+00  0.00000000000E+00  0.45593999997E+02  0.45594000000E+02  0.51100000000E-03 0.  1.
         11   -1    0    0    0    0 -0.00000000000E+00 -0.00000000000E+00 -0.45593999997E+02  0.45594000000E+02  0.51100000000E-03 0. -1.
    9900012    2    1    2    0    0 -0.35471141175E+02  0.12197029963E+02 -0.24942816048E+02  0.46142317980E+02  0.10000002000E+02 0.  0.
        -12    1    1    2    0    0  0.35471141175E+02 -0.12197029963E+02  0.24942816048E+02  0.45045682020E+02  0.00000000000E+00 0.  1.
         11    1    3    3    0    0 -0.15171306041E+02  0.54646141798E+01 -0.12599130730E+02  0.20463837141E+02  0.51100000000E-03 0. -1.
        -11    1    3    3    0    0 -0.33921771899E+01 -0.10160549300E+01 -0.38542255459E+01  0.52339553426E+01  0.51100000000E-03 0.  1.
         12    1    3    3    0    0 -0.16907657944E+02  0.77484707136E+01 -0.84894597723E+01  0.20444525497E+02  0.00000000000E+00 0. -1.
</event>
<event>
 7    1  0.3435408E-009  0.4614232E+02  0.7816164E-02  0.1320468E+00
        -11   -1    0    0    0    0  0.00000000000E+00  0.00000000000E+00  0.45593999997E+02  0.45594000000E+02  0.51100000000E-03 0.  1.
         11   -1    0    0    0    0 -0.00000000000E+00 -0.00000000000E+00 -0.45593999997E+02  0.45594000000E+02  0.51100000000E-03 0. -1.
    9900012    2    1    2    0    0 -0.17624444036E+02 -0.26900082489E+02 -0.31541687703E+02  0.46142317314E+02  0.99999959220E+01 0.  0.
        -12    1    1    2    0    0  0.17624444036E+02  0.26900082489E+02  0.31541687703E+02  0.45045682686E+02  0.00000000000E+00 0.  1.
         11    1    3    3    0    0 -0.61962856512E+01 -0.14073863636E+02 -0.10000637170E+02  0.18343400382E+02  0.51100000000E-03 0. -1.
        -11    1    3    3    0    0 -0.19779967575E+01 -0.41045486901E+01 -0.73526462717E+01  0.86499247731E+01  0.51100000000E-03 0.  1.
         12    1    3    3    0    0 -0.94501616273E+01 -0.87216701635E+01 -0.14188404261E+02  0.19148992159E+02  0.00000000000E+00 0. -1.
</event>
<event>
 7    1  0.3435408E-009  0.4614232E+02  0.7816164E-02  0.1320468E+00
        -11   -1    0    0    0    0  0.00000000000E+00  0.00000000000E+00  0.45593999997E+02  0.45594000000E+02  0.51100000000E-03 0.  1.
         11   -1    0    0    0    0 -0.00000000000E+00 -0.00000000000E+00 -0.45593999997E+02  0.45594000000E+02  0.51100000000E-03 0. -1.
    9900012    2    1    2    0    0  0.35298623316E+02 -0.27095808063E+02 -0.69955487355E+01  0.46142319578E+02  0.10000016570E+02 0.  0.
        -12    1    1    2    0    0 -0.35298623316E+02  0.27095808063E+02  0.69955487355E+01  0.45045680422E+02  0.00000000000E+00 0.  1.
         11    1    3    3    0    0  0.28360272236E+02 -0.21326396041E+02 -0.46339341710E+01  0.35785381869E+02  0.51100000000E-03 0. -1.
        -11    1    3    3    0    0  0.14292432276E+01 -0.52088609652E+00  0.12172571212E+01  0.19482745416E+01  0.51100000000E-03 0.  1.
         12    1    3    3    0    0  0.55091078524E+01 -0.52485259256E+01 -0.35788716857E+01  0.84086631674E+01  0.00000000000E+00 0. -1.
</event>
<event>
 7    1  0.3435408E-009  0.4614232E+02  0.7816164E-02  0.1320468E+00
        -11   -1    0    0    0    0  0.00000000000E+00  0.00000000000E+00  0.45593999997E+02  0.45594000000E+02  0.51100000000E-03 0. -1.
         11   -1    0    0    0    0 -0.00000000000E+00 -0.00000000000E+00 -0.45593999997E+02  0.45594000000E+02  0.51100000000E-03 0.  1.
    9900012    2    1    2    0    0 -0.16113038949E+02 -0.21714903440E+02  0.36027024434E+02  0.46142317131E+02  0.99999942515E+01 0.  0.
        -12    1    1    2    0    0  0.16113038949E+02  0.21714903440E+02 -0.36027024434E+02  0.45045682869E+02  0.00000000000E+00 0.  1.
         11    1    3    3    0    0 -0.84096079890E-02 -0.54949013094E+01  0.62016389445E+01  0.82857912706E+01  0.51100000000E-03 0. -1.
        -11    1    3    3    0    0 -0.10092843055E+02 -0.77789626308E+01  0.13907810904E+02  0.18862792608E+02  0.51100000000E-03 0.  1.
         12    1    3    3    0    0 -0.60117862855E+01 -0.84410394997E+01  0.15917574586E+02  0.18993733252E+02  0.00000000000E+00 0. -1.
</event>
<event>
 7    1  0.3435408E-009  0.4614232E+02  0.7816164E-02  0.1320468E+00
        -11   -1    0    0    0    0  0.00000000000E+00  0.00000000000E+00  0.45593999997E+02  0.45594000000E+02  0.51100000000E-03 0. -1.
         11   -1    0    0    0    0 -0.00000000000E+00 -0.00000000000E+00 -0.45593999997E+02  0.45594000000E+02  0.51100000000E-03 0.  1.
    9900012    2    1    2    0    0 -0.31525149067E+02  0.69709788026E+01  0.31411521997E+02  0.46142320037E+02  0.10000020755E+02 0.  0.
        -12    1    1    2    0    0  0.31525149067E+02 -0.69709788026E+01 -0.31411521997E+02  0.45045679963E+02  0.00000000000E+00 0.  1.
         11    1    3    3    0    0 -0.25128259239E+02  0.73904011683E+01  0.19763880635E+02  0.32812473541E+02  0.51100000000E-03 0. -1.
        -11    1    3    3    0    0 -0.41032351857E+01  0.11367748708E-01  0.81572894499E+01  0.91311576290E+01  0.51100000000E-03 0.  1.
         12    1    3    3    0    0 -0.22936546420E+01 -0.43079011438E+00  0.34903519118E+01  0.41986888677E+01  0.00000000000E+00 0. -1.
</event>
<event>
 7    1  0.3435408E-009  0.4614232E+02  0.7816164E-02  0.1320468E+00
        -11   -1    0    0    0    0  0.00000000000E+00  0.00000000000E+00  0.45593999997E+02  0.45594000000E+02  0.51100000000E-03 0. -1.
         11   -1    0    0    0    0 -0.00000000000E+00 -0.00000000000E+00 -0.45593999997E+02  0.45594000000E+02  0.51100000000E-03 0.  1.
    9900012    2    1    2    0    0  0.43210391850E+02  0.23901188296E+01  0.12500511747E+02  0.46142318455E+02  0.10000006332E+02 0.  0.
        -12    1    1    2    0    0 -0.43210391850E+02 -0.23901188296E+01 -0.12500511747E+02  0.45045681545E+02  0.00000000000E+00 0.  1.
         11    1    3    3    0    0  0.67408692137E+01  0.21808647171E+01  0.32554461391E+01  0.77970134344E+01  0.51100000000E-03 0. -1.
        -11    1    3    3    0    0  0.13965773785E+02  0.24694840299E+01  0.63666216207E+01  0.15545901708E+02  0.51100000000E-03 0.  1.
        -12    1    3    3    0    0  0.22503748852E+02 -0.22602299174E+01  0.28784439876E+01  0.22799403314E+02  0.00000000000E+00 0.  1.
</event>
<event>
 7    1  0.3435408E-009  0.4614232E+02  0.7816164E-02  0.1320468E+00
        -11   -1    0    0    0    0  0.00000000000E+00  0.00000000000E+00  0.45593999997E+02  0.45594000000E+02  0.51100000000E-03 0.  1.
         11   -1    0    0    0    0 -0.00000000000E+00 -0.00000000000E+00 -0.45593999997E+02  0.45594000000E+02  0.51100000000E-03 0. -1.
    9900012    2    1    2    0    0 -0.22237816608E+02 -0.38695800600E+02  0.61014757906E+01  0.46142317872E+02  0.10000001008E+02 0.  0.
        -12    1    1    2    0    0  0.22237816608E+02  0.38695800600E+02 -0.61014757906E+01  0.45045682128E+02  0.00000000000E+00 0.  1.
         11    1    3    3    0    0 -0.44091503204E+01 -0.42672104782E+01  0.18110307597E+01  0.63976186575E+01  0.51100000000E-03 0.  1.
        -11    1    3    3    0    0 -0.17584933151E+02 -0.27920465564E+02  0.33995821532E+01  0.33171364613E+02  0.51100000000E-03 0. -1.
         12    1    3    3    0    0 -0.24373313617E+00 -0.65081245581E+01  0.89086287774E+00  0.65733346007E+01  0.00000000000E+00 0. -1.
</event>
<event>
 7    1  0.3435408E-009  0.4614232E+02  0.7816164E-02  0.1320468E+00
        -11   -1    0    0    0    0  0.00000000000E+00  0.00000000000E+00  0.45593999997E+02  0.45594000000E+02  0.51100000000E-03 0.  1.
         11   -1    0    0    0    0 -0.00000000000E+00 -0.00000000000E+00 -0.45593999997E+02  0.45594000000E+02  0.51100000000E-03 0. -1.
    9900012    2    1    2    0    0 -0.39817975658E+02 -0.77162477762E+01 -0.19598516960E+02  0.46142317274E+02  0.99999955540E+01 0.  0.
        -12    1    1    2    0    0  0.39817975658E+02  0.77162477762E+01  0.19598516960E+02  0.45045682726E+02  0.00000000000E+00 0.  1.
         11    1    3    3    0    0 -0.11072433773E+02  0.13037617924E+00 -0.77845673515E+01  0.13535703776E+02  0.51100000000E-03 0. -1.
        -11    1    3    3    0    0 -0.25931995612E+02 -0.83813794206E+01 -0.93002665549E+01  0.28796021872E+02  0.51100000000E-03 0.  1.
        -12    1    3    3    0    0 -0.28135462732E+01  0.53475546517E+00 -0.25136830538E+01  0.38105916252E+01  0.00000000000E+00 0.  1.
</event>
<event>
 7    1  0.3435408E-009  0.4614232E+02  0.7816164E-02  0.1320468E+00
        -11   -1    0    0    0    0  0.00000000000E+00  0.00000000000E+00  0.45593999997E+02  0.45594000000E+02  0.51100000000E-03 0.  1.
         11   -1    0    0    0    0 -0.00000000000E+00 -0.00000000000E+00 -0.45593999997E+02  0.45594000000E+02  0.51100000000E-03 0. -1.
    9900012    2    1    2    0    0  0.20210763063E+02  0.12350120429E+02 -0.38315963191E+02  0.46142318149E+02  0.10000003536E+02 0.  0.
        -12    1    1    2    0    0 -0.20210763063E+02 -0.12350120429E+02  0.38315963191E+02  0.45045681851E+02  0.00000000000E+00 0.  1.
         11    1    3    3    0    0  0.13444872195E+02  0.58138151553E+01 -0.18376063679E+02  0.23499888332E+02  0.51100000000E-03 0. -1.
        -11    1    3    3    0    0  0.43747864158E+01  0.70239543098E+01 -0.14932094558E+02  0.17071676499E+02  0.51100000000E-03 0.  1.
        -12    1    3    3    0    0  0.23911044520E+01 -0.48764903578E+00 -0.50078049535E+01  0.55707533185E+01  0.00000000000E+00 0.  1.
</event>
<event>
 7    1  0.3435408E-009  0.4614232E+02  0.7816164E-02  0.1320468E+00
        -11   -1    0    0    0    0  0.00000000000E+00  0.00000000000E+00  0.45593999997E+02  0.45594000000E+02  0.51100000000E-03 0.  1.
         11   -1    0    0    0    0 -0.00000000000E+00 -0.00000000000E+00 -0.45593999997E+02  0.45594000000E+02  0.51100000000E-03 0. -1.
    9900012    2    1    2    0    0 -0.44067543941E+02  0.45005801924E+01 -0.81798438816E+01  0.46142317665E+02  0.99999991248E+01 0.  0.
        -12    1    1    2    0    0  0.44067543941E+02 -0.45005801924E+01  0.81798438816E+01  0.45045682335E+02  0.00000000000E+00 0.  1.
         11    1    3    3    0    0 -0.23109057653E+02 -0.76385732997E+00 -0.55801561091E+01  0.23785503276E+02  0.51100000000E-03 0. -1.
        -11    1    3    3    0    0 -0.10952145525E+02  0.52438883497E+01 -0.22141569023E+01  0.12343028303E+02  0.51100000000E-03 0.  1.
         12    1    3    3    0    0 -0.10006340762E+02  0.20549172674E-01 -0.38553087028E+00  0.10013786086E+02  0.00000000000E+00 0. -1.
</event>
<event>
 7    1  0.3435408E-009  0.4614232E+02  0.7816164E-02  0.1320468E+00
        -11   -1    0    0    0    0  0.00000000000E+00  0.00000000000E+00  0.45593999997E+02  0.45594000000E+02  0.51100000000E-03 0.  1.
         11   -1    0    0    0    0 -0.00000000000E+00 -0.00000000000E+00 -0.45593999997E+02  0.45594000000E+02  0.51100000000E-03 0. -1.
    9900012    2    1    2    0    0 -0.38114866180E+02 -0.19162706056E+02 -0.14462406216E+02  0.46142317400E+02  0.99999967111E+01 0.  0.
        -12    1    1    2    0    0  0.38114866180E+02  0.19162706056E+02  0.14462406216E+02  0.45045682600E+02  0.00000000000E+00 0.  1.
         11    1    3    3    0    0 -0.12089200695E+02 -0.50568859177E+01 -0.12426305636E+01  0.13163016356E+02  0.51100000000E-03 0. -1.
        -11    1    3    3    0    0 -0.13076644587E+02 -0.37129400733E+01 -0.54122531514E+01  0.14631371846E+02  0.51100000000E-03 0.  1.
        -12    1    3    3    0    0 -0.12949020898E+02 -0.10392880065E+02 -0.78075225013E+01  0.18347929198E+02  0.00000000000E+00 0.  1.
</event>
<event>
 7    1  0.3435408E-009  0.4614231E+02  0.7816164E-02  0.1320468E+00
        -11   -1    0    0    0    0  0.00000000000E+00  0.00000000000E+00  0.45593999997E+02  0.45594000000E+02  0.51100000000E-03 0. -1.
         11   -1    0    0    0    0 -0.00000000000E+00 -0.00000000000E+00 -0.45593999997E+02  0.45594000000E+02  0.51100000000E-03 0.  1.
    9900012    2    1    2    0    0 -0.17115788049E+02 -0.15709101313E+02  0.38592588719E+02  0.46142312430E+02  0.99999513902E+01 0.  0.
        -12    1    1    2    0    0  0.17115788049E+02  0.15709101313E+02 -0.38592588719E+02  0.45045687570E+02  0.00000000000E+00 0.  1.
         11    1    3    3    0    0 -0.35782222237E+01 -0.68207734776E+01  0.10542495694E+02  0.13056448248E+02  0.51100000000E-03 0. -1.
        -11    1    3    3    0    0 -0.10425485332E+02 -0.46090677473E+01  0.23453740511E+02  0.26077043431E+02  0.51100000000E-03 0.  1.
         12    1    3    3    0    0 -0.31120804935E+01 -0.42792600880E+01  0.45963525136E+01  0.70088207516E+01  0.00000000000E+00 0. -1.
</event>
<event>
 7    1  0.3435408E-009  0.4614232E+02  0.7816164E-02  0.1320468E+00
        -11   -1    0    0    0    0  0.00000000000E+00  0.00000000000E+00  0.45593999997E+02  0.45594000000E+02  0.51100000000E-03 0. -1.
         11   -1    0    0    0    0 -0.00000000000E+00 -0.00000000000E+00 -0.45593999997E+02  0.45594000000E+02  0.51100000000E-03 0.  1.
    9900012    2    1    2    0    0 -0.34209728815E+02 -0.28985305040E+02 -0.43197379290E+01  0.46142316637E+02  0.99999897515E+01 0.  0.
        -12    1    1    2    0    0  0.34209728815E+02  0.28985305040E+02  0.43197379290E+01  0.45045683363E+02  0.00000000000E+00 0.  1.
         11    1    3    3    0    0 -0.20680425257E+02 -0.15893923030E+02 -0.11567656028E+00  0.26082755979E+02  0.51100000000E-03 0. -1.
        -11    1    3    3    0    0 -0.44841910030E+01 -0.59957532604E+01  0.78366249546E+00  0.75280245269E+01  0.51100000000E-03 0.  1.
         12    1    3    3    0    0 -0.90451125543E+01 -0.70956287496E+01 -0.49877238642E+01  0.12531536132E+02  0.00000000000E+00 0. -1.
</event>
<event>
 7    1  0.3435408E-009  0.4614232E+02  0.7816164E-02  0.1320468E+00
        -11   -1    0    0    0    0  0.00000000000E+00  0.00000000000E+00  0.45593999997E+02  0.45594000000E+02  0.51100000000E-03 0. -1.
         11   -1    0    0    0    0 -0.00000000000E+00 -0.00000000000E+00 -0.45593999997E+02  0.45594000000E+02  0.51100000000E-03 0.  1.
    9900012    2    1    2    0    0  0.37720699441E+02 -0.11695002509E+02  0.21667700103E+02  0.46142317879E+02  0.10000001074E+02 0.  0.
        -12    1    1    2    0    0 -0.37720699441E+02  0.11695002509E+02 -0.21667700103E+02  0.45045682121E+02  0.00000000000E+00 0.  1.
         11    1    3    3    0    0  0.60179160895E+01 -0.19727290474E+01  0.13096663922E+01  0.64670086032E+01  0.51100000000E-03 0. -1.
        -11    1    3    3    0    0  0.92337950312E+01 -0.51552255189E+00  0.26443798380E+01  0.96188086148E+01  0.51100000000E-03 0.  1.
        -12    1    3    3    0    0  0.22468988320E+02 -0.92067509099E+01  0.17713653872E+02  0.30056500661E+02  0.00000000000E+00 0.  1.
</event>
<event>
 7    1  0.3435408E-009  0.4614232E+02  0.7816164E-02  0.1320468E+00
        -11   -1    0    0    0    0  0.00000000000E+00  0.00000000000E+00  0.45593999997E+02  0.45594000000E+02  0.51100000000E-03 0. -1.
         11   -1    0    0    0    0 -0.00000000000E+00 -0.00000000000E+00 -0.45593999997E+02  0.45594000000E+02  0.51100000000E-03 0.  1.
    9900012    2    1    2    0    0  0.21611737842E+02 -0.49637236633E+01  0.39209791977E+02  0.46142317054E+02  0.99999935544E+01 0.  0.
        -12    1    1    2    0    0 -0.21611737842E+02  0.49637236633E+01 -0.39209791977E+02  0.45045682946E+02  0.00000000000E+00 0.  1.
         11    1    3    3    0    0  0.13771655026E+02 -0.27437812877E+01  0.17948024215E+02  0.22788558344E+02  0.51100000000E-03 0. -1.
        -11    1    3    3    0    0  0.12108611269E+01  0.16003145577E+01  0.46589682677E+01  0.50727878857E+01  0.51100000000E-03 0.  1.
         12    1    3    3    0    0  0.66292216888E+01 -0.38202569332E+01  0.16602799495E+02  0.18280970825E+02  0.00000000000E+00 0. -1.
</event>
<event>
 7    1  0.3435408E-009  0.4614232E+02  0.7816164E-02  0.1320468E+00
        -11   -1    0    0    0    0  0.00000000000E+00  0.00000000000E+00  0.45593999997E+02  0.45594000000E+02  0.51100000000E-03 0.  1.
         11   -1    0    0    0    0 -0.00000000000E+00 -0.00000000000E+00 -0.45593999997E+02  0.45594000000E+02  0.51100000000E-03 0. -1.
    9900012    2    1    2    0    0 -0.39489174460E+02  0.18976179652E+02  0.10470111391E+02  0.46142317340E+02  0.99999961608E+01 0.  0.
        -12    1    1    2    0    0  0.39489174460E+02 -0.18976179652E+02 -0.10470111391E+02  0.45045682660E+02  0.00000000000E+00 0.  1.
         11    1    3    3    0    0 -0.18971730321E+02  0.10836155024E+02  0.13322703107E+01  0.21888895621E+02  0.51100000000E-03 0. -1.
        -11    1    3    3    0    0 -0.58784198986E+00 -0.46697009906E+00  0.20151777870E+00  0.77732165460E+00  0.51100000000E-03 0.  1.
         12    1    3    3    0    0 -0.19929602150E+02  0.86069947273E+01  0.89363233015E+01  0.23476100064E+02  0.00000000000E+00 0. -1.
</event>
<event>
 7    1  0.3435408E-009  0.4614232E+02  0.7816164E-02  0.1320468E+00
        -11   -1    0    0    0    0  0.00000000000E+00  0.00000000000E+00  0.45593999997E+02  0.45594000000E+02  0.51100000000E-03 0.  1.
         11   -1    0    0    0    0 -0.00000000000E+00 -0.00000000000E+00 -0.45593999997E+02  0.45594000000E+02  0.51100000000E-03 0. -1.
    9900012    2    1    2    0    0 -0.14120250876E+02  0.10144222400E+02 -0.41555105907E+02  0.46142316968E+02  0.99999927647E+01 0.  0.
        -12    1    1    2    0    0  0.14120250876E+02 -0.10144222400E+02  0.41555105907E+02  0.45045683032E+02  0.00000000000E+00 0.  1.
         11    1    3    3    0    0 -0.39186637159E+01 -0.30527596258E-01 -0.78928508895E+01  0.88121480172E+01  0.51100000000E-03 0. -1.
        -11    1    3    3    0    0 -0.36689624500E+00  0.11348116879E+01 -0.87776330701E-01  0.11958743107E+01  0.51100000000E-03 0.  1.
        -12    1    3    3    0    0 -0.98346909148E+01  0.90399383085E+01 -0.33574478687E+02  0.36134294640E+02  0.00000000000E+00 0.  1.
</event>
<event>
 7    1  0.3435408E-009  0.4614232E+02  0.7816164E-02  0.1320468E+00
        -11   -1    0    0    0    0  0.00000000000E+00  0.00000000000E+00  0.45593999997E+02  0.45594000000E+02  0.51100000000E-03 0.  1.
         11   -1    0    0    0    0 -0.00000000000E+00 -0.00000000000E+00 -0.45593999997E+02  0.45594000000E+02  0.51100000000E-03 0. -1.
    9900012    2    1    2    0    0  0.15607812461E+01 -0.34262636780E+02  0.29201867564E+02  0.46142318893E+02  0.10000010318E+02 0.  0.
        -12    1    1    2    0    0 -0.15607812461E+01  0.34262636780E+02 -0.29201867564E+02  0.45045681107E+02  0.00000000000E+00 0.  1.
         11    1    3    3    0    0 -0.44258555571E+00 -0.22715138239E+02  0.15017191261E+02  0.27233975487E+02  0.51100000000E-03 0. -1.
        -11    1    3    3    0    0  0.21936178028E+01 -0.10089045617E+02  0.14043951981E+02  0.17430817193E+02  0.51100000000E-03 0.  1.
         12    1    3    3    0    0 -0.19025100101E+00 -0.14584529234E+01  0.14072432292E+00  0.14775262124E+01  0.00000000000E+00 0. -1.
</event>
<event>
 7    1  0.3435408E-009  0.4614232E+02  0.7816164E-02  0.1320468E+00
        -11   -1    0    0    0    0  0.00000000000E+00  0.00000000000E+00  0.45593999997E+02  0.45594000000E+02  0.51100000000E-03 0. -1.
         11   -1    0    0    0    0 -0.00000000000E+00 -0.00000000000E+00 -0.45593999997E+02  0.45594000000E+02  0.51100000000E-03 0.  1.
    9900012    2    1    2    0    0  0.27418954174E+02  0.89703179326E+01  0.34595488512E+02  0.46142317885E+02  0.10000001132E+02 0.  0.
        -12    1    1    2    0    0 -0.27418954174E+02 -0.89703179326E+01 -0.34595488512E+02  0.45045682115E+02  0.00000000000E+00 0.  1.
         11    1    3    3    0    0  0.17706043402E+01 -0.10567387317E+01  0.15396217123E+01  0.25733580697E+01  0.51100000000E-03 0. -1.
        -11    1    3    3    0    0  0.41184291441E+01  0.10961578044E+00  0.22357415786E+01  0.46874315890E+01  0.51100000000E-03 0.  1.
         12    1    3    3    0    0  0.21529920689E+02  0.99174408839E+01  0.30820125221E+02  0.38881528226E+02  0.00000000000E+00 0. -1.
</event>
<event>
 7    1  0.3435408E-009  0.4614232E+02  0.7816164E-02  0.1320468E+00
        -11   -1    0    0    0    0  0.00000000000E+00  0.00000000000E+00  0.45593999997E+02  0.45594000000E+02  0.51100000000E-03 0.  1.
         11   -1    0    0    0    0 -0.00000000000E+00 -0.00000000000E+00 -0.45593999997E+02  0.45594000000E+02  0.51100000000E-03 0. -1.
    9900012    2    1    2    0    0 -0.39270158195E+02  0.20838401196E+02 -0.72614918709E+01  0.46142317041E+02  0.99999934350E+01 0.  0.
        -12    1    1    2    0    0  0.39270158195E+02 -0.20838401196E+02  0.72614918709E+01  0.45045682959E+02  0.00000000000E+00 0.  1.
         11    1    3    3    0    0 -0.23998348119E+01  0.22459246223E+01 -0.64181252248E+00  0.33489264113E+01  0.51100000000E-03 0. -1.
        -11    1    3    3    0    0  0.34099605218E+00  0.11016847418E+01 -0.31773197266E+00  0.11962196477E+01  0.51100000000E-03 0.  1.
        -12    1    3    3    0    0 -0.37211319435E+02  0.17490791832E+02 -0.63019473758E+01  0.41597170982E+02  0.00000000000E+00 0.  1.
</event>
<event>
 7    1  0.3435408E-009  0.4614232E+02  0.7816164E-02  0.1320468E+00
        -11   -1    0    0    0    0  0.00000000000E+00  0.00000000000E+00  0.45593999997E+02  0.45594000000E+02  0.51100000000E-03 0.  1.
         11   -1    0    0    0    0 -0.00000000000E+00 -0.00000000000E+00 -0.45593999997E+02  0.45594000000E+02  0.51100000000E-03 0. -1.
    9900012    2    1    2    0    0  0.33321974026E+02  0.22648502067E+02 -0.20144599315E+02  0.46142317849E+02  0.10000000800E+02 0.  0.
        -12    1    1    2    0    0 -0.33321974026E+02 -0.22648502067E+02  0.20144599315E+02  0.45045682151E+02  0.00000000000E+00 0.  1.
         11    1    3    3    0    0  0.29608818494E-01  0.16485446250E+01 -0.85946904935E-01  0.16510491193E+01  0.51100000000E-03 0.  1.
        -11    1    3    3    0    0  0.23522930472E+02  0.17564287530E+02 -0.14788364212E+02  0.32871388330E+02  0.51100000000E-03 0. -1.
        -12    1    3    3    0    0  0.97694347360E+01  0.34356699123E+01 -0.52702881980E+01  0.11619880399E+02  0.00000000000E+00 0.  1.
</event>
<event>
 7    1  0.3435408E-009  0.4614232E+02  0.7816164E-02  0.1320468E+00
        -11   -1    0    0    0    0  0.00000000000E+00  0.00000000000E+00  0.45593999997E+02  0.45594000000E+02  0.51100000000E-03 0.  1.
         11   -1    0    0    0    0 -0.00000000000E+00 -0.00000000000E+00 -0.45593999997E+02  0.45594000000E+02  0.51100000000E-03 0. -1.
    9900012    2    1    2    0    0  0.95986652156E+01  0.39690001030E+02 -0.19017966251E+02  0.46142316567E+02  0.99999891094E+01 0.  0.
        -12    1    1    2    0    0 -0.95986652156E+01 -0.39690001030E+02  0.19017966251E+02  0.45045683433E+02  0.00000000000E+00 0.  1.
         11    1    3    3    0    0 -0.16157597482E+01  0.58476734414E+01 -0.36550819842E+01  0.70827670308E+01  0.51100000000E-03 0. -1.
        -11    1    3    3    0    0  0.54173531796E+00  0.35786973766E+01 -0.28850148732E+01  0.46285919185E+01  0.51100000000E-03 0.  1.
         12    1    3    3    0    0  0.10672689646E+02  0.30263630212E+02 -0.12477869393E+02  0.34430957618E+02  0.00000000000E+00 0. -1.
</event>
<event>
 7    1  0.3435408E-009  0.4614232E+02  0.7816164E-02  0.1320468E+00
        -11   -1    0    0    0    0  0.00000000000E+00  0.00000000000E+00  0.45593999997E+02  0.45594000000E+02  0.51100000000E-03 0.  1.
         11   -1    0    0    0    0 -0.00000000000E+00 -0.00000000000E+00 -0.45593999997E+02  0.45594000000E+02  0.51100000000E-03 0. -1.
    9900012    2    1    2    0    0 -0.38799554811E+02 -0.19320257743E+02 -0.12265220518E+02  0.46142318218E+02  0.10000004169E+02 0.  0.
        -12    1    1    2    0    0  0.38799554811E+02  0.19320257743E+02  0.12265220518E+02  0.45045681782E+02  0.00000000000E+00 0.  1.
         11    1    3    3    0    0 -0.26788430385E+02 -0.12099006186E+02 -0.43430831114E+01  0.29713100214E+02  0.51100000000E-03 0. -1.
        -11    1    3    3    0    0 -0.10042959104E+02 -0.45666122239E+01 -0.66897740535E+01  0.12902249878E+02  0.51100000000E-03 0.  1.
        -12    1    3    3    0    0 -0.19681653224E+01 -0.26546393333E+01 -0.12323633536E+01  0.35269681259E+01  0.00000000000E+00 0.  1.
</event>
<event>
 7    1  0.3435408E-009  0.4614232E+02  0.7816164E-02  0.1320468E+00
        -11   -1    0    0    0    0  0.00000000000E+00  0.00000000000E+00  0.45593999997E+02  0.45594000000E+02  0.51100000000E-03 0. -1.
         11   -1    0    0    0    0 -0.00000000000E+00 -0.00000000000E+00 -0.45593999997E+02  0.45594000000E+02  0.51100000000E-03 0.  1.
    9900012    2    1    2    0    0 -0.27885755882E+01  0.16381998329E+02  0.41868454533E+02  0.46142317543E+02  0.99999980127E+01 0.  0.
        -12    1    1    2    0    0  0.27885755882E+01 -0.16381998329E+02 -0.41868454533E+02  0.45045682457E+02  0.00000000000E+00 0.  1.
         11    1    3    3    0    0 -0.52154354666E+01  0.60036758560E+01  0.14514849319E+02  0.16550702157E+02  0.51100000000E-03 0.  1.
        -11    1    3    3    0    0  0.20656734329E+01  0.27492191495E+01  0.11339075844E+02  0.11849044430E+02  0.51100000000E-03 0. -1.
         12    1    3    3    0    0  0.36118644553E+00  0.76291033233E+01  0.16014529370E+02  0.17742570956E+02  0.00000000000E+00 0. -1.
</event>
<event>
 7    1  0.3435408E-009  0.4614232E+02  0.7816164E-02  0.1320468E+00
        -11   -1    0    0    0    0  0.00000000000E+00  0.00000000000E+00  0.45593999997E+02  0.45594000000E+02  0.51100000000E-03 0.  1.
         11   -1    0    0    0    0 -0.00000000000E+00 -0.00000000000E+00 -0.45593999997E+02  0.45594000000E+02  0.51100000000E-03 0. -1.
    9900012    2    1    2    0    0  0.42590373498E+02 -0.31748866455E+00 -0.14665364633E+02  0.46142316149E+02  0.99999853039E+01 0.  0.
        -12    1    1    2    0    0 -0.42590373498E+02  0.31748866455E+00  0.14665364633E+02  0.45045683851E+02  0.00000000000E+00 0.  1.
         11    1    3    3    0    0  0.10186362901E+02  0.37290210482E+01 -0.16872513179E+01  0.10977905282E+02  0.51100000000E-03 0. -1.
        -11    1    3    3    0    0  0.18764821585E+02 -0.29864543281E+01 -0.74439706401E+01  0.20407109980E+02  0.51100000000E-03 0.  1.
         12    1    3    3    0    0  0.13639189012E+02 -0.10600553847E+01 -0.55341426751E+01  0.14757300887E+02  0.00000000000E+00 0. -1.
</event>
<event>
 7    1  0.3435408E-009  0.4614232E+02  0.7816164E-02  0.1320468E+00
        -11   -1    0    0    0    0  0.00000000000E+00  0.00000000000E+00  0.45593999997E+02  0.45594000000E+02  0.51100000000E-03 0.  1.
         11   -1    0    0    0    0 -0.00000000000E+00 -0.00000000000E+00 -0.45593999997E+02  0.45594000000E+02  0.51100000000E-03 0. -1.
    9900012    2    1    2    0    0  0.11004057636E+02 -0.38473264521E+02 -0.20684107429E+02  0.46142315773E+02  0.99999818704E+01 0.  0.
        -12    1    1    2    0    0 -0.11004057636E+02  0.38473264521E+02  0.20684107429E+02  0.45045684227E+02  0.00000000000E+00 0.  1.
         11    1    3    3    0    0  0.80400326588E+01 -0.19929315701E+02 -0.14476928311E+02  0.25911410673E+02  0.51100000000E-03 0. -1.
        -11    1    3    3    0    0  0.35623311122E+01 -0.12822570671E+02 -0.29905296037E+01  0.13640080247E+02  0.51100000000E-03 0.  1.
         12    1    3    3    0    0 -0.59830613484E+00 -0.57213781483E+01 -0.32166495145E+01  0.65908248533E+01  0.00000000000E+00 0. -1.
</event>
<event>
 7    1  0.3435408E-009  0.4614232E+02  0.7816164E-02  0.1320468E+00
        -11   -1    0    0    0    0  0.00000000000E+00  0.00000000000E+00  0.45593999997E+02  0.45594000000E+02  0.51100000000E-03 0.  1.
         11   -1    0    0    0    0 -0.00000000000E+00 -0.00000000000E+00 -0.45593999997E+02  0.45594000000E+02  0.51100000000E-03 0. -1.
    9900012    2    1    2    0    0  0.29558182299E+02  0.17806040419E+02 -0.28954657996E+02  0.46142318344E+02  0.10000005315E+02 0.  0.
        -12    1    1    2    0    0 -0.29558182299E+02 -0.17806040419E+02  0.28954657996E+02  0.45045681656E+02  0.00000000000E+00 0.  1.
         11    1    3    3    0    0  0.11282268513E+02  0.11407070447E+02 -0.15342762324E+02  0.22199351229E+02  0.51100000000E-03 0. -1.
        -11    1    3    3    0    0  0.11131748077E+02  0.44879361468E+01 -0.63515178688E+01  0.13579365434E+02  0.51100000000E-03 0.  1.
         12    1    3    3    0    0  0.71441657093E+01  0.19110338250E+01 -0.72603778026E+01  0.10363601681E+02  0.00000000000E+00 0. -1.
</event>
<event>
 7    1  0.3435408E-009  0.4614233E+02  0.7816164E-02  0.1320468E+00
        -11   -1    0    0    0    0  0.00000000000E+00  0.00000000000E+00  0.45593999997E+02  0.45594000000E+02  0.51100000000E-03 0.  1.
         11   -1    0    0    0    0 -0.00000000000E+00 -0.00000000000E+00 -0.45593999997E+02  0.45594000000E+02  0.51100000000E-03 0. -1.
    9900012    2    1    2    0    0  0.11201012832E+02 -0.21670256674E+02 -0.37868848221E+02  0.46142330082E+02  0.10000112351E+02 0.  0.
        -12    1    1    2    0    0 -0.11201012832E+02  0.21670256674E+02  0.37868848221E+02  0.45045669918E+02  0.00000000000E+00 0.  1.
         11    1    3    3    0    0  0.39368197055E+00 -0.28978911962E+01 -0.39128899239E+01  0.48850247386E+01  0.51100000000E-03 0. -1.
        -11    1    3    3    0    0  0.42566976976E+00 -0.91950200529E+01 -0.15333534523E+02  0.17884263187E+02  0.51100000000E-03 0.  1.
        -12    1    3    3    0    0  0.10381661091E+02 -0.95773454250E+01 -0.18622423774E+02  0.23373042156E+02  0.00000000000E+00 0.  1.
</event>
<event>
 7    1  0.3435408E-009  0.4614232E+02  0.7816164E-02  0.1320468E+00
        -11   -1    0    0    0    0  0.00000000000E+00  0.00000000000E+00  0.45593999997E+02  0.45594000000E+02  0.51100000000E-03 0.  1.
         11   -1    0    0    0    0 -0.00000000000E+00 -0.00000000000E+00 -0.45593999997E+02  0.45594000000E+02  0.51100000000E-03 0. -1.
    9900012    2    1    2    0    0 -0.21232582936E+02  0.17341375305E+02 -0.35743078243E+02  0.46142317433E+02  0.99999970090E+01 0.  0.
        -12    1    1    2    0    0  0.21232582936E+02 -0.17341375305E+02  0.35743078243E+02  0.45045682567E+02  0.00000000000E+00 0.  1.
         11    1    3    3    0    0 -0.66765770157E+01  0.68345114732E+01 -0.18992033082E+02  0.21259928235E+02  0.51100000000E-03 0. -1.
        -11    1    3    3    0    0 -0.11517143306E+01  0.86619692796E+00 -0.11824842381E+00  0.14459342890E+01  0.51100000000E-03 0.  1.
         12    1    3    3    0    0 -0.13404291590E+02  0.96406669035E+01 -0.16632796738E+02  0.23436454909E+02  0.00000000000E+00 0. -1.
</event>
<event>
 7    1  0.3435408E-009  0.4614232E+02  0.7816164E-02  0.1320468E+00
        -11   -1    0    0    0    0  0.00000000000E+00  0.00000000000E+00  0.45593999997E+02  0.45594000000E+02  0.51100000000E-03 0. -1.
         11   -1    0    0    0    0 -0.00000000000E+00 -0.00000000000E+00 -0.45593999997E+02  0.45594000000E+02  0.51100000000E-03 0.  1.
    9900012    2    1    2    0    0  0.34705298873E+01  0.43491597414E+02  0.11204900692E+02  0.46142318489E+02  0.10000006637E+02 0.  0.
        -12    1    1    2    0    0 -0.34705298873E+01 -0.43491597414E+02 -0.11204900692E+02  0.45045681511E+02  0.00000000000E+00 0.  1.
         11    1    3    3    0    0  0.43015441492E+01  0.18025423604E+02  0.47202718589E+01  0.19123288024E+02  0.51100000000E-03 0. -1.
        -11    1    3    3    0    0 -0.11612428621E+01  0.12907534408E+02  0.64044562581E+01  0.14455794330E+02  0.51100000000E-03 0.  1.
         12    1    3    3    0    0  0.33022860014E+00  0.12558639401E+02  0.80172574960E-01  0.12563236135E+02  0.00000000000E+00 0. -1.
</event>
<event>
 7    1  0.3435408E-009  0.4614232E+02  0.7816164E-02  0.1320468E+00
        -11   -1    0    0    0    0  0.00000000000E+00  0.00000000000E+00  0.45593999997E+02  0.45594000000E+02  0.51100000000E-03 0. -1.
         11   -1    0    0    0    0 -0.00000000000E+00 -0.00000000000E+00 -0.45593999997E+02  0.45594000000E+02  0.51100000000E-03 0.  1.
    9900012    2    1    2    0    0 -0.30633045623E+02  0.19505619534E+02  0.26650719456E+02  0.46142317354E+02  0.99999962892E+01 0.  0.
        -12    1    1    2    0    0  0.30633045623E+02 -0.19505619534E+02 -0.26650719456E+02  0.45045682646E+02  0.00000000000E+00 0.  1.
         11    1    3    3    0    0 -0.22258321316E+02  0.96215097111E+01  0.20595381884E+02  0.31814714711E+02  0.51100000000E-03 0. -1.
        -11    1    3    3    0    0 -0.72633984405E+01  0.80788747818E+01  0.49917824942E+01  0.11955880034E+02  0.51100000000E-03 0.  1.
         12    1    3    3    0    0 -0.11113258658E+01  0.18052350410E+01  0.10635550771E+01  0.23717226092E+01  0.00000000000E+00 0. -1.
</event>
<event>
 7    1  0.3435408E-009  0.4614232E+02  0.7816164E-02  0.1320468E+00
        -11   -1    0    0    0    0  0.00000000000E+00  0.00000000000E+00  0.45593999997E+02  0.45594000000E+02  0.51100000000E-03 0. -1.
         11   -1    0    0    0    0 -0.00000000000E+00 -0.00000000000E+00 -0.45593999997E+02  0.45594000000E+02  0.51100000000E-03 0.  1.
    9900012    2    1    2    0    0  0.38722877732E+02 -0.19000582304E+02  0.12985765664E+02  0.46142317659E+02  0.99999990647E+01 0.  0.
        -12    1    1    2    0    0 -0.38722877732E+02  0.19000582304E+02 -0.12985765664E+02  0.45045682341E+02  0.00000000000E+00 0.  1.
         11    1    3    3    0    0  0.12176723061E+02 -0.59906014983E+01  0.13990511366E+01  0.13642479069E+02  0.51100000000E-03 0. -1.
        -11    1    3    3    0    0  0.18076886282E+02 -0.10820747606E+02  0.10911949890E+02  0.23726210129E+02  0.51100000000E-03 0.  1.
        -12    1    3    3    0    0  0.84692683888E+01 -0.21892331997E+01  0.67476463707E+00  0.87736284603E+01  0.00000000000E+00 0.  1.
</event>
<event>
 7    1  0.3435408E-009  0.4614232E+02  0.7816164E-02  0.1320468E+00
        -11   -1    0    0    0    0  0.00000000000E+00  0.00000000000E+00  0.45593999997E+02  0.45594000000E+02  0.51100000000E-03 0. -1.
         11   -1    0    0    0    0 -0.00000000000E+00 -0.00000000000E+00 -0.45593999997E+02  0.45594000000E+02  0.51100000000E-03 0.  1.
    9900012    2    1    2    0    0 -0.34275936522E+02 -0.51554916970E+01  0.28769681105E+02  0.46142317965E+02  0.10000001859E+02 0.  0.
        -12    1    1    2    0    0  0.34275936522E+02  0.51554916970E+01 -0.28769681105E+02  0.45045682035E+02  0.00000000000E+00 0.  1.
         11    1    3    3    0    0 -0.61562749272E+01 -0.41281075186E+01  0.49101226093E+01  0.88910233924E+01  0.51100000000E-03 0. -1.
        -11    1    3    3    0    0 -0.15201173086E+01  0.15856547889E+00  0.32138378376E+01  0.35587432543E+01  0.51100000000E-03 0.  1.
         12    1    3    3    0    0 -0.26599544286E+02 -0.11859496573E+01  0.20645720658E+02  0.33692551318E+02  0.00000000000E+00 0. -1.
</event>
<event>
 7    1  0.3435408E-009  0.4614232E+02  0.7816164E-02  0.1320468E+00
        -11   -1    0    0    0    0  0.00000000000E+00  0.00000000000E+00  0.45593999997E+02  0.45594000000E+02  0.51100000000E-03 0.  1.
         11   -1    0    0    0    0 -0.00000000000E+00 -0.00000000000E+00 -0.45593999997E+02  0.45594000000E+02  0.51100000000E-03 0. -1.
    9900012    2    1    2    0    0  0.44710598278E+02 -0.30588735484E+01 -0.45518304335E+01  0.46142318009E+02  0.10000002257E+02 0.  0.
        -12    1    1    2    0    0 -0.44710598278E+02  0.30588735484E+01  0.45518304335E+01  0.45045681991E+02  0.00000000000E+00 0.  1.
         11    1    3    3    0    0  0.81064202063E+01  0.26605771201E+01 -0.55831231970E+00  0.85501129864E+01  0.51100000000E-03 0. -1.
        -11    1    3    3    0    0  0.18423593642E+02 -0.84618569746E+00 -0.50928454333E+00  0.18450046177E+02  0.51100000000E-03 0.  1.
         12    1    3    3    0    0  0.18180584430E+02 -0.48732649711E+01 -0.34842335705E+01  0.19142158845E+02  0.00000000000E+00 0. -1.
</event>
<event>
 7    1  0.3435408E-009  0.4614232E+02  0.7816164E-02  0.1320468E+00
        -11   -1    0    0    0    0  0.00000000000E+00  0.00000000000E+00  0.45593999997E+02  0.45594000000E+02  0.51100000000E-03 0. -1.
         11   -1    0    0    0    0 -0.00000000000E+00 -0.00000000000E+00 -0.45593999997E+02  0.45594000000E+02  0.51100000000E-03 0.  1.
    9900012    2    1    2    0    0 -0.54883604471E+01  0.44689749182E+02 -0.13482571494E+01  0.46142316747E+02  0.99999907568E+01 0.  0.
        -12    1    1    2    0    0  0.54883604471E+01 -0.44689749182E+02  0.13482571494E+01  0.45045683253E+02  0.00000000000E+00 0.  1.
         11    1    3    3    0    0 -0.54738964685E+01  0.26848909678E+02 -0.26499871769E+01  0.27529074189E+02  0.51100000000E-03 0. -1.
        -11    1    3    3    0    0 -0.21357101670E+01  0.13186917430E+02  0.17780548521E+01  0.13476554773E+02  0.51100000000E-03 0.  1.
         12    1    3    3    0    0  0.21212461884E+01  0.46539220742E+01 -0.47632482453E+00  0.51366877852E+01  0.00000000000E+00 0. -1.
</event>
<event>
 7    1  0.3435408E-009  0.4614232E+02  0.7816164E-02  0.1320468E+00
        -11   -1    0    0    0    0  0.00000000000E+00  0.00000000000E+00  0.45593999997E+02  0.45594000000E+02  0.51100000000E-03 0. -1.
         11   -1    0    0    0    0 -0.00000000000E+00 -0.00000000000E+00 -0.45593999997E+02  0.45594000000E+02  0.51100000000E-03 0.  1.
    9900012    2    1    2    0    0 -0.25970805415E+02 -0.23869172690E+02  0.28015949068E+02  0.46142317177E+02  0.99999946699E+01 0.  0.
        -12    1    1    2    0    0  0.25970805415E+02  0.23869172690E+02 -0.28015949068E+02  0.45045682823E+02  0.00000000000E+00 0.  1.
         11    1    3    3    0    0 -0.11182116544E+02 -0.61649738281E+01  0.12448105263E+02  0.17832609388E+02  0.51100000000E-03 0. -1.
        -11    1    3    3    0    0 -0.30030165425E+01 -0.72715166474E+01  0.59512485343E+01  0.98646045073E+01  0.51100000000E-03 0.  1.
         12    1    3    3    0    0 -0.11785672328E+02 -0.10432682215E+02  0.96165952715E+01  0.18445103281E+02  0.00000000000E+00 0. -1.
</event>
<event>
 7    1  0.3435408E-009  0.4614232E+02  0.7816164E-02  0.1320468E+00
        -11   -1    0    0    0    0  0.00000000000E+00  0.00000000000E+00  0.45593999997E+02  0.45594000000E+02  0.51100000000E-03 0.  1.
         11   -1    0    0    0    0 -0.00000000000E+00 -0.00000000000E+00 -0.45593999997E+02  0.45594000000E+02  0.51100000000E-03 0. -1.
    9900012    2    1    2    0    0 -0.16919219183E+02  0.34218631347E+02  0.23915241889E+02  0.46142317592E+02  0.99999984574E+01 0.  0.
        -12    1    1    2    0    0  0.16919219183E+02 -0.34218631347E+02 -0.23915241889E+02  0.45045682408E+02  0.00000000000E+00 0.  1.
         11    1    3    3    0    0 -0.24793060544E+01  0.26257812763E+01  0.21983954622E+01  0.42278397192E+01  0.51100000000E-03 0. -1.
        -11    1    3    3    0    0 -0.10907951459E+02  0.13703559307E+02  0.90754384747E+01  0.19726493010E+02  0.51100000000E-03 0.  1.
        -12    1    3    3    0    0 -0.35319616697E+01  0.17889290763E+02  0.12641407952E+02  0.22187984863E+02  0.00000000000E+00 0.  1.
</event>
<event>
 7    1  0.3435408E-009  0.4614232E+02  0.7816164E-02  0.1320468E+00
        -11   -1    0    0    0    0  0.00000000000E+00  0.00000000000E+00  0.45593999997E+02  0.45594000000E+02  0.51100000000E-03 0.  1.
         11   -1    0    0    0    0 -0.00000000000E+00 -0.00000000000E+00 -0.45593999997E+02  0.45594000000E+02  0.51100000000E-03 0. -1.
    9900012    2    1    2    0    0 -0.25263403798E+02 -0.32607712905E+02 -0.18100027852E+02  0.46142317403E+02  0.99999967350E+01 0.  0.
        -12    1    1    2    0    0  0.25263403798E+02  0.32607712905E+02  0.18100027852E+02  0.45045682597E+02  0.00000000000E+00 0.  1.
         11    1    3    3    0    0 -0.82412880116E+01 -0.89902323477E+01 -0.79095891309E+01  0.14536323684E+02  0.51100000000E-03 0. -1.
        -11    1    3    3    0    0 -0.21291719568E+01 -0.31269066630E+01  0.10004704500E+01  0.39130371687E+01  0.51100000000E-03 0.  1.
         12    1    3    3    0    0 -0.14892943830E+02 -0.20490573895E+02 -0.11190909171E+02  0.27692956551E+02  0.00000000000E+00 0. -1.
</event>
<event>
 7    1  0.3435408E-009  0.4614232E+02  0.7816164E-02  0.1320468E+00
        -11   -1    0    0    0    0  0.00000000000E+00  0.00000000000E+00  0.45593999997E+02  0.45594000000E+02  0.51100000000E-03 0.  1.
         11   -1    0    0    0    0 -0.00000000000E+00 -0.00000000000E+00 -0.45593999997E+02  0.45594000000E+02  0.51100000000E-03 0. -1.
    9900012    2    1    2    0    0  0.42273536606E+02  0.69107110960E+01 -0.13939284154E+02  0.46142317990E+02  0.10000002085E+02 0.  0.
        -12    1    1    2    0    0 -0.42273536606E+02 -0.69107110960E+01  0.13939284154E+02  0.45045682010E+02  0.00000000000E+00 0.  1.
         11    1    3    3    0    0  0.74757266241E+00  0.96772481803E+00  0.54378714418E+00  0.13383052448E+01  0.51100000000E-03 0. -1.
        -11    1    3    3    0    0  0.17095688317E+02  0.51794131119E+01 -0.75878466436E+01  0.19407841100E+02  0.51100000000E-03 0.  1.
         12    1    3    3    0    0  0.24430275626E+02  0.76357316607E+00 -0.68952246546E+01  0.25396171645E+02  0.00000000000E+00 0. -1.
</event>
<event>
 7    1  0.3435408E-009  0.4614232E+02  0.7816164E-02  0.1320468E+00
        -11   -1    0    0    0    0  0.00000000000E+00  0.00000000000E+00  0.45593999997E+02  0.45594000000E+02  0.51100000000E-03 0.  1.
         11   -1    0    0    0    0 -0.00000000000E+00 -0.00000000000E+00 -0.45593999997E+02  0.45594000000E+02  0.51100000000E-03 0. -1.
    9900012    2    1    2    0    0 -0.29918040102E+02 -0.24417276455E+02 -0.23190961022E+02  0.46142321115E+02  0.10000030588E+02 0.  0.
        -12    1    1    2    0    0  0.29918040102E+02  0.24417276455E+02  0.23190961022E+02  0.45045678885E+02  0.00000000000E+00 0.  1.
         11    1    3    3    0    0 -0.48747089901E+01 -0.47358202824E+01 -0.26940297049E+01  0.73108534247E+01  0.51100000000E-03 0. -1.
        -11    1    3    3    0    0 -0.15434616146E+02 -0.90580199978E+01 -0.72112928745E+01  0.19294503027E+02  0.51100000000E-03 0.  1.
        -12    1    3    3    0    0 -0.96087149658E+01 -0.10623436175E+02 -0.13285638443E+02  0.19536964664E+02  0.00000000000E+00 0.  1.
</event>
<event>
 7    1  0.3435408E-009  0.4614232E+02  0.7816164E-02  0.1320468E+00
        -11   -1    0    0    0    0  0.00000000000E+00  0.00000000000E+00  0.45593999997E+02  0.45594000000E+02  0.51100000000E-03 0.  1.
         11   -1    0    0    0    0 -0.00000000000E+00 -0.00000000000E+00 -0.45593999997E+02  0.45594000000E+02  0.51100000000E-03 0. -1.
    9900012    2    1    2    0    0 -0.15794520114E+02  0.14064729611E+01 -0.42162406955E+02  0.46142316610E+02  0.99999895071E+01 0.  0.
        -12    1    1    2    0    0  0.15794520114E+02 -0.14064729611E+01  0.42162406955E+02  0.45045683390E+02  0.00000000000E+00 0.  1.
         11    1    3    3    0    0 -0.79624183108E+01  0.37411117883E+01 -0.30576323229E+02  0.31816781189E+02  0.51100000000E-03 0. -1.
        -11    1    3    3    0    0 -0.36978592750E+01 -0.48461002437E+00 -0.38438219074E+01  0.53557424518E+01  0.51100000000E-03 0.  1.
         12    1    3    3    0    0 -0.41342425281E+01 -0.18500288028E+01 -0.77422618183E+01  0.89697929695E+01  0.00000000000E+00 0. -1.
</event>
<event>
 7    1  0.3435408E-009  0.4614232E+02  0.7816164E-02  0.1320468E+00
        -11   -1    0    0    0    0  0.00000000000E+00  0.00000000000E+00  0.45593999997E+02  0.45594000000E+02  0.51100000000E-03 0.  1.
         11   -1    0    0    0    0 -0.00000000000E+00 -0.00000000000E+00 -0.45593999997E+02  0.45594000000E+02  0.51100000000E-03 0. -1.
    9900012    2    1    2    0    0 -0.14809858269E+02 -0.40171679693E+02 -0.14000629098E+02  0.46142319114E+02  0.10000012338E+02 0.  0.
        -12    1    1    2    0    0  0.14809858269E+02  0.40171679693E+02  0.14000629098E+02  0.45045680886E+02  0.00000000000E+00 0.  1.
         11    1    3    3    0    0 -0.10540987674E+02 -0.27292286565E+02 -0.10642227140E+02  0.31132592662E+02  0.51100000000E-03 0. -1.
        -11    1    3    3    0    0  0.10851914067E+01 -0.48353757603E+01 -0.14097446767E+01  0.51522693493E+01  0.51100000000E-03 0.  1.
        -12    1    3    3    0    0 -0.53540620018E+01 -0.80440173679E+01 -0.19486572810E+01  0.98574571028E+01  0.00000000000E+00 0.  1.
</event>
<event>
 7    1  0.3435408E-009  0.4614232E+02  0.7816164E-02  0.1320468E+00
        -11   -1    0    0    0    0  0.00000000000E+00  0.00000000000E+00  0.45593999997E+02  0.45594000000E+02  0.51100000000E-03 0.  1.
         11   -1    0    0    0    0 -0.00000000000E+00 -0.00000000000E+00 -0.45593999997E+02  0.45594000000E+02  0.51100000000E-03 0. -1.
    9900012    2    1    2    0    0  0.16091682683E+02  0.31830858929E+02 -0.27513043860E+02  0.46142318584E+02  0.10000007508E+02 0.  0.
        -12    1    1    2    0    0 -0.16091682683E+02 -0.31830858929E+02  0.27513043860E+02  0.45045681416E+02  0.00000000000E+00 0.  1.
         11    1    3    3    0    0  0.85614710444E+01  0.96693957377E+01 -0.11423732511E+02  0.17242321918E+02  0.51100000000E-03 0. -1.
        -11    1    3    3    0    0  0.43036486593E+01  0.18417433303E+02 -0.14013040306E+02  0.23539085371E+02  0.51100000000E-03 0.  1.
         12    1    3    3    0    0  0.32265629794E+01  0.37440298887E+01 -0.20762710428E+01  0.53609112948E+01  0.00000000000E+00 0. -1.
</event>
<event>
 7    1  0.3435408E-009  0.4614232E+02  0.7816164E-02  0.1320468E+00
        -11   -1    0    0    0    0  0.00000000000E+00  0.00000000000E+00  0.45593999997E+02  0.45594000000E+02  0.51100000000E-03 0.  1.
         11   -1    0    0    0    0 -0.00000000000E+00 -0.00000000000E+00 -0.45593999997E+02  0.45594000000E+02  0.51100000000E-03 0. -1.
    9900012    2    1    2    0    0  0.34451953525E+02  0.39931593830E+01 -0.28744235104E+02  0.46142317906E+02  0.10000001322E+02 0.  0.
        -12    1    1    2    0    0 -0.34451953525E+02 -0.39931593830E+01  0.28744235104E+02  0.45045682094E+02  0.00000000000E+00 0.  1.
         11    1    3    3    0    0  0.17387612218E+02  0.26556928265E+01 -0.11545862545E+02  0.21040168849E+02  0.51100000000E-03 0. -1.
        -11    1    3    3    0    0  0.16118233182E+02  0.96618309460E+00 -0.17708452920E+02  0.23964979778E+02  0.51100000000E-03 0.  1.
        -12    1    3    3    0    0  0.94610812511E+00  0.37128346193E+00  0.51008036088E+00  0.11371692785E+01  0.00000000000E+00 0.  1.
</event>
<event>
 7    1  0.3435408E-009  0.4614232E+02  0.7816164E-02  0.1320468E+00
        -11   -1    0    0    0    0  0.00000000000E+00  0.00000000000E+00  0.45593999997E+02  0.45594000000E+02  0.51100000000E-03 0. -1.
         11   -1    0    0    0    0 -0.00000000000E+00 -0.00000000000E+00 -0.45593999997E+02  0.45594000000E+02  0.51100000000E-03 0.  1.
    9900012    2    1    2    0    0 -0.41608038697E+02 -0.34679622226E+01 -0.16907337403E+02  0.46142315365E+02  0.99999781474E+01 0.  0.
        -12    1    1    2    0    0  0.41608038697E+02  0.34679622226E+01  0.16907337403E+02  0.45045684635E+02  0.00000000000E+00 0.  1.
         11    1    3    3    0    0 -0.59387027187E+01 -0.22981440917E+01 -0.10885210434E+01  0.64602271299E+01  0.51100000000E-03 0. -1.
        -11    1    3    3    0    0 -0.63741706609E+01  0.21412716821E+01 -0.14218389053E+01  0.68728976542E+01  0.51100000000E-03 0.  1.
        -12    1    3    3    0    0 -0.29295165318E+02 -0.33110898129E+01 -0.14396977454E+02  0.32809190581E+02  0.00000000000E+00 0.  1.
</event>
<event>
 7    1  0.3435408E-009  0.4614232E+02  0.7816164E-02  0.1320468E+00
        -11   -1    0    0    0    0  0.00000000000E+00  0.00000000000E+00  0.45593999997E+02  0.45594000000E+02  0.51100000000E-03 0.  1.
         11   -1    0    0    0    0 -0.00000000000E+00 -0.00000000000E+00 -0.45593999997E+02  0.45594000000E+02  0.51100000000E-03 0. -1.
    9900012    2    1    2    0    0 -0.16379791065E+02 -0.41923383499E+02 -0.18016295380E+01  0.46142317540E+02  0.99999979793E+01 0.  0.
        -12    1    1    2    0    0  0.16379791065E+02  0.41923383499E+02  0.18016295380E+01  0.45045682460E+02  0.00000000000E+00 0.  1.
         11    1    3    3    0    0  0.61732492518E+00 -0.39751063192E+01  0.24912073327E+00  0.40304617246E+01  0.51100000000E-03 0. -1.
        -11    1    3    3    0    0 -0.55935004786E-01  0.13329527256E+00 -0.37100579842E+00  0.39817322616E+00  0.51100000000E-03 0.  1.
         12    1    3    3    0    0 -0.16941180985E+02 -0.38081572452E+02 -0.16797444728E+01  0.41713682589E+02  0.00000000000E+00 0. -1.
</event>
<event>
 7    1  0.3435408E-009  0.4614232E+02  0.7816164E-02  0.1320468E+00
        -11   -1    0    0    0    0  0.00000000000E+00  0.00000000000E+00  0.45593999997E+02  0.45594000000E+02  0.51100000000E-03 0.  1.
         11   -1    0    0    0    0 -0.00000000000E+00 -0.00000000000E+00 -0.45593999997E+02  0.45594000000E+02  0.51100000000E-03 0. -1.
    9900012    2    1    2    0    0 -0.10963639103E+02  0.18281608631E+02 -0.39682426534E+02  0.46142316831E+02  0.99999915201E+01 0.  0.
        -12    1    1    2    0    0  0.10963639103E+02 -0.18281608631E+02  0.39682426534E+02  0.45045683169E+02  0.00000000000E+00 0.  1.
         11    1    3    3    0    0 -0.85410845104E+01  0.79021075495E+01 -0.19398035600E+02  0.22620283238E+02  0.51100000000E-03 0. -1.
        -11    1    3    3    0    0 -0.33434612482E+01  0.71409363659E+01 -0.17342763683E+02  0.19051067102E+02  0.51100000000E-03 0.  1.
        -12    1    3    3    0    0  0.92090665591E+00  0.32385647152E+01 -0.29416272504E+01  0.44709664910E+01  0.00000000000E+00 0.  1.
</event>
<event>
 7    1  0.3435408E-009  0.4614232E+02  0.7816164E-02  0.1320468E+00
        -11   -1    0    0    0    0  0.00000000000E+00  0.00000000000E+00  0.45593999997E+02  0.45594000000E+02  0.51100000000E-03 0. -1.
         11   -1    0    0    0    0 -0.00000000000E+00 -0.00000000000E+00 -0.45593999997E+02  0.45594000000E+02  0.51100000000E-03 0.  1.
    9900012    2    1    2    0    0 -0.34886811462E+02 -0.22041887909E+02  0.18060428828E+02  0.46142317343E+02  0.99999961907E+01 0.  0.
        -12    1    1    2    0    0  0.34886811462E+02  0.22041887909E+02 -0.18060428828E+02  0.45045682657E+02  0.00000000000E+00 0.  1.
         11    1    3    3    0    0 -0.28507000142E+01 -0.12834393363E+01  0.42019203153E+01  0.52373506373E+01  0.51100000000E-03 0. -1.
        -11    1    3    3    0    0 -0.38796768024E+01 -0.11033562579E+01  0.51885471303E+00  0.40667551681E+01  0.51100000000E-03 0.  1.
         12    1    3    3    0    0 -0.28156434645E+02 -0.19655092315E+02  0.13339653800E+02  0.36838211538E+02  0.00000000000E+00 0. -1.
</event>
<event>
 7    1  0.3435408E-009  0.4614232E+02  0.7816164E-02  0.1320468E+00
        -11   -1    0    0    0    0  0.00000000000E+00  0.00000000000E+00  0.45593999997E+02  0.45594000000E+02  0.51100000000E-03 0.  1.
         11   -1    0    0    0    0 -0.00000000000E+00 -0.00000000000E+00 -0.45593999997E+02  0.45594000000E+02  0.51100000000E-03 0. -1.
    9900012    2    1    2    0    0  0.29864407665E+01  0.25806036071E+02 -0.36800045086E+02  0.46142316028E+02  0.99999841986E+01 0.  0.
        -12    1    1    2    0    0 -0.29864407665E+01 -0.25806036071E+02  0.36800045086E+02  0.45045683972E+02  0.00000000000E+00 0.  1.
         11    1    3    3    0    0  0.23667640069E+01  0.14425302777E+02 -0.24815466675E+02  0.28801012458E+02  0.51100000000E-03 0. -1.
        -11    1    3    3    0    0  0.25274584679E+01  0.40266841011E+01 -0.32190707612E+01  0.57414848239E+01  0.51100000000E-03 0.  1.
        -12    1    3    3    0    0 -0.19077817083E+01  0.73540491932E+01 -0.87655076502E+01  0.11599818746E+02  0.00000000000E+00 0.  1.
</event>
<event>
 7    1  0.3435408E-009  0.4614232E+02  0.7816164E-02  0.1320468E+00
        -11   -1    0    0    0    0  0.00000000000E+00  0.00000000000E+00  0.45593999997E+02  0.45594000000E+02  0.51100000000E-03 0.  1.
         11   -1    0    0    0    0 -0.00000000000E+00 -0.00000000000E+00 -0.45593999997E+02  0.45594000000E+02  0.51100000000E-03 0. -1.
    9900012    2    1    2    0    0 -0.78336023506E+01 -0.37515030551E+02 -0.23672149641E+02  0.46142317503E+02  0.99999976434E+01 0.  0.
        -12    1    1    2    0    0  0.78336023506E+01  0.37515030551E+02  0.23672149641E+02  0.45045682497E+02  0.00000000000E+00 0.  1.
         11    1    3    3    0    0 -0.81236953878E+00 -0.64769796438E+01 -0.62409119803E+01  0.90310681639E+01  0.51100000000E-03 0. -1.
        -11    1    3    3    0    0 -0.76146287424E+01 -0.28064572416E+02 -0.17740208296E+02  0.34063437678E+02  0.51100000000E-03 0.  1.
        -12    1    3    3    0    0  0.59339593063E+00 -0.29734784913E+01  0.30897063530E+00  0.30478116612E+01  0.00000000000E+00 0.  1.
</event>
<event>
 7    1  0.3435408E-009  0.4614230E+02  0.7816164E-02  0.1320468E+00
        -11   -1    0    0    0    0  0.00000000000E+00  0.00000000000E+00  0.45593999997E+02  0.45594000000E+02  0.51100000000E-03 0.  1.
         11   -1    0    0    0    0 -0.00000000000E+00 -0.00000000000E+00 -0.45593999997E+02  0.45594000000E+02  0.51100000000E-03 0. -1.
    9900012    2    1    2    0    0  0.25741276224E+02  0.88413416003E+01 -0.35893343493E+02  0.46142303979E+02  0.99998743197E+01 0.  0.
        -12    1    1    2    0    0 -0.25741276224E+02 -0.88413416003E+01  0.35893343493E+02  0.45045696021E+02  0.00000000000E+00 0.  1.
         11    1    3    3    0    0  0.31079420477E+01  0.17033807373E+01 -0.34699972098E+01  0.49600091336E+01  0.51100000000E-03 0. -1.
        -11    1    3    3    0    0  0.91488197235E+01  0.54433403252E+01 -0.83190925518E+01  0.13510668280E+02  0.51100000000E-03 0.  1.
        -12    1    3    3    0    0  0.13484514453E+02  0.16946205378E+01 -0.24104253732E+02  0.27671626565E+02  0.00000000000E+00 0.  1.
</event>
<event>
 7    1  0.3435408E-009  0.4614232E+02  0.7816164E-02  0.1320468E+00
        -11   -1    0    0    0    0  0.00000000000E+00  0.00000000000E+00  0.45593999997E+02  0.45594000000E+02  0.51100000000E-03 0.  1.
         11   -1    0    0    0    0 -0.00000000000E+00 -0.00000000000E+00 -0.45593999997E+02  0.45594000000E+02  0.51100000000E-03 0. -1.
    9900012    2    1    2    0    0 -0.28294093866E+02  0.71526667608E+01 -0.34313220497E+02  0.46142317739E+02  0.99999997940E+01 0.  0.
        -12    1    1    2    0    0  0.28294093866E+02 -0.71526667608E+01  0.34313220497E+02  0.45045682261E+02  0.00000000000E+00 0.  1.
         11    1    3    3    0    0 -0.71634605414E+01  0.17560548611E+01 -0.83512039331E+01  0.11141880586E+02  0.51100000000E-03 0. -1.
        -11    1    3    3    0    0 -0.58658794288E+01  0.32411495525E+01 -0.29981265299E+01  0.73418223109E+01  0.51100000000E-03 0.  1.
        -12    1    3    3    0    0 -0.15264753896E+02  0.21554623472E+01 -0.22963890034E+02  0.27658614841E+02  0.00000000000E+00 0.  1.
</event>
<event>
 7    1  0.3435408E-009  0.4614232E+02  0.7816164E-02  0.1320468E+00
        -11   -1    0    0    0    0  0.00000000000E+00  0.00000000000E+00  0.45593999997E+02  0.45594000000E+02  0.51100000000E-03 0. -1.
         11   -1    0    0    0    0 -0.00000000000E+00 -0.00000000000E+00 -0.45593999997E+02  0.45594000000E+02  0.51100000000E-03 0.  1.
    9900012    2    1    2    0    0 -0.36393893360E+02 -0.25751988272E+02 -0.64368055554E+01  0.46142324962E+02  0.10000065668E+02 0.  0.
        -12    1    1    2    0    0  0.36393893360E+02  0.25751988272E+02  0.64368055554E+01  0.45045675038E+02  0.00000000000E+00 0.  1.
         11    1    3    3    0    0 -0.58204734567E+01 -0.49231516549E+01 -0.42097606925E+01  0.87084682250E+01  0.51100000000E-03 0. -1.
        -11    1    3    3    0    0 -0.12139891619E+02 -0.10461238673E+02  0.92064110075E+00  0.16051855450E+02  0.51100000000E-03 0.  1.
        -12    1    3    3    0    0 -0.18433528284E+02 -0.10367597943E+02 -0.31476859637E+01  0.21382001287E+02  0.00000000000E+00 0.  1.
</event>
<event>
 7    1  0.3435408E-009  0.4614231E+02  0.7816164E-02  0.1320468E+00
        -11   -1    0    0    0    0  0.00000000000E+00  0.00000000000E+00  0.45593999997E+02  0.45594000000E+02  0.51100000000E-03 0.  1.
         11   -1    0    0    0    0 -0.00000000000E+00 -0.00000000000E+00 -0.45593999997E+02  0.45594000000E+02  0.51100000000E-03 0. -1.
    9900012    2    1    2    0    0 -0.21215970954E+02  0.83656220861E+01 -0.38846014192E+02  0.46142313469E+02  0.99999608628E+01 0.  0.
        -12    1    1    2    0    0  0.21215970954E+02 -0.83656220861E+01  0.38846014192E+02  0.45045686531E+02  0.00000000000E+00 0.  1.
         11    1    3    3    0    0 -0.13490634839E+02  0.75037541965E+01 -0.21211224366E+02  0.26233939749E+02  0.51100000000E-03 0. -1.
        -11    1    3    3    0    0 -0.11342296526E+00 -0.12811903124E+01 -0.32119048938E+01  0.34598622362E+01  0.51100000000E-03 0.  1.
         12    1    3    3    0    0 -0.76119131499E+01  0.21430582020E+01 -0.14422884933E+02  0.16448511484E+02  0.00000000000E+00 0. -1.
</event>
<event>
 7    1  0.3435408E-009  0.4614232E+02  0.7816164E-02  0.1320468E+00
        -11   -1    0    0    0    0  0.00000000000E+00  0.00000000000E+00  0.45593999997E+02  0.45594000000E+02  0.51100000000E-03 0.  1.
         11   -1    0    0    0    0 -0.00000000000E+00 -0.00000000000E+00 -0.45593999997E+02  0.45594000000E+02  0.51100000000E-03 0. -1.
    9900012    2    1    2    0    0  0.37424186645E+02  0.22891785723E+02 -0.10223006536E+02  0.46142318050E+02  0.10000002639E+02 0.  0.
        -12    1    1    2    0    0 -0.37424186645E+02 -0.22891785723E+02  0.10223006536E+02  0.45045681950E+02  0.00000000000E+00 0.  1.
         11    1    3    3    0    0  0.19024680265E+02  0.16534309477E+02 -0.83113387575E+01  0.26540538828E+02  0.51100000000E-03 0. -1.
        -11    1    3    3    0    0  0.96776901837E+01  0.33282078060E+01 -0.36715273233E+00  0.10240578884E+02  0.51100000000E-03 0.  1.
         12    1    3    3    0    0  0.87218161967E+01  0.30292684402E+01 -0.15445150462E+01  0.93612003386E+01  0.00000000000E+00 0. -1.
</event>
<event>
 7    1  0.3435408E-009  0.4614232E+02  0.7816164E-02  0.1320468E+00
        -11   -1    0    0    0    0  0.00000000000E+00  0.00000000000E+00  0.45593999997E+02  0.45594000000E+02  0.51100000000E-03 0. -1.
         11   -1    0    0    0    0 -0.00000000000E+00 -0.00000000000E+00 -0.45593999997E+02  0.45594000000E+02  0.51100000000E-03 0.  1.
    9900012    2    1    2    0    0 -0.19506453946E+02  0.11299193304E+02  0.38999229034E+02  0.46142318963E+02  0.10000010955E+02 0.  0.
        -12    1    1    2    0    0  0.19506453946E+02 -0.11299193304E+02 -0.38999229034E+02  0.45045681037E+02  0.00000000000E+00 0.  1.
         11    1    3    3    0    0 -0.12617136515E+02  0.10570935726E+02  0.20321359938E+02  0.26151376368E+02  0.51100000000E-03 0. -1.
        -11    1    3    3    0    0 -0.58569243358E+01  0.40251565441E+00  0.17080827410E+02  0.18061568226E+02  0.51100000000E-03 0.  1.
         12    1    3    3    0    0 -0.10323930948E+01  0.32574192366E+00  0.15970416867E+01  0.19293743680E+01  0.00000000000E+00 0. -1.
</event>
<event>
 7    1  0.3435408E-009  0.4614232E+02  0.7816164E-02  0.1320468E+00
        -11   -1    0    0    0    0  0.00000000000E+00  0.00000000000E+00  0.45593999997E+02  0.45594000000E+02  0.51100000000E-03 0.  1.
         11   -1    0    0    0    0 -0.00000000000E+00 -0.00000000000E+00 -0.45593999997E+02  0.45594000000E+02  0.51100000000E-03 0. -1.
    9900012    2    1    2    0    0  0.40926153618E+02 -0.17657930399E+02  0.65085257204E+01  0.46142318043E+02  0.10000002569E+02 0.  0.
        -12    1    1    2    0    0 -0.40926153618E+02  0.17657930399E+02 -0.65085257204E+01  0.45045681957E+02  0.00000000000E+00 0.  1.
         11    1    3    3    0    0  0.39882753688E+01 -0.10952684199E+01 -0.62990646494E+00  0.41836271040E+01  0.51100000000E-03 0. -1.
        -11    1    3    3    0    0  0.12024261866E+02 -0.96175058063E+01  0.13587457525E+01  0.15457214550E+02  0.51100000000E-03 0.  1.
         12    1    3    3    0    0  0.24913616383E+02 -0.69451561727E+01  0.57796864328E+01  0.26501476389E+02  0.00000000000E+00 0. -1.
</event>
<event>
 7    1  0.3435408E-009  0.4614232E+02  0.7816164E-02  0.1320468E+00
        -11   -1    0    0    0    0  0.00000000000E+00  0.00000000000E+00  0.45593999997E+02  0.45594000000E+02  0.51100000000E-03 0. -1.
         11   -1    0    0    0    0 -0.00000000000E+00 -0.00000000000E+00 -0.45593999997E+02  0.45594000000E+02  0.51100000000E-03 0.  1.
    9900012    2    1    2    0    0 -0.27582635485E+02  0.35481641512E+02  0.30601094474E+01  0.46142323909E+02  0.10000056066E+02 0.  0.
        -12    1    1    2    0    0  0.27582635485E+02 -0.35481641512E+02 -0.30601094474E+01  0.45045676091E+02  0.00000000000E+00 0.  1.
         11    1    3    3    0    0 -0.25148678644E+01  0.54327622236E+01 -0.13643943171E+01  0.61401170891E+01  0.51100000000E-03 0. -1.
        -11    1    3    3    0    0 -0.49469555871E+00  0.32004509360E+01  0.12375848433E+01  0.34668755955E+01  0.51100000000E-03 0.  1.
         12    1    3    3    0    0 -0.24573072061E+02  0.26848428352E+02  0.31869189213E+01  0.36535331225E+02  0.00000000000E+00 0. -1.
</event>
<event>
 7    1  0.3435408E-009  0.4614232E+02  0.7816164E-02  0.1320468E+00
        -11   -1    0    0    0    0  0.00000000000E+00  0.00000000000E+00  0.45593999997E+02  0.45594000000E+02  0.51100000000E-03 0. -1.
         11   -1    0    0    0    0 -0.00000000000E+00 -0.00000000000E+00 -0.45593999997E+02  0.45594000000E+02  0.51100000000E-03 0.  1.
    9900012    2    1    2    0    0  0.33209069558E+02 -0.42460768761E+01  0.30137054463E+02  0.46142317393E+02  0.99999966456E+01 0.  0.
        -12    1    1    2    0    0 -0.33209069558E+02  0.42460768761E+01 -0.30137054463E+02  0.45045682607E+02  0.00000000000E+00 0.  1.
         11    1    3    3    0    0  0.17891278088E+02 -0.15505894077E+01  0.10050158278E+02  0.20579306130E+02  0.51100000000E-03 0. -1.
        -11    1    3    3    0    0  0.88377812689E+01 -0.78874041400E+00  0.13296287952E+02  0.15984985542E+02  0.51100000000E-03 0.  1.
         12    1    3    3    0    0  0.64800102017E+01 -0.19067470544E+01  0.67906082327E+01  0.95780257211E+01  0.00000000000E+00 0. -1.
</event>
<event>
 7    1  0.3435408E-009  0.4614232E+02  0.7816164E-02  0.1320468E+00
        -11   -1    0    0    0    0  0.00000000000E+00  0.00000000000E+00  0.45593999997E+02  0.45594000000E+02  0.51100000000E-03 0.  1.
         11   -1    0    0    0    0 -0.00000000000E+00 -0.00000000000E+00 -0.45593999997E+02  0.45594000000E+02  0.51100000000E-03 0. -1.
    9900012    2    1    2    0    0  0.14773441592E+02 -0.16587457434E+02 -0.39188203517E+02  0.46142316350E+02  0.99999871302E+01 0.  0.
        -12    1    1    2    0    0 -0.14773441592E+02  0.16587457434E+02  0.39188203517E+02  0.45045683650E+02  0.00000000000E+00 0.  1.
         11    1    3    3    0    0 -0.17751160572E+00 -0.28897294922E+01 -0.53128859126E+01  0.60505209602E+01  0.51100000000E-03 0. -1.
        -11    1    3    3    0    0  0.36413356160E+01 -0.21413911761E+01 -0.13108040963E+02  0.13771914151E+02  0.51100000000E-03 0.  1.
        -12    1    3    3    0    0  0.11309617582E+02 -0.11556336766E+02 -0.20767276642E+02  0.26319881238E+02  0.00000000000E+00 0.  1.
</event>
<event>
 7    1  0.3435408E-009  0.4614232E+02  0.7816164E-02  0.1320468E+00
        -11   -1    0    0    0    0  0.00000000000E+00  0.00000000000E+00  0.45593999997E+02  0.45594000000E+02  0.51100000000E-03 0.  1.
         11   -1    0    0    0    0 -0.00000000000E+00 -0.00000000000E+00 -0.45593999997E+02  0.45594000000E+02  0.51100000000E-03 0. -1.
    9900012    2    1    2    0    0 -0.63696689350E+01  0.43818076957E+02 -0.82775006176E+01  0.46142316888E+02  0.99999920346E+01 0.  0.
        -12    1    1    2    0    0  0.63696689350E+01 -0.43818076957E+02  0.82775006176E+01  0.45045683112E+02  0.00000000000E+00 0.  1.
         11    1    3    3    0    0 -0.15986772323E+01  0.12120782851E+02 -0.17454708279E+01  0.12349729328E+02  0.51100000000E-03 0. -1.
        -11    1    3    3    0    0 -0.38551025903E+01  0.45223052916E+01 -0.16507075600E+01  0.61674870767E+01  0.51100000000E-03 0.  1.
        -12    1    3    3    0    0 -0.91588911242E+00  0.27174988815E+02 -0.48813222297E+01  0.27625100483E+02  0.00000000000E+00 0.  1.
</event>
<event>
 7    1  0.3435408E-009  0.4614233E+02  0.7816164E-02  0.1320468E+00
        -11   -1    0    0    0    0  0.00000000000E+00  0.00000000000E+00  0.45593999997E+02  0.45594000000E+02  0.51100000000E-03 0.  1.
         11   -1    0    0    0    0 -0.00000000000E+00 -0.00000000000E+00 -0.45593999997E+02  0.45594000000E+02  0.51100000000E-03 0. -1.
    9900012    2    1    2    0    0 -0.44075704701E+02  0.71081181658E+01 -0.59932924297E+01  0.46142327146E+02  0.10000085574E+02 0.  0.
        -12    1    1    2    0    0  0.44075704701E+02 -0.71081181658E+01  0.59932924297E+01  0.45045672854E+02  0.00000000000E+00 0.  1.
         11    1    3    3    0    0 -0.12517676912E+02 -0.15377786654E+01 -0.20786848771E+01  0.12781937630E+02  0.51100000000E-03 0.  1.
        -11    1    3    3    0    0 -0.46571805846E+01  0.16670573777E+01  0.12292422097E+01  0.50970038227E+01  0.51100000000E-03 0. -1.
         12    1    3    3    0    0 -0.26900847204E+02  0.69788394535E+01 -0.51438497623E+01  0.28263385693E+02  0.00000000000E+00 0. -1.
</event>
<event>
 7    1  0.3435408E-009  0.4614232E+02  0.7816164E-02  0.1320468E+00
        -11   -1    0    0    0    0  0.00000000000E+00  0.00000000000E+00  0.45593999997E+02  0.45594000000E+02  0.51100000000E-03 0. -1.
         11   -1    0    0    0    0 -0.00000000000E+00 -0.00000000000E+00 -0.45593999997E+02  0.45594000000E+02  0.51100000000E-03 0.  1.
    9900012    2    1    2    0    0 -0.22467300585E+02 -0.15896897404E+02  0.35659816622E+02  0.46142318030E+02  0.10000002453E+02 0.  0.
        -12    1    1    2    0    0  0.22467300585E+02  0.15896897404E+02 -0.35659816622E+02  0.45045681970E+02  0.00000000000E+00 0.  1.
         11    1    3    3    0    0 -0.70124568399E+01 -0.41872080862E+01  0.14850057768E+02  0.16947904840E+02  0.51100000000E-03 0. -1.
        -11    1    3    3    0    0 -0.49013610144E+01 -0.45579985999E+01  0.31073220105E+01  0.73793049380E+01  0.51100000000E-03 0.  1.
        -12    1    3    3    0    0 -0.10553482730E+02 -0.71516907181E+01  0.17702436844E+02  0.21815108253E+02  0.00000000000E+00 0.  1.
</event>
<event>
 7    1  0.3435408E-009  0.4614232E+02  0.7816164E-02  0.1320468E+00
        -11   -1    0    0    0    0  0.00000000000E+00  0.00000000000E+00  0.45593999997E+02  0.45594000000E+02  0.51100000000E-03 0.  1.
         11   -1    0    0    0    0 -0.00000000000E+00 -0.00000000000E+00 -0.45593999997E+02  0.45594000000E+02  0.51100000000E-03 0. -1.
    9900012    2    1    2    0    0  0.12533751975E+02  0.35979010127E+02 -0.24031840995E+02  0.46142317744E+02  0.99999998423E+01 0.  0.
        -12    1    1    2    0    0 -0.12533751975E+02 -0.35979010127E+02  0.24031840995E+02  0.45045682256E+02  0.00000000000E+00 0.  1.
         11    1    3    3    0    0  0.11144456472E+02  0.26504886698E+02 -0.18028646109E+02  0.33937295262E+02  0.51100000000E-03 0. -1.
        -11    1    3    3    0    0  0.13231201292E+01  0.15620273411E+01  0.32573849376E+00  0.20728439686E+01  0.51100000000E-03 0.  1.
        -12    1    3    3    0    0  0.66175373149E-01  0.79120960881E+01 -0.63289333798E+01  0.10132178513E+02  0.00000000000E+00 0.  1.
</event>
<event>
 7    1  0.3435408E-009  0.4614232E+02  0.7816164E-02  0.1320468E+00
        -11   -1    0    0    0    0  0.00000000000E+00  0.00000000000E+00  0.45593999997E+02  0.45594000000E+02  0.51100000000E-03 0.  1.
         11   -1    0    0    0    0 -0.00000000000E+00 -0.00000000000E+00 -0.45593999997E+02  0.45594000000E+02  0.51100000000E-03 0. -1.
    9900012    2    1    2    0    0  0.19807358885E+02  0.16542170622E+02 -0.36920704054E+02  0.46142320266E+02  0.10000022842E+02 0.  0.
        -12    1    1    2    0    0 -0.19807358885E+02 -0.16542170622E+02  0.36920704054E+02  0.45045679734E+02  0.00000000000E+00 0.  1.
         11    1    3    3    0    0  0.14687487068E+02  0.16565126479E+02 -0.30116797463E+02  0.37378432034E+02  0.51100000000E-03 0. -1.
        -11    1    3    3    0    0  0.30504458481E+01 -0.30191200223E+00 -0.55159917087E+01  0.63105099256E+01  0.51100000000E-03 0.  1.
         12    1    3    3    0    0  0.20694259690E+01  0.27895614593E+00 -0.12879148817E+01  0.24533783065E+01  0.00000000000E+00 0. -1.
</event>
<event>
 7    1  0.3435408E-009  0.4614232E+02  0.7816164E-02  0.1320468E+00
        -11   -1    0    0    0    0  0.00000000000E+00  0.00000000000E+00  0.45593999997E+02  0.45594000000E+02  0.51100000000E-03 0.  1.
         11   -1    0    0    0    0 -0.00000000000E+00 -0.00000000000E+00 -0.45593999997E+02  0.45594000000E+02  0.51100000000E-03 0. -1.
    9900012    2    1    2    0    0  0.25058076654E+02  0.37432689913E+02  0.50650501045E-02  0.46142317572E+02  0.99999982776E+01 0.  0.
        -12    1    1    2    0    0 -0.25058076654E+02 -0.37432689913E+02 -0.50650501045E-02  0.45045682428E+02  0.00000000000E+00 0.  1.
         11    1    3    3    0    0  0.17167553115E+02  0.26011090011E+02 -0.12555141805E+01  0.31190992284E+02  0.51100000000E-03 0. -1.
        -11    1    3    3    0    0  0.50000489768E+01  0.10254861357E+02  0.23518129544E+01  0.11648763697E+02  0.51100000000E-03 0.  1.
        -12    1    3    3    0    0  0.28904745625E+01  0.11667385444E+01 -0.10912337237E+01  0.33025615918E+01  0.00000000000E+00 0.  1.
</event>
<event>
 7    1  0.3435408E-009  0.4614232E+02  0.7816164E-02  0.1320468E+00
        -11   -1    0    0    0    0  0.00000000000E+00  0.00000000000E+00  0.45593999997E+02  0.45594000000E+02  0.51100000000E-03 0. -1.
         11   -1    0    0    0    0 -0.00000000000E+00 -0.00000000000E+00 -0.45593999997E+02  0.45594000000E+02  0.51100000000E-03 0.  1.
    9900012    2    1    2    0    0 -0.43745205395E+02  0.10439593021E+02 -0.25466639478E+01  0.46142316580E+02  0.99999892290E+01 0.  0.
        -12    1    1    2    0    0  0.43745205395E+02 -0.10439593021E+02  0.25466639478E+01  0.45045683420E+02  0.00000000000E+00 0.  1.
         11    1    3    3    0    0 -0.90486553198E+01  0.15194533499E+01  0.22454289980E+01  0.94461025415E+01  0.51100000000E-03 0. -1.
        -11    1    3    3    0    0 -0.17749026950E+02  0.18698327285E+01 -0.41814039106E+01  0.18330531117E+02  0.51100000000E-03 0.  1.
        -12    1    3    3    0    0 -0.16947523126E+02  0.70503069427E+01 -0.61068903525E+00  0.18365682922E+02  0.00000000000E+00 0.  1.
</event>
<event>
 7    1  0.3435408E-009  0.4614232E+02  0.7816164E-02  0.1320468E+00
        -11   -1    0    0    0    0  0.00000000000E+00  0.00000000000E+00  0.45593999997E+02  0.45594000000E+02  0.51100000000E-03 0.  1.
         11   -1    0    0    0    0 -0.00000000000E+00 -0.00000000000E+00 -0.45593999997E+02  0.45594000000E+02  0.51100000000E-03 0. -1.
    9900012    2    1    2    0    0  0.77620591566E+01 -0.44164057137E+02 -0.42895238873E+01  0.46142317406E+02  0.99999967656E+01 0.  0.
        -12    1    1    2    0    0 -0.77620591566E+01  0.44164057137E+02  0.42895238873E+01  0.45045682594E+02  0.00000000000E+00 0.  1.
         11    1    3    3    0    0  0.53008071000E+01 -0.16852650633E+02  0.14906405493E+01  0.17729421840E+02  0.51100000000E-03 0. -1.
        -11    1    3    3    0    0  0.11030916378E+01 -0.60562293297E+01 -0.32599773919E+01  0.69657862235E+01  0.51100000000E-03 0.  1.
         12    1    3    3    0    0  0.13581604188E+01 -0.21255177174E+02 -0.25201870447E+01  0.21447109343E+02  0.00000000000E+00 0. -1.
</event>
<event>
 7    1  0.3435408E-009  0.4614232E+02  0.7816164E-02  0.1320468E+00
        -11   -1    0    0    0    0  0.00000000000E+00  0.00000000000E+00  0.45593999997E+02  0.45594000000E+02  0.51100000000E-03 0.  1.
         11   -1    0    0    0    0 -0.00000000000E+00 -0.00000000000E+00 -0.45593999997E+02  0.45594000000E+02  0.51100000000E-03 0. -1.
    9900012    2    1    2    0    0 -0.25430035824E+02  0.48635524359E+01 -0.36861533820E+02  0.46142317189E+02  0.99999947868E+01 0.  0.
        -12    1    1    2    0    0  0.25430035824E+02 -0.48635524359E+01  0.36861533820E+02  0.45045682811E+02  0.00000000000E+00 0.  1.
         11    1    3    3    0    0 -0.11011572645E+02 -0.10125246006E+01 -0.10799657738E+02  0.15456796101E+02  0.51100000000E-03 0. -1.
        -11    1    3    3    0    0 -0.46317742611E+01  0.42182975622E+01 -0.96391577980E+01  0.11496118060E+02  0.51100000000E-03 0.  1.
         12    1    3    3    0    0 -0.97866889173E+01  0.16577794742E+01 -0.16422718284E+02  0.19189403029E+02  0.00000000000E+00 0. -1.
</event>
<event>
 7    1  0.3435408E-009  0.4614232E+02  0.7816164E-02  0.1320468E+00
        -11   -1    0    0    0    0  0.00000000000E+00  0.00000000000E+00  0.45593999997E+02  0.45594000000E+02  0.51100000000E-03 0.  1.
         11   -1    0    0    0    0 -0.00000000000E+00 -0.00000000000E+00 -0.45593999997E+02  0.45594000000E+02  0.51100000000E-03 0. -1.
    9900012    2    1    2    0    0  0.24919340865E+02  0.29189023476E+02 -0.23582628535E+02  0.46142323079E+02  0.10000048494E+02 0.  0.
        -12    1    1    2    0    0 -0.24919340865E+02 -0.29189023476E+02  0.23582628535E+02  0.45045676921E+02  0.00000000000E+00 0.  1.
         11    1    3    3    0    0  0.75155004089E+01  0.97621238296E+01 -0.54342262985E+01  0.13465237606E+02  0.51100000000E-03 0. -1.
        -11    1    3    3    0    0  0.28631773434E+00 -0.56901137815E+00 -0.12348981103E+01  0.13895054506E+01  0.51100000000E-03 0.  1.
        -12    1    3    3    0    0  0.17117522721E+02  0.19995911025E+02 -0.16913504126E+02  0.31287580023E+02  0.00000000000E+00 0.  1.
</event>
<event>
 7    1  0.3435408E-009  0.4614231E+02  0.7816164E-02  0.1320468E+00
        -11   -1    0    0    0    0  0.00000000000E+00  0.00000000000E+00  0.45593999997E+02  0.45594000000E+02  0.51100000000E-03 0.  1.
         11   -1    0    0    0    0 -0.00000000000E+00 -0.00000000000E+00 -0.45593999997E+02  0.45594000000E+02  0.51100000000E-03 0. -1.
    9900012    2    1    2    0    0  0.23318941586E+01  0.98843674079E+01 -0.43885939638E+02  0.46142310447E+02  0.99999333024E+01 0.  0.
        -12    1    1    2    0    0 -0.23318941586E+01 -0.98843674079E+01  0.43885939638E+02  0.45045689553E+02  0.00000000000E+00 0.  1.
         11    1    3    3    0    0 -0.13884100188E-01  0.55558855807E+01 -0.38280788545E+02  0.38681866931E+02  0.51100000000E-03 0. -1.
        -11    1    3    3    0    0  0.89082958581E+00  0.16017536014E+01 -0.21003366624E+01  0.27875807265E+01  0.51100000000E-03 0.  1.
         12    1    3    3    0    0  0.14549486730E+01  0.27267282258E+01 -0.35048144306E+01  0.46728627897E+01  0.00000000000E+00 0. -1.
</event>
<event>
 7    1  0.3435408E-009  0.4614233E+02  0.7816164E-02  0.1320468E+00
        -11   -1    0    0    0    0  0.00000000000E+00  0.00000000000E+00  0.45593999997E+02  0.45594000000E+02  0.51100000000E-03 0.  1.
         11   -1    0    0    0    0 -0.00000000000E+00 -0.00000000000E+00 -0.45593999997E+02  0.45594000000E+02  0.51100000000E-03 0. -1.
    9900012    2    1    2    0    0 -0.20043987351E+02  0.12575390005E+02 -0.38330287012E+02  0.46142325789E+02  0.10000073201E+02 0.  0.
        -12    1    1    2    0    0  0.20043987351E+02 -0.12575390005E+02  0.38330287012E+02  0.45045674211E+02  0.00000000000E+00 0.  1.
         11    1    3    3    0    0 -0.57271151266E+01  0.55921665015E+00 -0.13755645039E+02  0.14910745844E+02  0.51100000000E-03 0. -1.
        -11    1    3    3    0    0 -0.50279047160E+01  0.23035195201E+01 -0.48043741928E+01  0.73258473680E+01  0.51100000000E-03 0.  1.
        -12    1    3    3    0    0 -0.92889675083E+01  0.97126538352E+01 -0.19770267780E+02  0.23905732576E+02  0.00000000000E+00 0.  1.
</event>
<event>
 7    1  0.3435408E-009  0.4614232E+02  0.7816164E-02  0.1320468E+00
        -11   -1    0    0    0    0  0.00000000000E+00  0.00000000000E+00  0.45593999997E+02  0.45594000000E+02  0.51100000000E-03 0.  1.
         11   -1    0    0    0    0 -0.00000000000E+00 -0.00000000000E+00 -0.45593999997E+02  0.45594000000E+02  0.51100000000E-03 0. -1.
    9900012    2    1    2    0    0 -0.37511042963E+02 -0.13634947390E+02  0.20883566219E+02  0.46142317937E+02  0.10000001606E+02 0.  0.
        -12    1    1    2    0    0  0.37511042963E+02  0.13634947390E+02 -0.20883566219E+02  0.45045682063E+02  0.00000000000E+00 0.  1.
         11    1    3    3    0    0 -0.65853463660E+00 -0.77653077336E-01 -0.63278882523E+00  0.91658050736E+00  0.51100000000E-03 0.  1.
        -11    1    3    3    0    0 -0.88094591674E+01 -0.25694005142E+01  0.81538341236E+01  0.12275724052E+02  0.51100000000E-03 0. -1.
        -12    1    3    3    0    0 -0.28043049159E+02 -0.10987893798E+02  0.13362520920E+02  0.32950013378E+02  0.00000000000E+00 0.  1.
</event>
<event>
 7    1  0.3435408E-009  0.4614232E+02  0.7816164E-02  0.1320468E+00
        -11   -1    0    0    0    0  0.00000000000E+00  0.00000000000E+00  0.45593999997E+02  0.45594000000E+02  0.51100000000E-03 0.  1.
         11   -1    0    0    0    0 -0.00000000000E+00 -0.00000000000E+00 -0.45593999997E+02  0.45594000000E+02  0.51100000000E-03 0. -1.
    9900012    2    1    2    0    0  0.30525359898E+02  0.18862993303E+02 -0.27230558951E+02  0.46142318142E+02  0.10000003476E+02 0.  0.
        -12    1    1    2    0    0 -0.30525359898E+02 -0.18862993303E+02  0.27230558951E+02  0.45045681858E+02  0.00000000000E+00 0.  1.
         11    1    3    3    0    0  0.54837603243E+01  0.23200197060E+01 -0.54421403224E+01  0.80666604168E+01  0.51100000000E-03 0. -1.
        -11    1    3    3    0    0  0.16040779250E+02  0.12749891028E+02 -0.18935397092E+02  0.27900100062E+02  0.51100000000E-03 0.  1.
        -12    1    3    3    0    0  0.90008203240E+01  0.37930825688E+01 -0.28530215367E+01  0.10175557664E+02  0.00000000000E+00 0.  1.
</event>
<event>
 7    1  0.3435408E-009  0.4614232E+02  0.7816164E-02  0.1320468E+00
        -11   -1    0    0    0    0  0.00000000000E+00  0.00000000000E+00  0.45593999997E+02  0.45594000000E+02  0.51100000000E-03 0. -1.
         11   -1    0    0    0    0 -0.00000000000E+00 -0.00000000000E+00 -0.45593999997E+02  0.45594000000E+02  0.51100000000E-03 0.  1.
    9900012    2    1    2    0    0 -0.13626498203E+02  0.36236150012E+02  0.23029838301E+02  0.46142317930E+02  0.10000001538E+02 0.  0.
        -12    1    1    2    0    0  0.13626498203E+02 -0.36236150012E+02 -0.23029838301E+02  0.45045682070E+02  0.00000000000E+00 0.  1.
         11    1    3    3    0    0 -0.11956187373E+02  0.25756000671E+02  0.18879351059E+02  0.34099147844E+02  0.51100000000E-03 0. -1.
        -11    1    3    3    0    0 -0.47088035810E+00 -0.69425555327E-01 -0.26422674649E+00  0.54439347356E+00  0.51100000000E-03 0.  1.
         12    1    3    3    0    0 -0.11994304716E+01  0.10549574897E+02  0.44147139889E+01  0.11498776612E+02  0.00000000000E+00 0. -1.
</event>
<event>
 7    1  0.3435408E-009  0.4614232E+02  0.7816164E-02  0.1320468E+00
        -11   -1    0    0    0    0  0.00000000000E+00  0.00000000000E+00  0.45593999997E+02  0.45594000000E+02  0.51100000000E-03 0.  1.
         11   -1    0    0    0    0 -0.00000000000E+00 -0.00000000000E+00 -0.45593999997E+02  0.45594000000E+02  0.51100000000E-03 0. -1.
    9900012    2    1    2    0    0 -0.30449881311E+02 -0.21727369909E+01 -0.33123970537E+02  0.46142317832E+02  0.10000000643E+02 0.  0.
        -12    1    1    2    0    0  0.30449881311E+02  0.21727369909E+01  0.33123970537E+02  0.45045682168E+02  0.00000000000E+00 0.  1.
         11    1    3    3    0    0 -0.88477022712E+01 -0.37538194657E+01 -0.84810236072E+01  0.12817985713E+02  0.51100000000E-03 0. -1.
        -11    1    3    3    0    0 -0.14013292525E+02  0.16670544894E+01 -0.19825128383E+02  0.24334895803E+02  0.51100000000E-03 0.  1.
        -12    1    3    3    0    0 -0.75888865146E+01 -0.85972014570E-01 -0.48178185462E+01  0.89894363151E+01  0.00000000000E+00 0.  1.
</event>
<event>
 7    1  0.3435408E-009  0.4614232E+02  0.7816164E-02  0.1320468E+00
        -11   -1    0    0    0    0  0.00000000000E+00  0.00000000000E+00  0.45593999997E+02  0.45594000000E+02  0.51100000000E-03 0.  1.
         11   -1    0    0    0    0 -0.00000000000E+00 -0.00000000000E+00 -0.45593999997E+02  0.45594000000E+02  0.51100000000E-03 0. -1.
    9900012    2    1    2    0    0 -0.37786329962E+02 -0.19178597499E+02 -0.15280319980E+02  0.46142317491E+02  0.99999975365E+01 0.  0.
        -12    1    1    2    0    0  0.37786329962E+02  0.19178597499E+02  0.15280319980E+02  0.45045682509E+02  0.00000000000E+00 0.  1.
         11    1    3    3    0    0 -0.29416370939E+02 -0.16331335742E+02 -0.15122886528E+02  0.36888170238E+02  0.51100000000E-03 0. -1.
        -11    1    3    3    0    0  0.11496737707E+00 -0.22039567258E-01  0.27695802672E+00  0.30068130970E+00  0.51100000000E-03 0.  1.
         12    1    3    3    0    0 -0.84849264001E+01 -0.28252221902E+01 -0.43439147869E+00  0.89534659432E+01  0.00000000000E+00 0. -1.
</event>
<event>
 7    1  0.3435408E-009  0.4614232E+02  0.7816164E-02  0.1320468E+00
        -11   -1    0    0    0    0  0.00000000000E+00  0.00000000000E+00  0.45593999997E+02  0.45594000000E+02  0.51100000000E-03 0.  1.
         11   -1    0    0    0    0 -0.00000000000E+00 -0.00000000000E+00 -0.45593999997E+02  0.45594000000E+02  0.51100000000E-03 0. -1.
    9900012    2    1    2    0    0  0.36182746762E+02  0.23038516244E+02 -0.13753147689E+02  0.46142318017E+02  0.10000002333E+02 0.  0.
        -12    1    1    2    0    0 -0.36182746762E+02 -0.23038516244E+02  0.13753147689E+02  0.45045681983E+02  0.00000000000E+00 0.  1.
         11    1    3    3    0    0  0.19229100075E+02  0.11156562695E+02 -0.10680393756E+02  0.24663697856E+02  0.51100000000E-03 0. -1.
        -11    1    3    3    0    0  0.21428202187E+01  0.85245855263E+00  0.10869109712E+01  0.25494587257E+01  0.51100000000E-03 0.  1.
         12    1    3    3    0    0  0.14810826468E+02  0.11029494996E+02 -0.41596649039E+01  0.18929161436E+02  0.00000000000E+00 0. -1.
</event>
<event>
 7    1  0.3435408E-009  0.4614232E+02  0.7816164E-02  0.1320468E+00
        -11   -1    0    0    0    0  0.00000000000E+00  0.00000000000E+00  0.45593999997E+02  0.45594000000E+02  0.51100000000E-03 0.  1.
         11   -1    0    0    0    0 -0.00000000000E+00 -0.00000000000E+00 -0.45593999997E+02  0.45594000000E+02  0.51100000000E-03 0. -1.
    9900012    2    1    2    0    0 -0.40248706536E+01 -0.16039057664E+02 -0.41900626247E+02  0.46142318360E+02  0.10000005465E+02 0.  0.
        -12    1    1    2    0    0  0.40248706536E+01  0.16039057664E+02  0.41900626247E+02  0.45045681640E+02  0.00000000000E+00 0.  1.
         11    1    3    3    0    0 -0.28204055625E+01 -0.37908543182E+01 -0.18037481371E+02  0.18646071931E+02  0.51100000000E-03 0. -1.
        -11    1    3    3    0    0 -0.11251192310E+01 -0.26124726874E+01 -0.11360218214E+02  0.11710912217E+02  0.51100000000E-03 0.  1.
        -12    1    3    3    0    0 -0.79345860032E-01 -0.96357306580E+01 -0.12502926662E+02  0.15785334212E+02  0.00000000000E+00 0.  1.
</event>
<event>
 7    1  0.3435408E-009  0.4614232E+02  0.7816164E-02  0.1320468E+00
        -11   -1    0    0    0    0  0.00000000000E+00  0.00000000000E+00  0.45593999997E+02  0.45594000000E+02  0.51100000000E-03 0. -1.
         11   -1    0    0    0    0 -0.00000000000E+00 -0.00000000000E+00 -0.45593999997E+02  0.45594000000E+02  0.51100000000E-03 0.  1.
    9900012    2    1    2    0    0 -0.35617493665E+02  0.27464128858E+02  0.24958463581E+01  0.46142317876E+02  0.10000001052E+02 0.  0.
        -12    1    1    2    0    0  0.35617493665E+02 -0.27464128858E+02 -0.24958463581E+01  0.45045682124E+02  0.00000000000E+00 0.  1.
         11    1    3    3    0    0 -0.13430485525E+02  0.11104165193E+02 -0.77346925703E+00  0.17443585670E+02  0.51100000000E-03 0. -1.
        -11    1    3    3    0    0 -0.16163656350E+02  0.98486415055E+01  0.51830565374E+01  0.19624566274E+02  0.51100000000E-03 0.  1.
        -12    1    3    3    0    0 -0.60233517895E+01  0.65113221599E+01 -0.19137409222E+01  0.90741659323E+01  0.00000000000E+00 0.  1.
</event>
<event>
 7    1  0.3435408E-009  0.4614232E+02  0.7816164E-02  0.1320468E+00
        -11   -1    0    0    0    0  0.00000000000E+00  0.00000000000E+00  0.45593999997E+02  0.45594000000E+02  0.51100000000E-03 0.  1.
         11   -1    0    0    0    0 -0.00000000000E+00 -0.00000000000E+00 -0.45593999997E+02  0.45594000000E+02  0.51100000000E-03 0. -1.
    9900012    2    1    2    0    0  0.22283676582E+01 -0.13004023605E+02 -0.43070215581E+02  0.46142315162E+02  0.99999762951E+01 0.  0.
        -12    1    1    2    0    0 -0.22283676582E+01  0.13004023605E+02  0.43070215581E+02  0.45045684838E+02  0.00000000000E+00 0.  1.
         11    1    3    3    0    0  0.23817995383E+01 -0.91086257559E+00 -0.97811746625E+01  0.10108116427E+02  0.51100000000E-03 0. -1.
        -11    1    3    3    0    0 -0.11278412128E+01 -0.12006015995E+02 -0.25771114901E+02  0.28452887540E+02  0.51100000000E-03 0.  1.
        -12    1    3    3    0    0  0.97440933280E+00 -0.87145034009E-01 -0.75179260183E+01  0.75813111941E+01  0.00000000000E+00 0.  1.
</event>
<event>
 7    1  0.3435408E-009  0.4614232E+02  0.7816164E-02  0.1320468E+00
        -11   -1    0    0    0    0  0.00000000000E+00  0.00000000000E+00  0.45593999997E+02  0.45594000000E+02  0.51100000000E-03 0. -1.
         11   -1    0    0    0    0 -0.00000000000E+00 -0.00000000000E+00 -0.45593999997E+02  0.45594000000E+02  0.51100000000E-03 0.  1.
    9900012    2    1    2    0    0 -0.31924787673E+01 -0.44270902554E+02 -0.76817166788E+01  0.46142317580E+02  0.99999983445E+01 0.  0.
        -12    1    1    2    0    0  0.31924787673E+01  0.44270902554E+02  0.76817166788E+01  0.45045682420E+02  0.00000000000E+00 0.  1.
         11    1    3    3    0    0 -0.13282960171E+01 -0.58225969553E+01  0.15875444482E+01  0.61795876277E+01  0.51100000000E-03 0. -1.
        -11    1    3    3    0    0  0.21702545464E+00 -0.51358625364E+01 -0.31506252106E+01  0.60291478269E+01  0.51100000000E-03 0.  1.
         12    1    3    3    0    0 -0.20812082048E+01 -0.33312443062E+02 -0.61186359164E+01  0.33933582125E+02  0.00000000000E+00 0. -1.
</event>
<event>
 7    1  0.3435408E-009  0.4614232E+02  0.7816164E-02  0.1320468E+00
        -11   -1    0    0    0    0  0.00000000000E+00  0.00000000000E+00  0.45593999997E+02  0.45594000000E+02  0.51100000000E-03 0. -1.
         11   -1    0    0    0    0 -0.00000000000E+00 -0.00000000000E+00 -0.45593999997E+02  0.45594000000E+02  0.51100000000E-03 0.  1.
    9900012    2    1    2    0    0  0.33556376766E+02  0.20040896031E+02  0.22392981865E+02  0.46142316831E+02  0.99999915145E+01 0.  0.
        -12    1    1    2    0    0 -0.33556376766E+02 -0.20040896031E+02 -0.22392981865E+02  0.45045683169E+02  0.00000000000E+00 0.  1.
         11    1    3    3    0    0  0.14858089823E+02  0.78195801031E+01  0.74763420290E+01  0.18379454741E+02  0.51100000000E-03 0. -1.
        -11    1    3    3    0    0  0.11647196369E+02  0.40205615811E+01  0.58030572124E+01  0.13619749335E+02  0.51100000000E-03 0.  1.
         12    1    3    3    0    0  0.70510905737E+01  0.82007543468E+01  0.91135826239E+01  0.14143112754E+02  0.00000000000E+00 0. -1.
</event>
<event>
 7    1  0.3435408E-009  0.4614232E+02  0.7816164E-02  0.1320468E+00
        -11   -1    0    0    0    0  0.00000000000E+00  0.00000000000E+00  0.45593999997E+02  0.45594000000E+02  0.51100000000E-03 0.  1.
         11   -1    0    0    0    0 -0.00000000000E+00 -0.00000000000E+00 -0.45593999997E+02  0.45594000000E+02  0.51100000000E-03 0. -1.
    9900012    2    1    2    0    0  0.16441753020E+02 -0.41934471132E+02  0.53137421545E+00  0.46142317965E+02  0.10000001858E+02 0.  0.
        -12    1    1    2    0    0 -0.16441753020E+02  0.41934471132E+02 -0.53137421545E+00  0.45045682035E+02  0.00000000000E+00 0.  1.
         11    1    3    3    0    0  0.29252015345E+01 -0.13398737352E+02  0.22443908365E+01  0.13896771464E+02  0.51100000000E-03 0. -1.
        -11    1    3    3    0    0  0.21963016727E+01 -0.97538685632E+00 -0.28394401575E-01  0.24033158469E+01  0.51100000000E-03 0.  1.
        -12    1    3    3    0    0  0.11320249813E+02 -0.27560346923E+02 -0.16846222194E+01  0.29842230654E+02  0.00000000000E+00 0.  1.
</event>
<event>
 7    1  0.3435408E-009  0.4614232E+02  0.7816164E-02  0.1320468E+00
        -11   -1    0    0    0    0  0.00000000000E+00  0.00000000000E+00  0.45593999997E+02  0.45594000000E+02  0.51100000000E-03 0.  1.
         11   -1    0    0    0    0 -0.00000000000E+00 -0.00000000000E+00 -0.45593999997E+02  0.45594000000E+02  0.51100000000E-03 0. -1.
    9900012    2    1    2    0    0 -0.88233892651E+01  0.23193279282E+02 -0.37594322101E+02  0.46142318118E+02  0.10000003250E+02 0.  0.
        -12    1    1    2    0    0  0.88233892651E+01 -0.23193279282E+02  0.37594322101E+02  0.45045681882E+02  0.00000000000E+00 0.  1.
         11    1    3    3    0    0 -0.46904054321E+01  0.68762617066E+01 -0.79561409264E+01  0.11514471628E+02  0.51100000000E-03 0. -1.
        -11    1    3    3    0    0 -0.20541257287E+01  0.12672923354E+02 -0.16944603073E+02  0.21258927358E+02  0.51100000000E-03 0.  1.
         12    1    3    3    0    0 -0.20788581044E+01  0.36440942218E+01 -0.12693578102E+02  0.13368919131E+02  0.00000000000E+00 0. -1.
</event>
<event>
 7    1  0.3435408E-009  0.4614232E+02  0.7816164E-02  0.1320468E+00
        -11   -1    0    0    0    0  0.00000000000E+00  0.00000000000E+00  0.45593999997E+02  0.45594000000E+02  0.51100000000E-03 0.  1.
         11   -1    0    0    0    0 -0.00000000000E+00 -0.00000000000E+00 -0.45593999997E+02  0.45594000000E+02  0.51100000000E-03 0. -1.
    9900012    2    1    2    0    0  0.36436713998E+02 -0.16333025023E+02 -0.20849740491E+02  0.46142317500E+02  0.99999976210E+01 0.  0.
        -12    1    1    2    0    0 -0.36436713998E+02  0.16333025023E+02  0.20849740491E+02  0.45045682500E+02  0.00000000000E+00 0.  1.
         11    1    3    3    0    0  0.27923011588E+02 -0.11415516059E+02 -0.19547745740E+02  0.35946111706E+02  0.51100000000E-03 0. -1.
        -11    1    3    3    0    0  0.58815793989E+01 -0.23161674931E+01 -0.14767137716E+01  0.64914013823E+01  0.51100000000E-03 0.  1.
        -12    1    3    3    0    0  0.26321230112E+01 -0.26013414709E+01  0.17471902092E+00  0.37048044119E+01  0.00000000000E+00 0.  1.
</event>
<event>
 7    1  0.3435408E-009  0.4614232E+02  0.7816164E-02  0.1320468E+00
        -11   -1    0    0    0    0  0.00000000000E+00  0.00000000000E+00  0.45593999997E+02  0.45594000000E+02  0.51100000000E-03 0.  1.
         11   -1    0    0    0    0 -0.00000000000E+00 -0.00000000000E+00 -0.45593999997E+02  0.45594000000E+02  0.51100000000E-03 0. -1.
    9900012    2    1    2    0    0  0.22029085825E+02  0.40455195139E+01 -0.39082816729E+02  0.46142318588E+02  0.10000007536E+02 0.  0.
        -12    1    1    2    0    0 -0.22029085825E+02 -0.40455195139E+01  0.39082816729E+02  0.45045681412E+02  0.00000000000E+00 0.  1.
         11    1    3    3    0    0  0.85858900533E+01 -0.93375333145E+00 -0.20634566374E+02  0.22369057490E+02  0.51100000000E-03 0. -1.
        -11    1    3    3    0    0  0.86958718187E-01 -0.18597567654E+00  0.18263236034E+00  0.27477920427E+00  0.51100000000E-03 0.  1.
         12    1    3    3    0    0  0.13356237053E+02  0.51652485219E+01 -0.18630882716E+02  0.23498481893E+02  0.00000000000E+00 0. -1.
</event>
<event>
 7    1  0.3435408E-009  0.4614232E+02  0.7816164E-02  0.1320468E+00
        -11   -1    0    0    0    0  0.00000000000E+00  0.00000000000E+00  0.45593999997E+02  0.45594000000E+02  0.51100000000E-03 0. -1.
         11   -1    0    0    0    0 -0.00000000000E+00 -0.00000000000E+00 -0.45593999997E+02  0.45594000000E+02  0.51100000000E-03 0.  1.
    9900012    2    1    2    0    0 -0.17501465896E+02  0.17462942038E+02  0.37654455266E+02  0.46142315917E+02  0.99999831849E+01 0.  0.
        -12    1    1    2    0    0  0.17501465896E+02 -0.17462942038E+02 -0.37654455266E+02  0.45045684083E+02  0.00000000000E+00 0.  1.
         11    1    3    3    0    0 -0.23053963777E+01  0.63475108411E+01  0.88737830017E+01  0.11151222864E+02  0.51100000000E-03 0. -1.
        -11    1    3    3    0    0 -0.36702004143E+01  0.23437151669E+01  0.26024658593E+01  0.50730859124E+01  0.51100000000E-03 0.  1.
         12    1    3    3    0    0 -0.11525869104E+02  0.87717160304E+01  0.26178206405E+02  0.29918007141E+02  0.00000000000E+00 0. -1.
</event>
<event>
 7    1  0.3435408E-009  0.4614232E+02  0.7816164E-02  0.1320468E+00
        -11   -1    0    0    0    0  0.00000000000E+00  0.00000000000E+00  0.45593999997E+02  0.45594000000E+02  0.51100000000E-03 0.  1.
         11   -1    0    0    0    0 -0.00000000000E+00 -0.00000000000E+00 -0.45593999997E+02  0.45594000000E+02  0.51100000000E-03 0. -1.
    9900012    2    1    2    0    0 -0.16219980712E+02 -0.24373051199E+02 -0.34234194225E+02  0.46142318151E+02  0.10000003552E+02 0.  0.
        -12    1    1    2    0    0  0.16219980712E+02  0.24373051199E+02  0.34234194225E+02  0.45045681849E+02  0.00000000000E+00 0.  1.
         11    1    3    3    0    0 -0.15475004410E+02 -0.23586238634E+02 -0.31434645907E+02  0.42236517115E+02  0.51100000000E-03 0. -1.
        -11    1    3    3    0    0 -0.16326682518E+01 -0.53239887728E+00 -0.13380871309E+01  0.21770465351E+01  0.51100000000E-03 0.  1.
         12    1    3    3    0    0  0.88769195027E+00 -0.25441368704E+00 -0.14614611869E+01  0.17287545007E+01  0.00000000000E+00 0. -1.
</event>
<event>
 7    1  0.3435408E-009  0.4614232E+02  0.7816164E-02  0.1320468E+00
        -11   -1    0    0    0    0  0.00000000000E+00  0.00000000000E+00  0.45593999997E+02  0.45594000000E+02  0.51100000000E-03 0. -1.
         11   -1    0    0    0    0 -0.00000000000E+00 -0.00000000000E+00 -0.45593999997E+02  0.45594000000E+02  0.51100000000E-03 0.  1.
    9900012    2    1    2    0    0  0.38607198540E+02 -0.14789497231E+02  0.17884867982E+02  0.46142317519E+02  0.99999977923E+01 0.  0.
        -12    1    1    2    0    0 -0.38607198540E+02  0.14789497231E+02 -0.17884867982E+02  0.45045682481E+02  0.00000000000E+00 0.  1.
         11    1    3    3    0    0  0.97169733432E+00 -0.33434671800E-01 -0.37698934696E+00  0.10428014268E+01  0.51100000000E-03 0.  1.
        -11    1    3    3    0    0  0.15603330770E+02 -0.87686176310E+01  0.11552356266E+02  0.21302805492E+02  0.51100000000E-03 0. -1.
        -12    1    3    3    0    0  0.22032170436E+02 -0.59874449286E+01  0.67095010626E+01  0.23796710600E+02  0.00000000000E+00 0.  1.
</event>
<event>
 7    1  0.3435408E-009  0.4614232E+02  0.7816164E-02  0.1320468E+00
        -11   -1    0    0    0    0  0.00000000000E+00  0.00000000000E+00  0.45593999997E+02  0.45594000000E+02  0.51100000000E-03 0.  1.
         11   -1    0    0    0    0 -0.00000000000E+00 -0.00000000000E+00 -0.45593999997E+02  0.45594000000E+02  0.51100000000E-03 0. -1.
    9900012    2    1    2    0    0  0.29714950528E+02  0.25616476709E+02  0.22134391197E+02  0.46142318325E+02  0.10000005145E+02 0.  0.
        -12    1    1    2    0    0 -0.29714950528E+02 -0.25616476709E+02 -0.22134391197E+02  0.45045681675E+02  0.00000000000E+00 0.  1.
         11    1    3    3    0    0  0.16634395331E+02  0.15537665807E+02  0.10928429133E+02  0.25249806541E+02  0.51100000000E-03 0. -1.
        -11    1    3    3    0    0  0.54668209634E+01  0.16033485418E+01  0.62829394986E+01  0.84812845134E+01  0.51100000000E-03 0.  1.
        -12    1    3    3    0    0  0.76137342338E+01  0.84754623604E+01  0.49230225648E+01  0.12411227271E+02  0.00000000000E+00 0.  1.
</event>
<event>
 7    1  0.3435408E-009  0.4614232E+02  0.7816164E-02  0.1320468E+00
        -11   -1    0    0    0    0  0.00000000000E+00  0.00000000000E+00  0.45593999997E+02  0.45594000000E+02  0.51100000000E-03 0.  1.
         11   -1    0    0    0    0 -0.00000000000E+00 -0.00000000000E+00 -0.45593999997E+02  0.45594000000E+02  0.51100000000E-03 0. -1.
    9900012    2    1    2    0    0 -0.38377283736E+02  0.23507296980E+02  0.19246946923E+01  0.46142319098E+02  0.10000012190E+02 0.  0.
        -12    1    1    2    0    0  0.38377283736E+02 -0.23507296980E+02 -0.19246946923E+01  0.45045680902E+02  0.00000000000E+00 0.  1.
         11    1    3    3    0    0 -0.27363442905E+01  0.36113699586E+01 -0.11046793623E+00  0.45323036615E+01  0.51100000000E-03 0. -1.
        -11    1    3    3    0    0 -0.11242257523E+02  0.25105175661E+01  0.17372641029E+01  0.11649426573E+02  0.51100000000E-03 0.  1.
        -12    1    3    3    0    0 -0.24398681923E+02  0.17385409455E+02  0.29789852561E+00  0.29960588863E+02  0.00000000000E+00 0.  1.
</event>
<event>
 7    1  0.3435408E-009  0.4614232E+02  0.7816164E-02  0.1320468E+00
        -11   -1    0    0    0    0  0.00000000000E+00  0.00000000000E+00  0.45593999997E+02  0.45594000000E+02  0.51100000000E-03 0.  1.
         11   -1    0    0    0    0 -0.00000000000E+00 -0.00000000000E+00 -0.45593999997E+02  0.45594000000E+02  0.51100000000E-03 0. -1.
    9900012    2    1    2    0    0 -0.19680442372E+01  0.22617410015E+02 -0.38906206904E+02  0.46142319080E+02  0.10000012022E+02 0.  0.
        -12    1    1    2    0    0  0.19680442372E+01 -0.22617410015E+02  0.38906206904E+02  0.45045680920E+02  0.00000000000E+00 0.  1.
         11    1    3    3    0    0 -0.28998598803E+01  0.14710804738E+02 -0.26764438276E+02  0.30678202683E+02  0.51100000000E-03 0. -1.
        -11    1    3    3    0    0  0.20830493540E+01  0.46515741212E+01 -0.35685833268E+01  0.62218183546E+01  0.51100000000E-03 0.  1.
         12    1    3    3    0    0 -0.11512337109E+01  0.32550311559E+01 -0.85731853016E+01  0.92422980420E+01  0.00000000000E+00 0. -1.
</event>
<event>
 7    1  0.3435408E-009  0.4614232E+02  0.7816164E-02  0.1320468E+00
        -11   -1    0    0    0    0  0.00000000000E+00  0.00000000000E+00  0.45593999997E+02  0.45594000000E+02  0.51100000000E-03 0.  1.
         11   -1    0    0    0    0 -0.00000000000E+00 -0.00000000000E+00 -0.45593999997E+02  0.45594000000E+02  0.51100000000E-03 0. -1.
    9900012    2    1    2    0    0 -0.39258688606E+02 -0.24190240499E+01 -0.21954884899E+02  0.46142320081E+02  0.10000021155E+02 0.  0.
        -12    1    1    2    0    0  0.39258688606E+02  0.24190240499E+01  0.21954884899E+02  0.45045679919E+02  0.00000000000E+00 0.  1.
         11    1    3    3    0    0 -0.15219495399E+02 -0.26555926449E+01 -0.39362695930E+01  0.15943005710E+02  0.51100000000E-03 0. -1.
        -11    1    3    3    0    0 -0.57920052252E+01  0.75973678315E+00 -0.30364045496E+01  0.65836370920E+01  0.51100000000E-03 0.  1.
         12    1    3    3    0    0 -0.18247187982E+02 -0.52316818808E+00 -0.14982210757E+02  0.23615677279E+02  0.00000000000E+00 0. -1.
</event>
<event>
 7    1  0.3435408E-009  0.4614232E+02  0.7816164E-02  0.1320468E+00
        -11   -1    0    0    0    0  0.00000000000E+00  0.00000000000E+00  0.45593999997E+02  0.45594000000E+02  0.51100000000E-03 0. -1.
         11   -1    0    0    0    0 -0.00000000000E+00 -0.00000000000E+00 -0.45593999997E+02  0.45594000000E+02  0.51100000000E-03 0.  1.
    9900012    2    1    2    0    0 -0.27320391887E+02  0.23944253578E+02  0.26634232144E+02  0.46142318585E+02  0.10000007509E+02 0.  0.
        -12    1    1    2    0    0  0.27320391887E+02 -0.23944253578E+02 -0.26634232144E+02  0.45045681415E+02  0.00000000000E+00 0.  1.
         11    1    3    3    0    0 -0.47665916052E+01  0.52737325556E+01  0.13489025987E+01  0.72354812612E+01  0.51100000000E-03 0. -1.
        -11    1    3    3    0    0 -0.51793711830E+00  0.97378030453E+00  0.20155492591E+01  0.22975957035E+01  0.51100000000E-03 0.  1.
         12    1    3    3    0    0 -0.22035863163E+02  0.17696740718E+02  0.23269780287E+02  0.36609241620E+02  0.00000000000E+00 0. -1.
</event>
<event>
 7    1  0.3435408E-009  0.4614232E+02  0.7816164E-02  0.1320468E+00
        -11   -1    0    0    0    0  0.00000000000E+00  0.00000000000E+00  0.45593999997E+02  0.45594000000E+02  0.51100000000E-03 0.  1.
         11   -1    0    0    0    0 -0.00000000000E+00 -0.00000000000E+00 -0.45593999997E+02  0.45594000000E+02  0.51100000000E-03 0. -1.
    9900012    2    1    2    0    0 -0.83741890998E+01 -0.11891409624E+02 -0.42633095166E+02  0.46142317972E+02  0.10000001924E+02 0.  0.
        -12    1    1    2    0    0  0.83741890998E+01  0.11891409624E+02  0.42633095166E+02  0.45045682028E+02  0.00000000000E+00 0.  1.
         11    1    3    3    0    0 -0.46040483057E+01 -0.83963754301E+01 -0.37743924275E+02  0.38939699551E+02  0.51100000000E-03 0. -1.
        -11    1    3    3    0    0 -0.14228887548E+01 -0.12302897320E+01 -0.26361114615E+01  0.32384115137E+01  0.51100000000E-03 0.  1.
         12    1    3    3    0    0 -0.23472520393E+01 -0.22647444621E+01 -0.22530594296E+01  0.39642069078E+01  0.00000000000E+00 0. -1.
</event>
<event>
 7    1  0.3435408E-009  0.4614232E+02  0.7816164E-02  0.1320468E+00
        -11   -1    0    0    0    0  0.00000000000E+00  0.00000000000E+00  0.45593999997E+02  0.45594000000E+02  0.51100000000E-03 0.  1.
         11   -1    0    0    0    0 -0.00000000000E+00 -0.00000000000E+00 -0.45593999997E+02  0.45594000000E+02  0.51100000000E-03 0. -1.
    9900012    2    1    2    0    0 -0.11632841977E+02 -0.27188143232E+02 -0.33979337128E+02  0.46142317670E+02  0.99999991733E+01 0.  0.
        -12    1    1    2    0    0  0.11632841977E+02  0.27188143232E+02  0.33979337128E+02  0.45045682330E+02  0.00000000000E+00 0.  1.
         11    1    3    3    0    0 -0.54312027839E+01 -0.61139569536E+01 -0.71267043620E+01  0.10847504258E+02  0.51100000000E-03 0. -1.
        -11    1    3    3    0    0 -0.43017115713E+01 -0.14856558161E+02 -0.23064244280E+02  0.27770153174E+02  0.51100000000E-03 0.  1.
        -12    1    3    3    0    0 -0.18999276215E+01 -0.62176281180E+01 -0.37883884857E+01  0.75246602381E+01  0.00000000000E+00 0.  1.
</event>
<event>
 7    1  0.3435408E-009  0.4614232E+02  0.7816164E-02  0.1320468E+00
        -11   -1    0    0    0    0  0.00000000000E+00  0.00000000000E+00  0.45593999997E+02  0.45594000000E+02  0.51100000000E-03 0.  1.
         11   -1    0    0    0    0 -0.00000000000E+00 -0.00000000000E+00 -0.45593999997E+02  0.45594000000E+02  0.51100000000E-03 0. -1.
    9900012    2    1    2    0    0 -0.30049657839E+02  0.83711095270E+01 -0.32497016707E+02  0.46142317567E+02  0.99999982308E+01 0.  0.
        -12    1    1    2    0    0  0.30049657839E+02 -0.83711095270E+01  0.32497016707E+02  0.45045682433E+02  0.00000000000E+00 0.  1.
         11    1    3    3    0    0 -0.28462488087E+01 -0.13938052396E+01 -0.21971316697E+01  0.38563211953E+01  0.51100000000E-03 0. -1.
        -11    1    3    3    0    0 -0.59548405190E+01  0.46390426590E+01 -0.63834731358E+01  0.98858268210E+01  0.51100000000E-03 0.  1.
         12    1    3    3    0    0 -0.21248568512E+02  0.51258721076E+01 -0.23916411902E+02  0.32400169551E+02  0.00000000000E+00 0. -1.
</event>
<event>
 7    1  0.3435408E-009  0.4614232E+02  0.7816164E-02  0.1320468E+00
        -11   -1    0    0    0    0  0.00000000000E+00  0.00000000000E+00  0.45593999997E+02  0.45594000000E+02  0.51100000000E-03 0.  1.
         11   -1    0    0    0    0 -0.00000000000E+00 -0.00000000000E+00 -0.45593999997E+02  0.45594000000E+02  0.51100000000E-03 0. -1.
    9900012    2    1    2    0    0 -0.15766475162E+02  0.41782459865E+02  0.58955729621E+01  0.46142317943E+02  0.10000001661E+02 0.  0.
        -12    1    1    2    0    0  0.15766475162E+02 -0.41782459865E+02 -0.58955729621E+01  0.45045682057E+02  0.00000000000E+00 0.  1.
         11    1    3    3    0    0 -0.78246140826E+01  0.10455870405E+02  0.15754280491E+01  0.13154154677E+02  0.51100000000E-03 0. -1.
        -11    1    3    3    0    0 -0.12181518062E+01  0.59157658323E+01 -0.11276083138E+01  0.61442395768E+01  0.51100000000E-03 0.  1.
         12    1    3    3    0    0 -0.67237092731E+01  0.25410823628E+02  0.54477532268E+01  0.26843923689E+02  0.00000000000E+00 0. -1.
</event>
<event>
 7    1  0.3435408E-009  0.4614232E+02  0.7816164E-02  0.1320468E+00
        -11   -1    0    0    0    0  0.00000000000E+00  0.00000000000E+00  0.45593999997E+02  0.45594000000E+02  0.51100000000E-03 0.  1.
         11   -1    0    0    0    0 -0.00000000000E+00 -0.00000000000E+00 -0.45593999997E+02  0.45594000000E+02  0.51100000000E-03 0. -1.
    9900012    2    1    2    0    0 -0.20157971932E+01 -0.33989025529E+02 -0.29492307709E+02  0.46142317535E+02  0.99999979400E+01 0.  0.
        -12    1    1    2    0    0  0.20157971932E+01  0.33989025529E+02  0.29492307709E+02  0.45045682465E+02  0.00000000000E+00 0.  1.
         11    1    3    3    0    0 -0.23153228181E+01 -0.16661661921E+02 -0.12851544822E+02  0.21169173397E+02  0.51100000000E-03 0. -1.
        -11    1    3    3    0    0  0.27965189086E+01 -0.77745851005E+01 -0.10439897732E+02  0.13313758163E+02  0.51100000000E-03 0.  1.
        -12    1    3    3    0    0 -0.24969932837E+01 -0.95527785075E+01 -0.62008651538E+01  0.11659385976E+02  0.00000000000E+00 0.  1.
</event>
<event>
 7    1  0.3435408E-009  0.4614232E+02  0.7816164E-02  0.1320468E+00
        -11   -1    0    0    0    0  0.00000000000E+00  0.00000000000E+00  0.45593999997E+02  0.45594000000E+02  0.51100000000E-03 0. -1.
         11   -1    0    0    0    0 -0.00000000000E+00 -0.00000000000E+00 -0.45593999997E+02  0.45594000000E+02  0.51100000000E-03 0.  1.
    9900012    2    1    2    0    0 -0.74463582643E+01  0.27152923571E+02  0.35162252878E+02  0.46142317218E+02  0.99999950454E+01 0.  0.
        -12    1    1    2    0    0  0.74463582643E+01 -0.27152923571E+02 -0.35162252878E+02  0.45045682782E+02  0.00000000000E+00 0.  1.
         11    1    3    3    0    0 -0.21748278017E+01  0.21624564402E+02  0.26338096589E+02  0.34147430265E+02  0.51100000000E-03 0. -1.
        -11    1    3    3    0    0 -0.38829778135E+01  0.53692365017E+01  0.64947762815E+01  0.92783800590E+01  0.51100000000E-03 0.  1.
         12    1    3    3    0    0 -0.13885526492E+01  0.15912266771E+00  0.23293800074E+01  0.27165068934E+01  0.00000000000E+00 0. -1.
</event>
<event>
 7    1  0.3435408E-009  0.4614232E+02  0.7816164E-02  0.1320468E+00
        -11   -1    0    0    0    0  0.00000000000E+00  0.00000000000E+00  0.45593999997E+02  0.45594000000E+02  0.51100000000E-03 0.  1.
         11   -1    0    0    0    0 -0.00000000000E+00 -0.00000000000E+00 -0.45593999997E+02  0.45594000000E+02  0.51100000000E-03 0. -1.
    9900012    2    1    2    0    0  0.43956777339E+02  0.87546623618E+01  0.45023469200E+01  0.46142317466E+02  0.99999973120E+01 0.  0.
        -12    1    1    2    0    0 -0.43956777339E+02 -0.87546623618E+01 -0.45023469200E+01  0.45045682534E+02  0.00000000000E+00 0.  1.
         11    1    3    3    0    0  0.18481618410E+02  0.26030231164E+01  0.11114278419E+01  0.18697091232E+02  0.51100000000E-03 0. -1.
        -11    1    3    3    0    0  0.25664617799E+02  0.67900930376E+01  0.31364303591E+01  0.26732286955E+02  0.51100000000E-03 0.  1.
        -12    1    3    3    0    0 -0.18945886965E+00 -0.63845379212E+00  0.25448871894E+00  0.71293927934E+00  0.00000000000E+00 0.  1.
</event>
<event>
 7    1  0.3435408E-009  0.4614231E+02  0.7816164E-02  0.1320468E+00
        -11   -1    0    0    0    0  0.00000000000E+00  0.00000000000E+00  0.45593999997E+02  0.45594000000E+02  0.51100000000E-03 0.  1.
         11   -1    0    0    0    0 -0.00000000000E+00 -0.00000000000E+00 -0.45593999997E+02  0.45594000000E+02  0.51100000000E-03 0. -1.
    9900012    2    1    2    0    0  0.19350744874E+02  0.22492945203E+02 -0.33892919115E+02  0.46142313445E+02  0.99999606433E+01 0.  0.
        -12    1    1    2    0    0 -0.19350744874E+02 -0.22492945203E+02  0.33892919115E+02  0.45045686555E+02  0.00000000000E+00 0.  1.
         11    1    3    3    0    0  0.82773077721E+01  0.12321593519E+02 -0.20402200502E+02  0.25230641616E+02  0.51100000000E-03 0. -1.
        -11    1    3    3    0    0  0.10692516141E+02  0.74025368337E+01 -0.98095100476E+01  0.16289688168E+02  0.51100000000E-03 0.  1.
        -12    1    3    3    0    0  0.38092096143E+00  0.27688148504E+01 -0.36812085654E+01  0.46219836603E+01  0.00000000000E+00 0.  1.
</event>
<event>
 7    1  0.3435408E-009  0.4614232E+02  0.7816164E-02  0.1320468E+00
        -11   -1    0    0    0    0  0.00000000000E+00  0.00000000000E+00  0.45593999997E+02  0.45594000000E+02  0.51100000000E-03 0.  1.
         11   -1    0    0    0    0 -0.00000000000E+00 -0.00000000000E+00 -0.45593999997E+02  0.45594000000E+02  0.51100000000E-03 0. -1.
    9900012    2    1    2    0    0 -0.31609727240E+02  0.20765448287E+02 -0.24469057108E+02  0.46142318137E+02  0.10000003427E+02 0.  0.
        -12    1    1    2    0    0  0.31609727240E+02 -0.20765448287E+02  0.24469057108E+02  0.45045681863E+02  0.00000000000E+00 0.  1.
         11    1    3    3    0    0 -0.35041262995E+01  0.27947631742E+01 -0.13712740826E+01  0.46872161454E+01  0.51100000000E-03 0. -1.
        -11    1    3    3    0    0 -0.19803276395E+02  0.15381171739E+02 -0.13406840417E+02  0.28434021352E+02  0.51100000000E-03 0.  1.
        -12    1    3    3    0    0 -0.83023245455E+01  0.25895133745E+01 -0.96909426084E+01  0.13021080639E+02  0.00000000000E+00 0.  1.
</event>
<event>
 7    1  0.3435408E-009  0.4614232E+02  0.7816164E-02  0.1320468E+00
        -11   -1    0    0    0    0  0.00000000000E+00  0.00000000000E+00  0.45593999997E+02  0.45594000000E+02  0.51100000000E-03 0.  1.
         11   -1    0    0    0    0 -0.00000000000E+00 -0.00000000000E+00 -0.45593999997E+02  0.45594000000E+02  0.51100000000E-03 0. -1.
    9900012    2    1    2    0    0 -0.41274267705E+02  0.17765618143E+02  0.31513740745E+01  0.46142317397E+02  0.99999966833E+01 0.  0.
        -12    1    1    2    0    0  0.41274267705E+02 -0.17765618143E+02 -0.31513740745E+01  0.45045682603E+02  0.00000000000E+00 0.  1.
         11    1    3    3    0    0 -0.51778177273E+01  0.13503751413E+00  0.12903704751E+01  0.53378916972E+01  0.51100000000E-03 0. -1.
        -11    1    3    3    0    0 -0.27230536185E+02  0.14091497331E+02  0.42764575366E+01  0.30957397941E+02  0.51100000000E-03 0.  1.
         12    1    3    3    0    0 -0.88659137925E+01  0.35390832976E+01 -0.24154539372E+01  0.98470277590E+01  0.00000000000E+00 0. -1.
</event>
<event>
 7    1  0.3435408E-009  0.4614232E+02  0.7816164E-02  0.1320468E+00
        -11   -1    0    0    0    0  0.00000000000E+00  0.00000000000E+00  0.45593999997E+02  0.45594000000E+02  0.51100000000E-03 0. -1.
         11   -1    0    0    0    0 -0.00000000000E+00 -0.00000000000E+00 -0.45593999997E+02  0.45594000000E+02  0.51100000000E-03 0.  1.
    9900012    2    1    2    0    0  0.17306891087E+02 -0.38729524232E+02  0.15152849134E+02  0.46142319151E+02  0.10000012671E+02 0.  0.
        -12    1    1    2    0    0 -0.17306891087E+02  0.38729524232E+02 -0.15152849134E+02  0.45045680849E+02  0.00000000000E+00 0.  1.
         11    1    3    3    0    0  0.41655970386E+01 -0.54964873106E+01  0.57779220379E+01  0.89971081343E+01  0.51100000000E-03 0. -1.
        -11    1    3    3    0    0  0.48409952480E+01 -0.12391425406E+02  0.15850245443E+01  0.13397572976E+02  0.51100000000E-03 0.  1.
         12    1    3    3    0    0  0.83002988002E+01 -0.20841611515E+02  0.77899025523E+01  0.23747638040E+02  0.00000000000E+00 0. -1.
</event>
<event>
 7    1  0.3435408E-009  0.4614232E+02  0.7816164E-02  0.1320468E+00
        -11   -1    0    0    0    0  0.00000000000E+00  0.00000000000E+00  0.45593999997E+02  0.45594000000E+02  0.51100000000E-03 0.  1.
         11   -1    0    0    0    0 -0.00000000000E+00 -0.00000000000E+00 -0.45593999997E+02  0.45594000000E+02  0.51100000000E-03 0. -1.
    9900012    2    1    2    0    0  0.78400676976E+01 -0.37920908645E+02 -0.23014157602E+02  0.46142318475E+02  0.10000006510E+02 0.  0.
        -12    1    1    2    0    0 -0.78400676976E+01  0.37920908645E+02  0.23014157602E+02  0.45045681525E+02  0.00000000000E+00 0.  1.
         11    1    3    3    0    0 -0.91553102879E-01 -0.12118413918E+02 -0.68571879601E+01  0.13924272507E+02  0.51100000000E-03 0. -1.
        -11    1    3    3    0    0  0.66999860132E+01 -0.12545397398E+02 -0.58413039882E+01  0.15375228161E+02  0.51100000000E-03 0.  1.
        -12    1    3    3    0    0  0.12316347873E+01 -0.13257097328E+02 -0.10315665653E+02  0.16842817807E+02  0.00000000000E+00 0.  1.
</event>
<event>
 7    1  0.3435408E-009  0.4614232E+02  0.7816164E-02  0.1320468E+00
        -11   -1    0    0    0    0  0.00000000000E+00  0.00000000000E+00  0.45593999997E+02  0.45594000000E+02  0.51100000000E-03 0. -1.
         11   -1    0    0    0    0 -0.00000000000E+00 -0.00000000000E+00 -0.45593999997E+02  0.45594000000E+02  0.51100000000E-03 0.  1.
    9900012    2    1    2    0    0  0.56293275266E+01  0.51156754565E+01  0.44398806190E+02  0.46142318133E+02  0.10000003388E+02 0.  0.
        -12    1    1    2    0    0 -0.56293275266E+01 -0.51156754565E+01 -0.44398806190E+02  0.45045681867E+02  0.00000000000E+00 0.  1.
         11    1    3    3    0    0  0.39760147913E+01  0.50501355502E+01  0.26034120097E+02  0.26815815710E+02  0.51100000000E-03 0. -1.
        -11    1    3    3    0    0  0.76732725713E+00 -0.28072722381E+01  0.10829667621E+02  0.11213887354E+02  0.51100000000E-03 0.  1.
        -12    1    3    3    0    0  0.88598547813E+00  0.28728121444E+01  0.75350184717E+01  0.81126150687E+01  0.00000000000E+00 0.  1.
</event>
<event>
 7    1  0.3435408E-009  0.4614232E+02  0.7816164E-02  0.1320468E+00
        -11   -1    0    0    0    0  0.00000000000E+00  0.00000000000E+00  0.45593999997E+02  0.45594000000E+02  0.51100000000E-03 0.  1.
         11   -1    0    0    0    0 -0.00000000000E+00 -0.00000000000E+00 -0.45593999997E+02  0.45594000000E+02  0.51100000000E-03 0. -1.
    9900012    2    1    2    0    0 -0.14523277880E+02  0.77614068465E+01 -0.41927891323E+02  0.46142321990E+02  0.10000038559E+02 0.  0.
        -12    1    1    2    0    0  0.14523277880E+02 -0.77614068465E+01  0.41927891323E+02  0.45045678010E+02  0.00000000000E+00 0.  1.
         11    1    3    3    0    0 -0.30622239299E+01  0.28407500265E+01 -0.29999385785E+01  0.51426362739E+01  0.51100000000E-03 0. -1.
        -11    1    3    3    0    0 -0.16317968925E+01 -0.40351400954E+00 -0.56127097903E+01  0.58590183568E+01  0.51100000000E-03 0.  1.
         12    1    3    3    0    0 -0.98292570575E+01  0.53241708295E+01 -0.33315242954E+02  0.35140667359E+02  0.00000000000E+00 0. -1.
</event>
<event>
 7    1  0.3435408E-009  0.4614232E+02  0.7816164E-02  0.1320468E+00
        -11   -1    0    0    0    0  0.00000000000E+00  0.00000000000E+00  0.45593999997E+02  0.45594000000E+02  0.51100000000E-03 0. -1.
         11   -1    0    0    0    0 -0.00000000000E+00 -0.00000000000E+00 -0.45593999997E+02  0.45594000000E+02  0.51100000000E-03 0.  1.
    9900012    2    1    2    0    0 -0.22950294735E+02 -0.15933537339E+02  0.35334399599E+02  0.46142318347E+02  0.10000005346E+02 0.  0.
        -12    1    1    2    0    0  0.22950294735E+02  0.15933537339E+02 -0.35334399599E+02  0.45045681653E+02  0.00000000000E+00 0.  1.
         11    1    3    3    0    0 -0.13781414908E+02 -0.10860171045E+02  0.28912710546E+02  0.33820342154E+02  0.51100000000E-03 0. -1.
        -11    1    3    3    0    0 -0.34566264429E+01 -0.19646612134E+01  0.19406716225E+01  0.44242927861E+01  0.51100000000E-03 0.  1.
         12    1    3    3    0    0 -0.57122533836E+01 -0.31087050807E+01  0.44810174299E+01  0.78976834074E+01  0.00000000000E+00 0. -1.
</event>
<event>
 7    1  0.3435408E-009  0.4614232E+02  0.7816164E-02  0.1320468E+00
        -11   -1    0    0    0    0  0.00000000000E+00  0.00000000000E+00  0.45593999997E+02  0.45594000000E+02  0.51100000000E-03 0.  1.
         11   -1    0    0    0    0 -0.00000000000E+00 -0.00000000000E+00 -0.45593999997E+02  0.45594000000E+02  0.51100000000E-03 0. -1.
    9900012    2    1    2    0    0 -0.21747213229E+01 -0.29996794288E+02 -0.33534703710E+02  0.46142318372E+02  0.10000005568E+02 0.  0.
        -12    1    1    2    0    0  0.21747213229E+01  0.29996794288E+02  0.33534703710E+02  0.45045681628E+02  0.00000000000E+00 0.  1.
         11    1    3    3    0    0 -0.95032988595E+00 -0.11045811290E+02 -0.15843029110E+02  0.19336872694E+02  0.51100000000E-03 0. -1.
        -11    1    3    3    0    0  0.13159923529E+01 -0.10270165418E+02 -0.58101641961E+01  0.11872916316E+02  0.51100000000E-03 0.  1.
        -12    1    3    3    0    0 -0.25403837899E+01 -0.86808175803E+01 -0.11881510404E+02  0.14932529362E+02  0.00000000000E+00 0.  1.
</event>
<event>
 7    1  0.3435408E-009  0.4614232E+02  0.7816164E-02  0.1320468E+00
        -11   -1    0    0    0    0  0.00000000000E+00  0.00000000000E+00  0.45593999997E+02  0.45594000000E+02  0.51100000000E-03 0. -1.
         11   -1    0    0    0    0 -0.00000000000E+00 -0.00000000000E+00 -0.45593999997E+02  0.45594000000E+02  0.51100000000E-03 0.  1.
    9900012    2    1    2    0    0  0.30708972254E+02 -0.32935821022E+02 -0.11420095862E+01  0.46142317974E+02  0.10000001941E+02 0.  0.
        -12    1    1    2    0    0 -0.30708972254E+02  0.32935821022E+02  0.11420095862E+01  0.45045682026E+02  0.00000000000E+00 0.  1.
         11    1    3    3    0    0  0.17436144898E+02 -0.18996094044E+02 -0.62629290981E+00  0.25792692394E+02  0.51100000000E-03 0. -1.
        -11    1    3    3    0    0  0.43085188622E+01 -0.76279104936E+01  0.22454226588E+01  0.90437976792E+01  0.51100000000E-03 0.  1.
        -12    1    3    3    0    0  0.89643084935E+01 -0.63118164845E+01 -0.27611393352E+01  0.11305827901E+02  0.00000000000E+00 0.  1.
</event>
<event>
 7    1  0.3435408E-009  0.4614232E+02  0.7816164E-02  0.1320468E+00
        -11   -1    0    0    0    0  0.00000000000E+00  0.00000000000E+00  0.45593999997E+02  0.45594000000E+02  0.51100000000E-03 0.  1.
         11   -1    0    0    0    0 -0.00000000000E+00 -0.00000000000E+00 -0.45593999997E+02  0.45594000000E+02  0.51100000000E-03 0. -1.
    9900012    2    1    2    0    0  0.40023817776E+02 -0.49455318539E+01 -0.20068612861E+02  0.46142317667E+02  0.99999991406E+01 0.  0.
        -12    1    1    2    0    0 -0.40023817776E+02  0.49455318539E+01  0.20068612861E+02  0.45045682333E+02  0.00000000000E+00 0.  1.
         11    1    3    3    0    0  0.20813881701E+02  0.68120388455E+00 -0.95027112290E+01  0.22890680006E+02  0.51100000000E-03 0. -1.
        -11    1    3    3    0    0  0.55148211936E+01 -0.42217441722E+01 -0.35111325609E+01  0.77823151295E+01  0.51100000000E-03 0.  1.
        -12    1    3    3    0    0  0.13695114882E+02 -0.14049915662E+01 -0.70547690714E+01  0.15469322531E+02  0.00000000000E+00 0.  1.
</event>
<event>
 7    1  0.3435408E-009  0.4614232E+02  0.7816164E-02  0.1320468E+00
        -11   -1    0    0    0    0  0.00000000000E+00  0.00000000000E+00  0.45593999997E+02  0.45594000000E+02  0.51100000000E-03 0.  1.
         11   -1    0    0    0    0 -0.00000000000E+00 -0.00000000000E+00 -0.45593999997E+02  0.45594000000E+02  0.51100000000E-03 0. -1.
    9900012    2    1    2    0    0  0.75830818835E+01  0.29699894035E+02 -0.33007979903E+02  0.46142316813E+02  0.99999913514E+01 0.  0.
        -12    1    1    2    0    0 -0.75830818835E+01 -0.29699894035E+02  0.33007979903E+02  0.45045683187E+02  0.00000000000E+00 0.  1.
         11    1    3    3    0    0  0.95179534242E+01  0.18918240148E+02 -0.22073050112E+02  0.30589390141E+02  0.51100000000E-03 0.  1.
        -11    1    3    3    0    0 -0.83403760994E+00  0.22307646229E+01 -0.17485453537E+01  0.29545457608E+01  0.51100000000E-03 0. -1.
        -12    1    3    3    0    0 -0.11008339307E+01  0.85508892646E+01 -0.91863844370E+01  0.12598380911E+02  0.00000000000E+00 0.  1.
</event>
<event>
 7    1  0.3435408E-009  0.4614232E+02  0.7816164E-02  0.1320468E+00
        -11   -1    0    0    0    0  0.00000000000E+00  0.00000000000E+00  0.45593999997E+02  0.45594000000E+02  0.51100000000E-03 0.  1.
         11   -1    0    0    0    0 -0.00000000000E+00 -0.00000000000E+00 -0.45593999997E+02  0.45594000000E+02  0.51100000000E-03 0. -1.
    9900012    2    1    2    0    0  0.78464603946E+01  0.63546464134E+01 -0.43899480736E+02  0.46142324506E+02  0.10000061508E+02 0.  0.
        -12    1    1    2    0    0 -0.78464603946E+01 -0.63546464134E+01  0.43899480736E+02  0.45045675494E+02  0.00000000000E+00 0.  1.
         11    1    3    3    0    0  0.34673206771E+01  0.51247911944E+01 -0.11570499149E+02  0.13121061249E+02  0.51100000000E-03 0.  1.
        -11    1    3    3    0    0 -0.30136606036E-01  0.21143378053E+01 -0.76997500502E+01  0.79848283430E+01  0.51100000000E-03 0. -1.
         12    1    3    3    0    0  0.44092763236E+01 -0.88448258627E+00 -0.24629231537E+02  0.25036434915E+02  0.00000000000E+00 0. -1.
</event>
<event>
 7    1  0.3435408E-009  0.4614232E+02  0.7816164E-02  0.1320468E+00
        -11   -1    0    0    0    0  0.00000000000E+00  0.00000000000E+00  0.45593999997E+02  0.45594000000E+02  0.51100000000E-03 0.  1.
         11   -1    0    0    0    0 -0.00000000000E+00 -0.00000000000E+00 -0.45593999997E+02  0.45594000000E+02  0.51100000000E-03 0. -1.
    9900012    2    1    2    0    0  0.71617693818E+01  0.47695466190E+01 -0.44216218411E+02  0.46142317785E+02  0.10000000220E+02 0.  0.
        -12    1    1    2    0    0 -0.71617693818E+01 -0.47695466190E+01  0.44216218411E+02  0.45045682215E+02  0.00000000000E+00 0.  1.
         11    1    3    3    0    0  0.28761573924E+01 -0.19238170645E+01 -0.18223450663E+02  0.18549056790E+02  0.51100000000E-03 0. -1.
        -11    1    3    3    0    0  0.14193180546E+01  0.15652055584E+00 -0.14556774491E+01  0.20391075306E+01  0.51100000000E-03 0.  1.
         12    1    3    3    0    0  0.28662939349E+01  0.65368431277E+01 -0.24537090298E+02  0.25554153465E+02  0.00000000000E+00 0. -1.
</event>
<event>
 7    1  0.3435408E-009  0.4614232E+02  0.7816164E-02  0.1320468E+00
        -11   -1    0    0    0    0  0.00000000000E+00  0.00000000000E+00  0.45593999997E+02  0.45594000000E+02  0.51100000000E-03 0.  1.
         11   -1    0    0    0    0 -0.00000000000E+00 -0.00000000000E+00 -0.45593999997E+02  0.45594000000E+02  0.51100000000E-03 0. -1.
    9900012    2    1    2    0    0  0.30158968025E+02 -0.30236750941E+02 -0.14327893566E+02  0.46142323250E+02  0.10000050055E+02 0.  0.
        -12    1    1    2    0    0 -0.30158968025E+02  0.30236750941E+02  0.14327893566E+02  0.45045676750E+02  0.00000000000E+00 0.  1.
         11    1    3    3    0    0  0.45774713170E+01 -0.10290620658E+02 -0.31048627069E+01  0.11682905883E+02  0.51100000000E-03 0. -1.
        -11    1    3    3    0    0  0.12759457373E+00 -0.13401207254E+00  0.16963196110E+00  0.25102763629E+00  0.51100000000E-03 0.  1.
         12    1    3    3    0    0  0.25453902134E+02 -0.19812118211E+02 -0.11392662820E+02  0.34208389731E+02  0.00000000000E+00 0. -1.
</event>
<event>
 7    1  0.3435408E-009  0.4614232E+02  0.7816164E-02  0.1320468E+00
        -11   -1    0    0    0    0  0.00000000000E+00  0.00000000000E+00  0.45593999997E+02  0.45594000000E+02  0.51100000000E-03 0.  1.
         11   -1    0    0    0    0 -0.00000000000E+00 -0.00000000000E+00 -0.45593999997E+02  0.45594000000E+02  0.51100000000E-03 0. -1.
    9900012    2    1    2    0    0 -0.43234410463E+02  0.11815783430E+02  0.45040536704E+01  0.46142317792E+02  0.10000000280E+02 0.  0.
        -12    1    1    2    0    0  0.43234410463E+02 -0.11815783430E+02 -0.45040536704E+01  0.45045682208E+02  0.00000000000E+00 0.  1.
         11    1    3    3    0    0 -0.29981284679E+01  0.14980002693E+01  0.21949782128E+01  0.40063335773E+01  0.51100000000E-03 0.  1.
        -11    1    3    3    0    0 -0.23885132336E+02  0.37517661538E+01  0.37063977952E+01  0.24460430921E+02  0.51100000000E-03 0. -1.
         12    1    3    3    0    0 -0.16351149659E+02  0.65660170068E+01 -0.13973223376E+01  0.17675553294E+02  0.00000000000E+00 0. -1.
</event>
<event>
 7    1  0.3435408E-009  0.4614232E+02  0.7816164E-02  0.1320468E+00
        -11   -1    0    0    0    0  0.00000000000E+00  0.00000000000E+00  0.45593999997E+02  0.45594000000E+02  0.51100000000E-03 0.  1.
         11   -1    0    0    0    0 -0.00000000000E+00 -0.00000000000E+00 -0.45593999997E+02  0.45594000000E+02  0.51100000000E-03 0. -1.
    9900012    2    1    2    0    0 -0.59979241717E+01 -0.37926710854E+02 -0.23552133226E+02  0.46142317964E+02  0.10000001851E+02 0.  0.
        -12    1    1    2    0    0  0.59979241717E+01  0.37926710854E+02  0.23552133226E+02  0.45045682036E+02  0.00000000000E+00 0.  1.
         11    1    3    3    0    0  0.52808161132E-01 -0.98306945160E+01 -0.56837905684E+01  0.11355651406E+02  0.51100000000E-03 0. -1.
        -11    1    3    3    0    0 -0.28649828930E+01 -0.46303510776E+01 -0.59939786956E+00  0.54779153103E+01  0.51100000000E-03 0.  1.
        -12    1    3    3    0    0 -0.31857494399E+01 -0.23465665260E+02 -0.17268944788E+02  0.29308751248E+02  0.00000000000E+00 0.  1.
</event>
<event>
 7    1  0.3435408E-009  0.4614231E+02  0.7816164E-02  0.1320468E+00
        -11   -1    0    0    0    0  0.00000000000E+00  0.00000000000E+00  0.45593999997E+02  0.45594000000E+02  0.51100000000E-03 0.  1.
         11   -1    0    0    0    0 -0.00000000000E+00 -0.00000000000E+00 -0.45593999997E+02  0.45594000000E+02  0.51100000000E-03 0. -1.
    9900012    2    1    2    0    0  0.24415360614E+02 -0.29123578963E+02 -0.24183076221E+02  0.46142313625E+02  0.99999622800E+01 0.  0.
        -12    1    1    2    0    0 -0.24415360614E+02  0.29123578963E+02  0.24183076221E+02  0.45045686375E+02  0.00000000000E+00 0.  1.
         11    1    3    3    0    0  0.19570217862E+02 -0.20844946306E+02 -0.17147460573E+02  0.33339775315E+02  0.51100000000E-03 0. -1.
        -11    1    3    3    0    0  0.18313510330E+01 -0.30207372141E-02 -0.17377040952E+01  0.25245735312E+01  0.51100000000E-03 0.  1.
        -12    1    3    3    0    0  0.30137917190E+01 -0.82756119200E+01 -0.52979115524E+01  0.10277964779E+02  0.00000000000E+00 0.  1.
</event>
<event>
 7    1  0.3435408E-009  0.4614232E+02  0.7816164E-02  0.1320468E+00
        -11   -1    0    0    0    0  0.00000000000E+00  0.00000000000E+00  0.45593999997E+02  0.45594000000E+02  0.51100000000E-03 0.  1.
         11   -1    0    0    0    0 -0.00000000000E+00 -0.00000000000E+00 -0.45593999997E+02  0.45594000000E+02  0.51100000000E-03 0. -1.
    9900012    2    1    2    0    0 -0.19463366557E+01 -0.15954650559E+02 -0.42080570944E+02  0.46142317057E+02  0.99999935776E+01 0.  0.
        -12    1    1    2    0    0  0.19463366557E+01  0.15954650559E+02  0.42080570944E+02  0.45045682943E+02  0.00000000000E+00 0.  1.
         11    1    3    3    0    0 -0.65542336592E+00 -0.11776527762E+02 -0.29663314681E+02  0.31922224610E+02  0.51100000000E-03 0. -1.
        -11    1    3    3    0    0 -0.23514987549E-01 -0.31874035770E+01 -0.21905475290E+01  0.38676340643E+01  0.51100000000E-03 0.  1.
        -12    1    3    3    0    0 -0.12673983022E+01 -0.99071921949E+00 -0.10226708735E+02  0.10352458383E+02  0.00000000000E+00 0.  1.
</event>
<event>
 7    1  0.3435408E-009  0.4614232E+02  0.7816164E-02  0.1320468E+00
        -11   -1    0    0    0    0  0.00000000000E+00  0.00000000000E+00  0.45593999997E+02  0.45594000000E+02  0.51100000000E-03 0. -1.
         11   -1    0    0    0    0 -0.00000000000E+00 -0.00000000000E+00 -0.45593999997E+02  0.45594000000E+02  0.51100000000E-03 0.  1.
    9900012    2    1    2    0    0 -0.27151707946E+02  0.30293843093E+02  0.19343767781E+02  0.46142317347E+02  0.99999962201E+01 0.  0.
        -12    1    1    2    0    0  0.27151707946E+02 -0.30293843093E+02 -0.19343767781E+02  0.45045682653E+02  0.00000000000E+00 0.  1.
         11    1    3    3    0    0 -0.14294931344E+02  0.12143617153E+02  0.52940917002E+01  0.19489481955E+02  0.51100000000E-03 0. -1.
        -11    1    3    3    0    0 -0.10581062236E+02  0.11725627267E+02  0.10525690167E+02  0.18979972776E+02  0.51100000000E-03 0.  1.
        -12    1    3    3    0    0 -0.22757143667E+01  0.64245986733E+01  0.35239859137E+01  0.76728626152E+01  0.00000000000E+00 0.  1.
</event>
<event>
 7    1  0.3435408E-009  0.4614232E+02  0.7816164E-02  0.1320468E+00
        -11   -1    0    0    0    0  0.00000000000E+00  0.00000000000E+00  0.45593999997E+02  0.45594000000E+02  0.51100000000E-03 0. -1.
         11   -1    0    0    0    0 -0.00000000000E+00 -0.00000000000E+00 -0.45593999997E+02  0.45594000000E+02  0.51100000000E-03 0.  1.
    9900012    2    1    2    0    0 -0.44070115914E+02 -0.79487265111E+01 -0.48740133165E+01  0.46142319013E+02  0.10000011412E+02 0.  0.
        -12    1    1    2    0    0  0.44070115914E+02  0.79487265111E+01  0.48740133165E+01  0.45045680987E+02  0.00000000000E+00 0.  1.
         11    1    3    3    0    0 -0.27298813268E+02 -0.58167592692E+01 -0.48394202694E+01  0.28328075879E+02  0.51100000000E-03 0. -1.
        -11    1    3    3    0    0 -0.14070013184E+02 -0.54666452414E+00  0.17828040599E+01  0.14193044201E+02  0.51100000000E-03 0.  1.
        -12    1    3    3    0    0 -0.27012894620E+01 -0.15853027178E+01 -0.18173971070E+01  0.36211989325E+01  0.00000000000E+00 0.  1.
</event>
<event>
 7    1  0.3435408E-009  0.4614232E+02  0.7816164E-02  0.1320468E+00
        -11   -1    0    0    0    0  0.00000000000E+00  0.00000000000E+00  0.45593999997E+02  0.45594000000E+02  0.51100000000E-03 0.  1.
         11   -1    0    0    0    0 -0.00000000000E+00 -0.00000000000E+00 -0.45593999997E+02  0.45594000000E+02  0.51100000000E-03 0. -1.
    9900012    2    1    2    0    0 -0.37101529342E+02 -0.57561596415E+01 -0.24888884579E+02  0.46142318421E+02  0.10000006016E+02 0.  0.
        -12    1    1    2    0    0  0.37101529342E+02  0.57561596415E+01  0.24888884579E+02  0.45045681579E+02  0.00000000000E+00 0.  1.
         11    1    3    3    0    0 -0.17629500420E+02 -0.67787278255E+01 -0.10799295787E+02  0.21757187910E+02  0.51100000000E-03 0. -1.
        -11    1    3    3    0    0 -0.14838225955E+01 -0.49933921831E-02 -0.26667156627E+01  0.30517416528E+01  0.51100000000E-03 0.  1.
         12    1    3    3    0    0 -0.17988206326E+02  0.10275615761E+01 -0.11422873129E+02  0.21333388858E+02  0.00000000000E+00 0. -1.
</event>
<event>
 7    1  0.3435408E-009  0.4614232E+02  0.7816164E-02  0.1320468E+00
        -11   -1    0    0    0    0  0.00000000000E+00  0.00000000000E+00  0.45593999997E+02  0.45594000000E+02  0.51100000000E-03 0.  1.
         11   -1    0    0    0    0 -0.00000000000E+00 -0.00000000000E+00 -0.45593999997E+02  0.45594000000E+02  0.51100000000E-03 0. -1.
    9900012    2    1    2    0    0 -0.37618268132E+01 -0.23340598844E+02 -0.38342910624E+02  0.46142315518E+02  0.99999795423E+01 0.  0.
        -12    1    1    2    0    0  0.37618268132E+01  0.23340598844E+02  0.38342910624E+02  0.45045684482E+02  0.00000000000E+00 0.  1.
         11    1    3    3    0    0 -0.37330987599E+01 -0.15476293400E+02 -0.21717993655E+02  0.26928106737E+02  0.51100000000E-03 0. -1.
        -11    1    3    3    0    0 -0.23688777122E+01 -0.17529983327E+01 -0.67798749934E+01  0.73926510777E+01  0.51100000000E-03 0.  1.
         12    1    3    3    0    0  0.23401496589E+01 -0.61113071116E+01 -0.98450419749E+01  0.11821557703E+02  0.00000000000E+00 0. -1.
</event>
<event>
 7    1  0.3435408E-009  0.4614232E+02  0.7816164E-02  0.1320468E+00
        -11   -1    0    0    0    0  0.00000000000E+00  0.00000000000E+00  0.45593999997E+02  0.45594000000E+02  0.51100000000E-03 0. -1.
         11   -1    0    0    0    0 -0.00000000000E+00 -0.00000000000E+00 -0.45593999997E+02  0.45594000000E+02  0.51100000000E-03 0.  1.
    9900012    2    1    2    0    0  0.70663694331E+00  0.97807497014E+01  0.43965339406E+02  0.46142317970E+02  0.10000001903E+02 0.  0.
        -12    1    1    2    0    0 -0.70663694331E+00 -0.97807497014E+01 -0.43965339406E+02  0.45045682030E+02  0.00000000000E+00 0.  1.
         11    1    3    3    0    0 -0.96452706244E+00  0.21359156537E+01  0.12957542345E+02  0.13167777034E+02  0.51100000000E-03 0. -1.
        -11    1    3    3    0    0  0.47789599397E+01  0.58032694220E+01  0.22786178343E+02  0.23994297611E+02  0.51100000000E-03 0.  1.
         12    1    3    3    0    0 -0.31077959340E+01  0.18415646257E+01  0.82216187179E+01  0.89802433252E+01  0.00000000000E+00 0. -1.
</event>
<event>
 7    1  0.3435408E-009  0.4614232E+02  0.7816164E-02  0.1320468E+00
        -11   -1    0    0    0    0  0.00000000000E+00  0.00000000000E+00  0.45593999997E+02  0.45594000000E+02  0.51100000000E-03 0.  1.
         11   -1    0    0    0    0 -0.00000000000E+00 -0.00000000000E+00 -0.45593999997E+02  0.45594000000E+02  0.51100000000E-03 0. -1.
    9900012    2    1    2    0    0  0.59402962041E+01  0.43172259438E+02 -0.11400992311E+02  0.46142315083E+02  0.99999755746E+01 0.  0.
        -12    1    1    2    0    0 -0.59402962041E+01 -0.43172259438E+02  0.11400992311E+02  0.45045684917E+02  0.00000000000E+00 0.  1.
         11    1    3    3    0    0  0.60107138256E+01  0.38206794559E+02 -0.76844148883E+01  0.39432702971E+02  0.51100000000E-03 0. -1.
        -11    1    3    3    0    0  0.74589773498E-01  0.51761879018E+01 -0.38201290636E+01  0.64336514634E+01  0.51100000000E-03 0.  1.
         12    1    3    3    0    0 -0.14500739506E+00 -0.21072302248E+00  0.10355164112E+00  0.27596064793E+00  0.00000000000E+00 0. -1.
</event>
<event>
 7    1  0.3435408E-009  0.4614232E+02  0.7816164E-02  0.1320468E+00
        -11   -1    0    0    0    0  0.00000000000E+00  0.00000000000E+00  0.45593999997E+02  0.45594000000E+02  0.51100000000E-03 0.  1.
         11   -1    0    0    0    0 -0.00000000000E+00 -0.00000000000E+00 -0.45593999997E+02  0.45594000000E+02  0.51100000000E-03 0. -1.
    9900012    2    1    2    0    0 -0.39037222526E+02 -0.21374540547E+02  0.69525358916E+01  0.46142317838E+02  0.10000000698E+02 0.  0.
        -12    1    1    2    0    0  0.39037222526E+02  0.21374540547E+02 -0.69525358916E+01  0.45045682162E+02  0.00000000000E+00 0.  1.
         11    1    3    3    0    0 -0.22871912167E+02 -0.80067393167E+01  0.88720950107E+00  0.24249110945E+02  0.51100000000E-03 0. -1.
        -11    1    3    3    0    0 -0.67377600658E+01 -0.62564486191E+01  0.32624128238E+01  0.97562235379E+01  0.51100000000E-03 0.  1.
         12    1    3    3    0    0 -0.94275502934E+01 -0.71113526112E+01  0.28029135667E+01  0.12136983355E+02  0.00000000000E+00 0. -1.
</event>
<event>
 7    1  0.3435408E-009  0.4614232E+02  0.7816164E-02  0.1320468E+00
        -11   -1    0    0    0    0  0.00000000000E+00  0.00000000000E+00  0.45593999997E+02  0.45594000000E+02  0.51100000000E-03 0. -1.
         11   -1    0    0    0    0 -0.00000000000E+00 -0.00000000000E+00 -0.45593999997E+02  0.45594000000E+02  0.51100000000E-03 0.  1.
    9900012    2    1    2    0    0 -0.52020991815E+01 -0.22754948158E+02  0.38526145233E+02  0.46142319096E+02  0.10000012175E+02 0.  0.
        -12    1    1    2    0    0  0.52020991815E+01  0.22754948158E+02 -0.38526145233E+02  0.45045680904E+02  0.00000000000E+00 0.  1.
         11    1    3    3    0    0 -0.50341611648E+01 -0.11075565216E+02  0.18001036212E+02  0.21726670902E+02  0.51100000000E-03 0. -1.
        -11    1    3    3    0    0 -0.16096364965E+00 -0.22204146897E+01  0.10084934606E+02  0.10327732421E+02  0.51100000000E-03 0.  1.
        -12    1    3    3    0    0 -0.69743670951E-02 -0.94589682520E+01  0.10440174414E+02  0.14087915773E+02  0.00000000000E+00 0.  1.
</event>
<event>
 7    1  0.3435408E-009  0.4614232E+02  0.7816164E-02  0.1320468E+00
        -11   -1    0    0    0    0  0.00000000000E+00  0.00000000000E+00  0.45593999997E+02  0.45594000000E+02  0.51100000000E-03 0. -1.
         11   -1    0    0    0    0 -0.00000000000E+00 -0.00000000000E+00 -0.45593999997E+02  0.45594000000E+02  0.51100000000E-03 0.  1.
    9900012    2    1    2    0    0 -0.10129704990E+02 -0.28627769293E+02  0.33270908840E+02  0.46142317932E+02  0.10000001559E+02 0.  0.
        -12    1    1    2    0    0  0.10129704990E+02  0.28627769293E+02 -0.33270908840E+02  0.45045682068E+02  0.00000000000E+00 0.  1.
         11    1    3    3    0    0 -0.88870984243E+00 -0.11763697811E+02  0.96291638019E+01  0.15228105173E+02  0.51100000000E-03 0. -1.
        -11    1    3    3    0    0  0.31453539955E+00 -0.23896429223E+01  0.17199986053E+01  0.29610338189E+01  0.51100000000E-03 0.  1.
         12    1    3    3    0    0 -0.95555305472E+01 -0.14474428560E+02  0.21921746433E+02  0.27953178940E+02  0.00000000000E+00 0. -1.
</event>
<event>
 7    1  0.3435408E-009  0.4614232E+02  0.7816164E-02  0.1320468E+00
        -11   -1    0    0    0    0  0.00000000000E+00  0.00000000000E+00  0.45593999997E+02  0.45594000000E+02  0.51100000000E-03 0.  1.
         11   -1    0    0    0    0 -0.00000000000E+00 -0.00000000000E+00 -0.45593999997E+02  0.45594000000E+02  0.51100000000E-03 0. -1.
    9900012    2    1    2    0    0  0.25071327112E+02  0.11296699208E+02 -0.35678096350E+02  0.46142318572E+02  0.10000007398E+02 0.  0.
        -12    1    1    2    0    0 -0.25071327112E+02 -0.11296699208E+02  0.35678096350E+02  0.45045681428E+02  0.00000000000E+00 0.  1.
         11    1    3    3    0    0  0.23797335902E+01  0.41465953184E+01 -0.30689335643E+01  0.56811740140E+01  0.51100000000E-03 0. -1.
        -11    1    3    3    0    0  0.42133359306E+00  0.24837882583E+00 -0.15458316740E+01  0.16213604977E+01  0.51100000000E-03 0.  1.
         12    1    3    3    0    0  0.22270259929E+02  0.69017250635E+01 -0.31063331111E+02  0.38839784061E+02  0.00000000000E+00 0. -1.
</event>
<event>
 7    1  0.3435408E-009  0.4614232E+02  0.7816164E-02  0.1320468E+00
        -11   -1    0    0    0    0  0.00000000000E+00  0.00000000000E+00  0.45593999997E+02  0.45594000000E+02  0.51100000000E-03 0.  1.
         11   -1    0    0    0    0 -0.00000000000E+00 -0.00000000000E+00 -0.45593999997E+02  0.45594000000E+02  0.51100000000E-03 0. -1.
    9900012    2    1    2    0    0  0.39347607862E+02 -0.54064044469E+01 -0.21252057766E+02  0.46142318600E+02  0.10000007647E+02 0.  0.
        -12    1    1    2    0    0 -0.39347607862E+02  0.54064044469E+01  0.21252057766E+02  0.45045681400E+02  0.00000000000E+00 0.  1.
         11    1    3    3    0    0  0.77018178931E+01  0.24574729502E+00 -0.80456081943E+01  0.11140475846E+02  0.51100000000E-03 0. -1.
        -11    1    3    3    0    0  0.15093326278E+02 -0.58721627299E+00 -0.61476993221E+01  0.16307897728E+02  0.51100000000E-03 0.  1.
         12    1    3    3    0    0  0.16552463691E+02 -0.50649354690E+01 -0.70587502496E+01  0.18693945026E+02  0.00000000000E+00 0. -1.
</event>
<event>
 7    1  0.3435408E-009  0.4614232E+02  0.7816164E-02  0.1320468E+00
        -11   -1    0    0    0    0  0.00000000000E+00  0.00000000000E+00  0.45593999997E+02  0.45594000000E+02  0.51100000000E-03 0. -1.
         11   -1    0    0    0    0 -0.00000000000E+00 -0.00000000000E+00 -0.45593999997E+02  0.45594000000E+02  0.51100000000E-03 0.  1.
    9900012    2    1    2    0    0 -0.24770354568E+02  0.15322256098E+01  0.37592489945E+02  0.46142317843E+02  0.10000000745E+02 0.  0.
        -12    1    1    2    0    0  0.24770354568E+02 -0.15322256098E+01 -0.37592489945E+02  0.45045682157E+02  0.00000000000E+00 0.  1.
         11    1    3    3    0    0 -0.31996832343E+01  0.24636627457E+01  0.61194204877E+01  0.73317742935E+01  0.51100000000E-03 0. -1.
        -11    1    3    3    0    0 -0.17066526728E+02  0.21638701118E+01  0.24850955421E+02  0.30224471112E+02  0.51100000000E-03 0.  1.
        -12    1    3    3    0    0 -0.45041446060E+01 -0.30953072477E+01  0.66221140360E+01  0.85860724371E+01  0.00000000000E+00 0.  1.
</event>
<event>
 7    1  0.3435408E-009  0.4614232E+02  0.7816164E-02  0.1320468E+00
        -11   -1    0    0    0    0  0.00000000000E+00  0.00000000000E+00  0.45593999997E+02  0.45594000000E+02  0.51100000000E-03 0.  1.
         11   -1    0    0    0    0 -0.00000000000E+00 -0.00000000000E+00 -0.45593999997E+02  0.45594000000E+02  0.51100000000E-03 0. -1.
    9900012    2    1    2    0    0  0.11748636245E+02 -0.22347884694E+02 -0.37304892904E+02  0.46142318315E+02  0.10000005050E+02 0.  0.
        -12    1    1    2    0    0 -0.11748636245E+02  0.22347884694E+02  0.37304892904E+02  0.45045681685E+02  0.00000000000E+00 0.  1.
         11    1    3    3    0    0  0.27244250587E+01 -0.39103607105E+00 -0.21552068895E+01  0.34957571579E+01  0.51100000000E-03 0. -1.
        -11    1    3    3    0    0  0.32137500853E+01 -0.85354147946E+01 -0.17420173994E+02  0.19663264163E+02  0.51100000000E-03 0.  1.
         12    1    3    3    0    0  0.58104611007E+01 -0.13421433829E+02 -0.17729512020E+02  0.22983296994E+02  0.00000000000E+00 0. -1.
</event>
<event>
 7    1  0.3435408E-009  0.4614232E+02  0.7816164E-02  0.1320468E+00
        -11   -1    0    0    0    0  0.00000000000E+00  0.00000000000E+00  0.45593999997E+02  0.45594000000E+02  0.51100000000E-03 0. -1.
         11   -1    0    0    0    0 -0.00000000000E+00 -0.00000000000E+00 -0.45593999997E+02  0.45594000000E+02  0.51100000000E-03 0.  1.
    9900012    2    1    2    0    0  0.43701039481E+02 -0.10550039043E+02  0.28336047199E+01  0.46142317729E+02  0.99999997082E+01 0.  0.
        -12    1    1    2    0    0 -0.43701039481E+02  0.10550039043E+02 -0.28336047199E+01  0.45045682271E+02  0.00000000000E+00 0.  1.
         11    1    3    3    0    0  0.12077511156E+02 -0.60106746826E+01 -0.49779682906E+00  0.13499714360E+02  0.51100000000E-03 0.  1.
        -11    1    3    3    0    0  0.10542934433E+01 -0.25469236234E+00  0.13209030825E+01  0.17091483489E+01  0.51100000000E-03 0. -1.
         12    1    3    3    0    0  0.30569234882E+02 -0.42846719985E+01  0.20104984664E+01  0.30933455020E+02  0.00000000000E+00 0. -1.
</event>
<event>
 7    1  0.3435408E-009  0.4614232E+02  0.7816164E-02  0.1320468E+00
        -11   -1    0    0    0    0  0.00000000000E+00  0.00000000000E+00  0.45593999997E+02  0.45594000000E+02  0.51100000000E-03 0. -1.
         11   -1    0    0    0    0 -0.00000000000E+00 -0.00000000000E+00 -0.45593999997E+02  0.45594000000E+02  0.51100000000E-03 0.  1.
    9900012    2    1    2    0    0 -0.26489568232E+02  0.26212954571E+02  0.25304097251E+02  0.46142317076E+02  0.99999937513E+01 0.  0.
        -12    1    1    2    0    0  0.26489568232E+02 -0.26212954571E+02 -0.25304097251E+02  0.45045682924E+02  0.00000000000E+00 0.  1.
         11    1    3    3    0    0 -0.51793380901E+01  0.43450048900E+01  0.69246805570E+01  0.96775932764E+01  0.51100000000E-03 0. -1.
        -11    1    3    3    0    0 -0.17551840601E+02  0.14514120417E+02  0.10608962749E+02  0.25125224194E+02  0.51100000000E-03 0.  1.
        -12    1    3    3    0    0 -0.37583895407E+01  0.73538292641E+01  0.77704539449E+01  0.11339499605E+02  0.00000000000E+00 0.  1.
</event>
<event>
 7    1  0.3435408E-009  0.4614232E+02  0.7816164E-02  0.1320468E+00
        -11   -1    0    0    0    0  0.00000000000E+00  0.00000000000E+00  0.45593999997E+02  0.45594000000E+02  0.51100000000E-03 0.  1.
         11   -1    0    0    0    0 -0.00000000000E+00 -0.00000000000E+00 -0.45593999997E+02  0.45594000000E+02  0.51100000000E-03 0. -1.
    9900012    2    1    2    0    0  0.35192442687E+02  0.27673247210E+02 -0.49796397979E+01  0.46142318232E+02  0.10000004297E+02 0.  0.
        -12    1    1    2    0    0 -0.35192442687E+02 -0.27673247210E+02  0.49796397979E+01  0.45045681768E+02  0.00000000000E+00 0.  1.
         11    1    3    3    0    0  0.42954330399E+01  0.55795404019E+01  0.65311734591E+00  0.70716743862E+01  0.51100000000E-03 0. -1.
        -11    1    3    3    0    0  0.52675855119E+01  0.26131356434E+01  0.15616867072E+01  0.60839790144E+01  0.51100000000E-03 0.  1.
         12    1    3    3    0    0  0.25629424135E+02  0.19480571165E+02 -0.71944438510E+01  0.32986664832E+02  0.00000000000E+00 0. -1.
</event>
<event>
 7    1  0.3435408E-009  0.4614232E+02  0.7816164E-02  0.1320468E+00
        -11   -1    0    0    0    0  0.00000000000E+00  0.00000000000E+00  0.45593999997E+02  0.45594000000E+02  0.51100000000E-03 0.  1.
         11   -1    0    0    0    0 -0.00000000000E+00 -0.00000000000E+00 -0.45593999997E+02  0.45594000000E+02  0.51100000000E-03 0. -1.
    9900012    2    1    2    0    0 -0.57607049857E+01 -0.15724928056E+02 -0.41816915128E+02  0.46142317908E+02  0.10000001340E+02 0.  0.
        -12    1    1    2    0    0  0.57607049857E+01  0.15724928056E+02  0.41816915128E+02  0.45045682092E+02  0.00000000000E+00 0.  1.
         11    1    3    3    0    0 -0.55563403498E+01 -0.10045956314E+02 -0.20410887858E+02  0.23417909807E+02  0.51100000000E-03 0. -1.
        -11    1    3    3    0    0  0.22052572512E+01 -0.11576610179E+01 -0.76530847084E+01  0.80481702511E+01  0.51100000000E-03 0.  1.
        -12    1    3    3    0    0 -0.24096218871E+01 -0.45213107237E+01 -0.13752942562E+02  0.14676237850E+02  0.00000000000E+00 0.  1.
</event>
<event>
 7    1  0.3435408E-009  0.4614232E+02  0.7816164E-02  0.1320468E+00
        -11   -1    0    0    0    0  0.00000000000E+00  0.00000000000E+00  0.45593999997E+02  0.45594000000E+02  0.51100000000E-03 0.  1.
         11   -1    0    0    0    0 -0.00000000000E+00 -0.00000000000E+00 -0.45593999997E+02  0.45594000000E+02  0.51100000000E-03 0. -1.
    9900012    2    1    2    0    0 -0.27021241911E+02  0.16176431752E+02 -0.32206973889E+02  0.46142316237E+02  0.99999860996E+01 0.  0.
        -12    1    1    2    0    0  0.27021241911E+02 -0.16176431752E+02  0.32206973889E+02  0.45045683763E+02  0.00000000000E+00 0.  1.
         11    1    3    3    0    0 -0.16521889679E+02  0.12754029918E+02 -0.22190215400E+02  0.30463810948E+02  0.51100000000E-03 0. -1.
        -11    1    3    3    0    0 -0.30144037371E+01  0.28108323624E+00 -0.57730785403E+01  0.65187478683E+01  0.51100000000E-03 0.  1.
         12    1    3    3    0    0 -0.74849484945E+01  0.31413185974E+01 -0.42436799489E+01  0.91597574206E+01  0.00000000000E+00 0. -1.
</event>
<event>
 7    1  0.3435408E-009  0.4614232E+02  0.7816164E-02  0.1320468E+00
        -11   -1    0    0    0    0  0.00000000000E+00  0.00000000000E+00  0.45593999997E+02  0.45594000000E+02  0.51100000000E-03 0.  1.
         11   -1    0    0    0    0 -0.00000000000E+00 -0.00000000000E+00 -0.45593999997E+02  0.45594000000E+02  0.51100000000E-03 0. -1.
    9900012    2    1    2    0    0 -0.13090023474E+02  0.13981937270E+02 -0.40770947673E+02  0.46142318092E+02  0.10000003021E+02 0.  0.
        -12    1    1    2    0    0  0.13090023474E+02 -0.13981937270E+02  0.40770947673E+02  0.45045681908E+02  0.00000000000E+00 0.  1.
         11    1    3    3    0    0 -0.28236060340E+01  0.79540603041E+01 -0.13016030721E+02  0.15513119684E+02  0.51100000000E-03 0.  1.
        -11    1    3    3    0    0 -0.80266629523E+01  0.25019012832E+01 -0.14847510840E+02  0.17062690485E+02  0.51100000000E-03 0. -1.
        -12    1    3    3    0    0 -0.22397544874E+01  0.35259756825E+01 -0.12907406112E+02  0.13566507923E+02  0.00000000000E+00 0.  1.
</event>
<event>
 7    1  0.3435408E-009  0.4614232E+02  0.7816164E-02  0.1320468E+00
        -11   -1    0    0    0    0  0.00000000000E+00  0.00000000000E+00  0.45593999997E+02  0.45594000000E+02  0.51100000000E-03 0. -1.
         11   -1    0    0    0    0 -0.00000000000E+00 -0.00000000000E+00 -0.45593999997E+02  0.45594000000E+02  0.51100000000E-03 0.  1.
    9900012    2    1    2    0    0 -0.91997723733E+01  0.10156466648E+02  0.42910650766E+02  0.46142316792E+02  0.99999911628E+01 0.  0.
        -12    1    1    2    0    0  0.91997723733E+01 -0.10156466648E+02 -0.42910650766E+02  0.45045683208E+02  0.00000000000E+00 0.  1.
         11    1    3    3    0    0 -0.23815282958E+01  0.50788816196E+01  0.13134603054E+02  0.14282314699E+02  0.51100000000E-03 0. -1.
        -11    1    3    3    0    0 -0.50824398000E+00 -0.13736289465E+01  0.10193933349E+02  0.10298613781E+02  0.51100000000E-03 0.  1.
        -12    1    3    3    0    0 -0.63100000975E+01  0.64512139747E+01  0.19582114363E+02  0.21561388312E+02  0.00000000000E+00 0.  1.
</event>
<event>
 7    1  0.3435408E-009  0.4614232E+02  0.7816164E-02  0.1320468E+00
        -11   -1    0    0    0    0  0.00000000000E+00  0.00000000000E+00  0.45593999997E+02  0.45594000000E+02  0.51100000000E-03 0.  1.
         11   -1    0    0    0    0 -0.00000000000E+00 -0.00000000000E+00 -0.45593999997E+02  0.45594000000E+02  0.51100000000E-03 0. -1.
    9900012    2    1    2    0    0  0.92194857048E+01  0.31043272867E+02 -0.31311813140E+02  0.46142319307E+02  0.10000014098E+02 0.  0.
        -12    1    1    2    0    0 -0.92194857048E+01 -0.31043272867E+02  0.31311813140E+02  0.45045680693E+02  0.00000000000E+00 0.  1.
         11    1    3    3    0    0  0.26798850266E+01  0.59822853211E+01 -0.44373323206E+01  0.79157715861E+01  0.51100000000E-03 0. -1.
        -11    1    3    3    0    0  0.73963382931E+01  0.25246918396E+02 -0.25970204649E+02  0.36967069649E+02  0.51100000000E-03 0.  1.
        -12    1    3    3    0    0 -0.85673761498E+00 -0.18593085004E+00 -0.90427617042E+00  0.12594780722E+01  0.00000000000E+00 0.  1.
</event>
<event>
 7    1  0.3435408E-009  0.4614232E+02  0.7816164E-02  0.1320468E+00
        -11   -1    0    0    0    0  0.00000000000E+00  0.00000000000E+00  0.45593999997E+02  0.45594000000E+02  0.51100000000E-03 0.  1.
         11   -1    0    0    0    0 -0.00000000000E+00 -0.00000000000E+00 -0.45593999997E+02  0.45594000000E+02  0.51100000000E-03 0. -1.
    9900012    2    1    2    0    0  0.43006890018E+02  0.96837076387E+01 -0.92599533489E+01  0.46142317425E+02  0.99999969305E+01 0.  0.
        -12    1    1    2    0    0 -0.43006890018E+02 -0.96837076387E+01  0.92599533489E+01  0.45045682575E+02  0.00000000000E+00 0.  1.
         11    1    3    3    0    0  0.12265125535E+02  0.52711498361E+01 -0.48945419352E+01  0.14218820838E+02  0.51100000000E-03 0. -1.
        -11    1    3    3    0    0  0.87953222210E+01  0.25401366325E+01  0.11241760327E+01  0.92235437385E+01  0.51100000000E-03 0.  1.
         12    1    3    3    0    0  0.21946442262E+02  0.18724211701E+01 -0.54895874464E+01  0.22699952848E+02  0.00000000000E+00 0. -1.
</event>
<event>
 7    1  0.3435408E-009  0.4614232E+02  0.7816164E-02  0.1320468E+00
        -11   -1    0    0    0    0  0.00000000000E+00  0.00000000000E+00  0.45593999997E+02  0.45594000000E+02  0.51100000000E-03 0. -1.
         11   -1    0    0    0    0 -0.00000000000E+00 -0.00000000000E+00 -0.45593999997E+02  0.45594000000E+02  0.51100000000E-03 0.  1.
    9900012    2    1    2    0    0  0.42365684839E+01 -0.44579525823E+02 -0.48816692622E+01  0.46142319520E+02  0.10000016038E+02 0.  0.
        -12    1    1    2    0    0 -0.42365684839E+01  0.44579525823E+02  0.48816692622E+01  0.45045680480E+02  0.00000000000E+00 0.  1.
         11    1    3    3    0    0  0.13336108631E+01 -0.34312317109E+01  0.17872159884E+01  0.40921889299E+01  0.51100000000E-03 0. -1.
        -11    1    3    3    0    0 -0.12769158237E+01 -0.12297469380E+02 -0.21892500589E+01  0.12555918256E+02  0.51100000000E-03 0.  1.
         12    1    3    3    0    0  0.41798734445E+01 -0.28850824732E+02 -0.44796351917E+01  0.29494212334E+02  0.00000000000E+00 0. -1.
</event>
<event>
 7    1  0.3435408E-009  0.4614232E+02  0.7816164E-02  0.1320468E+00
        -11   -1    0    0    0    0  0.00000000000E+00  0.00000000000E+00  0.45593999997E+02  0.45594000000E+02  0.51100000000E-03 0. -1.
         11   -1    0    0    0    0 -0.00000000000E+00 -0.00000000000E+00 -0.45593999997E+02  0.45594000000E+02  0.51100000000E-03 0.  1.
    9900012    2    1    2    0    0 -0.40612381888E+02 -0.53872420950E+01  0.18727674041E+02  0.46142315245E+02  0.99999770576E+01 0.  0.
        -12    1    1    2    0    0  0.40612381888E+02  0.53872420950E+01 -0.18727674041E+02  0.45045684755E+02  0.00000000000E+00 0.  1.
         11    1    3    3    0    0 -0.19174675822E+02 -0.49472333265E+01  0.12754551224E+02  0.23554657452E+02  0.51100000000E-03 0. -1.
        -11    1    3    3    0    0 -0.18734507771E+02 -0.20794626802E-01  0.64442363155E+01  0.19811875120E+02  0.51100000000E-03 0.  1.
         12    1    3    3    0    0 -0.27031982950E+01 -0.41921414164E+00 -0.47111349846E+00  0.27757826729E+01  0.00000000000E+00 0. -1.
</event>
<event>
 7    1  0.3435408E-009  0.4614232E+02  0.7816164E-02  0.1320468E+00
        -11   -1    0    0    0    0  0.00000000000E+00  0.00000000000E+00  0.45593999997E+02  0.45594000000E+02  0.51100000000E-03 0. -1.
         11   -1    0    0    0    0 -0.00000000000E+00 -0.00000000000E+00 -0.45593999997E+02  0.45594000000E+02  0.51100000000E-03 0.  1.
    9900012    2    1    2    0    0 -0.10435466770E+02  0.43473912445E+02  0.54985032118E+01  0.46142316882E+02  0.99999919814E+01 0.  0.
        -12    1    1    2    0    0  0.10435466770E+02 -0.43473912445E+02 -0.54985032118E+01  0.45045683118E+02  0.00000000000E+00 0.  1.
         11    1    3    3    0    0 -0.11234695901E+01  0.92343961009E+01  0.13984837065E+01  0.94070193051E+01  0.51100000000E-03 0. -1.
        -11    1    3    3    0    0 -0.31996438282E+01  0.25091202873E+02  0.46539745118E+01  0.25718974732E+02  0.51100000000E-03 0.  1.
        -12    1    3    3    0    0 -0.61123533520E+01  0.91483134713E+01 -0.55395500644E+00  0.11016322845E+02  0.00000000000E+00 0.  1.
</event>
<event>
 7    1  0.3435408E-009  0.4614232E+02  0.7816164E-02  0.1320468E+00
        -11   -1    0    0    0    0  0.00000000000E+00  0.00000000000E+00  0.45593999997E+02  0.45594000000E+02  0.51100000000E-03 0.  1.
         11   -1    0    0    0    0 -0.00000000000E+00 -0.00000000000E+00 -0.45593999997E+02  0.45594000000E+02  0.51100000000E-03 0. -1.
    9900012    2    1    2    0    0 -0.41370358054E+02  0.13277055968E+02 -0.11888092308E+02  0.46142317861E+02  0.10000000907E+02 0.  0.
        -12    1    1    2    0    0  0.41370358054E+02 -0.13277055968E+02  0.11888092308E+02  0.45045682139E+02  0.00000000000E+00 0.  1.
         11    1    3    3    0    0 -0.20059733379E+02  0.83499719172E+01 -0.80002928335E+01  0.23154257058E+02  0.51100000000E-03 0. -1.
        -11    1    3    3    0    0 -0.60516470877E+01  0.22049409311E+01  0.14367464460E+01  0.65991240021E+01  0.51100000000E-03 0.  1.
         12    1    3    3    0    0 -0.15258977587E+02  0.27221431198E+01 -0.53245459203E+01  0.16388936800E+02  0.00000000000E+00 0. -1.
</event>
<event>
 7    1  0.3435408E-009  0.4614232E+02  0.7816164E-02  0.1320468E+00
        -11   -1    0    0    0    0  0.00000000000E+00  0.00000000000E+00  0.45593999997E+02  0.45594000000E+02  0.51100000000E-03 0. -1.
         11   -1    0    0    0    0 -0.00000000000E+00 -0.00000000000E+00 -0.45593999997E+02  0.45594000000E+02  0.51100000000E-03 0.  1.
    9900012    2    1    2    0    0 -0.37834870674E+02  0.23022495323E+02 -0.82219693869E+01  0.46142317516E+02  0.99999977636E+01 0.  0.
        -12    1    1    2    0    0  0.37834870674E+02 -0.23022495323E+02  0.82219693869E+01  0.45045682484E+02  0.00000000000E+00 0.  1.
         11    1    3    3    0    0 -0.26645531635E+01 -0.27589045857E+00  0.80509272104E+00  0.27971652895E+01  0.51100000000E-03 0. -1.
        -11    1    3    3    0    0 -0.68068359466E+01  0.63703247358E+01 -0.12020641930E+01  0.93999474162E+01  0.51100000000E-03 0.  1.
         12    1    3    3    0    0 -0.28363481564E+02  0.16928061046E+02 -0.78249979149E+01  0.33945204810E+02  0.00000000000E+00 0. -1.
</event>
<event>
 7    1  0.3435408E-009  0.4614232E+02  0.7816164E-02  0.1320468E+00
        -11   -1    0    0    0    0  0.00000000000E+00  0.00000000000E+00  0.45593999997E+02  0.45594000000E+02  0.51100000000E-03 0.  1.
         11   -1    0    0    0    0 -0.00000000000E+00 -0.00000000000E+00 -0.45593999997E+02  0.45594000000E+02  0.51100000000E-03 0. -1.
    9900012    2    1    2    0    0  0.11357481023E+02  0.23640885729E+02 -0.36622801312E+02  0.46142318418E+02  0.10000005988E+02 0.  0.
        -12    1    1    2    0    0 -0.11357481023E+02 -0.23640885729E+02  0.36622801312E+02  0.45045681582E+02  0.00000000000E+00 0.  1.
         11    1    3    3    0    0  0.95381222179E+00  0.97179912638E+01 -0.13046945445E+02  0.16296376826E+02  0.51100000000E-03 0. -1.
        -11    1    3    3    0    0  0.25730250762E+01  0.37776592996E+01 -0.10903747942E+02  0.11822981319E+02  0.51100000000E-03 0.  1.
         12    1    3    3    0    0  0.78306437250E+01  0.10145235166E+02 -0.12672107926E+02  0.18022960273E+02  0.00000000000E+00 0. -1.
</event>
<event>
 7    1  0.3435408E-009  0.4614232E+02  0.7816164E-02  0.1320468E+00
        -11   -1    0    0    0    0  0.00000000000E+00  0.00000000000E+00  0.45593999997E+02  0.45594000000E+02  0.51100000000E-03 0.  1.
         11   -1    0    0    0    0 -0.00000000000E+00 -0.00000000000E+00 -0.45593999997E+02  0.45594000000E+02  0.51100000000E-03 0. -1.
    9900012    2    1    2    0    0  0.15473528182E+02  0.15726219985E+02 -0.39273009559E+02  0.46142319306E+02  0.10000014085E+02 0.  0.
        -12    1    1    2    0    0 -0.15473528182E+02 -0.15726219985E+02  0.39273009559E+02  0.45045680694E+02  0.00000000000E+00 0.  1.
         11    1    3    3    0    0  0.51262917020E+01  0.38692650785E+01 -0.17043606884E+02  0.18213583248E+02  0.51100000000E-03 0. -1.
        -11    1    3    3    0    0  0.16818097668E+01  0.10105366538E+01 -0.31531586133E+00  0.19872324408E+01  0.51100000000E-03 0.  1.
         12    1    3    3    0    0  0.86654267131E+01  0.10846418253E+02 -0.21914086814E+02  0.25941503617E+02  0.00000000000E+00 0. -1.
</event>
<event>
 7    1  0.3435408E-009  0.4614232E+02  0.7816164E-02  0.1320468E+00
        -11   -1    0    0    0    0  0.00000000000E+00  0.00000000000E+00  0.45593999997E+02  0.45594000000E+02  0.51100000000E-03 0. -1.
         11   -1    0    0    0    0 -0.00000000000E+00 -0.00000000000E+00 -0.45593999997E+02  0.45594000000E+02  0.51100000000E-03 0.  1.
    9900012    2    1    2    0    0 -0.47203848002E+01  0.44636259154E+02 -0.37994550349E+01  0.46142317383E+02  0.99999965508E+01 0.  0.
        -12    1    1    2    0    0  0.47203848002E+01 -0.44636259154E+02  0.37994550349E+01  0.45045682617E+02  0.00000000000E+00 0.  1.
         11    1    3    3    0    0 -0.29684185048E+01  0.62597159399E+01 -0.29469470046E+01  0.75286153426E+01  0.51100000000E-03 0. -1.
        -11    1    3    3    0    0  0.60553507274E-01  0.93593427850E+01 -0.17701964610E+01  0.95254690103E+01  0.51100000000E-03 0.  1.
         12    1    3    3    0    0 -0.18125198026E+01  0.29017200429E+02  0.91768843061E+00  0.29088233030E+02  0.00000000000E+00 0. -1.
</event>
<event>
 7    1  0.3435408E-009  0.4614232E+02  0.7816164E-02  0.1320468E+00
        -11   -1    0    0    0    0  0.00000000000E+00  0.00000000000E+00  0.45593999997E+02  0.45594000000E+02  0.51100000000E-03 0. -1.
         11   -1    0    0    0    0 -0.00000000000E+00 -0.00000000000E+00 -0.45593999997E+02  0.45594000000E+02  0.51100000000E-03 0.  1.
    9900012    2    1    2    0    0  0.43147722842E+02  0.11780108803E+02 -0.53494624113E+01  0.46142315435E+02  0.99999787855E+01 0.  0.
        -12    1    1    2    0    0 -0.43147722842E+02 -0.11780108803E+02  0.53494624113E+01  0.45045684565E+02  0.00000000000E+00 0.  1.
         11    1    3    3    0    0  0.38979162100E+01  0.15514066454E+01 -0.11682055727E+01  0.43549188145E+01  0.51100000000E-03 0. -1.
        -11    1    3    3    0    0  0.14849569677E+02  0.83757273371E+01 -0.62911001698E+00  0.17060431052E+02  0.51100000000E-03 0.  1.
        -12    1    3    3    0    0  0.24400236955E+02  0.18529748208E+01 -0.35521468216E+01  0.24726965568E+02  0.00000000000E+00 0.  1.
</event>
<event>
 7    1  0.3435408E-009  0.4614233E+02  0.7816164E-02  0.1320468E+00
        -11   -1    0    0    0    0  0.00000000000E+00  0.00000000000E+00  0.45593999997E+02  0.45594000000E+02  0.51100000000E-03 0.  1.
         11   -1    0    0    0    0 -0.00000000000E+00 -0.00000000000E+00 -0.45593999997E+02  0.45594000000E+02  0.51100000000E-03 0. -1.
    9900012    2    1    2    0    0  0.57505495640E+01  0.97842111311E+01 -0.43592577335E+02  0.46142329770E+02  0.10000109510E+02 0.  0.
        -12    1    1    2    0    0 -0.57505495640E+01 -0.97842111311E+01  0.43592577335E+02  0.45045670230E+02  0.00000000000E+00 0.  1.
         11    1    3    3    0    0  0.32966513725E+01  0.88737090359E+01 -0.26425691190E+02  0.28070051255E+02  0.51100000000E-03 0. -1.
        -11    1    3    3    0    0  0.16216413964E+01 -0.15118370646E+01 -0.33313668944E+01  0.40016718724E+01  0.51100000000E-03 0.  1.
         12    1    3    3    0    0  0.83225679513E+00  0.24223391598E+01 -0.13835519251E+02  0.14070606643E+02  0.00000000000E+00 0. -1.
</event>
<event>
 7    1  0.3435408E-009  0.4614232E+02  0.7816164E-02  0.1320468E+00
        -11   -1    0    0    0    0  0.00000000000E+00  0.00000000000E+00  0.45593999997E+02  0.45594000000E+02  0.51100000000E-03 0.  1.
         11   -1    0    0    0    0 -0.00000000000E+00 -0.00000000000E+00 -0.45593999997E+02  0.45594000000E+02  0.51100000000E-03 0. -1.
    9900012    2    1    2    0    0 -0.39541144081E+02  0.17641291038E+02  0.12425631568E+02  0.46142317137E+02  0.99999943117E+01 0.  0.
        -12    1    1    2    0    0  0.39541144081E+02 -0.17641291038E+02 -0.12425631568E+02  0.45045682863E+02  0.00000000000E+00 0.  1.
         11    1    3    3    0    0 -0.31512481247E+02  0.11408041278E+02  0.64042592463E+01  0.34120293329E+02  0.51100000000E-03 0. -1.
        -11    1    3    3    0    0 -0.23309607082E+01  0.31750480870E+01  0.22866273833E+01  0.45544454359E+01  0.51100000000E-03 0.  1.
         12    1    3    3    0    0 -0.56977021259E+01  0.30582016739E+01  0.37347449382E+01  0.74675783723E+01  0.00000000000E+00 0. -1.
</event>
<event>
 7    1  0.3435408E-009  0.4614232E+02  0.7816164E-02  0.1320468E+00
        -11   -1    0    0    0    0  0.00000000000E+00  0.00000000000E+00  0.45593999997E+02  0.45594000000E+02  0.51100000000E-03 0. -1.
         11   -1    0    0    0    0 -0.00000000000E+00 -0.00000000000E+00 -0.45593999997E+02  0.45594000000E+02  0.51100000000E-03 0.  1.
    9900012    2    1    2    0    0  0.14981514697E+02 -0.39479174739E+02 -0.15686379463E+02  0.46142317395E+02  0.99999966588E+01 0.  0.
        -12    1    1    2    0    0 -0.14981514697E+02  0.39479174739E+02  0.15686379463E+02  0.45045682605E+02  0.00000000000E+00 0.  1.
         11    1    3    3    0    0  0.65276156506E+01 -0.16967913067E+02 -0.58618901392E+01  0.19101874154E+02  0.51100000000E-03 0. -1.
        -11    1    3    3    0    0  0.53829932980E+01 -0.11450157958E+02 -0.90089520606E+01  0.15532029861E+02  0.51100000000E-03 0.  1.
        -12    1    3    3    0    0  0.30709057484E+01 -0.11061103713E+02 -0.81553726344E+00  0.11508413379E+02  0.00000000000E+00 0.  1.
</event>
<event>
 7    1  0.3435408E-009  0.4614232E+02  0.7816164E-02  0.1320468E+00
        -11   -1    0    0    0    0  0.00000000000E+00  0.00000000000E+00  0.45593999997E+02  0.45594000000E+02  0.51100000000E-03 0.  1.
         11   -1    0    0    0    0 -0.00000000000E+00 -0.00000000000E+00 -0.45593999997E+02  0.45594000000E+02  0.51100000000E-03 0. -1.
    9900012    2    1    2    0    0  0.22173115712E+02  0.33846379941E+02 -0.19796187690E+02  0.46142317159E+02  0.99999945092E+01 0.  0.
        -12    1    1    2    0    0 -0.22173115712E+02 -0.33846379941E+02  0.19796187690E+02  0.45045682841E+02  0.00000000000E+00 0.  1.
         11    1    3    3    0    0  0.67845339712E+01  0.13564854202E+02 -0.57245719599E+01  0.16211289126E+02  0.51100000000E-03 0. -1.
        -11    1    3    3    0    0  0.12448415821E+01  0.15859337047E+01 -0.38718315807E+01  0.43653059836E+01  0.51100000000E-03 0.  1.
         12    1    3    3    0    0  0.14143740159E+02  0.18695592034E+02 -0.10199784150E+02  0.25565722050E+02  0.00000000000E+00 0. -1.
</event>
<event>
 7    1  0.3435408E-009  0.4614232E+02  0.7816164E-02  0.1320468E+00
        -11   -1    0    0    0    0  0.00000000000E+00  0.00000000000E+00  0.45593999997E+02  0.45594000000E+02  0.51100000000E-03 0.  1.
         11   -1    0    0    0    0 -0.00000000000E+00 -0.00000000000E+00 -0.45593999997E+02  0.45594000000E+02  0.51100000000E-03 0. -1.
    9900012    2    1    2    0    0  0.14987439350E+02  0.29576153530E+02 -0.30491658798E+02  0.46142318163E+02  0.10000003667E+02 0.  0.
        -12    1    1    2    0    0 -0.14987439350E+02 -0.29576153530E+02  0.30491658798E+02  0.45045681837E+02  0.00000000000E+00 0.  1.
         11    1    3    3    0    0  0.41652408105E+01  0.11927507001E+02 -0.13198790276E+02  0.18270816054E+02  0.51100000000E-03 0. -1.
        -11    1    3    3    0    0 -0.10398387396E+00  0.55568296393E+01 -0.41888013503E+01  0.69595420323E+01  0.51100000000E-03 0.  1.
        -12    1    3    3    0    0  0.10926182413E+02  0.12091816890E+02 -0.13104067171E+02  0.20911960077E+02  0.00000000000E+00 0.  1.
</event>
<event>
 7    1  0.3435408E-009  0.4614232E+02  0.7816164E-02  0.1320468E+00
        -11   -1    0    0    0    0  0.00000000000E+00  0.00000000000E+00  0.45593999997E+02  0.45594000000E+02  0.51100000000E-03 0.  1.
         11   -1    0    0    0    0 -0.00000000000E+00 -0.00000000000E+00 -0.45593999997E+02  0.45594000000E+02  0.51100000000E-03 0. -1.
    9900012    2    1    2    0    0 -0.41926148564E+02 -0.13948812464E+02  0.87602628397E+01  0.46142317548E+02  0.99999980521E+01 0.  0.
        -12    1    1    2    0    0  0.41926148564E+02  0.13948812464E+02 -0.87602628397E+01  0.45045682452E+02  0.00000000000E+00 0.  1.
         11    1    3    3    0    0 -0.17960258635E+02 -0.29767437762E+01  0.44124708945E+01  0.18732372872E+02  0.51100000000E-03 0. -1.
        -11    1    3    3    0    0 -0.15047305367E+02 -0.49618388998E+01  0.50573624676E+01  0.16631841734E+02  0.51100000000E-03 0.  1.
         12    1    3    3    0    0 -0.89185845619E+01 -0.60102297878E+01 -0.70957052243E+00  0.10778102941E+02  0.00000000000E+00 0. -1.
</event>
<event>
 7    1  0.3435408E-009  0.4614232E+02  0.7816164E-02  0.1320468E+00
        -11   -1    0    0    0    0  0.00000000000E+00  0.00000000000E+00  0.45593999997E+02  0.45594000000E+02  0.51100000000E-03 0.  1.
         11   -1    0    0    0    0 -0.00000000000E+00 -0.00000000000E+00 -0.45593999997E+02  0.45594000000E+02  0.51100000000E-03 0. -1.
    9900012    2    1    2    0    0 -0.55382567037E+01 -0.23272873047E+02 -0.38168241039E+02  0.46142317286E+02  0.99999956630E+01 0.  0.
        -12    1    1    2    0    0  0.55382567037E+01  0.23272873047E+02  0.38168241039E+02  0.45045682714E+02  0.00000000000E+00 0.  1.
         11    1    3    3    0    0 -0.38035051455E+01 -0.39731792309E+01 -0.11950297387E+02  0.13155318791E+02  0.51100000000E-03 0. -1.
        -11    1    3    3    0    0  0.81323420474E+00 -0.33816085391E+00 -0.99102345450E+00  0.13258319589E+01  0.51100000000E-03 0.  1.
        -12    1    3    3    0    0 -0.25479857630E+01 -0.18961532962E+02 -0.25226920197E+02  0.31661166535E+02  0.00000000000E+00 0.  1.
</event>
<event>
 7    1  0.3435408E-009  0.4614232E+02  0.7816164E-02  0.1320468E+00
        -11   -1    0    0    0    0  0.00000000000E+00  0.00000000000E+00  0.45593999997E+02  0.45594000000E+02  0.51100000000E-03 0.  1.
         11   -1    0    0    0    0 -0.00000000000E+00 -0.00000000000E+00 -0.45593999997E+02  0.45594000000E+02  0.51100000000E-03 0. -1.
    9900012    2    1    2    0    0  0.15455392621E+02  0.20381663882E+02 -0.37078728339E+02  0.46142317866E+02  0.10000000959E+02 0.  0.
        -12    1    1    2    0    0 -0.15455392621E+02 -0.20381663882E+02  0.37078728339E+02  0.45045682134E+02  0.00000000000E+00 0.  1.
         11    1    3    3    0    0 -0.89840739714E+00  0.17766921017E+01 -0.44910360082E+01  0.49125528357E+01  0.51100000000E-03 0. -1.
        -11    1    3    3    0    0  0.19674951909E+01  0.48425906918E+01 -0.85102018694E+01  0.99872547807E+01  0.51100000000E-03 0.  1.
         12    1    3    3    0    0  0.14386304828E+02  0.13762381089E+02 -0.24077490461E+02  0.31242510250E+02  0.00000000000E+00 0. -1.
</event>
<event>
 7    1  0.3435408E-009  0.4614232E+02  0.7816164E-02  0.1320468E+00
        -11   -1    0    0    0    0  0.00000000000E+00  0.00000000000E+00  0.45593999997E+02  0.45594000000E+02  0.51100000000E-03 0.  1.
         11   -1    0    0    0    0 -0.00000000000E+00 -0.00000000000E+00 -0.45593999997E+02  0.45594000000E+02  0.51100000000E-03 0. -1.
    9900012    2    1    2    0    0 -0.40933762292E+02 -0.14126952397E+02 -0.12408456940E+02  0.46142317820E+02  0.10000000536E+02 0.  0.
        -12    1    1    2    0    0  0.40933762292E+02  0.14126952397E+02  0.12408456940E+02  0.45045682180E+02  0.00000000000E+00 0.  1.
         11    1    3    3    0    0 -0.79394261696E+01 -0.29196533947E+01  0.54772652327E+00  0.84769610388E+01  0.51100000000E-03 0.  1.
        -11    1    3    3    0    0 -0.22882119261E+02 -0.51383759028E+01 -0.10077749004E+02  0.25525581561E+02  0.51100000000E-03 0. -1.
         12    1    3    3    0    0 -0.10112216862E+02 -0.60689230999E+01 -0.28784344589E+01  0.12139775220E+02  0.00000000000E+00 0. -1.
</event>
<event>
 7    1  0.3435408E-009  0.4614232E+02  0.7816164E-02  0.1320468E+00
        -11   -1    0    0    0    0  0.00000000000E+00  0.00000000000E+00  0.45593999997E+02  0.45594000000E+02  0.51100000000E-03 0.  1.
         11   -1    0    0    0    0 -0.00000000000E+00 -0.00000000000E+00 -0.45593999997E+02  0.45594000000E+02  0.51100000000E-03 0. -1.
    9900012    2    1    2    0    0 -0.95176171554E+01 -0.50674784512E+00 -0.44025807313E+02  0.46142317196E+02  0.99999948447E+01 0.  0.
        -12    1    1    2    0    0  0.95176171554E+01  0.50674784512E+00  0.44025807313E+02  0.45045682804E+02  0.00000000000E+00 0.  1.
         11    1    3    3    0    0 -0.60430720504E+01 -0.11252581810E+00 -0.16394975155E+02  0.17473597009E+02  0.51100000000E-03 0. -1.
        -11    1    3    3    0    0 -0.30581107837E+01 -0.32093859171E+01 -0.20829612364E+02  0.21296125258E+02  0.51100000000E-03 0.  1.
         12    1    3    3    0    0 -0.41643432132E+00  0.28151638901E+01 -0.68012197951E+01  0.73725949280E+01  0.00000000000E+00 0. -1.
</event>
<event>
 7    1  0.3435408E-009  0.4614232E+02  0.7816164E-02  0.1320468E+00
        -11   -1    0    0    0    0  0.00000000000E+00  0.00000000000E+00  0.45593999997E+02  0.45594000000E+02  0.51100000000E-03 0.  1.
         11   -1    0    0    0    0 -0.00000000000E+00 -0.00000000000E+00 -0.45593999997E+02  0.45594000000E+02  0.51100000000E-03 0. -1.
    9900012    2    1    2    0    0 -0.17624210078E+02  0.39420462672E+02 -0.12826840456E+02  0.46142317696E+02  0.99999994079E+01 0.  0.
        -12    1    1    2    0    0  0.17624210078E+02 -0.39420462672E+02  0.12826840456E+02  0.45045682304E+02  0.00000000000E+00 0.  1.
         11    1    3    3    0    0 -0.29774821110E+01  0.12321565836E+02 -0.49541323384E+01  0.13609915938E+02  0.51100000000E-03 0. -1.
        -11    1    3    3    0    0 -0.75458972814E+01  0.81120324726E+01 -0.98407031623E+00  0.11122680939E+02  0.51100000000E-03 0.  1.
        -12    1    3    3    0    0 -0.71008306852E+01  0.18986864364E+02 -0.68886378012E+01  0.21409720819E+02  0.00000000000E+00 0.  1.
</event>
<event>
 7    1  0.3435408E-009  0.4614232E+02  0.7816164E-02  0.1320468E+00
        -11   -1    0    0    0    0  0.00000000000E+00  0.00000000000E+00  0.45593999997E+02  0.45594000000E+02  0.51100000000E-03 0. -1.
         11   -1    0    0    0    0 -0.00000000000E+00 -0.00000000000E+00 -0.45593999997E+02  0.45594000000E+02  0.51100000000E-03 0.  1.
    9900012    2    1    2    0    0 -0.24500255862E+02 -0.24374797056E+02  0.28891524727E+02  0.46142317967E+02  0.10000001875E+02 0.  0.
        -12    1    1    2    0    0  0.24500255862E+02  0.24374797056E+02 -0.28891524727E+02  0.45045682033E+02  0.00000000000E+00 0.  1.
         11    1    3    3    0    0 -0.27127588487E+00 -0.19744968569E+01  0.70509491052E-01  0.19942919277E+01  0.51100000000E-03 0. -1.
        -11    1    3    3    0    0 -0.36270945494E+01 -0.61743482064E+01  0.51501229252E+01  0.88205531034E+01  0.51100000000E-03 0.  1.
         12    1    3    3    0    0 -0.20601885428E+02 -0.16225951993E+02  0.23670892311E+02  0.35327472936E+02  0.00000000000E+00 0. -1.
</event>
<event>
 7    1  0.3435408E-009  0.4614232E+02  0.7816164E-02  0.1320468E+00
        -11   -1    0    0    0    0  0.00000000000E+00  0.00000000000E+00  0.45593999997E+02  0.45594000000E+02  0.51100000000E-03 0.  1.
         11   -1    0    0    0    0 -0.00000000000E+00 -0.00000000000E+00 -0.45593999997E+02  0.45594000000E+02  0.51100000000E-03 0. -1.
    9900012    2    1    2    0    0 -0.29658701878E+02 -0.28598826665E+02 -0.18209393090E+02  0.46142317850E+02  0.10000000809E+02 0.  0.
        -12    1    1    2    0    0  0.29658701878E+02  0.28598826665E+02  0.18209393090E+02  0.45045682150E+02  0.00000000000E+00 0.  1.
         11    1    3    3    0    0 -0.60926362502E+01 -0.91851719232E+01 -0.25054084229E+01  0.11303303560E+02  0.51100000000E-03 0. -1.
        -11    1    3    3    0    0 -0.12300178605E+02 -0.83685027519E+01 -0.10562430667E+02  0.18245305530E+02  0.51100000000E-03 0.  1.
         12    1    3    3    0    0 -0.11265887023E+02 -0.11045151990E+02 -0.51415539995E+01  0.16593708760E+02  0.00000000000E+00 0. -1.
</event>
<event>
 7    1  0.3435408E-009  0.4614232E+02  0.7816164E-02  0.1320468E+00
        -11   -1    0    0    0    0  0.00000000000E+00  0.00000000000E+00  0.45593999997E+02  0.45594000000E+02  0.51100000000E-03 0.  1.
         11   -1    0    0    0    0 -0.00000000000E+00 -0.00000000000E+00 -0.45593999997E+02  0.45594000000E+02  0.51100000000E-03 0. -1.
    9900012    2    1    2    0    0  0.19196218865E+02  0.22742666225E+02 -0.33814047913E+02  0.46142317387E+02  0.99999965899E+01 0.  0.
        -12    1    1    2    0    0 -0.19196218865E+02 -0.22742666225E+02  0.33814047913E+02  0.45045682613E+02  0.00000000000E+00 0.  1.
         11    1    3    3    0    0  0.15670836738E+02  0.13932554358E+02 -0.22178503113E+02  0.30521749549E+02  0.51100000000E-03 0. -1.
        -11    1    3    3    0    0 -0.11676293607E+00  0.76099923097E-01  0.33416041896E+00  0.36206108360E+00  0.51100000000E-03 0.  1.
        -12    1    3    3    0    0  0.36421450639E+01  0.87340119447E+01 -0.11969705220E+02  0.15258506754E+02  0.00000000000E+00 0.  1.
</event>
<event>
 7    1  0.3435408E-009  0.4614232E+02  0.7816164E-02  0.1320468E+00
        -11   -1    0    0    0    0  0.00000000000E+00  0.00000000000E+00  0.45593999997E+02  0.45594000000E+02  0.51100000000E-03 0.  1.
         11   -1    0    0    0    0 -0.00000000000E+00 -0.00000000000E+00 -0.45593999997E+02  0.45594000000E+02  0.51100000000E-03 0. -1.
    9900012    2    1    2    0    0  0.26168058296E+02  0.83429656253E+01 -0.35703514476E+02  0.46142319892E+02  0.10000019435E+02 0.  0.
        -12    1    1    2    0    0 -0.26168058296E+02 -0.83429656253E+01  0.35703514476E+02  0.45045680108E+02  0.00000000000E+00 0.  1.
         11    1    3    3    0    0  0.12181460256E+02  0.62294362235E+01 -0.13607435701E+02  0.19296532234E+02  0.51100000000E-03 0. -1.
        -11    1    3    3    0    0  0.41916177481E+00  0.15762442356E+01 -0.18274820321E+01  0.24494761322E+01  0.51100000000E-03 0.  1.
         12    1    3    3    0    0  0.13567436265E+02  0.53728516617E+00 -0.20268596743E+02  0.24396311526E+02  0.00000000000E+00 0. -1.
</event>
<event>
 7    1  0.3435408E-009  0.4614232E+02  0.7816164E-02  0.1320468E+00
        -11   -1    0    0    0    0  0.00000000000E+00  0.00000000000E+00  0.45593999997E+02  0.45594000000E+02  0.51100000000E-03 0.  1.
         11   -1    0    0    0    0 -0.00000000000E+00 -0.00000000000E+00 -0.45593999997E+02  0.45594000000E+02  0.51100000000E-03 0. -1.
    9900012    2    1    2    0    0 -0.21720304832E+01 -0.16790987396E+02 -0.41742764677E+02  0.46142318997E+02  0.10000011269E+02 0.  0.
        -12    1    1    2    0    0  0.21720304832E+01  0.16790987396E+02  0.41742764677E+02  0.45045681003E+02  0.00000000000E+00 0.  1.
         11    1    3    3    0    0 -0.29203345719E+01 -0.34842650670E+01 -0.75273912182E+01  0.87937520935E+01  0.51100000000E-03 0. -1.
        -11    1    3    3    0    0  0.22046307091E+00 -0.13938463924E+02 -0.33388409662E+02  0.36181698144E+02  0.51100000000E-03 0.  1.
        -12    1    3    3    0    0  0.52784101778E+00  0.63174159437E+00 -0.82696379627E+00  0.11668687597E+01  0.00000000000E+00 0.  1.
</event>
<event>
 7    1  0.3435408E-009  0.4614232E+02  0.7816164E-02  0.1320468E+00
        -11   -1    0    0    0    0  0.00000000000E+00  0.00000000000E+00  0.45593999997E+02  0.45594000000E+02  0.51100000000E-03 0. -1.
         11   -1    0    0    0    0 -0.00000000000E+00 -0.00000000000E+00 -0.45593999997E+02  0.45594000000E+02  0.51100000000E-03 0.  1.
    9900012    2    1    2    0    0  0.13726849038E+01 -0.31815301756E+01  0.44912213634E+02  0.46142319501E+02  0.10000015867E+02 0.  0.
        -12    1    1    2    0    0 -0.13726849038E+01  0.31815301756E+01 -0.44912213634E+02  0.45045680499E+02  0.00000000000E+00 0.  1.
         11    1    3    3    0    0  0.44291679309E+01 -0.36244014534E+01  0.29379930982E+02  0.29932159281E+02  0.51100000000E-03 0. -1.
        -11    1    3    3    0    0 -0.69289673558E+00  0.17858630758E+01  0.67801006572E+01  0.70455076464E+01  0.51100000000E-03 0.  1.
         12    1    3    3    0    0 -0.23635862915E+01 -0.13429917980E+01  0.87521819943E+01  0.91646525732E+01  0.00000000000E+00 0. -1.
</event>
<event>
 7    1  0.3435408E-009  0.4614232E+02  0.7816164E-02  0.1320468E+00
        -11   -1    0    0    0    0  0.00000000000E+00  0.00000000000E+00  0.45593999997E+02  0.45594000000E+02  0.51100000000E-03 0.  1.
         11   -1    0    0    0    0 -0.00000000000E+00 -0.00000000000E+00 -0.45593999997E+02  0.45594000000E+02  0.51100000000E-03 0. -1.
    9900012    2    1    2    0    0  0.21806844329E+02 -0.11312624250E+02 -0.37757113141E+02  0.46142317413E+02  0.99999968258E+01 0.  0.
        -12    1    1    2    0    0 -0.21806844329E+02  0.11312624250E+02  0.37757113141E+02  0.45045682587E+02  0.00000000000E+00 0.  1.
         11    1    3    3    0    0  0.11131939824E+02 -0.10477255418E+01 -0.20273526998E+02  0.23152401825E+02  0.51100000000E-03 0. -1.
        -11    1    3    3    0    0  0.11278836157E+01 -0.17842257223E+01 -0.18759763593E+01  0.28239813102E+01  0.51100000000E-03 0.  1.
         12    1    3    3    0    0  0.95470208888E+01 -0.84806729863E+01 -0.15607609784E+02  0.20165934278E+02  0.00000000000E+00 0. -1.
</event>
<event>
 7    1  0.3435408E-009  0.4614232E+02  0.7816164E-02  0.1320468E+00
        -11   -1    0    0    0    0  0.00000000000E+00  0.00000000000E+00  0.45593999997E+02  0.45594000000E+02  0.51100000000E-03 0.  1.
         11   -1    0    0    0    0 -0.00000000000E+00 -0.00000000000E+00 -0.45593999997E+02  0.45594000000E+02  0.51100000000E-03 0. -1.
    9900012    2    1    2    0    0  0.73750454000E+01  0.84445429340E+01 -0.43628109419E+02  0.46142317282E+02  0.99999956354E+01 0.  0.
        -12    1    1    2    0    0 -0.73750454000E+01 -0.84445429340E+01  0.43628109419E+02  0.45045682718E+02  0.00000000000E+00 0.  1.
         11    1    3    3    0    0  0.26430795526E+01  0.44108508739E+01 -0.23965507687E+02  0.24510957426E+02  0.51100000000E-03 0. -1.
        -11    1    3    3    0    0  0.56137680704E+01  0.43363236509E+01 -0.19409818284E+02  0.20665409283E+02  0.51100000000E-03 0.  1.
        -12    1    3    3    0    0 -0.88180222297E+00 -0.30263159075E+00 -0.25278344801E+00  0.96595057417E+00  0.00000000000E+00 0.  1.
</event>
<event>
 7    1  0.3435408E-009  0.4614232E+02  0.7816164E-02  0.1320468E+00
        -11   -1    0    0    0    0  0.00000000000E+00  0.00000000000E+00  0.45593999997E+02  0.45594000000E+02  0.51100000000E-03 0.  1.
         11   -1    0    0    0    0 -0.00000000000E+00 -0.00000000000E+00 -0.45593999997E+02  0.45594000000E+02  0.51100000000E-03 0. -1.
    9900012    2    1    2    0    0  0.18123800121E+02  0.24069254911E+02 -0.33486002700E+02  0.46142317193E+02  0.99999948183E+01 0.  0.
        -12    1    1    2    0    0 -0.18123800121E+02 -0.24069254911E+02  0.33486002700E+02  0.45045682807E+02  0.00000000000E+00 0.  1.
         11    1    3    3    0    0  0.89832289818E+01  0.10596539109E+02 -0.16043478097E+02  0.21222116618E+02  0.51100000000E-03 0. -1.
        -11    1    3    3    0    0 -0.71267622370E+00  0.23707064515E+01 -0.48878566237E+01  0.54789870518E+01  0.51100000000E-03 0.  1.
         12    1    3    3    0    0  0.98532473624E+01  0.11102009351E+02 -0.12554667979E+02  0.19441213523E+02  0.00000000000E+00 0. -1.
</event>
<event>
 7    1  0.3435408E-009  0.4614232E+02  0.7816164E-02  0.1320468E+00
        -11   -1    0    0    0    0  0.00000000000E+00  0.00000000000E+00  0.45593999997E+02  0.45594000000E+02  0.51100000000E-03 0.  1.
         11   -1    0    0    0    0 -0.00000000000E+00 -0.00000000000E+00 -0.45593999997E+02  0.45594000000E+02  0.51100000000E-03 0. -1.
    9900012    2    1    2    0    0 -0.68115646881E+01 -0.17294375085E+02 -0.41031946028E+02  0.46142318543E+02  0.10000007126E+02 0.  0.
        -12    1    1    2    0    0  0.68115646881E+01  0.17294375085E+02  0.41031946028E+02  0.45045681457E+02  0.00000000000E+00 0.  1.
         11    1    3    3    0    0 -0.24018350951E+01 -0.78731900865E+01 -0.28746185672E+02  0.29901490346E+02  0.51100000000E-03 0.  1.
        -11    1    3    3    0    0 -0.25670994586E+01 -0.56610589567E+01 -0.56829664354E+01  0.84222144302E+01  0.51100000000E-03 0. -1.
         12    1    3    3    0    0 -0.18426301344E+01 -0.37601260422E+01 -0.66027939208E+01  0.78186137663E+01  0.00000000000E+00 0. -1.
</event>
<event>
 7    1  0.3435408E-009  0.4614231E+02  0.7816164E-02  0.1320468E+00
        -11   -1    0    0    0    0  0.00000000000E+00  0.00000000000E+00  0.45593999997E+02  0.45594000000E+02  0.51100000000E-03 0.  1.
         11   -1    0    0    0    0 -0.00000000000E+00 -0.00000000000E+00 -0.45593999997E+02  0.45594000000E+02  0.51100000000E-03 0. -1.
    9900012    2    1    2    0    0  0.19876104762E+02 -0.39938650195E+02 -0.62417100721E+01  0.46142309146E+02  0.99999214436E+01 0.  0.
        -12    1    1    2    0    0 -0.19876104762E+02  0.39938650195E+02  0.62417100721E+01  0.45045690854E+02  0.00000000000E+00 0.  1.
         11    1    3    3    0    0  0.79153031584E+01 -0.12185699634E+02 -0.35514441353E+01  0.14958477709E+02  0.51100000000E-03 0. -1.
        -11    1    3    3    0    0  0.21941015384E+00 -0.85657981228E+01 -0.97574410292E+00  0.86239848743E+01  0.51100000000E-03 0.  1.
        -12    1    3    3    0    0  0.11741391450E+02 -0.19187152438E+02 -0.17145218338E+01  0.22559846563E+02  0.00000000000E+00 0.  1.
</event>
<event>
 7    1  0.3435408E-009  0.4614231E+02  0.7816164E-02  0.1320468E+00
        -11   -1    0    0    0    0  0.00000000000E+00  0.00000000000E+00  0.45593999997E+02  0.45594000000E+02  0.51100000000E-03 0.  1.
         11   -1    0    0    0    0 -0.00000000000E+00 -0.00000000000E+00 -0.45593999997E+02  0.45594000000E+02  0.51100000000E-03 0. -1.
    9900012    2    1    2    0    0 -0.11572954027E+02  0.38469591779E+02 -0.20378205262E+02  0.46142312012E+02  0.99999475772E+01 0.  0.
        -12    1    1    2    0    0  0.11572954027E+02 -0.38469591779E+02  0.20378205262E+02  0.45045687988E+02  0.00000000000E+00 0.  1.
         11    1    3    3    0    0 -0.12034076998E+01  0.20975098169E+01 -0.15199846165E+01  0.28562372135E+01  0.51100000000E-03 0. -1.
        -11    1    3    3    0    0 -0.82387263274E+01  0.32332014742E+02 -0.12885208918E+02  0.35766805810E+02  0.51100000000E-03 0.  1.
        -12    1    3    3    0    0 -0.21308200002E+01  0.40400672207E+01 -0.59730117278E+01  0.75192689885E+01  0.00000000000E+00 0.  1.
</event>
<event>
 7    1  0.3435408E-009  0.4614232E+02  0.7816164E-02  0.1320468E+00
        -11   -1    0    0    0    0  0.00000000000E+00  0.00000000000E+00  0.45593999997E+02  0.45594000000E+02  0.51100000000E-03 0. -1.
         11   -1    0    0    0    0 -0.00000000000E+00 -0.00000000000E+00 -0.45593999997E+02  0.45594000000E+02  0.51100000000E-03 0.  1.
    9900012    2    1    2    0    0 -0.13815425720E+02  0.33634548574E+02  0.26588797950E+02  0.46142322937E+02  0.10000047200E+02 0.  0.
        -12    1    1    2    0    0  0.13815425720E+02 -0.33634548574E+02 -0.26588797950E+02  0.45045677063E+02  0.00000000000E+00 0.  1.
         11    1    3    3    0    0 -0.39956394388E+01  0.11009396383E+02  0.38557278581E+01  0.12330392565E+02  0.51100000000E-03 0. -1.
        -11    1    3    3    0    0 -0.15327883528E+01  0.10027021304E+01  0.22069397294E+01  0.28680019050E+01  0.51100000000E-03 0.  1.
         12    1    3    3    0    0 -0.82869979280E+01  0.21622450061E+02  0.20526130363E+02  0.30943928467E+02  0.00000000000E+00 0. -1.
</event>
<event>
 7    1  0.3435408E-009  0.4614232E+02  0.7816164E-02  0.1320468E+00
        -11   -1    0    0    0    0  0.00000000000E+00  0.00000000000E+00  0.45593999997E+02  0.45594000000E+02  0.51100000000E-03 0.  1.
         11   -1    0    0    0    0 -0.00000000000E+00 -0.00000000000E+00 -0.45593999997E+02  0.45594000000E+02  0.51100000000E-03 0. -1.
    9900012    2    1    2    0    0 -0.30040703497E+02 -0.11434825501E+02 -0.31558110343E+02  0.46142318417E+02  0.10000005984E+02 0.  0.
        -12    1    1    2    0    0  0.30040703497E+02  0.11434825501E+02  0.31558110343E+02  0.45045681583E+02  0.00000000000E+00 0.  1.
         11    1    3    3    0    0 -0.32327869902E+01  0.26496359817E+00 -0.33717999194E+01  0.46786913117E+01  0.51100000000E-03 0. -1.
        -11    1    3    3    0    0 -0.13180290984E+02 -0.73005078747E+01 -0.19757465552E+02  0.24847030627E+02  0.51100000000E-03 0.  1.
        -12    1    3    3    0    0 -0.13627625523E+02 -0.43992812243E+01 -0.84288448711E+01  0.16616596479E+02  0.00000000000E+00 0.  1.
</event>
<event>
 7    1  0.3435408E-009  0.4614232E+02  0.7816164E-02  0.1320468E+00
        -11   -1    0    0    0    0  0.00000000000E+00  0.00000000000E+00  0.45593999997E+02  0.45594000000E+02  0.51100000000E-03 0.  1.
         11   -1    0    0    0    0 -0.00000000000E+00 -0.00000000000E+00 -0.45593999997E+02  0.45594000000E+02  0.51100000000E-03 0. -1.
    9900012    2    1    2    0    0 -0.11601343941E+02 -0.18499682632E+02 -0.39399035317E+02  0.46142318491E+02  0.10000006655E+02 0.  0.
        -12    1    1    2    0    0  0.11601343941E+02  0.18499682632E+02  0.39399035317E+02  0.45045681509E+02  0.00000000000E+00 0.  1.
         11    1    3    3    0    0 -0.74628001832E+01 -0.62102412816E+01 -0.14559940955E+02  0.17500067549E+02  0.51100000000E-03 0. -1.
        -11    1    3    3    0    0 -0.88005387579E+00  0.21640658329E+00 -0.41558029598E+01  0.42534721270E+01  0.51100000000E-03 0.  1.
         12    1    3    3    0    0 -0.32584898817E+01 -0.12505847934E+02 -0.20683291403E+02  0.24388778815E+02  0.00000000000E+00 0. -1.
</event>
<event>
 7    1  0.3435408E-009  0.4614232E+02  0.7816164E-02  0.1320468E+00
        -11   -1    0    0    0    0  0.00000000000E+00  0.00000000000E+00  0.45593999997E+02  0.45594000000E+02  0.51100000000E-03 0. -1.
         11   -1    0    0    0    0 -0.00000000000E+00 -0.00000000000E+00 -0.45593999997E+02  0.45594000000E+02  0.51100000000E-03 0.  1.
    9900012    2    1    2    0    0 -0.15599076287E+02  0.11826576541E+02  0.40569866991E+02  0.46142320947E+02  0.10000029051E+02 0.  0.
        -12    1    1    2    0    0  0.15599076287E+02 -0.11826576541E+02 -0.40569866991E+02  0.45045679053E+02  0.00000000000E+00 0.  1.
         11    1    3    3    0    0 -0.38091458013E+01 -0.38619115064E+00  0.12271514482E+02  0.12854913585E+02  0.51100000000E-03 0. -1.
        -11    1    3    3    0    0  0.21599752344E+00 -0.15294084634E+00  0.71173134811E+00  0.75934682828E+00  0.51100000000E-03 0.  1.
         12    1    3    3    0    0 -0.12005928009E+02  0.12365708538E+02  0.27586621161E+02  0.32528060534E+02  0.00000000000E+00 0. -1.
</event>
<event>
 7    1  0.3435408E-009  0.4614232E+02  0.7816164E-02  0.1320468E+00
        -11   -1    0    0    0    0  0.00000000000E+00  0.00000000000E+00  0.45593999997E+02  0.45594000000E+02  0.51100000000E-03 0. -1.
         11   -1    0    0    0    0 -0.00000000000E+00 -0.00000000000E+00 -0.45593999997E+02  0.45594000000E+02  0.51100000000E-03 0.  1.
    9900012    2    1    2    0    0  0.16131806231E+02 -0.20462008942E+01  0.42008230429E+02  0.46142317253E+02  0.99999953630E+01 0.  0.
        -12    1    1    2    0    0 -0.16131806231E+02  0.20462008942E+01 -0.42008230429E+02  0.45045682747E+02  0.00000000000E+00 0.  1.
         11    1    3    3    0    0  0.14372994489E+02 -0.17253348047E+00  0.24431218142E+02  0.28346025445E+02  0.51100000000E-03 0. -1.
        -11    1    3    3    0    0  0.95942039631E+00 -0.35678057434E+00  0.50705350037E+01  0.51728237317E+01  0.51100000000E-03 0.  1.
         12    1    3    3    0    0  0.79939134575E+00 -0.15168868394E+01  0.12506477284E+02  0.12623468076E+02  0.00000000000E+00 0. -1.
</event>
<event>
 7    1  0.3435408E-009  0.4614231E+02  0.7816164E-02  0.1320468E+00
        -11   -1    0    0    0    0  0.00000000000E+00  0.00000000000E+00  0.45593999997E+02  0.45594000000E+02  0.51100000000E-03 0.  1.
         11   -1    0    0    0    0 -0.00000000000E+00 -0.00000000000E+00 -0.45593999997E+02  0.45594000000E+02  0.51100000000E-03 0. -1.
    9900012    2    1    2    0    0 -0.42819009006E+02 -0.11431628646E+02  0.80600293036E+01  0.46142314989E+02  0.99999747220E+01 0.  0.
        -12    1    1    2    0    0  0.42819009006E+02  0.11431628646E+02 -0.80600293036E+01  0.45045685011E+02  0.00000000000E+00 0.  1.
         11    1    3    3    0    0 -0.29193357140E+02 -0.52220750825E+01  0.57875064547E+01  0.30216177794E+02  0.51100000000E-03 0. -1.
        -11    1    3    3    0    0 -0.18932849950E+00  0.60367861367E+00 -0.19131967738E+00  0.66096643591E+00  0.51100000000E-03 0.  1.
         12    1    3    3    0    0 -0.13436323366E+02 -0.68132321772E+01  0.24638425263E+01  0.15265170759E+02  0.00000000000E+00 0. -1.
</event>
<event>
 7    1  0.3435408E-009  0.4614232E+02  0.7816164E-02  0.1320468E+00
        -11   -1    0    0    0    0  0.00000000000E+00  0.00000000000E+00  0.45593999997E+02  0.45594000000E+02  0.51100000000E-03 0.  1.
         11   -1    0    0    0    0 -0.00000000000E+00 -0.00000000000E+00 -0.45593999997E+02  0.45594000000E+02  0.51100000000E-03 0. -1.
    9900012    2    1    2    0    0 -0.80697584866E+00 -0.65600069351E+01 -0.44558149486E+02  0.46142316670E+02  0.99999900522E+01 0.  0.
        -12    1    1    2    0    0  0.80697584866E+00  0.65600069351E+01  0.44558149486E+02  0.45045683330E+02  0.00000000000E+00 0.  1.
         11    1    3    3    0    0 -0.25434961052E+01 -0.64899013104E+01 -0.38592249625E+02  0.39216704640E+02  0.51100000000E-03 0. -1.
        -11    1    3    3    0    0  0.20537892114E+01 -0.10106771387E+01 -0.28499485805E+01  0.36553694172E+01  0.51100000000E-03 0.  1.
        -12    1    3    3    0    0 -0.31726895480E+00  0.94057151403E+00 -0.31159512811E+01  0.32702426132E+01  0.00000000000E+00 0.  1.
</event>
<event>
 7    1  0.3435408E-009  0.4614232E+02  0.7816164E-02  0.1320468E+00
        -11   -1    0    0    0    0  0.00000000000E+00  0.00000000000E+00  0.45593999997E+02  0.45594000000E+02  0.51100000000E-03 0.  1.
         11   -1    0    0    0    0 -0.00000000000E+00 -0.00000000000E+00 -0.45593999997E+02  0.45594000000E+02  0.51100000000E-03 0. -1.
    9900012    2    1    2    0    0  0.10340042927E+01  0.43548202559E+02 -0.11471633850E+02  0.46142317697E+02  0.99999994127E+01 0.  0.
        -12    1    1    2    0    0 -0.10340042927E+01 -0.43548202559E+02  0.11471633850E+02  0.45045682303E+02  0.00000000000E+00 0.  1.
         11    1    3    3    0    0  0.45312433999E+00  0.98628266162E+01 -0.63231347609E+01  0.11724448985E+02  0.51100000000E-03 0. -1.
        -11    1    3    3    0    0 -0.17675272702E+01  0.13994046685E+02 -0.87893463005E+00  0.14132587223E+02  0.51100000000E-03 0.  1.
        -12    1    3    3    0    0  0.23484072229E+01  0.19691329257E+02 -0.42695644590E+01  0.20285281489E+02  0.00000000000E+00 0.  1.
</event>
<event>
 7    1  0.3435408E-009  0.4614231E+02  0.7816164E-02  0.1320468E+00
        -11   -1    0    0    0    0  0.00000000000E+00  0.00000000000E+00  0.45593999997E+02  0.45594000000E+02  0.51100000000E-03 0.  1.
         11   -1    0    0    0    0 -0.00000000000E+00 -0.00000000000E+00 -0.45593999997E+02  0.45594000000E+02  0.51100000000E-03 0. -1.
    9900012    2    1    2    0    0  0.86874429424E+00  0.37933820551E+02 -0.24277246528E+02  0.46142310337E+02  0.99999322990E+01 0.  0.
        -12    1    1    2    0    0 -0.86874429424E+00 -0.37933820551E+02  0.24277246528E+02  0.45045689663E+02  0.00000000000E+00 0.  1.
         11    1    3    3    0    0  0.45881165685E+01  0.27476631890E+02 -0.17537820461E+02  0.32917947391E+02  0.51100000000E-03 0. -1.
        -11    1    3    3    0    0 -0.15015913320E+01  0.33331950028E+01 -0.94109824238E+00  0.37750008765E+01  0.51100000000E-03 0.  1.
         12    1    3    3    0    0 -0.22177809422E+01  0.71239936585E+01 -0.57983278244E+01  0.94493620691E+01  0.00000000000E+00 0. -1.
</event>
<event>
 7    1  0.3435408E-009  0.4614232E+02  0.7816164E-02  0.1320468E+00
        -11   -1    0    0    0    0  0.00000000000E+00  0.00000000000E+00  0.45593999997E+02  0.45594000000E+02  0.51100000000E-03 0. -1.
         11   -1    0    0    0    0 -0.00000000000E+00 -0.00000000000E+00 -0.45593999997E+02  0.45594000000E+02  0.51100000000E-03 0.  1.
    9900012    2    1    2    0    0  0.15822145894E+02  0.27958829444E+02  0.31576519534E+02  0.46142322844E+02  0.10000046351E+02 0.  0.
        -12    1    1    2    0    0 -0.15822145894E+02 -0.27958829444E+02 -0.31576519534E+02  0.45045677156E+02  0.00000000000E+00 0.  1.
         11    1    3    3    0    0  0.19993008302E+01  0.28398863719E+01  0.51269940073E+00  0.35107006924E+01  0.51100000000E-03 0.  1.
        -11    1    3    3    0    0  0.11091756227E+02  0.23192553529E+02  0.25996874960E+02  0.36561716363E+02  0.51100000000E-03 0. -1.
        -12    1    3    3    0    0  0.27310888370E+01  0.19263895424E+01  0.50669451727E+01  0.60699057891E+01  0.00000000000E+00 0.  1.
</event>
<event>
 7    1  0.3435408E-009  0.4614231E+02  0.7816164E-02  0.1320468E+00
        -11   -1    0    0    0    0  0.00000000000E+00  0.00000000000E+00  0.45593999997E+02  0.45594000000E+02  0.51100000000E-03 0.  1.
         11   -1    0    0    0    0 -0.00000000000E+00 -0.00000000000E+00 -0.45593999997E+02  0.45594000000E+02  0.51100000000E-03 0. -1.
    9900012    2    1    2    0    0  0.15092196343E+02 -0.36092469306E+02  0.22330992398E+02  0.46142312609E+02  0.99999530226E+01 0.  0.
        -12    1    1    2    0    0 -0.15092196343E+02  0.36092469306E+02 -0.22330992398E+02  0.45045687391E+02  0.00000000000E+00 0.  1.
         11    1    3    3    0    0  0.33934277116E+01 -0.11105795992E+02  0.10507450293E+02  0.15660797175E+02  0.51100000000E-03 0. -1.
        -11    1    3    3    0    0  0.87903418291E+01 -0.22835252838E+02  0.10045925035E+02  0.26450699267E+02  0.51100000000E-03 0.  1.
        -12    1    3    3    0    0  0.29084268018E+01 -0.21514204756E+01  0.17776170703E+01  0.40308161671E+01  0.00000000000E+00 0.  1.
</event>
<event>
 7    1  0.3435408E-009  0.4614232E+02  0.7816164E-02  0.1320468E+00
        -11   -1    0    0    0    0  0.00000000000E+00  0.00000000000E+00  0.45593999997E+02  0.45594000000E+02  0.51100000000E-03 0. -1.
         11   -1    0    0    0    0 -0.00000000000E+00 -0.00000000000E+00 -0.45593999997E+02  0.45594000000E+02  0.51100000000E-03 0.  1.
    9900012    2    1    2    0    0  0.36729921470E+02  0.26032216324E+02  0.15329676794E+01  0.46142318655E+02  0.10000008149E+02 0.  0.
        -12    1    1    2    0    0 -0.36729921470E+02 -0.26032216324E+02 -0.15329676794E+01  0.45045681345E+02  0.00000000000E+00 0.  1.
         11    1    3    3    0    0  0.19958260154E+02  0.11438148223E+02  0.19323410743E+01  0.23084568989E+02  0.51100000000E-03 0. -1.
        -11    1    3    3    0    0  0.16632956351E+02  0.15075263710E+02 -0.51857315790E-01  0.22448195971E+02  0.51100000000E-03 0.  1.
        -12    1    3    3    0    0  0.13870496539E+00 -0.48119560888E+00 -0.34751607910E+00  0.60955369465E+00  0.00000000000E+00 0.  1.
</event>
<event>
 7    1  0.3435408E-009  0.4614232E+02  0.7816164E-02  0.1320468E+00
        -11   -1    0    0    0    0  0.00000000000E+00  0.00000000000E+00  0.45593999997E+02  0.45594000000E+02  0.51100000000E-03 0.  1.
         11   -1    0    0    0    0 -0.00000000000E+00 -0.00000000000E+00 -0.45593999997E+02  0.45594000000E+02  0.51100000000E-03 0. -1.
    9900012    2    1    2    0    0  0.20195626179E+02  0.38461853453E+02 -0.11913689712E+02  0.46142317739E+02  0.99999998008E+01 0.  0.
        -12    1    1    2    0    0 -0.20195626179E+02 -0.38461853453E+02  0.11913689712E+02  0.45045682261E+02  0.00000000000E+00 0.  1.
         11    1    3    3    0    0  0.12074144772E+02  0.21973033166E+02 -0.20669922668E+01  0.25156939714E+02  0.51100000000E-03 0. -1.
        -11    1    3    3    0    0  0.18756079332E+01  0.24985285691E+01 -0.24601839317E+01  0.39765632610E+01  0.51100000000E-03 0.  1.
         12    1    3    3    0    0  0.62458734740E+01  0.13990291717E+02 -0.73865135135E+01  0.17008814764E+02  0.00000000000E+00 0. -1.
</event>
<event>
 7    1  0.3435408E-009  0.4614232E+02  0.7816164E-02  0.1320468E+00
        -11   -1    0    0    0    0  0.00000000000E+00  0.00000000000E+00  0.45593999997E+02  0.45594000000E+02  0.51100000000E-03 0.  1.
         11   -1    0    0    0    0 -0.00000000000E+00 -0.00000000000E+00 -0.45593999997E+02  0.45594000000E+02  0.51100000000E-03 0. -1.
    9900012    2    1    2    0    0  0.32070566587E+01 -0.33868345110E+02 -0.29525643800E+02  0.46142315915E+02  0.99999831615E+01 0.  0.
        -12    1    1    2    0    0 -0.32070566587E+01  0.33868345110E+02  0.29525643800E+02  0.45045684085E+02  0.00000000000E+00 0.  1.
         11    1    3    3    0    0 -0.16653600870E+01 -0.23211953325E+02 -0.19622163588E+02  0.30440064151E+02  0.51100000000E-03 0. -1.
        -11    1    3    3    0    0  0.36559586149E+01 -0.98561515940E+01 -0.95530647492E+01  0.14204605028E+02  0.51100000000E-03 0.  1.
         12    1    3    3    0    0  0.12164581308E+01 -0.80024019169E+00 -0.35041546240E+00  0.14976467356E+01  0.00000000000E+00 0. -1.
</event>
<event>
 7    1  0.3435408E-009  0.4614232E+02  0.7816164E-02  0.1320468E+00
        -11   -1    0    0    0    0  0.00000000000E+00  0.00000000000E+00  0.45593999997E+02  0.45594000000E+02  0.51100000000E-03 0.  1.
         11   -1    0    0    0    0 -0.00000000000E+00 -0.00000000000E+00 -0.45593999997E+02  0.45594000000E+02  0.51100000000E-03 0. -1.
    9900012    2    1    2    0    0 -0.15223128537E+02  0.15930054714E+02 -0.39288716569E+02  0.46142317240E+02  0.99999952500E+01 0.  0.
        -12    1    1    2    0    0  0.15223128537E+02 -0.15930054714E+02  0.39288716569E+02  0.45045682760E+02  0.00000000000E+00 0.  1.
         11    1    3    3    0    0 -0.56247276756E+01  0.12259891399E+02 -0.24524899659E+02  0.27989519504E+02  0.51100000000E-03 0. -1.
        -11    1    3    3    0    0 -0.29679606435E+01  0.34379963181E+00 -0.57423690504E+01  0.64731592858E+01  0.51100000000E-03 0.  1.
         12    1    3    3    0    0 -0.66304402181E+01  0.33263636838E+01 -0.90214478597E+01  0.11679638450E+02  0.00000000000E+00 0. -1.
</event>
<event>
 7    1  0.3435408E-009  0.4614232E+02  0.7816164E-02  0.1320468E+00
        -11   -1    0    0    0    0  0.00000000000E+00  0.00000000000E+00  0.45593999997E+02  0.45594000000E+02  0.51100000000E-03 0. -1.
         11   -1    0    0    0    0 -0.00000000000E+00 -0.00000000000E+00 -0.45593999997E+02  0.45594000000E+02  0.51100000000E-03 0.  1.
    9900012    2    1    2    0    0 -0.16329400333E+02  0.40891622235E+02 -0.95047059599E+01  0.46142317414E+02  0.99999968356E+01 0.  0.
        -12    1    1    2    0    0  0.16329400333E+02 -0.40891622235E+02  0.95047059599E+01  0.45045682586E+02  0.00000000000E+00 0.  1.
         11    1    3    3    0    0 -0.14372170612E+02  0.33292903766E+02 -0.52089398892E+01  0.36634816559E+02  0.51100000000E-03 0. -1.
        -11    1    3    3    0    0  0.49555896813E+00  0.31874560217E+01 -0.67453872486E+00  0.32955207985E+01  0.51100000000E-03 0.  1.
         12    1    3    3    0    0 -0.24527886895E+01  0.44112624468E+01 -0.36212273459E+01  0.62119800564E+01  0.00000000000E+00 0. -1.
</event>
<event>
 7    1  0.3435408E-009  0.4614232E+02  0.7816164E-02  0.1320468E+00
        -11   -1    0    0    0    0  0.00000000000E+00  0.00000000000E+00  0.45593999997E+02  0.45594000000E+02  0.51100000000E-03 0.  1.
         11   -1    0    0    0    0 -0.00000000000E+00 -0.00000000000E+00 -0.45593999997E+02  0.45594000000E+02  0.51100000000E-03 0. -1.
    9900012    2    1    2    0    0 -0.29801633833E+00  0.54509925127E+01 -0.44713659678E+02  0.46142317689E+02  0.99999993392E+01 0.  0.
        -12    1    1    2    0    0  0.29801633833E+00 -0.54509925127E+01  0.44713659678E+02  0.45045682311E+02  0.00000000000E+00 0.  1.
         11    1    3    3    0    0  0.87918885613E+00  0.37506274106E+00 -0.39403780421E+01  0.40546546684E+01  0.51100000000E-03 0. -1.
        -11    1    3    3    0    0 -0.45270463309E+01  0.34574899504E+01 -0.14962626828E+02  0.16010265054E+02  0.51100000000E-03 0.  1.
        -12    1    3    3    0    0  0.33498411365E+01  0.16184398213E+01 -0.25810654807E+02  0.26077397966E+02  0.00000000000E+00 0.  1.
</event>
<event>
 7    1  0.3435408E-009  0.4614232E+02  0.7816164E-02  0.1320468E+00
        -11   -1    0    0    0    0  0.00000000000E+00  0.00000000000E+00  0.45593999997E+02  0.45594000000E+02  0.51100000000E-03 0.  1.
         11   -1    0    0    0    0 -0.00000000000E+00 -0.00000000000E+00 -0.45593999997E+02  0.45594000000E+02  0.51100000000E-03 0. -1.
    9900012    2    1    2    0    0  0.10068405124E+02  0.21588415152E+02 -0.38231936151E+02  0.46142318827E+02  0.10000009718E+02 0.  0.
        -12    1    1    2    0    0 -0.10068405124E+02 -0.21588415152E+02  0.38231936151E+02  0.45045681173E+02  0.00000000000E+00 0.  1.
         11    1    3    3    0    0  0.66993138288E+01  0.18756468298E+02 -0.35615293844E+02  0.40806066518E+02  0.51100000000E-03 0. -1.
        -11    1    3    3    0    0 -0.11491472695E+00  0.24179267482E+00 -0.74848761300E-03  0.26771237069E+00  0.51100000000E-03 0.  1.
         12    1    3    3    0    0  0.34840060220E+01  0.25901541792E+01 -0.26158938190E+01  0.50685399382E+01  0.00000000000E+00 0. -1.
</event>
<event>
 7    1  0.3435408E-009  0.4614232E+02  0.7816164E-02  0.1320468E+00
        -11   -1    0    0    0    0  0.00000000000E+00  0.00000000000E+00  0.45593999997E+02  0.45594000000E+02  0.51100000000E-03 0. -1.
         11   -1    0    0    0    0 -0.00000000000E+00 -0.00000000000E+00 -0.45593999997E+02  0.45594000000E+02  0.51100000000E-03 0.  1.
    9900012    2    1    2    0    0  0.42340207462E+01  0.33174178884E+02  0.30177148755E+02  0.46142318927E+02  0.10000010633E+02 0.  0.
        -12    1    1    2    0    0 -0.42340207462E+01 -0.33174178884E+02 -0.30177148755E+02  0.45045681073E+02  0.00000000000E+00 0.  1.
         11    1    3    3    0    0  0.78550198901E+00  0.70880403945E+00  0.18548624650E+01  0.21353996268E+01  0.51100000000E-03 0. -1.
        -11    1    3    3    0    0  0.48480750182E+01  0.26032587182E+02  0.18986996654E+02  0.32583822197E+02  0.51100000000E-03 0.  1.
        -12    1    3    3    0    0 -0.13995562611E+01  0.64327876633E+01  0.93352896358E+01  0.11423097103E+02  0.00000000000E+00 0.  1.
</event>
<event>
 7    1  0.3435408E-009  0.4614232E+02  0.7816164E-02  0.1320468E+00
        -11   -1    0    0    0    0  0.00000000000E+00  0.00000000000E+00  0.45593999997E+02  0.45594000000E+02  0.51100000000E-03 0. -1.
         11   -1    0    0    0    0 -0.00000000000E+00 -0.00000000000E+00 -0.45593999997E+02  0.45594000000E+02  0.51100000000E-03 0.  1.
    9900012    2    1    2    0    0  0.28674300044E+02  0.28834048632E+02  0.19377709770E+02  0.46142317860E+02  0.10000000904E+02 0.  0.
        -12    1    1    2    0    0 -0.28674300044E+02 -0.28834048632E+02 -0.19377709770E+02  0.45045682140E+02  0.00000000000E+00 0.  1.
         11    1    3    3    0    0  0.11434264069E+02  0.84474955716E+01  0.11230992027E+02  0.18117333093E+02  0.51100000000E-03 0. -1.
        -11    1    3    3    0    0  0.25705929897E+01  0.19254257494E+01  0.60259188270E+00  0.32677713924E+01  0.51100000000E-03 0.  1.
         12    1    3    3    0    0  0.14669442985E+02  0.18461127311E+02  0.75441258601E+01  0.24757213374E+02  0.00000000000E+00 0. -1.
</event>
<event>
 7    1  0.3435408E-009  0.4614232E+02  0.7816164E-02  0.1320468E+00
        -11   -1    0    0    0    0  0.00000000000E+00  0.00000000000E+00  0.45593999997E+02  0.45594000000E+02  0.51100000000E-03 0.  1.
         11   -1    0    0    0    0 -0.00000000000E+00 -0.00000000000E+00 -0.45593999997E+02  0.45594000000E+02  0.51100000000E-03 0. -1.
    9900012    2    1    2    0    0 -0.12824462694E+02  0.34031776927E+02 -0.26579781883E+02  0.46142317753E+02  0.99999999250E+01 0.  0.
        -12    1    1    2    0    0  0.12824462694E+02 -0.34031776927E+02  0.26579781883E+02  0.45045682247E+02  0.00000000000E+00 0.  1.
         11    1    3    3    0    0 -0.66902078456E+01  0.14959103703E+02 -0.88729664138E+01  0.18634999272E+02  0.51100000000E-03 0. -1.
        -11    1    3    3    0    0 -0.45343715485E+01  0.50337822374E+01 -0.42675692831E+01  0.80069742601E+01  0.51100000000E-03 0.  1.
        -12    1    3    3    0    0 -0.15998832996E+01  0.14038890986E+02 -0.13439246186E+02  0.19500344221E+02  0.00000000000E+00 0.  1.
</event>
<event>
 7    1  0.3435408E-009  0.4614232E+02  0.7816164E-02  0.1320468E+00
        -11   -1    0    0    0    0  0.00000000000E+00  0.00000000000E+00  0.45593999997E+02  0.45594000000E+02  0.51100000000E-03 0. -1.
         11   -1    0    0    0    0 -0.00000000000E+00 -0.00000000000E+00 -0.45593999997E+02  0.45594000000E+02  0.51100000000E-03 0.  1.
    9900012    2    1    2    0    0 -0.24034920101E+01  0.44972044147E+02  0.92298627597E+00  0.46142318384E+02  0.10000005682E+02 0.  0.
        -12    1    1    2    0    0  0.24034920101E+01 -0.44972044147E+02 -0.92298627597E+00  0.45045681616E+02  0.00000000000E+00 0.  1.
         11    1    3    3    0    0 -0.19236814574E+01  0.13951633921E+02 -0.45382439353E+00  0.14090940219E+02  0.51100000000E-03 0. -1.
        -11    1    3    3    0    0 -0.38461544772E+01  0.11615328466E+02  0.17047288313E+01  0.12353738716E+02  0.51100000000E-03 0.  1.
        -12    1    3    3    0    0  0.33663439246E+01  0.19405081760E+02 -0.32791816176E+00  0.19697639449E+02  0.00000000000E+00 0.  1.
</event>
<event>
 7    1  0.3435408E-009  0.4614231E+02  0.7816164E-02  0.1320468E+00
        -11   -1    0    0    0    0  0.00000000000E+00  0.00000000000E+00  0.45593999997E+02  0.45594000000E+02  0.51100000000E-03 0. -1.
         11   -1    0    0    0    0 -0.00000000000E+00 -0.00000000000E+00 -0.45593999997E+02  0.45594000000E+02  0.51100000000E-03 0.  1.
    9900012    2    1    2    0    0 -0.15696373417E+01 -0.28813842475E+02  0.34589197902E+02  0.46142313291E+02  0.99999592418E+01 0.  0.
        -12    1    1    2    0    0  0.15696373417E+01  0.28813842475E+02 -0.34589197902E+02  0.45045686709E+02  0.00000000000E+00 0.  1.
         11    1    3    3    0    0  0.12280154759E+01 -0.25988249816E+02  0.26659009925E+02  0.37250502828E+02  0.51100000000E-03 0. -1.
        -11    1    3    3    0    0 -0.59306879455E+00 -0.92705371639E+00  0.24944097859E+01  0.27263968216E+01  0.51100000000E-03 0.  1.
         12    1    3    3    0    0 -0.22045840231E+01 -0.18985389426E+01  0.54357781911E+01  0.61654136418E+01  0.00000000000E+00 0. -1.
</event>
<event>
 7    1  0.3757787E-009  0.4614232E+02  0.7816164E-02  0.1320468E+00
        -11   -1    0    0    0    0  0.00000000000E+00  0.00000000000E+00  0.45593999997E+02  0.45594000000E+02  0.51100000000E-03 0.  1.
         11   -1    0    0    0    0 -0.00000000000E+00 -0.00000000000E+00 -0.45593999997E+02  0.45594000000E+02  0.51100000000E-03 0. -1.
    9900012    2    1    2    0    0  0.39954935103E+02 -0.83240277736E+01 -0.19063766766E+02  0.46142317846E+02  0.10000000772E+02 0.  0.
        -12    1    1    2    0    0 -0.39954935103E+02  0.83240277736E+01  0.19063766766E+02  0.45045682154E+02  0.00000000000E+00 0.  1.
         11    1    3    3    0    0  0.34570066781E+02 -0.93873299381E+01 -0.18674201860E+02  0.40397243668E+02  0.51100000000E-03 0. -1.
        -11    1    3    3    0    0  0.17053350686E+00  0.39775581808E+00  0.15638699678E+00  0.46016140827E+00  0.51100000000E-03 0.  1.
         12    1    3    3    0    0  0.52143348150E+01  0.66554634644E+00 -0.54595190245E+00  0.52849127695E+01  0.00000000000E+00 0. -1.
</event>
<event>
 7    1  0.3463039E-009  0.4614231E+02  0.7816164E-02  0.1320468E+00
        -11   -1    0    0    0    0  0.00000000000E+00  0.00000000000E+00  0.45593999997E+02  0.45594000000E+02  0.51100000000E-03 0.  1.
         11   -1    0    0    0    0 -0.00000000000E+00 -0.00000000000E+00 -0.45593999997E+02  0.45594000000E+02  0.51100000000E-03 0. -1.
    9900012    2    1    2    0    0  0.23271167622E+02 -0.32323991292E+02 -0.21041057706E+02  0.46142314691E+02  0.99999720080E+01 0.  0.
        -12    1    1    2    0    0 -0.23271167622E+02  0.32323991292E+02  0.21041057706E+02  0.45045685309E+02  0.00000000000E+00 0.  1.
         11    1    3    3    0    0  0.13018804328E+02 -0.15614294725E+02 -0.11919094709E+02  0.23566083358E+02  0.51100000000E-03 0. -1.
        -11    1    3    3    0    0  0.13923950880E+01 -0.65868298636E+01 -0.53658045994E+01  0.86091202218E+01  0.51100000000E-03 0.  1.
        -12    1    3    3    0    0  0.88599682058E+01 -0.10122866703E+02 -0.37561583985E+01  0.13967111112E+02  0.00000000000E+00 0.  1.
</event>
<event>
 7    1  0.3435408E-009  0.4614232E+02  0.7816164E-02  0.1320468E+00
        -11   -1    0    0    0    0  0.00000000000E+00  0.00000000000E+00  0.45593999997E+02  0.45594000000E+02  0.51100000000E-03 0.  1.
         11   -1    0    0    0    0 -0.00000000000E+00 -0.00000000000E+00 -0.45593999997E+02  0.45594000000E+02  0.51100000000E-03 0. -1.
    9900012    2    1    2    0    0  0.44915001395E+02 -0.46611633535E+00  0.33968818398E+01  0.46142318509E+02  0.10000006823E+02 0.  0.
        -12    1    1    2    0    0 -0.44915001395E+02  0.46611633535E+00 -0.33968818398E+01  0.45045681491E+02  0.00000000000E+00 0.  1.
         11    1    3    3    0    0  0.21935331151E+02 -0.32530436918E+00  0.29870695762E+01  0.22140170743E+02  0.51100000000E-03 0. -1.
        -11    1    3    3    0    0  0.62449126404E+01  0.30679266992E+01  0.22933551411E+00  0.69615876894E+01  0.51100000000E-03 0.  1.
        -12    1    3    3    0    0  0.16734757604E+02 -0.32087386654E+01  0.18047674944E+00  0.17040560077E+02  0.00000000000E+00 0.  1.
</event>
<event>
 7    1  0.3435408E-009  0.4614233E+02  0.7816164E-02  0.1320468E+00
        -11   -1    0    0    0    0  0.00000000000E+00  0.00000000000E+00  0.45593999997E+02  0.45594000000E+02  0.51100000000E-03 0.  1.
         11   -1    0    0    0    0 -0.00000000000E+00 -0.00000000000E+00 -0.45593999997E+02  0.45594000000E+02  0.51100000000E-03 0. -1.
    9900012    2    1    2    0    0  0.15996067135E+02 -0.22556159145E+02 -0.35559213515E+02  0.46142332673E+02  0.10000135975E+02 0.  0.
        -12    1    1    2    0    0 -0.15996067135E+02  0.22556159145E+02  0.35559213515E+02  0.45045667327E+02  0.00000000000E+00 0.  1.
         11    1    3    3    0    0  0.10440375242E+01 -0.45073027511E+01 -0.73424806175E+01  0.86785836588E+01  0.51100000000E-03 0. -1.
        -11    1    3    3    0    0  0.71356897509E+01 -0.10095733895E+02 -0.20371589930E+02  0.23829468891E+02  0.51100000000E-03 0.  1.
        -12    1    3    3    0    0  0.78163398600E+01 -0.79531224988E+01 -0.78451429676E+01  0.13634280123E+02  0.00000000000E+00 0.  1.
</event>
<event>
 7    1  0.3435408E-009  0.4614232E+02  0.7816164E-02  0.1320468E+00
        -11   -1    0    0    0    0  0.00000000000E+00  0.00000000000E+00  0.45593999997E+02  0.45594000000E+02  0.51100000000E-03 0.  1.
         11   -1    0    0    0    0 -0.00000000000E+00 -0.00000000000E+00 -0.45593999997E+02  0.45594000000E+02  0.51100000000E-03 0. -1.
    9900012    2    1    2    0    0  0.28355676884E+02 -0.50638133422E+01 -0.34632743082E+02  0.46142317516E+02  0.99999977609E+01 0.  0.
        -12    1    1    2    0    0 -0.28355676884E+02  0.50638133422E+01  0.34632743082E+02  0.45045682484E+02  0.00000000000E+00 0.  1.
         11    1    3    3    0    0  0.92759844421E+01 -0.43730986882E+01 -0.85814239903E+01  0.13371937686E+02  0.51100000000E-03 0. -1.
        -11    1    3    3    0    0  0.10309352759E+02 -0.87935166309E+00 -0.18494108394E+02  0.21191697884E+02  0.51100000000E-03 0.  1.
        -12    1    3    3    0    0  0.87703396833E+01  0.18863700914E+00 -0.75572106978E+01  0.11578681946E+02  0.00000000000E+00 0.  1.
</event>
<event>
 7    1  0.3435408E-009  0.4614232E+02  0.7816164E-02  0.1320468E+00
        -11   -1    0    0    0    0  0.00000000000E+00  0.00000000000E+00  0.45593999997E+02  0.45594000000E+02  0.51100000000E-03 0. -1.
         11   -1    0    0    0    0 -0.00000000000E+00 -0.00000000000E+00 -0.45593999997E+02  0.45594000000E+02  0.51100000000E-03 0.  1.
    9900012    2    1    2    0    0 -0.44423591429E+02 -0.69262629439E+01 -0.27721327548E+01  0.46142319699E+02  0.10000017669E+02 0.  0.
        -12    1    1    2    0    0  0.44423591429E+02  0.69262629439E+01  0.27721327548E+01  0.45045680301E+02  0.00000000000E+00 0.  1.
         11    1    3    3    0    0 -0.31360939412E+02 -0.70890923149E+00 -0.12159657537E+01  0.31392509395E+02  0.51100000000E-03 0. -1.
        -11    1    3    3    0    0 -0.13084293270E+02 -0.60369432999E+01 -0.13468734961E+01  0.14472646035E+02  0.51100000000E-03 0.  1.
         12    1    3    3    0    0  0.21641253665E-01 -0.18041041249E+00 -0.20929350493E+00  0.27716426898E+00  0.00000000000E+00 0. -1.
</event>
<event>
 7    1  0.3435408E-009  0.4614232E+02  0.7816164E-02  0.1320468E+00
        -11   -1    0    0    0    0  0.00000000000E+00  0.00000000000E+00  0.45593999997E+02  0.45594000000E+02  0.51100000000E-03 0. -1.
         11   -1    0    0    0    0 -0.00000000000E+00 -0.00000000000E+00 -0.45593999997E+02  0.45594000000E+02  0.51100000000E-03 0.  1.
    9900012    2    1    2    0    0 -0.34426313633E+02 -0.27831178162E+02  0.83287474580E+01  0.46142316717E+02  0.99999904771E+01 0.  0.
        -12    1    1    2    0    0  0.34426313633E+02  0.27831178162E+02 -0.83287474580E+01  0.45045683283E+02  0.00000000000E+00 0.  1.
         11    1    3    3    0    0 -0.26705759103E+01 -0.15671761469E+01 -0.61242125276E+00  0.31564341938E+01  0.51100000000E-03 0. -1.
        -11    1    3    3    0    0 -0.19048851183E+02 -0.15723812333E+02  0.11408181841E+01  0.24726473102E+02  0.51100000000E-03 0.  1.
        -12    1    3    3    0    0 -0.12706886540E+02 -0.10540189682E+02  0.78003505266E+01  0.18259409421E+02  0.00000000000E+00 0.  1.
</event>
<event>
 7    1  0.3435408E-009  0.4614232E+02  0.7816164E-02  0.1320468E+00
        -11   -1    0    0    0    0  0.00000000000E+00  0.00000000000E+00  0.45593999997E+02  0.45594000000E+02  0.51100000000E-03 0. -1.
         11   -1    0    0    0    0 -0.00000000000E+00 -0.00000000000E+00 -0.45593999997E+02  0.45594000000E+02  0.51100000000E-03 0.  1.
    9900012    2    1    2    0    0  0.16710784786E+02 -0.25415468043E+02  0.33225248149E+02  0.46142318092E+02  0.10000003019E+02 0.  0.
        -12    1    1    2    0    0 -0.16710784786E+02  0.25415468043E+02 -0.33225248149E+02  0.45045681908E+02  0.00000000000E+00 0.  1.
         11    1    3    3    0    0  0.12043091219E+02 -0.17029801902E+02  0.22210578544E+02  0.30469000614E+02  0.51100000000E-03 0. -1.
        -11    1    3    3    0    0  0.14488228002E+01 -0.73333268368E+01  0.58260348623E+01  0.94773125135E+01  0.51100000000E-03 0.  1.
        -12    1    3    3    0    0  0.32188707675E+01 -0.10523393043E+01  0.51886347423E+01  0.61960049643E+01  0.00000000000E+00 0.  1.
</event>
<event>
 7    1  0.3435408E-009  0.4614232E+02  0.7816164E-02  0.1320468E+00
        -11   -1    0    0    0    0  0.00000000000E+00  0.00000000000E+00  0.45593999997E+02  0.45594000000E+02  0.51100000000E-03 0.  1.
         11   -1    0    0    0    0 -0.00000000000E+00 -0.00000000000E+00 -0.45593999997E+02  0.45594000000E+02  0.51100000000E-03 0. -1.
    9900012    2    1    2    0    0  0.30399318667E+02 -0.31228117772E+02 -0.11392959487E+02  0.46142318289E+02  0.10000004810E+02 0.  0.
        -12    1    1    2    0    0 -0.30399318667E+02  0.31228117772E+02  0.11392959487E+02  0.45045681711E+02  0.00000000000E+00 0.  1.
         11    1    3    3    0    0  0.12140762392E+02 -0.14221659013E+02 -0.76066196252E+01  0.20186984889E+02  0.51100000000E-03 0. -1.
        -11    1    3    3    0    0  0.18076612251E+02 -0.14584895918E+02 -0.37438708305E+01  0.23526573667E+02  0.51100000000E-03 0.  1.
        -12    1    3    3    0    0  0.18194402311E+00 -0.24215628409E+01 -0.42469031199E-01  0.24287597326E+01  0.00000000000E+00 0.  1.
</event>
<event>
 7    1  0.3435408E-009  0.4614232E+02  0.7816164E-02  0.1320468E+00
        -11   -1    0    0    0    0  0.00000000000E+00  0.00000000000E+00  0.45593999997E+02  0.45594000000E+02  0.51100000000E-03 0. -1.
         11   -1    0    0    0    0 -0.00000000000E+00 -0.00000000000E+00 -0.45593999997E+02  0.45594000000E+02  0.51100000000E-03 0.  1.
    9900012    2    1    2    0    0 -0.12654097729E+02 -0.42005380138E+02 -0.10224252198E+02  0.46142317822E+02  0.10000000552E+02 0.  0.
        -12    1    1    2    0    0  0.12654097729E+02  0.42005380138E+02  0.10224252198E+02  0.45045682178E+02  0.00000000000E+00 0.  1.
         11    1    3    3    0    0 -0.20899255668E+01 -0.14717039662E+02 -0.73658660029E+01  0.16589606009E+02  0.51100000000E-03 0. -1.
        -11    1    3    3    0    0 -0.63853913076E+01 -0.19481482566E+02 -0.28456426223E+01  0.20697803442E+02  0.51100000000E-03 0.  1.
        -12    1    3    3    0    0 -0.41787808547E+01 -0.78068579100E+01 -0.12743572617E-01  0.88549083709E+01  0.00000000000E+00 0.  1.
</event>
<event>
 7    1  0.3435408E-009  0.4614232E+02  0.7816164E-02  0.1320468E+00
        -11   -1    0    0    0    0  0.00000000000E+00  0.00000000000E+00  0.45593999997E+02  0.45594000000E+02  0.51100000000E-03 0.  1.
         11   -1    0    0    0    0 -0.00000000000E+00 -0.00000000000E+00 -0.45593999997E+02  0.45594000000E+02  0.51100000000E-03 0. -1.
    9900012    2    1    2    0    0 -0.25627306292E+02  0.32012322288E+02 -0.18643118968E+02  0.46142317733E+02  0.99999997424E+01 0.  0.
        -12    1    1    2    0    0  0.25627306292E+02 -0.32012322288E+02  0.18643118968E+02  0.45045682267E+02  0.00000000000E+00 0.  1.
         11    1    3    3    0    0 -0.70766777517E+01  0.10949904477E+02 -0.10771060083E+02  0.16911401823E+02  0.51100000000E-03 0.  1.
        -11    1    3    3    0    0 -0.14274610649E+02  0.15079903100E+02 -0.64293618410E+01  0.21737172784E+02  0.51100000000E-03 0. -1.
        -12    1    3    3    0    0 -0.42760178912E+01  0.59825147110E+01 -0.14426970438E+01  0.74937431257E+01  0.00000000000E+00 0.  1.
</event>
<event>
 7    1  0.3435408E-009  0.4614232E+02  0.7816164E-02  0.1320468E+00
        -11   -1    0    0    0    0  0.00000000000E+00  0.00000000000E+00  0.45593999997E+02  0.45594000000E+02  0.51100000000E-03 0.  1.
         11   -1    0    0    0    0 -0.00000000000E+00 -0.00000000000E+00 -0.45593999997E+02  0.45594000000E+02  0.51100000000E-03 0. -1.
    9900012    2    1    2    0    0 -0.26743554515E+02 -0.28149067268E+02 -0.22836937878E+02  0.46142318433E+02  0.10000006129E+02 0.  0.
        -12    1    1    2    0    0  0.26743554515E+02  0.28149067268E+02  0.22836937878E+02  0.45045681567E+02  0.00000000000E+00 0.  1.
         11    1    3    3    0    0  0.44881381126E+00 -0.51839679275E+00  0.41073778020E+00  0.79929647636E+00  0.51100000000E-03 0.  1.
        -11    1    3    3    0    0 -0.24560496275E+02 -0.26052210885E+02 -0.20721043272E+02  0.41367829335E+02  0.51100000000E-03 0. -1.
        -12    1    3    3    0    0 -0.26318720507E+01 -0.15784595902E+01 -0.25266323863E+01  0.39751926224E+01  0.00000000000E+00 0.  1.
</event>
<event>
 7    1  0.1425019E-008  0.4614232E+02  0.7816164E-02  0.1320468E+00
        -11   -1    0    0    0    0  0.00000000000E+00  0.00000000000E+00  0.45593999997E+02  0.45594000000E+02  0.51100000000E-03 0. -1.
         11   -1    0    0    0    0 -0.00000000000E+00 -0.00000000000E+00 -0.45593999997E+02  0.45594000000E+02  0.51100000000E-03 0.  1.
    9900012    2    1    2    0    0  0.25956321466E+02  0.34823222176E+02  0.11946790119E+02  0.46142320729E+02  0.10000027065E+02 0.  0.
        -12    1    1    2    0    0 -0.25956321466E+02 -0.34823222176E+02 -0.11946790119E+02  0.45045679271E+02  0.00000000000E+00 0.  1.
         11    1    3    3    0    0  0.22936354836E+02  0.24123123383E+02  0.10316284950E+02  0.34848632546E+02  0.51100000000E-03 0. -1.
        -11    1    3    3    0    0  0.19034227626E+01  0.84475538147E+01  0.11755794590E+01  0.87387739982E+01  0.51100000000E-03 0.  1.
         12    1    3    3    0    0  0.11165438681E+01  0.22525449783E+01  0.45492571049E+00  0.25549141846E+01  0.00000000000E+00 0. -1.
</event>
<event>
 7    1  0.3435408E-009  0.4614232E+02  0.7816164E-02  0.1320468E+00
        -11   -1    0    0    0    0  0.00000000000E+00  0.00000000000E+00  0.45593999997E+02  0.45594000000E+02  0.51100000000E-03 0.  1.
         11   -1    0    0    0    0 -0.00000000000E+00 -0.00000000000E+00 -0.45593999997E+02  0.45594000000E+02  0.51100000000E-03 0. -1.
    9900012    2    1    2    0    0 -0.27160281060E+02  0.16244536741E+02 -0.32055384714E+02  0.46142317295E+02  0.99999957520E+01 0.  0.
        -12    1    1    2    0    0  0.27160281060E+02 -0.16244536741E+02  0.32055384714E+02  0.45045682705E+02  0.00000000000E+00 0.  1.
         11    1    3    3    0    0 -0.80476483097E+01  0.89688069438E+01 -0.14173378052E+02  0.18603461693E+02  0.51100000000E-03 0. -1.
        -11    1    3    3    0    0 -0.73918202967E+01  0.91957126655E+00 -0.48118885173E+01  0.88678571243E+01  0.51100000000E-03 0.  1.
         12    1    3    3    0    0 -0.11720812454E+02  0.63561585309E+01 -0.13070118144E+02  0.18670998477E+02  0.00000000000E+00 0. -1.
</event>
<event>
 7    1  0.3435408E-009  0.4614232E+02  0.7816164E-02  0.1320468E+00
        -11   -1    0    0    0    0  0.00000000000E+00  0.00000000000E+00  0.45593999997E+02  0.45594000000E+02  0.51100000000E-03 0.  1.
         11   -1    0    0    0    0 -0.00000000000E+00 -0.00000000000E+00 -0.45593999997E+02  0.45594000000E+02  0.51100000000E-03 0. -1.
    9900012    2    1    2    0    0 -0.33902478583E+02 -0.24207180481E+01 -0.29561386954E+02  0.46142317315E+02  0.99999959324E+01 0.  0.
        -12    1    1    2    0    0  0.33902478583E+02  0.24207180481E+01  0.29561386954E+02  0.45045682685E+02  0.00000000000E+00 0.  1.
         11    1    3    3    0    0 -0.25270473325E+01 -0.16848291997E+00 -0.12409883120E+01  0.28203558227E+01  0.51100000000E-03 0. -1.
        -11    1    3    3    0    0 -0.23769749182E+02 -0.39077460406E+01 -0.25405883884E+02  0.35010432609E+02  0.51100000000E-03 0.  1.
        -12    1    3    3    0    0 -0.76056820679E+01  0.16555109125E+01 -0.29145147581E+01  0.83115288831E+01  0.00000000000E+00 0.  1.
</event>
<event>
 7    1  0.3435408E-009  0.4614232E+02  0.7816164E-02  0.1320468E+00
        -11   -1    0    0    0    0  0.00000000000E+00  0.00000000000E+00  0.45593999997E+02  0.45594000000E+02  0.51100000000E-03 0.  1.
         11   -1    0    0    0    0 -0.00000000000E+00 -0.00000000000E+00 -0.45593999997E+02  0.45594000000E+02  0.51100000000E-03 0. -1.
    9900012    2    1    2    0    0 -0.27795146202E+02 -0.18666863394E+02 -0.30134557101E+02  0.46142317932E+02  0.10000001557E+02 0.  0.
        -12    1    1    2    0    0  0.27795146202E+02  0.18666863394E+02  0.30134557101E+02  0.45045682068E+02  0.00000000000E+00 0.  1.
         11    1    3    3    0    0 -0.16435035192E+01 -0.31992268957E+01 -0.65600198814E+01  0.74813112255E+01  0.51100000000E-03 0.  1.
        -11    1    3    3    0    0 -0.84975654386E+01 -0.30580064280E+01 -0.61673123031E+01  0.10935984775E+02  0.51100000000E-03 0. -1.
         12    1    3    3    0    0 -0.17654077244E+02 -0.12409630070E+02 -0.17407224916E+02  0.27725021931E+02  0.00000000000E+00 0. -1.
</event>
<event>
 7    1  0.3435408E-009  0.4614232E+02  0.7816164E-02  0.1320468E+00
        -11   -1    0    0    0    0  0.00000000000E+00  0.00000000000E+00  0.45593999997E+02  0.45594000000E+02  0.51100000000E-03 0.  1.
         11   -1    0    0    0    0 -0.00000000000E+00 -0.00000000000E+00 -0.45593999997E+02  0.45594000000E+02  0.51100000000E-03 0. -1.
    9900012    2    1    2    0    0 -0.40683221623E+02  0.19266083899E+02 -0.16753791130E+01  0.46142318679E+02  0.10000008373E+02 0.  0.
        -12    1    1    2    0    0  0.40683221623E+02 -0.19266083899E+02  0.16753791130E+01  0.45045681321E+02  0.00000000000E+00 0.  1.
         11    1    3    3    0    0 -0.11238768987E+02  0.23100293411E+01 -0.16387978479E+01  0.11590160592E+02  0.51100000000E-03 0. -1.
        -11    1    3    3    0    0 -0.19957976495E+02  0.14625733514E+02  0.72550314442E+00  0.24753974664E+02  0.51100000000E-03 0.  1.
        -12    1    3    3    0    0 -0.94864761412E+01  0.23303210441E+01 -0.76208440950E+00  0.97981834231E+01  0.00000000000E+00 0.  1.
</event>
<event>
 7    1  0.3435408E-009  0.4614231E+02  0.7816164E-02  0.1320468E+00
        -11   -1    0    0    0    0  0.00000000000E+00  0.00000000000E+00  0.45593999997E+02  0.45594000000E+02  0.51100000000E-03 0.  1.
         11   -1    0    0    0    0 -0.00000000000E+00 -0.00000000000E+00 -0.45593999997E+02  0.45594000000E+02  0.51100000000E-03 0. -1.
    9900012    2    1    2    0    0  0.15408133448E+02 -0.73417757725E+01 -0.41686947878E+02  0.46142313511E+02  0.99999612443E+01 0.  0.
        -12    1    1    2    0    0 -0.15408133448E+02  0.73417757725E+01  0.41686947878E+02  0.45045686489E+02  0.00000000000E+00 0.  1.
         11    1    3    3    0    0  0.90452235978E+01 -0.22384462554E+01 -0.30136618621E+02  0.31544294155E+02  0.51100000000E-03 0. -1.
        -11    1    3    3    0    0  0.25174617333E+01 -0.43078142561E+01 -0.68163855859E+01  0.84473658593E+01  0.51100000000E-03 0.  1.
         12    1    3    3    0    0  0.38454481169E+01 -0.79551526098E+00 -0.47339436711E+01  0.61506534963E+01  0.00000000000E+00 0. -1.
</event>
<event>
 7    1  0.3435408E-009  0.4614232E+02  0.7816164E-02  0.1320468E+00
        -11   -1    0    0    0    0  0.00000000000E+00  0.00000000000E+00  0.45593999997E+02  0.45594000000E+02  0.51100000000E-03 0. -1.
         11   -1    0    0    0    0 -0.00000000000E+00 -0.00000000000E+00 -0.45593999997E+02  0.45594000000E+02  0.51100000000E-03 0.  1.
    9900012    2    1    2    0    0 -0.35334774031E+02 -0.26895332136E+02  0.75636153185E+01  0.46142318484E+02  0.10000006593E+02 0.  0.
        -12    1    1    2    0    0  0.35334774031E+02  0.26895332136E+02 -0.75636153185E+01  0.45045681516E+02  0.00000000000E+00 0.  1.
         11    1    3    3    0    0 -0.26141868374E+02 -0.16084335499E+02  0.41373832325E+01  0.30971294303E+02  0.51100000000E-03 0. -1.
        -11    1    3    3    0    0 -0.48092881676E+01 -0.43875079751E+01  0.35057530873E+01  0.73939018036E+01  0.51100000000E-03 0.  1.
         12    1    3    3    0    0 -0.43836174891E+01 -0.64234886622E+01 -0.79521001234E-01  0.77771223775E+01  0.00000000000E+00 0. -1.
</event>
<event>
 7    1  0.3435408E-009  0.4614232E+02  0.7816164E-02  0.1320468E+00
        -11   -1    0    0    0    0  0.00000000000E+00  0.00000000000E+00  0.45593999997E+02  0.45594000000E+02  0.51100000000E-03 0.  1.
         11   -1    0    0    0    0 -0.00000000000E+00 -0.00000000000E+00 -0.45593999997E+02  0.45594000000E+02  0.51100000000E-03 0. -1.
    9900012    2    1    2    0    0  0.34509653047E+02  0.28917247635E+02  0.14107864564E+01  0.46142315605E+02  0.99999803386E+01 0.  0.
        -12    1    1    2    0    0 -0.34509653047E+02 -0.28917247635E+02 -0.14107864564E+01  0.45045684395E+02  0.00000000000E+00 0.  1.
         11    1    3    3    0    0  0.22005085181E+02  0.16813838998E+02 -0.18099384246E+00  0.27694073639E+02  0.51100000000E-03 0. -1.
        -11    1    3    3    0    0  0.89808235986E+01  0.11693882321E+02  0.19910346423E+01  0.14878383496E+02  0.51100000000E-03 0.  1.
        -12    1    3    3    0    0  0.35237442672E+01  0.40952631526E+00 -0.39925434336E+00  0.35698584698E+01  0.00000000000E+00 0.  1.
</event>
<event>
 7    1  0.3435408E-009  0.4614232E+02  0.7816164E-02  0.1320468E+00
        -11   -1    0    0    0    0  0.00000000000E+00  0.00000000000E+00  0.45593999997E+02  0.45594000000E+02  0.51100000000E-03 0. -1.
         11   -1    0    0    0    0 -0.00000000000E+00 -0.00000000000E+00 -0.45593999997E+02  0.45594000000E+02  0.51100000000E-03 0.  1.
    9900012    2    1    2    0    0  0.17071734699E+02 -0.40742269724E+02 -0.88168498682E+01  0.46142317526E+02  0.99999978594E+01 0.  0.
        -12    1    1    2    0    0 -0.17071734699E+02  0.40742269724E+02  0.88168498682E+01  0.45045682474E+02  0.00000000000E+00 0.  1.
         11    1    3    3    0    0  0.77750216806E+00 -0.65238880051E+01  0.30684776058E+00  0.65772167468E+01  0.51100000000E-03 0. -1.
        -11    1    3    3    0    0  0.53071824826E+01 -0.54613677939E+01 -0.29560805189E+01  0.81689128028E+01  0.51100000000E-03 0.  1.
         12    1    3    3    0    0  0.10987050048E+02 -0.28757013925E+02 -0.61676171099E+01  0.31396187977E+02  0.00000000000E+00 0. -1.
</event>
<event>
 7    1  0.3435408E-009  0.4614231E+02  0.7816164E-02  0.1320468E+00
        -11   -1    0    0    0    0  0.00000000000E+00  0.00000000000E+00  0.45593999997E+02  0.45594000000E+02  0.51100000000E-03 0.  1.
         11   -1    0    0    0    0 -0.00000000000E+00 -0.00000000000E+00 -0.45593999997E+02  0.45594000000E+02  0.51100000000E-03 0. -1.
    9900012    2    1    2    0    0  0.31385825134E+02  0.32018838978E+02 -0.43402418531E+01  0.46142314655E+02  0.99999716791E+01 0.  0.
        -12    1    1    2    0    0 -0.31385825134E+02 -0.32018838978E+02  0.43402418531E+01  0.45045685345E+02  0.00000000000E+00 0.  1.
         11    1    3    3    0    0  0.19519427971E+02  0.21578941314E+02 -0.73900434220E+01  0.30021184497E+02  0.51100000000E-03 0. -1.
        -11    1    3    3    0    0  0.68309345267E+01  0.54656526212E+01  0.15165988758E+01  0.88789130807E+01  0.51100000000E-03 0.  1.
         12    1    3    3    0    0  0.50354626359E+01  0.49742450423E+01  0.15332026931E+01  0.72422170775E+01  0.00000000000E+00 0. -1.
</event>
<event>
 7    1  0.3435408E-009  0.4614232E+02  0.7816164E-02  0.1320468E+00
        -11   -1    0    0    0    0  0.00000000000E+00  0.00000000000E+00  0.45593999997E+02  0.45594000000E+02  0.51100000000E-03 0. -1.
         11   -1    0    0    0    0 -0.00000000000E+00 -0.00000000000E+00 -0.45593999997E+02  0.45594000000E+02  0.51100000000E-03 0.  1.
    9900012    2    1    2    0    0 -0.40283301350E+02 -0.80609376889E+01  0.18476752100E+02  0.46142318162E+02  0.10000003657E+02 0.  0.
        -12    1    1    2    0    0  0.40283301350E+02  0.80609376889E+01 -0.18476752100E+02  0.45045681838E+02  0.00000000000E+00 0.  1.
         11    1    3    3    0    0 -0.16395879913E+02 -0.16975340145E+01  0.86158284960E+01  0.18599435497E+02  0.51100000000E-03 0. -1.
        -11    1    3    3    0    0 -0.21574259114E+02 -0.77760772890E+01  0.94408085371E+01  0.24800098798E+02  0.51100000000E-03 0.  1.
        -12    1    3    3    0    0 -0.23131623226E+01  0.14126736146E+01  0.42011506720E+00  0.27427838671E+01  0.00000000000E+00 0.  1.
</event>
<event>
 7    1  0.3435408E-009  0.4614232E+02  0.7816164E-02  0.1320468E+00
        -11   -1    0    0    0    0  0.00000000000E+00  0.00000000000E+00  0.45593999997E+02  0.45594000000E+02  0.51100000000E-03 0.  1.
         11   -1    0    0    0    0 -0.00000000000E+00 -0.00000000000E+00 -0.45593999997E+02  0.45594000000E+02  0.51100000000E-03 0. -1.
    9900012    2    1    2    0    0 -0.21454759088E+02 -0.28869107109E+02 -0.27117914495E+02  0.46142319637E+02  0.10000017106E+02 0.  0.
        -12    1    1    2    0    0  0.21454759088E+02  0.28869107109E+02  0.27117914495E+02  0.45045680363E+02  0.00000000000E+00 0.  1.
         11    1    3    3    0    0 -0.19979346858E+02 -0.25895422135E+02 -0.21273293620E+02  0.39016665800E+02  0.51100000000E-03 0. -1.
        -11    1    3    3    0    0 -0.76931902166E+00 -0.30577900376E+01 -0.36739061718E+01  0.48414376471E+01  0.51100000000E-03 0.  1.
         12    1    3    3    0    0 -0.70609320835E+00  0.84105063469E-01 -0.21707147031E+01  0.22842161901E+01  0.00000000000E+00 0. -1.
</event>
<event>
 7    1  0.3435408E-009  0.4614232E+02  0.7816164E-02  0.1320468E+00
        -11   -1    0    0    0    0  0.00000000000E+00  0.00000000000E+00  0.45593999997E+02  0.45594000000E+02  0.51100000000E-03 0. -1.
         11   -1    0    0    0    0 -0.00000000000E+00 -0.00000000000E+00 -0.45593999997E+02  0.45594000000E+02  0.51100000000E-03 0.  1.
    9900012    2    1    2    0    0  0.40669341653E+02  0.18519556082E+02  0.56695827637E+01  0.46142317891E+02  0.10000001187E+02 0.  0.
        -12    1    1    2    0    0 -0.40669341653E+02 -0.18519556082E+02 -0.56695827637E+01  0.45045682109E+02  0.00000000000E+00 0.  1.
         11    1    3    3    0    0  0.15013076519E+02  0.67752073216E+01 -0.71873784762E+00  0.16486736644E+02  0.51100000000E-03 0. -1.
        -11    1    3    3    0    0  0.81722287171E+01  0.70882929316E+01  0.32185754259E+01  0.11286649056E+02  0.51100000000E-03 0.  1.
        -12    1    3    3    0    0  0.17484036417E+02  0.46560558285E+01  0.31697451854E+01  0.18368932191E+02  0.00000000000E+00 0.  1.
</event>
<event>
 7    1  0.3435408E-009  0.4614232E+02  0.7816164E-02  0.1320468E+00
        -11   -1    0    0    0    0  0.00000000000E+00  0.00000000000E+00  0.45593999997E+02  0.45594000000E+02  0.51100000000E-03 0. -1.
         11   -1    0    0    0    0 -0.00000000000E+00 -0.00000000000E+00 -0.45593999997E+02  0.45594000000E+02  0.51100000000E-03 0.  1.
    9900012    2    1    2    0    0  0.11642022068E+02 -0.38287342731E+02  0.20679849434E+02  0.46142318033E+02  0.10000002482E+02 0.  0.
        -12    1    1    2    0    0 -0.11642022068E+02  0.38287342731E+02 -0.20679849434E+02  0.45045681967E+02  0.00000000000E+00 0.  1.
         11    1    3    3    0    0  0.77761667609E+01 -0.30303595806E+02  0.14411794939E+02  0.34445268498E+02  0.51100000000E-03 0. -1.
        -11    1    3    3    0    0  0.35130915359E+01 -0.54724341303E+01  0.21285822557E+01  0.68425295126E+01  0.51100000000E-03 0.  1.
         12    1    3    3    0    0  0.35276377122E+00 -0.25113127946E+01  0.41394722396E+01  0.48545200229E+01  0.00000000000E+00 0. -1.
</event>
<event>
 7    1  0.3435408E-009  0.4614232E+02  0.7816164E-02  0.1320468E+00
        -11   -1    0    0    0    0  0.00000000000E+00  0.00000000000E+00  0.45593999997E+02  0.45594000000E+02  0.51100000000E-03 0.  1.
         11   -1    0    0    0    0 -0.00000000000E+00 -0.00000000000E+00 -0.45593999997E+02  0.45594000000E+02  0.51100000000E-03 0. -1.
    9900012    2    1    2    0    0  0.96425576986E+00 -0.43139736047E+02  0.12928524478E+02  0.46142319180E+02  0.10000012935E+02 0.  0.
        -12    1    1    2    0    0 -0.96425576986E+00  0.43139736047E+02 -0.12928524478E+02  0.45045680820E+02  0.00000000000E+00 0.  1.
         11    1    3    3    0    0 -0.13309915850E+00 -0.30055228480E+01  0.22517442645E+01  0.37578232356E+01  0.51100000000E-03 0.  1.
        -11    1    3    3    0    0  0.36217097296E+01 -0.15425674731E+02  0.68165017621E+01  0.17249142553E+02  0.51100000000E-03 0. -1.
        -12    1    3    3    0    0 -0.25243548012E+01 -0.24708538468E+02  0.38602784515E+01  0.25135353391E+02  0.00000000000E+00 0.  1.
</event>
<event>
 7    1  0.3435408E-009  0.4614232E+02  0.7816164E-02  0.1320468E+00
        -11   -1    0    0    0    0  0.00000000000E+00  0.00000000000E+00  0.45593999997E+02  0.45594000000E+02  0.51100000000E-03 0.  1.
         11   -1    0    0    0    0 -0.00000000000E+00 -0.00000000000E+00 -0.45593999997E+02  0.45594000000E+02  0.51100000000E-03 0. -1.
    9900012    2    1    2    0    0  0.26606716658E+02  0.13629450954E+01 -0.36322695395E+02  0.46142321057E+02  0.10000030058E+02 0.  0.
        -12    1    1    2    0    0 -0.26606716658E+02 -0.13629450954E+01  0.36322695395E+02  0.45045678943E+02  0.00000000000E+00 0.  1.
         11    1    3    3    0    0  0.42240880962E+01  0.24632741132E+01 -0.61951682437E+01  0.78924488867E+01  0.51100000000E-03 0. -1.
        -11    1    3    3    0    0  0.83822042734E+01  0.31166973005E+01 -0.11675021677E+02  0.14706504750E+02  0.51100000000E-03 0.  1.
         12    1    3    3    0    0  0.14000424288E+02 -0.42170263184E+01 -0.18452505475E+02  0.23543367421E+02  0.00000000000E+00 0. -1.
</event>
<event>
 7    1  0.3435408E-009  0.4614232E+02  0.7816164E-02  0.1320468E+00
        -11   -1    0    0    0    0  0.00000000000E+00  0.00000000000E+00  0.45593999997E+02  0.45594000000E+02  0.51100000000E-03 0.  1.
         11   -1    0    0    0    0 -0.00000000000E+00 -0.00000000000E+00 -0.45593999997E+02  0.45594000000E+02  0.51100000000E-03 0. -1.
    9900012    2    1    2    0    0 -0.42056404533E+02  0.51130156901E+01 -0.15304557596E+02  0.46142316801E+02  0.99999912444E+01 0.  0.
        -12    1    1    2    0    0  0.42056404533E+02 -0.51130156901E+01  0.15304557596E+02  0.45045683199E+02  0.00000000000E+00 0.  1.
         11    1    3    3    0    0 -0.29703304886E+02  0.61200135018E+01 -0.12851582528E+02  0.32937881841E+02  0.51100000000E-03 0. -1.
        -11    1    3    3    0    0 -0.23495858870E+01 -0.14077972254E+01 -0.15624608056E+01  0.31533681831E+01  0.51100000000E-03 0.  1.
         12    1    3    3    0    0 -0.10003513760E+02  0.40079941370E+00 -0.89051426268E+00  0.10051066777E+02  0.00000000000E+00 0. -1.
</event>
<event>
 7    1  0.3435408E-009  0.4614232E+02  0.7816164E-02  0.1320468E+00
        -11   -1    0    0    0    0  0.00000000000E+00  0.00000000000E+00  0.45593999997E+02  0.45594000000E+02  0.51100000000E-03 0.  1.
         11   -1    0    0    0    0 -0.00000000000E+00 -0.00000000000E+00 -0.45593999997E+02  0.45594000000E+02  0.51100000000E-03 0. -1.
    9900012    2    1    2    0    0  0.21468515724E+01  0.90954003055E+01 -0.44065613077E+02  0.46142317252E+02  0.99999953537E+01 0.  0.
        -12    1    1    2    0    0 -0.21468515724E+01 -0.90954003055E+01  0.44065613077E+02  0.45045682748E+02  0.00000000000E+00 0.  1.
         11    1    3    3    0    0 -0.11124552585E+01  0.48218658280E+01 -0.34673663199E+02  0.35025003450E+02  0.51100000000E-03 0. -1.
        -11    1    3    3    0    0  0.28739405262E+01  0.23312819573E+01 -0.75718712946E+01  0.84277900351E+01  0.51100000000E-03 0.  1.
         12    1    3    3    0    0  0.38536630475E+00  0.19422525201E+01 -0.18200785841E+01  0.26895237669E+01  0.00000000000E+00 0. -1.
</event>
<event>
 7    1  0.3435408E-009  0.4614232E+02  0.7816164E-02  0.1320468E+00
        -11   -1    0    0    0    0  0.00000000000E+00  0.00000000000E+00  0.45593999997E+02  0.45594000000E+02  0.51100000000E-03 0. -1.
         11   -1    0    0    0    0 -0.00000000000E+00 -0.00000000000E+00 -0.45593999997E+02  0.45594000000E+02  0.51100000000E-03 0.  1.
    9900012    2    1    2    0    0  0.26082214645E+02 -0.55249462077E+01  0.36308491365E+02  0.46142317670E+02  0.99999991701E+01 0.  0.
        -12    1    1    2    0    0 -0.26082214645E+02  0.55249462077E+01 -0.36308491365E+02  0.45045682330E+02  0.00000000000E+00 0.  1.
         11    1    3    3    0    0  0.19151067104E+02 -0.58497531700E+01  0.26634142846E+02  0.33322072997E+02  0.51100000000E-03 0. -1.
        -11    1    3    3    0    0  0.39350332199E+01  0.96829322949E+00  0.87117860363E+01  0.96081889253E+01  0.51100000000E-03 0.  1.
        -12    1    3    3    0    0  0.29961143203E+01 -0.64348626717E+00  0.96256248250E+00  0.32120557481E+01  0.00000000000E+00 0.  1.
</event>
<event>
 7    1  0.3435408E-009  0.4614232E+02  0.7816164E-02  0.1320468E+00
        -11   -1    0    0    0    0  0.00000000000E+00  0.00000000000E+00  0.45593999997E+02  0.45594000000E+02  0.51100000000E-03 0. -1.
         11   -1    0    0    0    0 -0.00000000000E+00 -0.00000000000E+00 -0.45593999997E+02  0.45594000000E+02  0.51100000000E-03 0.  1.
    9900012    2    1    2    0    0  0.28671055655E+02 -0.79178231198E+00  0.34734091000E+02  0.46142318418E+02  0.10000005989E+02 0.  0.
        -12    1    1    2    0    0 -0.28671055655E+02  0.79178231198E+00 -0.34734091000E+02  0.45045681582E+02  0.00000000000E+00 0.  1.
         11    1    3    3    0    0  0.13016575559E+02 -0.23912169378E+01  0.17410858749E+02  0.21869777327E+02  0.51100000000E-03 0. -1.
        -11    1    3    3    0    0  0.14112244427E+02  0.10911726432E+01  0.11530349990E+02  0.18256370715E+02  0.51100000000E-03 0.  1.
         12    1    3    3    0    0  0.15422356690E+01  0.50826198262E+00  0.57928822611E+01  0.60161703760E+01  0.00000000000E+00 0. -1.
</event>
<event>
 7    1  0.3435408E-009  0.4614232E+02  0.7816164E-02  0.1320468E+00
        -11   -1    0    0    0    0  0.00000000000E+00  0.00000000000E+00  0.45593999997E+02  0.45594000000E+02  0.51100000000E-03 0.  1.
         11   -1    0    0    0    0 -0.00000000000E+00 -0.00000000000E+00 -0.45593999997E+02  0.45594000000E+02  0.51100000000E-03 0. -1.
    9900012    2    1    2    0    0 -0.39193561162E+02 -0.31237051203E+01 -0.21982284578E+02  0.46142316461E+02  0.99999881456E+01 0.  0.
        -12    1    1    2    0    0  0.39193561162E+02  0.31237051203E+01  0.21982284578E+02  0.45045683539E+02  0.00000000000E+00 0.  1.
         11    1    3    3    0    0 -0.11762519873E+02  0.34501399286E+00 -0.60390871781E+01  0.13226733634E+02  0.51100000000E-03 0. -1.
        -11    1    3    3    0    0 -0.20192248599E+02  0.51720849535E+00 -0.89619968492E+01  0.22097778076E+02  0.51100000000E-03 0.  1.
         12    1    3    3    0    0 -0.72387926900E+01 -0.39859276085E+01 -0.69812005508E+01  0.10817804751E+02  0.00000000000E+00 0. -1.
</event>
<event>
 7    1  0.3435408E-009  0.4614232E+02  0.7816164E-02  0.1320468E+00
        -11   -1    0    0    0    0  0.00000000000E+00  0.00000000000E+00  0.45593999997E+02  0.45594000000E+02  0.51100000000E-03 0. -1.
         11   -1    0    0    0    0 -0.00000000000E+00 -0.00000000000E+00 -0.45593999997E+02  0.45594000000E+02  0.51100000000E-03 0.  1.
    9900012    2    1    2    0    0  0.37908553526E+02  0.22872634720E+02  0.83004603030E+01  0.46142317735E+02  0.99999997584E+01 0.  0.
        -12    1    1    2    0    0 -0.37908553526E+02 -0.22872634720E+02 -0.83004603030E+01  0.45045682265E+02  0.00000000000E+00 0.  1.
         11    1    3    3    0    0  0.29803888066E+02  0.14629878538E+02  0.77985179044E+01  0.34104574058E+02  0.51100000000E-03 0. -1.
        -11    1    3    3    0    0  0.54989346486E+01  0.35037492494E+01 -0.49265743028E+00  0.65389030179E+01  0.51100000000E-03 0.  1.
         12    1    3    3    0    0  0.26057308117E+01  0.47390069330E+01  0.99459982889E+00  0.54988406591E+01  0.00000000000E+00 0. -1.
</event>
<event>
 7    1  0.3435408E-009  0.4614232E+02  0.7816164E-02  0.1320468E+00
        -11   -1    0    0    0    0  0.00000000000E+00  0.00000000000E+00  0.45593999997E+02  0.45594000000E+02  0.51100000000E-03 0.  1.
         11   -1    0    0    0    0 -0.00000000000E+00 -0.00000000000E+00 -0.45593999997E+02  0.45594000000E+02  0.51100000000E-03 0. -1.
    9900012    2    1    2    0    0 -0.75333480202E+01 -0.30391274168E+02 -0.32384140954E+02  0.46142318039E+02  0.10000002537E+02 0.  0.
        -12    1    1    2    0    0  0.75333480202E+01  0.30391274168E+02  0.32384140954E+02  0.45045681961E+02  0.00000000000E+00 0.  1.
         11    1    3    3    0    0 -0.60693083064E+01 -0.12469744022E+02 -0.16880325478E+02  0.21846656673E+02  0.51100000000E-03 0. -1.
        -11    1    3    3    0    0 -0.12236506513E+01 -0.72662818340E+00 -0.18714870923E+01  0.23511217814E+01  0.51100000000E-03 0.  1.
         12    1    3    3    0    0 -0.24038906243E+00 -0.17194901963E+02 -0.13632328384E+02  0.21944539585E+02  0.00000000000E+00 0. -1.
</event>
<event>
 7    1  0.3435408E-009  0.4614232E+02  0.7816164E-02  0.1320468E+00
        -11   -1    0    0    0    0  0.00000000000E+00  0.00000000000E+00  0.45593999997E+02  0.45594000000E+02  0.51100000000E-03 0.  1.
         11   -1    0    0    0    0 -0.00000000000E+00 -0.00000000000E+00 -0.45593999997E+02  0.45594000000E+02  0.51100000000E-03 0. -1.
    9900012    2    1    2    0    0 -0.61488486182E+01  0.11204010050E+02 -0.43194623272E+02  0.46142315854E+02  0.99999826120E+01 0.  0.
        -12    1    1    2    0    0  0.61488486182E+01 -0.11204010050E+02  0.43194623272E+02  0.45045684146E+02  0.00000000000E+00 0.  1.
         11    1    3    3    0    0 -0.17884615289E+01  0.36170887366E+00 -0.98994118723E+01  0.10066170256E+02  0.51100000000E-03 0. -1.
        -11    1    3    3    0    0  0.40693976660E-01  0.10420573100E+01  0.49004848412E-01  0.10440024777E+01  0.51100000000E-03 0.  1.
        -12    1    3    3    0    0 -0.44010810659E+01  0.98002438667E+01 -0.33344216248E+02  0.35032143120E+02  0.00000000000E+00 0.  1.
</event>
<event>
 7    1  0.3435408E-009  0.4614232E+02  0.7816164E-02  0.1320468E+00
        -11   -1    0    0    0    0  0.00000000000E+00  0.00000000000E+00  0.45593999997E+02  0.45594000000E+02  0.51100000000E-03 0.  1.
         11   -1    0    0    0    0 -0.00000000000E+00 -0.00000000000E+00 -0.45593999997E+02  0.45594000000E+02  0.51100000000E-03 0. -1.
    9900012    2    1    2    0    0  0.34794073167E+02 -0.10324151895E+02 -0.26681413344E+02  0.46142318098E+02  0.10000003076E+02 0.  0.
        -12    1    1    2    0    0 -0.34794073167E+02  0.10324151895E+02  0.26681413344E+02  0.45045681902E+02  0.00000000000E+00 0.  1.
         11    1    3    3    0    0  0.23019937998E+02 -0.69844491619E+01 -0.17815652900E+02  0.29934888743E+02  0.51100000000E-03 0. -1.
        -11    1    3    3    0    0  0.26207445314E+01 -0.24686205141E+01 -0.25350860042E+00  0.36092459064E+01  0.51100000000E-03 0.  1.
        -12    1    3    3    0    0  0.91533906374E+01 -0.87108221949E+00 -0.86122518435E+01  0.12598183449E+02  0.00000000000E+00 0.  1.
</event>
<event>
 7    1  0.3435408E-009  0.4614232E+02  0.7816164E-02  0.1320468E+00
        -11   -1    0    0    0    0  0.00000000000E+00  0.00000000000E+00  0.45593999997E+02  0.45594000000E+02  0.51100000000E-03 0.  1.
         11   -1    0    0    0    0 -0.00000000000E+00 -0.00000000000E+00 -0.45593999997E+02  0.45594000000E+02  0.51100000000E-03 0. -1.
    9900012    2    1    2    0    0 -0.88961672343E+01 -0.43336797484E+02 -0.84790169737E+01  0.46142317227E+02  0.99999951288E+01 0.  0.
        -12    1    1    2    0    0  0.88961672343E+01  0.43336797484E+02  0.84790169737E+01  0.45045682773E+02  0.00000000000E+00 0.  1.
         11    1    3    3    0    0 -0.31096092891E+01 -0.30142512561E+02 -0.88058685746E+01  0.31556046252E+02  0.51100000000E-03 0. -1.
        -11    1    3    3    0    0 -0.89537844685E+00 -0.88437821284E+00 -0.39935123845E+00  0.13203442957E+01  0.51100000000E-03 0.  1.
         12    1    3    3    0    0 -0.48911794983E+01 -0.12309906711E+02  0.72620283935E+00  0.13265926680E+02  0.00000000000E+00 0. -1.
</event>
<event>
 7    1  0.3435408E-009  0.4614232E+02  0.7816164E-02  0.1320468E+00
        -11   -1    0    0    0    0  0.00000000000E+00  0.00000000000E+00  0.45593999997E+02  0.45594000000E+02  0.51100000000E-03 0.  1.
         11   -1    0    0    0    0 -0.00000000000E+00 -0.00000000000E+00 -0.45593999997E+02  0.45594000000E+02  0.51100000000E-03 0. -1.
    9900012    2    1    2    0    0 -0.23712245038E+02 -0.25116717551E+02 -0.28913552665E+02  0.46142316600E+02  0.99999894096E+01 0.  0.
        -12    1    1    2    0    0  0.23712245038E+02  0.25116717551E+02  0.28913552665E+02  0.45045683400E+02  0.00000000000E+00 0.  1.
         11    1    3    3    0    0 -0.21639574898E+02 -0.21691333311E+02 -0.25609679578E+02  0.39932954197E+02  0.51100000000E-03 0. -1.
        -11    1    3    3    0    0 -0.11214659935E+01 -0.30321944191E+01 -0.56298753193E+00  0.32815917162E+01  0.51100000000E-03 0.  1.
         12    1    3    3    0    0 -0.95120414612E+00 -0.39318982089E+00 -0.27408855553E+01  0.29277706861E+01  0.00000000000E+00 0. -1.
</event>
<event>
 7    1  0.3435408E-009  0.4614232E+02  0.7816164E-02  0.1320468E+00
        -11   -1    0    0    0    0  0.00000000000E+00  0.00000000000E+00  0.45593999997E+02  0.45594000000E+02  0.51100000000E-03 0. -1.
         11   -1    0    0    0    0 -0.00000000000E+00 -0.00000000000E+00 -0.45593999997E+02  0.45594000000E+02  0.51100000000E-03 0.  1.
    9900012    2    1    2    0    0 -0.18748204023E+01 -0.26383908102E+02  0.36462144632E+02  0.46142317083E+02  0.99999938181E+01 0.  0.
        -12    1    1    2    0    0  0.18748204023E+01  0.26383908102E+02 -0.36462144632E+02  0.45045682917E+02  0.00000000000E+00 0.  1.
         11    1    3    3    0    0  0.38837797364E+00 -0.66169074537E+01  0.10434398368E+02  0.12361673481E+02  0.51100000000E-03 0. -1.
        -11    1    3    3    0    0 -0.95766101408E-01 -0.69184084484E+00 -0.62252772959E+00  0.93560458314E+00  0.51100000000E-03 0.  1.
        -12    1    3    3    0    0 -0.21674322745E+01 -0.19075159804E+02  0.26650273994E+02  0.32845039019E+02  0.00000000000E+00 0.  1.
</event>
<event>
 7    1  0.3435408E-009  0.4614232E+02  0.7816164E-02  0.1320468E+00
        -11   -1    0    0    0    0  0.00000000000E+00  0.00000000000E+00  0.45593999997E+02  0.45594000000E+02  0.51100000000E-03 0.  1.
         11   -1    0    0    0    0 -0.00000000000E+00 -0.00000000000E+00 -0.45593999997E+02  0.45594000000E+02  0.51100000000E-03 0. -1.
    9900012    2    1    2    0    0  0.17005413681E+02  0.98449791728E+01 -0.40534002999E+02  0.46142321978E+02  0.10000038450E+02 0.  0.
        -12    1    1    2    0    0 -0.17005413681E+02 -0.98449791728E+01  0.40534002999E+02  0.45045678022E+02  0.00000000000E+00 0.  1.
         11    1    3    3    0    0  0.11923087749E+02  0.57048772607E+01 -0.16432404862E+02  0.21088612468E+02  0.51100000000E-03 0. -1.
        -11    1    3    3    0    0  0.39360125554E+01  0.29489237395E+01 -0.14514205449E+02  0.15324832989E+02  0.51100000000E-03 0.  1.
         12    1    3    3    0    0  0.11463133761E+01  0.11911781726E+01 -0.95873926884E+01  0.97288765208E+01  0.00000000000E+00 0. -1.
</event>
<event>
 7    1  0.3435408E-009  0.4614232E+02  0.7816164E-02  0.1320468E+00
        -11   -1    0    0    0    0  0.00000000000E+00  0.00000000000E+00  0.45593999997E+02  0.45594000000E+02  0.51100000000E-03 0. -1.
         11   -1    0    0    0    0 -0.00000000000E+00 -0.00000000000E+00 -0.45593999997E+02  0.45594000000E+02  0.51100000000E-03 0.  1.
    9900012    2    1    2    0    0 -0.41870632251E+02  0.86007542904E+00 -0.16589874434E+02  0.46142317537E+02  0.99999979595E+01 0.  0.
        -12    1    1    2    0    0  0.41870632251E+02 -0.86007542904E+00  0.16589874434E+02  0.45045682463E+02  0.00000000000E+00 0.  1.
         11    1    3    3    0    0 -0.34345553285E+02  0.36039799255E+01 -0.13380762905E+02  0.37035800490E+02  0.51100000000E-03 0. -1.
        -11    1    3    3    0    0 -0.24853662813E+01  0.89078017895E-01 -0.20203279048E+01  0.32041700250E+01  0.51100000000E-03 0.  1.
         12    1    3    3    0    0 -0.50397126842E+01 -0.28329825144E+01 -0.11887836237E+01  0.59023470222E+01  0.00000000000E+00 0. -1.
</event>
<event>
 7    1  0.3435408E-009  0.4614232E+02  0.7816164E-02  0.1320468E+00
        -11   -1    0    0    0    0  0.00000000000E+00  0.00000000000E+00  0.45593999997E+02  0.45594000000E+02  0.51100000000E-03 0.  1.
         11   -1    0    0    0    0 -0.00000000000E+00 -0.00000000000E+00 -0.45593999997E+02  0.45594000000E+02  0.51100000000E-03 0. -1.
    9900012    2    1    2    0    0  0.39341396439E+02  0.13782604422E+02 -0.17070667668E+02  0.46142319263E+02  0.10000013696E+02 0.  0.
        -12    1    1    2    0    0 -0.39341396439E+02 -0.13782604422E+02  0.17070667668E+02  0.45045680737E+02  0.00000000000E+00 0.  1.
         11    1    3    3    0    0  0.32169898920E+02  0.89198422360E+01 -0.15218257718E+02  0.36688708757E+02  0.51100000000E-03 0. -1.
        -11    1    3    3    0    0  0.47731577303E+01  0.22632477004E+01  0.33807139363E+00  0.52933559676E+01  0.51100000000E-03 0.  1.
        -12    1    3    3    0    0  0.23983397884E+01  0.25995144861E+01 -0.21904813445E+01  0.41602545384E+01  0.00000000000E+00 0.  1.
</event>
<event>
 7    1  0.3435408E-009  0.4614232E+02  0.7816164E-02  0.1320468E+00
        -11   -1    0    0    0    0  0.00000000000E+00  0.00000000000E+00  0.45593999997E+02  0.45594000000E+02  0.51100000000E-03 0.  1.
         11   -1    0    0    0    0 -0.00000000000E+00 -0.00000000000E+00 -0.45593999997E+02  0.45594000000E+02  0.51100000000E-03 0. -1.
    9900012    2    1    2    0    0  0.81588955151E+01 -0.29204029301E+01 -0.44204264358E+02  0.46142319667E+02  0.10000017375E+02 0.  0.
        -12    1    1    2    0    0 -0.81588955151E+01  0.29204029301E+01  0.44204264358E+02  0.45045680333E+02  0.00000000000E+00 0.  1.
         11    1    3    3    0    0  0.67681545017E+01 -0.85559560364E+00 -0.31480591635E+02  0.32211296297E+02  0.51100000000E-03 0. -1.
        -11    1    3    3    0    0  0.90798255439E+00 -0.35327172583E+01 -0.11124624706E+02  0.11707339521E+02  0.51100000000E-03 0.  1.
         12    1    3    3    0    0  0.48275845902E+00  0.14679099318E+01 -0.15990480163E+01  0.22236838481E+01  0.00000000000E+00 0. -1.
</event>
<event>
 7    1  0.3435408E-009  0.4614232E+02  0.7816164E-02  0.1320468E+00
        -11   -1    0    0    0    0  0.00000000000E+00  0.00000000000E+00  0.45593999997E+02  0.45594000000E+02  0.51100000000E-03 0.  1.
         11   -1    0    0    0    0 -0.00000000000E+00 -0.00000000000E+00 -0.45593999997E+02  0.45594000000E+02  0.51100000000E-03 0. -1.
    9900012    2    1    2    0    0 -0.23529865935E+01 -0.13148977477E+02 -0.43019546211E+02  0.46142317512E+02  0.99999977266E+01 0.  0.
        -12    1    1    2    0    0  0.23529865935E+01  0.13148977477E+02  0.43019546211E+02  0.45045682488E+02  0.00000000000E+00 0.  1.
         11    1    3    3    0    0 -0.32130376633E+01 -0.11523259352E+02 -0.31617647751E+02  0.33805099715E+02  0.51100000000E-03 0. -1.
        -11    1    3    3    0    0  0.23718732008E+01 -0.17700813614E+01 -0.55305683302E+01  0.62726514986E+01  0.51100000000E-03 0.  1.
        -12    1    3    3    0    0 -0.15118221310E+01  0.14436323606E+00 -0.58713301295E+01  0.60645662986E+01  0.00000000000E+00 0.  1.
</event>
<event>
 7    1  0.3435408E-009  0.4614232E+02  0.7816164E-02  0.1320468E+00
        -11   -1    0    0    0    0  0.00000000000E+00  0.00000000000E+00  0.45593999997E+02  0.45594000000E+02  0.51100000000E-03 0. -1.
         11   -1    0    0    0    0 -0.00000000000E+00 -0.00000000000E+00 -0.45593999997E+02  0.45594000000E+02  0.51100000000E-03 0.  1.
    9900012    2    1    2    0    0 -0.40049035019E+02 -0.20329289594E+02  0.34508266961E+01  0.46142318450E+02  0.10000006286E+02 0.  0.
        -12    1    1    2    0    0  0.40049035019E+02  0.20329289594E+02 -0.34508266961E+01  0.45045681550E+02  0.00000000000E+00 0.  1.
         11    1    3    3    0    0 -0.11948743859E+02 -0.28222764735E+01  0.25502178628E+01  0.12539590731E+02  0.51100000000E-03 0.  1.
        -11    1    3    3    0    0 -0.20749331621E+02 -0.11637777771E+02 -0.16773755291E+01  0.23849239466E+02  0.51100000000E-03 0. -1.
         12    1    3    3    0    0 -0.73509595391E+01 -0.58692353494E+01  0.25779843624E+01  0.97534882531E+01  0.00000000000E+00 0. -1.
</event>
<event>
 7    1  0.3435408E-009  0.4614232E+02  0.7816164E-02  0.1320468E+00
        -11   -1    0    0    0    0  0.00000000000E+00  0.00000000000E+00  0.45593999997E+02  0.45594000000E+02  0.51100000000E-03 0.  1.
         11   -1    0    0    0    0 -0.00000000000E+00 -0.00000000000E+00 -0.45593999997E+02  0.45594000000E+02  0.51100000000E-03 0. -1.
    9900012    2    1    2    0    0 -0.12148267204E+02  0.36713880754E+02  0.23100302272E+02  0.46142318729E+02  0.10000008828E+02 0.  0.
        -12    1    1    2    0    0  0.12148267204E+02 -0.36713880754E+02 -0.23100302272E+02  0.45045681271E+02  0.00000000000E+00 0.  1.
         11    1    3    3    0    0 -0.54715448629E+01  0.20945612815E+02  0.11198815783E+02  0.24373550718E+02  0.51100000000E-03 0. -1.
        -11    1    3    3    0    0 -0.76505363701E+01  0.13735447370E+02  0.90747026245E+01  0.18153331628E+02  0.51100000000E-03 0.  1.
        -12    1    3    3    0    0  0.97381402873E+00  0.20328205690E+01  0.28267838645E+01  0.36154363838E+01  0.00000000000E+00 0.  1.
</event>
<event>
 7    1  0.3435408E-009  0.4614232E+02  0.7816164E-02  0.1320468E+00
        -11   -1    0    0    0    0  0.00000000000E+00  0.00000000000E+00  0.45593999997E+02  0.45594000000E+02  0.51100000000E-03 0.  1.
         11   -1    0    0    0    0 -0.00000000000E+00 -0.00000000000E+00 -0.45593999997E+02  0.45594000000E+02  0.51100000000E-03 0. -1.
    9900012    2    1    2    0    0  0.12889482383E+02  0.38194296544E+02 -0.20103994208E+02  0.46142316214E+02  0.99999858967E+01 0.  0.
        -12    1    1    2    0    0 -0.12889482383E+02 -0.38194296544E+02  0.20103994208E+02  0.45045683786E+02  0.00000000000E+00 0.  1.
         11    1    3    3    0    0  0.23156814242E+01  0.84261205989E+01 -0.21955295661E+01  0.90101187086E+01  0.51100000000E-03 0. -1.
        -11    1    3    3    0    0  0.11347200105E+02  0.27287545828E+02 -0.14710352629E+02  0.33011567401E+02  0.51100000000E-03 0.  1.
        -12    1    3    3    0    0 -0.77339914605E+00  0.24806301175E+01 -0.31981120127E+01  0.41206301053E+01  0.00000000000E+00 0.  1.
</event>
<event>
 7    1  0.3435408E-009  0.4614232E+02  0.7816164E-02  0.1320468E+00
        -11   -1    0    0    0    0  0.00000000000E+00  0.00000000000E+00  0.45593999997E+02  0.45594000000E+02  0.51100000000E-03 0.  1.
         11   -1    0    0    0    0 -0.00000000000E+00 -0.00000000000E+00 -0.45593999997E+02  0.45594000000E+02  0.51100000000E-03 0. -1.
    9900012    2    1    2    0    0  0.28036225555E+02  0.23469322746E+02 -0.26311108698E+02  0.46142317694E+02  0.99999993839E+01 0.  0.
        -12    1    1    2    0    0 -0.28036225555E+02 -0.23469322746E+02  0.26311108698E+02  0.45045682306E+02  0.00000000000E+00 0.  1.
         11    1    3    3    0    0  0.44027553732E+01  0.67956902130E+01 -0.95744840993E+01  0.12539394179E+02  0.51100000000E-03 0. -1.
        -11    1    3    3    0    0  0.11002632274E+02  0.65968053291E+01 -0.57165478228E+01  0.14044738402E+02  0.51100000000E-03 0.  1.
         12    1    3    3    0    0  0.12630837908E+02  0.10076827204E+02 -0.11020076776E+02  0.19558185113E+02  0.00000000000E+00 0. -1.
</event>
<event>
 7    1  0.3435408E-009  0.4614233E+02  0.7816164E-02  0.1320468E+00
        -11   -1    0    0    0    0  0.00000000000E+00  0.00000000000E+00  0.45593999997E+02  0.45594000000E+02  0.51100000000E-03 0.  1.
         11   -1    0    0    0    0 -0.00000000000E+00 -0.00000000000E+00 -0.45593999997E+02  0.45594000000E+02  0.51100000000E-03 0. -1.
    9900012    2    1    2    0    0  0.28237284168E+02  0.35088265031E+02  0.76295313098E+00  0.46142326983E+02  0.10000084090E+02 0.  0.
        -12    1    1    2    0    0 -0.28237284168E+02 -0.35088265031E+02 -0.76295313098E+00  0.45045673017E+02  0.00000000000E+00 0.  1.
         11    1    3    3    0    0  0.11619012854E+02  0.12436622818E+02 -0.27064026266E+01  0.17233562089E+02  0.51100000000E-03 0. -1.
        -11    1    3    3    0    0  0.93053073801E+01  0.13811860716E+02  0.48687432132E+01  0.17351106669E+02  0.51100000000E-03 0.  1.
        -12    1    3    3    0    0  0.73129639336E+01  0.88397814964E+01 -0.13993874557E+01  0.11557658225E+02  0.00000000000E+00 0.  1.
</event>
<event>
 7    1  0.3435408E-009  0.4614232E+02  0.7816164E-02  0.1320468E+00
        -11   -1    0    0    0    0  0.00000000000E+00  0.00000000000E+00  0.45593999997E+02  0.45594000000E+02  0.51100000000E-03 0.  1.
         11   -1    0    0    0    0 -0.00000000000E+00 -0.00000000000E+00 -0.45593999997E+02  0.45594000000E+02  0.51100000000E-03 0. -1.
    9900012    2    1    2    0    0  0.28582901207E+02 -0.26355922057E+02 -0.22748551132E+02  0.46142318215E+02  0.10000004142E+02 0.  0.
        -12    1    1    2    0    0 -0.28582901207E+02  0.26355922057E+02  0.22748551132E+02  0.45045681785E+02  0.00000000000E+00 0.  1.
         11    1    3    3    0    0  0.15720489522E+02 -0.18739012101E+02 -0.13811801637E+02  0.28090037914E+02  0.51100000000E-03 0. -1.
        -11    1    3    3    0    0  0.11720749015E+02 -0.82678768517E+01 -0.78769376901E+01  0.16363981567E+02  0.51100000000E-03 0.  1.
         12    1    3    3    0    0  0.11416626705E+01  0.65096689576E+00 -0.10598118047E+01  0.16882987336E+01  0.00000000000E+00 0. -1.
</event>
<event>
 7    1  0.3435408E-009  0.4614232E+02  0.7816164E-02  0.1320468E+00
        -11   -1    0    0    0    0  0.00000000000E+00  0.00000000000E+00  0.45593999997E+02  0.45594000000E+02  0.51100000000E-03 0.  1.
         11   -1    0    0    0    0 -0.00000000000E+00 -0.00000000000E+00 -0.45593999997E+02  0.45594000000E+02  0.51100000000E-03 0. -1.
    9900012    2    1    2    0    0  0.43850875497E+02  0.10182856505E+02 -0.15885989661E+01  0.46142317686E+02  0.99999993162E+01 0.  0.
        -12    1    1    2    0    0 -0.43850875497E+02 -0.10182856505E+02  0.15885989661E+01  0.45045682314E+02  0.00000000000E+00 0.  1.
         11    1    3    3    0    0  0.27029118781E+02  0.66399070589E+01 -0.50522355214E+01  0.28287571686E+02  0.51100000000E-03 0. -1.
        -11    1    3    3    0    0  0.14514223019E+02  0.32824310937E+01  0.17808709553E+01  0.14986945164E+02  0.51100000000E-03 0.  1.
        -12    1    3    3    0    0  0.23075336966E+01  0.26051835264E+00  0.16827656000E+01  0.28678008365E+01  0.00000000000E+00 0.  1.
</event>
<event>
 7    1  0.3435408E-009  0.4614231E+02  0.7816164E-02  0.1320468E+00
        -11   -1    0    0    0    0  0.00000000000E+00  0.00000000000E+00  0.45593999997E+02  0.45594000000E+02  0.51100000000E-03 0.  1.
         11   -1    0    0    0    0 -0.00000000000E+00 -0.00000000000E+00 -0.45593999997E+02  0.45594000000E+02  0.51100000000E-03 0. -1.
    9900012    2    1    2    0    0  0.31901678821E+02  0.14265103950E+02 -0.28423643239E+02  0.46142314332E+02  0.99999687292E+01 0.  0.
        -12    1    1    2    0    0 -0.31901678821E+02 -0.14265103950E+02  0.28423643239E+02  0.45045685668E+02  0.00000000000E+00 0.  1.
         11    1    3    3    0    0  0.29506039451E+02  0.12866994313E+02 -0.22038445758E+02  0.39011011246E+02  0.51100000000E-03 0. -1.
        -11    1    3    3    0    0  0.14112086448E+01  0.78511322981E+00 -0.18758480275E+01  0.24752209409E+01  0.51100000000E-03 0.  1.
         12    1    3    3    0    0  0.98443072570E+00  0.61299640769E+00 -0.45093494536E+01  0.46560821454E+01  0.00000000000E+00 0. -1.
</event>
<event>
 7    1  0.3435408E-009  0.4614232E+02  0.7816164E-02  0.1320468E+00
        -11   -1    0    0    0    0  0.00000000000E+00  0.00000000000E+00  0.45593999997E+02  0.45594000000E+02  0.51100000000E-03 0.  1.
         11   -1    0    0    0    0 -0.00000000000E+00 -0.00000000000E+00 -0.45593999997E+02  0.45594000000E+02  0.51100000000E-03 0. -1.
    9900012    2    1    2    0    0 -0.94337648994E+01 -0.40762748077E+02  0.16688796457E+02  0.46142317874E+02  0.10000001034E+02 0.  0.
        -12    1    1    2    0    0  0.94337648994E+01  0.40762748077E+02 -0.16688796457E+02  0.45045682126E+02  0.00000000000E+00 0.  1.
         11    1    3    3    0    0 -0.45579085642E+00  0.31080353674E-01  0.10975640442E+01  0.11888475030E+01  0.51100000000E-03 0. -1.
        -11    1    3    3    0    0 -0.56624732340E+01 -0.13311468474E+02  0.59354601676E+01  0.15636127516E+02  0.51100000000E-03 0.  1.
         12    1    3    3    0    0 -0.33155008090E+01 -0.27482359957E+02  0.96557722453E+01  0.29317342855E+02  0.00000000000E+00 0. -1.
</event>
<event>
 7    1  0.3435408E-009  0.4614232E+02  0.7816164E-02  0.1320468E+00
        -11   -1    0    0    0    0  0.00000000000E+00  0.00000000000E+00  0.45593999997E+02  0.45594000000E+02  0.51100000000E-03 0. -1.
         11   -1    0    0    0    0 -0.00000000000E+00 -0.00000000000E+00 -0.45593999997E+02  0.45594000000E+02  0.51100000000E-03 0.  1.
    9900012    2    1    2    0    0  0.23109580173E+02 -0.15021748076E+02  0.35628751305E+02  0.46142317292E+02  0.99999957247E+01 0.  0.
        -12    1    1    2    0    0 -0.23109580173E+02  0.15021748076E+02 -0.35628751305E+02  0.45045682708E+02  0.00000000000E+00 0.  1.
         11    1    3    3    0    0  0.39565540615E+01 -0.11871215330E+01  0.10101455384E+02  0.10913431115E+02  0.51100000000E-03 0. -1.
        -11    1    3    3    0    0  0.10074291921E+02 -0.10640615680E+02  0.15555185306E+02  0.21370022226E+02  0.51100000000E-03 0.  1.
         12    1    3    3    0    0  0.90787341902E+01 -0.31940108632E+01  0.99721106153E+01  0.13858863951E+02  0.00000000000E+00 0. -1.
</event>
<event>
 7    1  0.3435408E-009  0.4614232E+02  0.7816164E-02  0.1320468E+00
        -11   -1    0    0    0    0  0.00000000000E+00  0.00000000000E+00  0.45593999997E+02  0.45594000000E+02  0.51100000000E-03 0. -1.
         11   -1    0    0    0    0 -0.00000000000E+00 -0.00000000000E+00 -0.45593999997E+02  0.45594000000E+02  0.51100000000E-03 0.  1.
    9900012    2    1    2    0    0  0.69107353769E+01 -0.44409323571E+02 -0.30277304831E+01  0.46142318350E+02  0.10000005366E+02 0.  0.
        -12    1    1    2    0    0 -0.69107353769E+01  0.44409323571E+02  0.30277304831E+01  0.45045681650E+02  0.00000000000E+00 0.  1.
         11    1    3    3    0    0  0.15799725309E+00 -0.16664602785E+01 -0.18923850359E+01  0.25264944839E+01  0.51100000000E-03 0.  1.
        -11    1    3    3    0    0  0.18507922652E+01 -0.15543738858E+02  0.20839168089E+01  0.15791642069E+02  0.51100000000E-03 0. -1.
         12    1    3    3    0    0  0.49019458587E+01 -0.27199124434E+02 -0.32192622561E+01  0.27824181797E+02  0.00000000000E+00 0. -1.
</event>
<event>
 7    1  0.3663035E-009  0.4614232E+02  0.7816164E-02  0.1320468E+00
        -11   -1    0    0    0    0  0.00000000000E+00  0.00000000000E+00  0.45593999997E+02  0.45594000000E+02  0.51100000000E-03 0. -1.
         11   -1    0    0    0    0 -0.00000000000E+00 -0.00000000000E+00 -0.45593999997E+02  0.45594000000E+02  0.51100000000E-03 0.  1.
    9900012    2    1    2    0    0  0.17040573246E+02 -0.86352726536E+01  0.40794171566E+02  0.46142317586E+02  0.99999984034E+01 0.  0.
        -12    1    1    2    0    0 -0.17040573246E+02  0.86352726536E+01 -0.40794171566E+02  0.45045682414E+02  0.00000000000E+00 0.  1.
         11    1    3    3    0    0  0.61747034951E+01 -0.20042397731E+01  0.16566698113E+02  0.17793241047E+02  0.51100000000E-03 0. -1.
        -11    1    3    3    0    0  0.79750015753E+01 -0.37096078584E+01  0.90299966761E+01  0.12605660666E+02  0.51100000000E-03 0.  1.
        -12    1    3    3    0    0  0.28908681754E+01 -0.29214250221E+01  0.15197476777E+02  0.15743415873E+02  0.00000000000E+00 0.  1.
</event>
<event>
 7    1  0.3435408E-009  0.4614232E+02  0.7816164E-02  0.1320468E+00
        -11   -1    0    0    0    0  0.00000000000E+00  0.00000000000E+00  0.45593999997E+02  0.45594000000E+02  0.51100000000E-03 0. -1.
         11   -1    0    0    0    0 -0.00000000000E+00 -0.00000000000E+00 -0.45593999997E+02  0.45594000000E+02  0.51100000000E-03 0.  1.
    9900012    2    1    2    0    0  0.40815975547E+02 -0.17743794713E+02  0.69517873489E+01  0.46142318098E+02  0.10000003074E+02 0.  0.
        -12    1    1    2    0    0 -0.40815975547E+02  0.17743794713E+02 -0.69517873489E+01  0.45045681902E+02  0.00000000000E+00 0.  1.
         11    1    3    3    0    0  0.11488857517E+02 -0.53299991077E+01 -0.81908050499E+00  0.12691478664E+02  0.51100000000E-03 0. -1.
        -11    1    3    3    0    0  0.15507082884E+02 -0.93892346680E+01  0.64533872438E+01  0.19242493456E+02  0.51100000000E-03 0.  1.
        -12    1    3    3    0    0  0.13820035146E+02 -0.30245609376E+01  0.13174806101E+01  0.14208345979E+02  0.00000000000E+00 0.  1.
</event>
<event>
 7    1  0.3435408E-009  0.4614232E+02  0.7816164E-02  0.1320468E+00
        -11   -1    0    0    0    0  0.00000000000E+00  0.00000000000E+00  0.45593999997E+02  0.45594000000E+02  0.51100000000E-03 0.  1.
         11   -1    0    0    0    0 -0.00000000000E+00 -0.00000000000E+00 -0.45593999997E+02  0.45594000000E+02  0.51100000000E-03 0. -1.
    9900012    2    1    2    0    0  0.32136278760E+02  0.11202475189E+02 -0.29510638832E+02  0.46142315776E+02  0.99999818999E+01 0.  0.
        -12    1    1    2    0    0 -0.32136278760E+02 -0.11202475189E+02  0.29510638832E+02  0.45045684224E+02  0.00000000000E+00 0.  1.
         11    1    3    3    0    0  0.26874162896E+02  0.10133316623E+02 -0.22720392478E+02  0.36621318542E+02  0.51100000000E-03 0.  1.
        -11    1    3    3    0    0  0.21115573210E+01 -0.15136918836E+01 -0.25322442923E+01  0.36279744838E+01  0.51100000000E-03 0. -1.
         12    1    3    3    0    0  0.31505585437E+01  0.25828504492E+01 -0.42580020621E+01  0.58930227507E+01  0.00000000000E+00 0. -1.
</event>
<event>
 7    1  0.3435408E-009  0.4614232E+02  0.7816164E-02  0.1320468E+00
        -11   -1    0    0    0    0  0.00000000000E+00  0.00000000000E+00  0.45593999997E+02  0.45594000000E+02  0.51100000000E-03 0.  1.
         11   -1    0    0    0    0 -0.00000000000E+00 -0.00000000000E+00 -0.45593999997E+02  0.45594000000E+02  0.51100000000E-03 0. -1.
    9900012    2    1    2    0    0  0.25027914189E+02 -0.36306130829E+02 -0.91968399794E+01  0.46142317743E+02  0.99999998312E+01 0.  0.
        -12    1    1    2    0    0 -0.25027914189E+02  0.36306130829E+02  0.91968399794E+01  0.45045682257E+02  0.00000000000E+00 0.  1.
         11    1    3    3    0    0  0.94237054943E+01 -0.87671329949E+01 -0.19770639331E+01  0.13022197520E+02  0.51100000000E-03 0.  1.
        -11    1    3    3    0    0  0.62234732413E+01 -0.57279153519E+01 -0.31792758669E+01  0.90359520120E+01  0.51100000000E-03 0. -1.
         12    1    3    3    0    0  0.93807354532E+01 -0.21811082482E+02 -0.40405001794E+01  0.24084168211E+02  0.00000000000E+00 0. -1.
</event>
<event>
 7    1  0.3435408E-009  0.4614232E+02  0.7816164E-02  0.1320468E+00
        -11   -1    0    0    0    0  0.00000000000E+00  0.00000000000E+00  0.45593999997E+02  0.45594000000E+02  0.51100000000E-03 0.  1.
         11   -1    0    0    0    0 -0.00000000000E+00 -0.00000000000E+00 -0.45593999997E+02  0.45594000000E+02  0.51100000000E-03 0. -1.
    9900012    2    1    2    0    0 -0.39971908955E+02  0.91057029373E+01 -0.18666711020E+02  0.46142318389E+02  0.10000005727E+02 0.  0.
        -12    1    1    2    0    0  0.39971908955E+02 -0.91057029373E+01  0.18666711020E+02  0.45045681611E+02  0.00000000000E+00 0.  1.
         11    1    3    3    0    0 -0.14063771264E+02  0.59273078102E+01 -0.68926024363E+01  0.16746062482E+02  0.51100000000E-03 0. -1.
        -11    1    3    3    0    0 -0.11752624614E+02 -0.18740760313E+01 -0.49510506652E+01  0.12889889419E+02  0.51100000000E-03 0.  1.
        -12    1    3    3    0    0 -0.14155513077E+02  0.50524711584E+01 -0.68230579187E+01  0.16506366488E+02  0.00000000000E+00 0.  1.
</event>
<event>
 7    1  0.3435408E-009  0.4614232E+02  0.7816164E-02  0.1320468E+00
        -11   -1    0    0    0    0  0.00000000000E+00  0.00000000000E+00  0.45593999997E+02  0.45594000000E+02  0.51100000000E-03 0.  1.
         11   -1    0    0    0    0 -0.00000000000E+00 -0.00000000000E+00 -0.45593999997E+02  0.45594000000E+02  0.51100000000E-03 0. -1.
    9900012    2    1    2    0    0  0.43538532690E+02 -0.11486207956E+02 -0.12556642530E+01  0.46142317691E+02  0.99999993588E+01 0.  0.
        -12    1    1    2    0    0 -0.43538532690E+02  0.11486207956E+02  0.12556642530E+01  0.45045682309E+02  0.00000000000E+00 0.  1.
         11    1    3    3    0    0  0.50942374153E+01 -0.29608822697E+01  0.52772593475E+00  0.59157901908E+01  0.51100000000E-03 0. -1.
        -11    1    3    3    0    0  0.19345823621E+01 -0.19059059743E+01 -0.15375956065E+01  0.31207830763E+01  0.51100000000E-03 0.  1.
        -12    1    3    3    0    0  0.36509712912E+02 -0.66194197124E+01 -0.24579458129E+00  0.37105744424E+02  0.00000000000E+00 0.  1.
</event>
<event>
 7    1  0.3435408E-009  0.4614232E+02  0.7816164E-02  0.1320468E+00
        -11   -1    0    0    0    0  0.00000000000E+00  0.00000000000E+00  0.45593999997E+02  0.45594000000E+02  0.51100000000E-03 0. -1.
         11   -1    0    0    0    0 -0.00000000000E+00 -0.00000000000E+00 -0.45593999997E+02  0.45594000000E+02  0.51100000000E-03 0.  1.
    9900012    2    1    2    0    0  0.89621829389E+01  0.15266968436E+02  0.41421158860E+02  0.46142318192E+02  0.10000003933E+02 0.  0.
        -12    1    1    2    0    0 -0.89621829389E+01 -0.15266968436E+02 -0.41421158860E+02  0.45045681808E+02  0.00000000000E+00 0.  1.
         11    1    3    3    0    0  0.53650353572E+01  0.37053482531E+01  0.18950618664E+02  0.20040937056E+02  0.51100000000E-03 0. -1.
        -11    1    3    3    0    0  0.38846649480E+01  0.35869335808E+01  0.84015260520E+01  0.99268501820E+01  0.51100000000E-03 0.  1.
        -12    1    3    3    0    0 -0.28751736641E+00  0.79746866018E+01  0.14069014143E+02  0.16174530955E+02  0.00000000000E+00 0.  1.
</event>
<event>
 7    1  0.3435408E-009  0.4614232E+02  0.7816164E-02  0.1320468E+00
        -11   -1    0    0    0    0  0.00000000000E+00  0.00000000000E+00  0.45593999997E+02  0.45594000000E+02  0.51100000000E-03 0.  1.
         11   -1    0    0    0    0 -0.00000000000E+00 -0.00000000000E+00 -0.45593999997E+02  0.45594000000E+02  0.51100000000E-03 0. -1.
    9900012    2    1    2    0    0  0.28466895233E+02  0.27214697249E+02 -0.21865718191E+02  0.46142317604E+02  0.99999985649E+01 0.  0.
        -12    1    1    2    0    0 -0.28466895233E+02 -0.27214697249E+02  0.21865718191E+02  0.45045682396E+02  0.00000000000E+00 0.  1.
         11    1    3    3    0    0  0.75110829224E+01  0.66519833010E+01 -0.80474122462E+01  0.12861807518E+02  0.51100000000E-03 0. -1.
        -11    1    3    3    0    0  0.13213796525E+02  0.77915598047E+01 -0.68252236954E+01  0.16789773719E+02  0.51100000000E-03 0.  1.
        -12    1    3    3    0    0  0.77420157859E+01  0.12771154143E+02 -0.69930822492E+01  0.16490736367E+02  0.00000000000E+00 0.  1.
</event>
<event>
 7    1  0.3435408E-009  0.4614232E+02  0.7816164E-02  0.1320468E+00
        -11   -1    0    0    0    0  0.00000000000E+00  0.00000000000E+00  0.45593999997E+02  0.45594000000E+02  0.51100000000E-03 0.  1.
         11   -1    0    0    0    0 -0.00000000000E+00 -0.00000000000E+00 -0.45593999997E+02  0.45594000000E+02  0.51100000000E-03 0. -1.
    9900012    2    1    2    0    0  0.22769106019E+02 -0.37524747637E+02 -0.10127881264E+02  0.46142324813E+02  0.10000064308E+02 0.  0.
        -12    1    1    2    0    0 -0.22769106019E+02  0.37524747637E+02  0.10127881264E+02  0.45045675187E+02  0.00000000000E+00 0.  1.
         11    1    3    3    0    0  0.91488859784E+01 -0.15521978780E+02 -0.15083484788E+01  0.18080626518E+02  0.51100000000E-03 0. -1.
        -11    1    3    3    0    0  0.34969643004E+01 -0.96545752328E+01 -0.84763578709E+00  0.10303303787E+02  0.51100000000E-03 0.  1.
         12    1    3    3    0    0  0.10123255740E+02 -0.12348193625E+02 -0.77718969979E+01  0.17758394508E+02  0.00000000000E+00 0. -1.
</event>
<event>
 7    1  0.3435408E-009  0.4614232E+02  0.7816164E-02  0.1320468E+00
        -11   -1    0    0    0    0  0.00000000000E+00  0.00000000000E+00  0.45593999997E+02  0.45594000000E+02  0.51100000000E-03 0.  1.
         11   -1    0    0    0    0 -0.00000000000E+00 -0.00000000000E+00 -0.45593999997E+02  0.45594000000E+02  0.51100000000E-03 0. -1.
    9900012    2    1    2    0    0 -0.21390690016E+02  0.94800361737E+01 -0.38492606625E+02  0.46142317965E+02  0.10000001857E+02 0.  0.
        -12    1    1    2    0    0  0.21390690016E+02 -0.94800361737E+01  0.38492606625E+02  0.45045682035E+02  0.00000000000E+00 0.  1.
         11    1    3    3    0    0 -0.10610213016E+02  0.40441097984E+01 -0.11757073793E+02  0.16345036823E+02  0.51100000000E-03 0. -1.
        -11    1    3    3    0    0 -0.10816488122E+01  0.22683829369E+01 -0.89170081017E+01  0.92643704076E+01  0.51100000000E-03 0.  1.
         12    1    3    3    0    0 -0.96988281880E+01  0.31675434384E+01 -0.17818524731E+02  0.20532910734E+02  0.00000000000E+00 0. -1.
</event>
<event>
 7    1  0.3435408E-009  0.4614232E+02  0.7816164E-02  0.1320468E+00
        -11   -1    0    0    0    0  0.00000000000E+00  0.00000000000E+00  0.45593999997E+02  0.45594000000E+02  0.51100000000E-03 0.  1.
         11   -1    0    0    0    0 -0.00000000000E+00 -0.00000000000E+00 -0.45593999997E+02  0.45594000000E+02  0.51100000000E-03 0. -1.
    9900012    2    1    2    0    0  0.31802741001E+01 -0.42896882997E+02  0.13373731236E+02  0.46142318727E+02  0.10000008804E+02 0.  0.
        -12    1    1    2    0    0 -0.31802741001E+01  0.42896882997E+02 -0.13373731236E+02  0.45045681273E+02  0.00000000000E+00 0.  1.
         11    1    3    3    0    0  0.12684864508E+01 -0.11042853887E+02  0.37059204543E+01  0.11716975997E+02  0.51100000000E-03 0. -1.
        -11    1    3    3    0    0 -0.15033305077E+00 -0.16003096365E+02  0.52847724702E+00  0.16012525777E+02  0.51100000000E-03 0.  1.
        -12    1    3    3    0    0  0.20621207001E+01 -0.15850932745E+02  0.91393335345E+01  0.18412816953E+02  0.00000000000E+00 0.  1.
</event>
<event>
 7    1  0.3435408E-009  0.4614232E+02  0.7816164E-02  0.1320468E+00
        -11   -1    0    0    0    0  0.00000000000E+00  0.00000000000E+00  0.45593999997E+02  0.45594000000E+02  0.51100000000E-03 0. -1.
         11   -1    0    0    0    0 -0.00000000000E+00 -0.00000000000E+00 -0.45593999997E+02  0.45594000000E+02  0.51100000000E-03 0.  1.
    9900012    2    1    2    0    0 -0.35507179061E+02  0.53467222294E+01  0.27198644641E+02  0.46142317923E+02  0.10000001475E+02 0.  0.
        -12    1    1    2    0    0  0.35507179061E+02 -0.53467222294E+01 -0.27198644641E+02  0.45045682077E+02  0.00000000000E+00 0.  1.
         11    1    3    3    0    0 -0.18344110508E+02  0.55023842081E+01  0.16344094759E+02  0.25177610214E+02  0.51100000000E-03 0. -1.
        -11    1    3    3    0    0 -0.61832504807E+01  0.19553354088E+01  0.22790510039E+01  0.68738633103E+01  0.51100000000E-03 0.  1.
        -12    1    3    3    0    0 -0.10979818073E+02 -0.21109973876E+01  0.85754988777E+01  0.14090844399E+02  0.00000000000E+00 0.  1.
</event>
<event>
 7    1  0.3435408E-009  0.4614232E+02  0.7816164E-02  0.1320468E+00
        -11   -1    0    0    0    0  0.00000000000E+00  0.00000000000E+00  0.45593999997E+02  0.45594000000E+02  0.51100000000E-03 0.  1.
         11   -1    0    0    0    0 -0.00000000000E+00 -0.00000000000E+00 -0.45593999997E+02  0.45594000000E+02  0.51100000000E-03 0. -1.
    9900012    2    1    2    0    0 -0.12628335194E+02  0.23362059421E+02 -0.36384789265E+02  0.46142316966E+02  0.99999927476E+01 0.  0.
        -12    1    1    2    0    0  0.12628335194E+02 -0.23362059421E+02  0.36384789265E+02  0.45045683034E+02  0.00000000000E+00 0.  1.
         11    1    3    3    0    0 -0.28430153013E+01  0.14955348183E+02 -0.19894821067E+02  0.25050929739E+02  0.51100000000E-03 0. -1.
        -11    1    3    3    0    0 -0.79437864533E+01  0.74514018939E+01 -0.15000082678E+02  0.18537249365E+02  0.51100000000E-03 0.  1.
        -12    1    3    3    0    0 -0.18415334399E+01  0.95530934452E+00 -0.14898855201E+01  0.25541378618E+01  0.00000000000E+00 0.  1.
</event>
<event>
 7    1  0.3435408E-009  0.4614232E+02  0.7816164E-02  0.1320468E+00
        -11   -1    0    0    0    0  0.00000000000E+00  0.00000000000E+00  0.45593999997E+02  0.45594000000E+02  0.51100000000E-03 0. -1.
         11   -1    0    0    0    0 -0.00000000000E+00 -0.00000000000E+00 -0.45593999997E+02  0.45594000000E+02  0.51100000000E-03 0.  1.
    9900012    2    1    2    0    0 -0.36809484152E+02  0.24549695631E+02  0.84550448904E+01  0.46142318040E+02  0.10000002543E+02 0.  0.
        -12    1    1    2    0    0  0.36809484152E+02 -0.24549695631E+02 -0.84550448904E+01  0.45045681960E+02  0.00000000000E+00 0.  1.
         11    1    3    3    0    0 -0.15693115136E+02  0.95970694115E+01  0.57858048733E+01  0.19283494036E+02  0.51100000000E-03 0. -1.
        -11    1    3    3    0    0 -0.14211783984E+02  0.81986470945E+01 -0.12069069347E+01  0.16451420692E+02  0.51100000000E-03 0.  1.
        -12    1    3    3    0    0 -0.69045850332E+01  0.67539791251E+01  0.38761469519E+01  0.10407403312E+02  0.00000000000E+00 0.  1.
</event>
<event>
 7    1  0.3435408E-009  0.4614231E+02  0.7816164E-02  0.1320468E+00
        -11   -1    0    0    0    0  0.00000000000E+00  0.00000000000E+00  0.45593999997E+02  0.45594000000E+02  0.51100000000E-03 0.  1.
         11   -1    0    0    0    0 -0.00000000000E+00 -0.00000000000E+00 -0.45593999997E+02  0.45594000000E+02  0.51100000000E-03 0. -1.
    9900012    2    1    2    0    0 -0.13718641968E+02 -0.35961549017E+01 -0.42754890553E+02  0.46142310597E+02  0.99999346745E+01 0.  0.
        -12    1    1    2    0    0  0.13718641968E+02  0.35961549017E+01  0.42754890553E+02  0.45045689403E+02  0.00000000000E+00 0.  1.
         11    1    3    3    0    0 -0.27906124973E+00 -0.26899219073E+01 -0.14984588412E+02  0.15226668880E+02  0.51100000000E-03 0. -1.
        -11    1    3    3    0    0 -0.81355011022E+01 -0.10733149264E+01 -0.18401752410E+02  0.20148520420E+02  0.51100000000E-03 0.  1.
         12    1    3    3    0    0 -0.53040796162E+01  0.16708193203E+00 -0.93685497322E+01  0.10767121297E+02  0.00000000000E+00 0. -1.
</event>
<event>
 7    1  0.3435408E-009  0.4614232E+02  0.7816164E-02  0.1320468E+00
        -11   -1    0    0    0    0  0.00000000000E+00  0.00000000000E+00  0.45593999997E+02  0.45594000000E+02  0.51100000000E-03 0.  1.
         11   -1    0    0    0    0 -0.00000000000E+00 -0.00000000000E+00 -0.45593999997E+02  0.45594000000E+02  0.51100000000E-03 0. -1.
    9900012    2    1    2    0    0 -0.66838912679E+01  0.44296577721E+02  0.47172187725E+01  0.46142319261E+02  0.10000013679E+02 0.  0.
        -12    1    1    2    0    0  0.66838912679E+01 -0.44296577721E+02 -0.47172187725E+01  0.45045680739E+02  0.00000000000E+00 0.  1.
         11    1    3    3    0    0 -0.29863684008E+01  0.47485379368E+01  0.56463061711E+00  0.56378911622E+01  0.51100000000E-03 0. -1.
        -11    1    3    3    0    0 -0.11863140405E+01  0.94662724183E+01 -0.18731822395E+01  0.97224722403E+01  0.51100000000E-03 0.  1.
         12    1    3    3    0    0 -0.25112088266E+01  0.30081767366E+02  0.60257703949E+01  0.30781955859E+02  0.00000000000E+00 0. -1.
</event>
<event>
 7    1  0.3435408E-009  0.4614232E+02  0.7816164E-02  0.1320468E+00
        -11   -1    0    0    0    0  0.00000000000E+00  0.00000000000E+00  0.45593999997E+02  0.45594000000E+02  0.51100000000E-03 0.  1.
         11   -1    0    0    0    0 -0.00000000000E+00 -0.00000000000E+00 -0.45593999997E+02  0.45594000000E+02  0.51100000000E-03 0. -1.
    9900012    2    1    2    0    0  0.32588898883E+02 -0.14296437577E+02 -0.27616825863E+02  0.46142317315E+02  0.99999959333E+01 0.  0.
        -12    1    1    2    0    0 -0.32588898883E+02  0.14296437577E+02  0.27616825863E+02  0.45045682685E+02  0.00000000000E+00 0.  1.
         11    1    3    3    0    0  0.18922798007E+02 -0.80853784955E+01 -0.20030326618E+02  0.28716887270E+02  0.51100000000E-03 0. -1.
        -11    1    3    3    0    0  0.12789422418E+02 -0.50318603058E+01 -0.53475578396E+01  0.14747383464E+02  0.51100000000E-03 0.  1.
         12    1    3    3    0    0  0.87667845833E+00 -0.11791987753E+01 -0.22389414060E+01  0.26780465810E+01  0.00000000000E+00 0. -1.
</event>
<event>
 7    1  0.3435408E-009  0.4614232E+02  0.7816164E-02  0.1320468E+00
        -11   -1    0    0    0    0  0.00000000000E+00  0.00000000000E+00  0.45593999997E+02  0.45594000000E+02  0.51100000000E-03 0.  1.
         11   -1    0    0    0    0 -0.00000000000E+00 -0.00000000000E+00 -0.45593999997E+02  0.45594000000E+02  0.51100000000E-03 0. -1.
    9900012    2    1    2    0    0 -0.17181203324E+02 -0.26310278908E+01 -0.41557155030E+02  0.46142321077E+02  0.10000030235E+02 0.  0.
        -12    1    1    2    0    0  0.17181203324E+02  0.26310278908E+01  0.41557155030E+02  0.45045678923E+02  0.00000000000E+00 0.  1.
         11    1    3    3    0    0 -0.13973587275E+02 -0.86670751155E+00 -0.28692173549E+02  0.31925744259E+02  0.51100000000E-03 0. -1.
        -11    1    3    3    0    0 -0.86517870709E+00 -0.25265563587E+01 -0.28608315948E+01  0.39136145574E+01  0.51100000000E-03 0.  1.
         12    1    3    3    0    0 -0.23424373418E+01  0.76223597941E+00 -0.10004149887E+02  0.10302962260E+02  0.00000000000E+00 0. -1.
</event>
<event>
 7    1  0.3435408E-009  0.4614232E+02  0.7816164E-02  0.1320468E+00
        -11   -1    0    0    0    0  0.00000000000E+00  0.00000000000E+00  0.45593999997E+02  0.45594000000E+02  0.51100000000E-03 0. -1.
         11   -1    0    0    0    0 -0.00000000000E+00 -0.00000000000E+00 -0.45593999997E+02  0.45594000000E+02  0.51100000000E-03 0.  1.
    9900012    2    1    2    0    0  0.34690564552E+02  0.81234612855E+01  0.27562432858E+02  0.46142316553E+02  0.99999889822E+01 0.  0.
        -12    1    1    2    0    0 -0.34690564552E+02 -0.81234612855E+01 -0.27562432858E+02  0.45045683447E+02  0.00000000000E+00 0.  1.
         11    1    3    3    0    0  0.25192469977E+02  0.69015898608E+01  0.14456110097E+02  0.29854172330E+02  0.51100000000E-03 0. -1.
        -11    1    3    3    0    0  0.33070072409E+00  0.29511798141E+00  0.80039122895E+00  0.91492293247E+00  0.51100000000E-03 0.  1.
         12    1    3    3    0    0  0.91673938511E+01  0.92675344329E+00  0.12305931532E+02  0.15373221290E+02  0.00000000000E+00 0. -1.
</event>
<event>
 7    1  0.3435408E-009  0.4614232E+02  0.7816164E-02  0.1320468E+00
        -11   -1    0    0    0    0  0.00000000000E+00  0.00000000000E+00  0.45593999997E+02  0.45594000000E+02  0.51100000000E-03 0. -1.
         11   -1    0    0    0    0 -0.00000000000E+00 -0.00000000000E+00 -0.45593999997E+02  0.45594000000E+02  0.51100000000E-03 0.  1.
    9900012    2    1    2    0    0 -0.29426263695E+02  0.18405394533E+02  0.28713240029E+02  0.46142315457E+02  0.99999789879E+01 0.  0.
        -12    1    1    2    0    0  0.29426263695E+02 -0.18405394533E+02 -0.28713240029E+02  0.45045684543E+02  0.00000000000E+00 0.  1.
         11    1    3    3    0    0 -0.13091529674E+02  0.10282687996E+02  0.15472311701E+02  0.22726949890E+02  0.51100000000E-03 0. -1.
        -11    1    3    3    0    0 -0.54317101055E+01  0.94720468139E+00  0.71030016538E+01  0.89918465364E+01  0.51100000000E-03 0.  1.
        -12    1    3    3    0    0 -0.10903023916E+02  0.71755018552E+01  0.61379266743E+01  0.14423519031E+02  0.00000000000E+00 0.  1.
</event>
<event>
 7    1  0.3435408E-009  0.4614232E+02  0.7816164E-02  0.1320468E+00
        -11   -1    0    0    0    0  0.00000000000E+00  0.00000000000E+00  0.45593999997E+02  0.45594000000E+02  0.51100000000E-03 0.  1.
         11   -1    0    0    0    0 -0.00000000000E+00 -0.00000000000E+00 -0.45593999997E+02  0.45594000000E+02  0.51100000000E-03 0. -1.
    9900012    2    1    2    0    0  0.14938224640E+02 -0.14269097748E+02 -0.40029436008E+02  0.46142318153E+02  0.10000003572E+02 0.  0.
        -12    1    1    2    0    0 -0.14938224640E+02  0.14269097748E+02  0.40029436008E+02  0.45045681847E+02  0.00000000000E+00 0.  1.
         11    1    3    3    0    0  0.11215786485E+02 -0.10269847248E+02 -0.28705903224E+02  0.32485266032E+02  0.51100000000E-03 0. -1.
        -11    1    3    3    0    0  0.65920342899E+00 -0.43274995876E+01 -0.51613739056E+01  0.67676866577E+01  0.51100000000E-03 0.  1.
        -12    1    3    3    0    0  0.30632347263E+01  0.32824908686E+00 -0.61621588782E+01  0.68893654636E+01  0.00000000000E+00 0.  1.
</event>
<event>
 7    1  0.3435408E-009  0.4614232E+02  0.7816164E-02  0.1320468E+00
        -11   -1    0    0    0    0  0.00000000000E+00  0.00000000000E+00  0.45593999997E+02  0.45594000000E+02  0.51100000000E-03 0. -1.
         11   -1    0    0    0    0 -0.00000000000E+00 -0.00000000000E+00 -0.45593999997E+02  0.45594000000E+02  0.51100000000E-03 0.  1.
    9900012    2    1    2    0    0 -0.19478651352E+02  0.25494658065E+02  0.31618318028E+02  0.46142317818E+02  0.10000000519E+02 0.  0.
        -12    1    1    2    0    0  0.19478651352E+02 -0.25494658065E+02 -0.31618318028E+02  0.45045682182E+02  0.00000000000E+00 0.  1.
         11    1    3    3    0    0 -0.69721768293E+01  0.12106403235E+02  0.14628178131E+02  0.20227699936E+02  0.51100000000E-03 0. -1.
        -11    1    3    3    0    0  0.48620203907E+00  0.21088641907E+01  0.85495048717E+00  0.23269381586E+01  0.51100000000E-03 0.  1.
        -12    1    3    3    0    0 -0.12992676561E+02  0.11279390640E+02  0.16135189410E+02  0.23587679723E+02  0.00000000000E+00 0.  1.
</event>
<event>
 7    1  0.3435408E-009  0.4614232E+02  0.7816164E-02  0.1320468E+00
        -11   -1    0    0    0    0  0.00000000000E+00  0.00000000000E+00  0.45593999997E+02  0.45594000000E+02  0.51100000000E-03 0.  1.
         11   -1    0    0    0    0 -0.00000000000E+00 -0.00000000000E+00 -0.45593999997E+02  0.45594000000E+02  0.51100000000E-03 0. -1.
    9900012    2    1    2    0    0  0.43047271772E+01 -0.15976493857E+02 -0.41896712116E+02  0.46142317431E+02  0.99999969866E+01 0.  0.
        -12    1    1    2    0    0 -0.43047271772E+01  0.15976493857E+02  0.41896712116E+02  0.45045682569E+02  0.00000000000E+00 0.  1.
         11    1    3    3    0    0 -0.23992195272E-01 -0.98375468993E+01 -0.31643696972E+02  0.33137614020E+02  0.51100000000E-03 0. -1.
        -11    1    3    3    0    0  0.19513107989E+01 -0.10450117234E+01 -0.41761322662E+01  0.47264938698E+01  0.51100000000E-03 0.  1.
        -12    1    3    3    0    0  0.23774085736E+01 -0.50939352339E+01 -0.60768828776E+01  0.82782095408E+01  0.00000000000E+00 0.  1.
</event>
<event>
 7    1  0.3435408E-009  0.4614232E+02  0.7816164E-02  0.1320468E+00
        -11   -1    0    0    0    0  0.00000000000E+00  0.00000000000E+00  0.45593999997E+02  0.45594000000E+02  0.51100000000E-03 0. -1.
         11   -1    0    0    0    0 -0.00000000000E+00 -0.00000000000E+00 -0.45593999997E+02  0.45594000000E+02  0.51100000000E-03 0.  1.
    9900012    2    1    2    0    0 -0.15628784004E+02 -0.78716638152E+01  0.41507728304E+02  0.46142317747E+02  0.99999998742E+01 0.  0.
        -12    1    1    2    0    0  0.15628784004E+02  0.78716638152E+01 -0.41507728304E+02  0.45045682253E+02  0.00000000000E+00 0.  1.
         11    1    3    3    0    0 -0.10705085314E+02 -0.79845738322E+01  0.24424950506E+02  0.27837573140E+02  0.51100000000E-03 0. -1.
        -11    1    3    3    0    0  0.52953150624E+00 -0.85576994090E+00  0.33247448852E+01  0.34737119369E+01  0.51100000000E-03 0.  1.
         12    1    3    3    0    0 -0.54532301968E+01  0.96867995797E+00  0.13758032913E+02  0.14831032670E+02  0.00000000000E+00 0. -1.
</event>
<event>
 7    1  0.3435408E-009  0.4614232E+02  0.7816164E-02  0.1320468E+00
        -11   -1    0    0    0    0  0.00000000000E+00  0.00000000000E+00  0.45593999997E+02  0.45594000000E+02  0.51100000000E-03 0.  1.
         11   -1    0    0    0    0 -0.00000000000E+00 -0.00000000000E+00 -0.45593999997E+02  0.45594000000E+02  0.51100000000E-03 0. -1.
    9900012    2    1    2    0    0  0.74754875110E+01  0.44321530478E+02 -0.29719488116E+01  0.46142318107E+02  0.10000003153E+02 0.  0.
        -12    1    1    2    0    0 -0.74754875110E+01 -0.44321530478E+02  0.29719488116E+01  0.45045681893E+02  0.00000000000E+00 0.  1.
         11    1    3    3    0    0  0.14757675898E+01  0.24400603365E+02 -0.25669488841E+01  0.24579596445E+02  0.51100000000E-03 0. -1.
        -11    1    3    3    0    0  0.64759694304E+01  0.14225836352E+02 -0.16385103781E+01  0.15716148272E+02  0.51100000000E-03 0.  1.
         12    1    3    3    0    0 -0.47624950918E+00  0.56950907610E+01  0.12335104506E+01  0.58465733899E+01  0.00000000000E+00 0. -1.
</event>
<event>
 7    1  0.3435408E-009  0.4614232E+02  0.7816164E-02  0.1320468E+00
        -11   -1    0    0    0    0  0.00000000000E+00  0.00000000000E+00  0.45593999997E+02  0.45594000000E+02  0.51100000000E-03 0.  1.
         11   -1    0    0    0    0 -0.00000000000E+00 -0.00000000000E+00 -0.45593999997E+02  0.45594000000E+02  0.51100000000E-03 0. -1.
    9900012    2    1    2    0    0  0.79627253002E+01  0.37811555991E+02 -0.23151558408E+02  0.46142318549E+02  0.10000007183E+02 0.  0.
        -12    1    1    2    0    0 -0.79627253002E+01 -0.37811555991E+02  0.23151558408E+02  0.45045681451E+02  0.00000000000E+00 0.  1.
         11    1    3    3    0    0  0.21282143540E+01  0.59302800467E+01 -0.18390624687E+01  0.65635104018E+01  0.51100000000E-03 0.  1.
        -11    1    3    3    0    0 -0.51014487470E+00  0.89412452397E+01 -0.26689278880E+01  0.93450142087E+01  0.51100000000E-03 0. -1.
         12    1    3    3    0    0  0.63446558209E+01  0.22940030705E+02 -0.18643568051E+02  0.30233793938E+02  0.00000000000E+00 0. -1.
</event>
<event>
 7    1  0.3435408E-009  0.4614232E+02  0.7816164E-02  0.1320468E+00
        -11   -1    0    0    0    0  0.00000000000E+00  0.00000000000E+00  0.45593999997E+02  0.45594000000E+02  0.51100000000E-03 0.  1.
         11   -1    0    0    0    0 -0.00000000000E+00 -0.00000000000E+00 -0.45593999997E+02  0.45594000000E+02  0.51100000000E-03 0. -1.
    9900012    2    1    2    0    0  0.27296932798E+02 -0.70828866301E+01 -0.35125827680E+02  0.46142316595E+02  0.99999893701E+01 0.  0.
        -12    1    1    2    0    0 -0.27296932798E+02  0.70828866301E+01  0.35125827680E+02  0.45045683405E+02  0.00000000000E+00 0.  1.
         11    1    3    3    0    0  0.79861767183E+01 -0.24614054832E+01 -0.13408551039E+02  0.15799581538E+02  0.51100000000E-03 0. -1.
        -11    1    3    3    0    0  0.58337486539E+01 -0.85341096700E+00 -0.21271553170E+01  0.62678324514E+01  0.51100000000E-03 0.  1.
        -12    1    3    3    0    0  0.13477007426E+02 -0.37680701799E+01 -0.19590121323E+02  0.24074902606E+02  0.00000000000E+00 0.  1.
</event>
<event>
 7    1  0.3435408E-009  0.4614232E+02  0.7816164E-02  0.1320468E+00
        -11   -1    0    0    0    0  0.00000000000E+00  0.00000000000E+00  0.45593999997E+02  0.45594000000E+02  0.51100000000E-03 0.  1.
         11   -1    0    0    0    0 -0.00000000000E+00 -0.00000000000E+00 -0.45593999997E+02  0.45594000000E+02  0.51100000000E-03 0. -1.
    9900012    2    1    2    0    0 -0.12159830826E+02 -0.86916942796E+01 -0.42493604499E+02  0.46142318093E+02  0.10000003026E+02 0.  0.
        -12    1    1    2    0    0  0.12159830826E+02  0.86916942796E+01  0.42493604499E+02  0.45045681907E+02  0.00000000000E+00 0.  1.
         11    1    3    3    0    0 -0.15123884332E+01 -0.26472223095E+01 -0.20047631126E+02  0.20278131540E+02  0.51100000000E-03 0. -1.
        -11    1    3    3    0    0 -0.14569437392E+01 -0.19087004237E+01 -0.22377044603E+01  0.32822467731E+01  0.51100000000E-03 0.  1.
         12    1    3    3    0    0 -0.91904986534E+01 -0.41357715464E+01 -0.20208268913E+02  0.22581939780E+02  0.00000000000E+00 0. -1.
</event>
<event>
 7    1  0.3435408E-009  0.4614232E+02  0.7816164E-02  0.1320468E+00
        -11   -1    0    0    0    0  0.00000000000E+00  0.00000000000E+00  0.45593999997E+02  0.45594000000E+02  0.51100000000E-03 0.  1.
         11   -1    0    0    0    0 -0.00000000000E+00 -0.00000000000E+00 -0.45593999997E+02  0.45594000000E+02  0.51100000000E-03 0. -1.
    9900012    2    1    2    0    0  0.23563307396E+02 -0.99867282509E+01 -0.37069519695E+02  0.46142317776E+02  0.10000000139E+02 0.  0.
        -12    1    1    2    0    0 -0.23563307396E+02  0.99867282509E+01  0.37069519695E+02  0.45045682224E+02  0.00000000000E+00 0.  1.
         11    1    3    3    0    0  0.13889510134E+02 -0.44784022177E+01 -0.23067297320E+02  0.27296058032E+02  0.51100000000E-03 0. -1.
        -11    1    3    3    0    0  0.48905172961E+01 -0.60848155150E+00 -0.26677344616E+01  0.56039465237E+01  0.51100000000E-03 0.  1.
        -12    1    3    3    0    0  0.47832799662E+01 -0.48998444817E+01 -0.11334487913E+02  0.13242313220E+02  0.00000000000E+00 0.  1.
</event>
<event>
 7    1  0.3435408E-009  0.4614232E+02  0.7816164E-02  0.1320468E+00
        -11   -1    0    0    0    0  0.00000000000E+00  0.00000000000E+00  0.45593999997E+02  0.45594000000E+02  0.51100000000E-03 0.  1.
         11   -1    0    0    0    0 -0.00000000000E+00 -0.00000000000E+00 -0.45593999997E+02  0.45594000000E+02  0.51100000000E-03 0. -1.
    9900012    2    1    2    0    0  0.16707655923E+02 -0.10080978704E+02 -0.40599771830E+02  0.46142319067E+02  0.10000011906E+02 0.  0.
        -12    1    1    2    0    0 -0.16707655923E+02  0.10080978704E+02  0.40599771830E+02  0.45045680933E+02  0.00000000000E+00 0.  1.
         11    1    3    3    0    0  0.88368286233E+01 -0.33863913236E+01 -0.11066090155E+02  0.14560753342E+02  0.51100000000E-03 0. -1.
        -11    1    3    3    0    0  0.22230827769E+01  0.11133525289E+00 -0.42830900347E+01  0.48269403433E+01  0.51100000000E-03 0.  1.
         12    1    3    3    0    0  0.56477445231E+01 -0.68059226328E+01 -0.25250591641E+02  0.26754625381E+02  0.00000000000E+00 0. -1.
</event>
<event>
 7    1  0.3435408E-009  0.4614232E+02  0.7816164E-02  0.1320468E+00
        -11   -1    0    0    0    0  0.00000000000E+00  0.00000000000E+00  0.45593999997E+02  0.45594000000E+02  0.51100000000E-03 0.  1.
         11   -1    0    0    0    0 -0.00000000000E+00 -0.00000000000E+00 -0.45593999997E+02  0.45594000000E+02  0.51100000000E-03 0. -1.
    9900012    2    1    2    0    0  0.40960328637E+02  0.14421215112E+01 -0.18689179792E+02  0.46142315658E+02  0.99999808230E+01 0.  0.
        -12    1    1    2    0    0 -0.40960328637E+02 -0.14421215112E+01  0.18689179792E+02  0.45045684342E+02  0.00000000000E+00 0.  1.
         11    1    3    3    0    0  0.20727838932E+02  0.31535550054E+01 -0.90975224835E+01  0.22855046085E+02  0.51100000000E-03 0. -1.
        -11    1    3    3    0    0  0.16919091045E+02 -0.36711195942E+01 -0.71660452441E+01  0.18737261421E+02  0.51100000000E-03 0.  1.
         12    1    3    3    0    0  0.33133986608E+01  0.19596861000E+01 -0.24256120648E+01  0.45500081521E+01  0.00000000000E+00 0. -1.
</event>
<event>
 7    1  0.3435408E-009  0.4614232E+02  0.7816164E-02  0.1320468E+00
        -11   -1    0    0    0    0  0.00000000000E+00  0.00000000000E+00  0.45593999997E+02  0.45594000000E+02  0.51100000000E-03 0.  1.
         11   -1    0    0    0    0 -0.00000000000E+00 -0.00000000000E+00 -0.45593999997E+02  0.45594000000E+02  0.51100000000E-03 0. -1.
    9900012    2    1    2    0    0  0.97111616704E+01 -0.43971164345E+02  0.11591053573E+01  0.46142317853E+02  0.10000000837E+02 0.  0.
        -12    1    1    2    0    0 -0.97111616704E+01  0.43971164345E+02 -0.11591053573E+01  0.45045682147E+02  0.00000000000E+00 0.  1.
         11    1    3    3    0    0  0.48666073032E+01 -0.31524994338E+02  0.17939071048E+01  0.31948822163E+02  0.51100000000E-03 0. -1.
        -11    1    3    3    0    0  0.57890298073E+01 -0.99754797524E+01 -0.57011414577E+00  0.11547644470E+02  0.51100000000E-03 0.  1.
         12    1    3    3    0    0 -0.94447544007E+00 -0.24706902545E+01 -0.64687601744E-01  0.26458512196E+01  0.00000000000E+00 0. -1.
</event>
<event>
 7    1  0.3435408E-009  0.4614232E+02  0.7816164E-02  0.1320468E+00
        -11   -1    0    0    0    0  0.00000000000E+00  0.00000000000E+00  0.45593999997E+02  0.45594000000E+02  0.51100000000E-03 0.  1.
         11   -1    0    0    0    0 -0.00000000000E+00 -0.00000000000E+00 -0.45593999997E+02  0.45594000000E+02  0.51100000000E-03 0. -1.
    9900012    2    1    2    0    0  0.44601362691E+02  0.34344538942E+01  0.52949441075E+01  0.46142318070E+02  0.10000002819E+02 0.  0.
        -12    1    1    2    0    0 -0.44601362691E+02 -0.34344538942E+01 -0.52949441075E+01  0.45045681930E+02  0.00000000000E+00 0.  1.
         11    1    3    3    0    0  0.27288139868E+02  0.15065309473E+01  0.58877053773E+00  0.27336035996E+02  0.51100000000E-03 0. -1.
        -11    1    3    3    0    0  0.89239646360E+01  0.36501220797E+01  0.26350304754E+01  0.99951949400E+01  0.51100000000E-03 0.  1.
        -12    1    3    3    0    0  0.83892581862E+01 -0.17221991328E+01  0.20711430944E+01  0.88110871342E+01  0.00000000000E+00 0.  1.
</event>
<event>
 7    1  0.3435408E-009  0.4614232E+02  0.7816164E-02  0.1320468E+00
        -11   -1    0    0    0    0  0.00000000000E+00  0.00000000000E+00  0.45593999997E+02  0.45594000000E+02  0.51100000000E-03 0.  1.
         11   -1    0    0    0    0 -0.00000000000E+00 -0.00000000000E+00 -0.45593999997E+02  0.45594000000E+02  0.51100000000E-03 0. -1.
    9900012    2    1    2    0    0 -0.38679279609E+01  0.36250450460E+02  0.26458598064E+02  0.46142318334E+02  0.10000005220E+02 0.  0.
        -12    1    1    2    0    0  0.38679279609E+01 -0.36250450460E+02 -0.26458598064E+02  0.45045681666E+02  0.00000000000E+00 0.  1.
         11    1    3    3    0    0 -0.20750994067E+00  0.22759142395E+02  0.15775206256E+02  0.27692575821E+02  0.51100000000E-03 0. -1.
        -11    1    3    3    0    0 -0.16064341837E+01  0.56661963725E+01  0.79837243037E+01  0.99210012668E+01  0.51100000000E-03 0.  1.
        -12    1    3    3    0    0 -0.20539838365E+01  0.78251116919E+01  0.26996675051E+01  0.85287412453E+01  0.00000000000E+00 0.  1.
</event>
<event>
 7    1  0.3435408E-009  0.4614232E+02  0.7816164E-02  0.1320468E+00
        -11   -1    0    0    0    0  0.00000000000E+00  0.00000000000E+00  0.45593999997E+02  0.45594000000E+02  0.51100000000E-03 0.  1.
         11   -1    0    0    0    0 -0.00000000000E+00 -0.00000000000E+00 -0.45593999997E+02  0.45594000000E+02  0.51100000000E-03 0. -1.
    9900012    2    1    2    0    0  0.26559859213E+00 -0.20314647977E+01 -0.44999067784E+02  0.46142317707E+02  0.99999995067E+01 0.  0.
        -12    1    1    2    0    0 -0.26559859213E+00  0.20314647977E+01  0.44999067784E+02  0.45045682293E+02  0.00000000000E+00 0.  1.
         11    1    3    3    0    0 -0.22000444543E+01  0.44892918622E+00 -0.32384919064E+02  0.32462666496E+02  0.51100000000E-03 0. -1.
        -11    1    3    3    0    0  0.82963558751E+00 -0.33422805926E+01 -0.82580145797E+01  0.89472867300E+01  0.51100000000E-03 0.  1.
        -12    1    3    3    0    0  0.16360074589E+01  0.86188660876E+00 -0.43561341401E+01  0.47323644807E+01  0.00000000000E+00 0.  1.
</event>
<event>
 7    1  0.3435408E-009  0.4614232E+02  0.7816164E-02  0.1320468E+00
        -11   -1    0    0    0    0  0.00000000000E+00  0.00000000000E+00  0.45593999997E+02  0.45594000000E+02  0.51100000000E-03 0.  1.
         11   -1    0    0    0    0 -0.00000000000E+00 -0.00000000000E+00 -0.45593999997E+02  0.45594000000E+02  0.51100000000E-03 0. -1.
    9900012    2    1    2    0    0 -0.31164543603E+01 -0.12201450745E+02 -0.43249575548E+02  0.46142317930E+02  0.10000001544E+02 0.  0.
        -12    1    1    2    0    0  0.31164543603E+01  0.12201450745E+02  0.43249575548E+02  0.45045682070E+02  0.00000000000E+00 0.  1.
         11    1    3    3    0    0 -0.31533475195E+01 -0.23370791866E+01 -0.14385608598E+02  0.14911447773E+02  0.51100000000E-03 0. -1.
        -11    1    3    3    0    0  0.13932586902E+01  0.48828893233E+00 -0.31939968005E+01  0.35186945991E+01  0.51100000000E-03 0.  1.
        -12    1    3    3    0    0 -0.13563655310E+01 -0.10352660491E+02 -0.25669970149E+02  0.27712175558E+02  0.00000000000E+00 0.  1.
</event>
<event>
 7    1  0.3435408E-009  0.4614232E+02  0.7816164E-02  0.1320468E+00
        -11   -1    0    0    0    0  0.00000000000E+00  0.00000000000E+00  0.45593999997E+02  0.45594000000E+02  0.51100000000E-03 0. -1.
         11   -1    0    0    0    0 -0.00000000000E+00 -0.00000000000E+00 -0.45593999997E+02  0.45594000000E+02  0.51100000000E-03 0.  1.
    9900012    2    1    2    0    0  0.20764811685E+01 -0.42536260878E+02  0.14678837954E+02  0.46142317109E+02  0.99999940503E+01 0.  0.
        -12    1    1    2    0    0 -0.20764811685E+01  0.42536260878E+02 -0.14678837954E+02  0.45045682891E+02  0.00000000000E+00 0.  1.
         11    1    3    3    0    0 -0.19068909090E+01 -0.24592553730E+02  0.10331397566E+02  0.26742619689E+02  0.51100000000E-03 0. -1.
        -11    1    3    3    0    0  0.14640388582E+01 -0.20882975706E+01 -0.56187863804E+00  0.26115329572E+01  0.51100000000E-03 0.  1.
         12    1    3    3    0    0  0.25193332192E+01 -0.15855409577E+02  0.49093190252E+01  0.16788164462E+02  0.00000000000E+00 0. -1.
</event>
<event>
 7    1  0.3435408E-009  0.4614232E+02  0.7816164E-02  0.1320468E+00
        -11   -1    0    0    0    0  0.00000000000E+00  0.00000000000E+00  0.45593999997E+02  0.45594000000E+02  0.51100000000E-03 0. -1.
         11   -1    0    0    0    0 -0.00000000000E+00 -0.00000000000E+00 -0.45593999997E+02  0.45594000000E+02  0.51100000000E-03 0.  1.
    9900012    2    1    2    0    0  0.42231870110E+02 -0.90694073032E+01  0.12780001884E+02  0.46142318187E+02  0.10000003884E+02 0.  0.
        -12    1    1    2    0    0 -0.42231870110E+02  0.90694073032E+01 -0.12780001884E+02  0.45045681813E+02  0.00000000000E+00 0.  1.
         11    1    3    3    0    0  0.22122161657E+02 -0.26872589058E+01  0.50884301147E+01  0.22858335856E+02  0.51100000000E-03 0. -1.
        -11    1    3    3    0    0  0.13629208829E+02 -0.51788259964E+01  0.22828575816E+01  0.14757608580E+02  0.51100000000E-03 0.  1.
        -12    1    3    3    0    0  0.64804996244E+01 -0.12033224009E+01  0.54087141872E+01  0.85263737510E+01  0.00000000000E+00 0.  1.
</event>
<event>
 7    1  0.3435408E-009  0.4614232E+02  0.7816164E-02  0.1320468E+00
        -11   -1    0    0    0    0  0.00000000000E+00  0.00000000000E+00  0.45593999997E+02  0.45594000000E+02  0.51100000000E-03 0.  1.
         11   -1    0    0    0    0 -0.00000000000E+00 -0.00000000000E+00 -0.45593999997E+02  0.45594000000E+02  0.51100000000E-03 0. -1.
    9900012    2    1    2    0    0 -0.20969951763E+02  0.39220391313E+02 -0.71509130712E+01  0.46142317305E+02  0.99999958441E+01 0.  0.
        -12    1    1    2    0    0  0.20969951763E+02 -0.39220391313E+02  0.71509130712E+01  0.45045682695E+02  0.00000000000E+00 0.  1.
         11    1    3    3    0    0 -0.17142832468E+01  0.16692919048E+01 -0.52090264322E+00  0.24488042671E+01  0.51100000000E-03 0. -1.
        -11    1    3    3    0    0 -0.14955786528E+01  0.11789196685E+02 -0.23114086872E+01  0.12106383620E+02  0.51100000000E-03 0.  1.
        -12    1    3    3    0    0 -0.17760089864E+02  0.25761902723E+02 -0.43186017408E+01  0.31587129418E+02  0.00000000000E+00 0.  1.
</event>
<event>
 7    1  0.3435408E-009  0.4614232E+02  0.7816164E-02  0.1320468E+00
        -11   -1    0    0    0    0  0.00000000000E+00  0.00000000000E+00  0.45593999997E+02  0.45594000000E+02  0.51100000000E-03 0. -1.
         11   -1    0    0    0    0 -0.00000000000E+00 -0.00000000000E+00 -0.45593999997E+02  0.45594000000E+02  0.51100000000E-03 0.  1.
    9900012    2    1    2    0    0  0.32334716385E+02 -0.17633113845E+02  0.25935554782E+02  0.46142316639E+02  0.99999897715E+01 0.  0.
        -12    1    1    2    0    0 -0.32334716385E+02  0.17633113845E+02 -0.25935554782E+02  0.45045683361E+02  0.00000000000E+00 0.  1.
         11    1    3    3    0    0  0.19007108581E+01 -0.73586518118E+00  0.41722862759E+01  0.46435086260E+01  0.51100000000E-03 0. -1.
        -11    1    3    3    0    0  0.11398462221E+02 -0.51316527174E+01  0.46893442790E+01  0.13350983134E+02  0.51100000000E-03 0.  1.
         12    1    3    3    0    0  0.19035543306E+02 -0.11765595947E+02  0.17073924227E+02  0.28147824879E+02  0.00000000000E+00 0. -1.
</event>
<event>
 7    1  0.3435408E-009  0.4614232E+02  0.7816164E-02  0.1320468E+00
        -11   -1    0    0    0    0  0.00000000000E+00  0.00000000000E+00  0.45593999997E+02  0.45594000000E+02  0.51100000000E-03 0.  1.
         11   -1    0    0    0    0 -0.00000000000E+00 -0.00000000000E+00 -0.45593999997E+02  0.45594000000E+02  0.51100000000E-03 0. -1.
    9900012    2    1    2    0    0 -0.28241836529E+02  0.11802007771E+02 -0.33048825109E+02  0.46142316976E+02  0.99999928407E+01 0.  0.
        -12    1    1    2    0    0  0.28241836529E+02 -0.11802007771E+02  0.33048825109E+02  0.45045683024E+02  0.00000000000E+00 0.  1.
         11    1    3    3    0    0 -0.10175660420E+02  0.82755337447E+01 -0.18244377395E+02  0.22469664673E+02  0.51100000000E-03 0. -1.
        -11    1    3    3    0    0 -0.72763484826E+01  0.10496578265E+01 -0.50628094135E+01  0.89263132485E+01  0.51100000000E-03 0.  1.
         12    1    3    3    0    0 -0.10789827627E+02  0.24768161999E+01 -0.97416383007E+01  0.14746339054E+02  0.00000000000E+00 0. -1.
</event>
<event>
 7    1  0.3435408E-009  0.4614232E+02  0.7816164E-02  0.1320468E+00
        -11   -1    0    0    0    0  0.00000000000E+00  0.00000000000E+00  0.45593999997E+02  0.45594000000E+02  0.51100000000E-03 0.  1.
         11   -1    0    0    0    0 -0.00000000000E+00 -0.00000000000E+00 -0.45593999997E+02  0.45594000000E+02  0.51100000000E-03 0. -1.
    9900012    2    1    2    0    0  0.13513736182E+02 -0.16741973044E+01 -0.42938200581E+02  0.46142322390E+02  0.10000042205E+02 0.  0.
        -12    1    1    2    0    0 -0.13513736182E+02  0.16741973044E+01  0.42938200581E+02  0.45045677610E+02  0.00000000000E+00 0.  1.
         11    1    3    3    0    0  0.10076661886E+02 -0.18597644588E+01 -0.23553734750E+02  0.25686110246E+02  0.51100000000E-03 0. -1.
        -11    1    3    3    0    0 -0.14006723687E+01  0.28243412962E+00 -0.23730775255E+01  0.27700450042E+01  0.51100000000E-03 0.  1.
         12    1    3    3    0    0  0.48377466646E+01 -0.96866975207E-01 -0.17011388306E+02  0.17686167139E+02  0.00000000000E+00 0. -1.
</event>
<event>
 7    1  0.3435408E-009  0.4614232E+02  0.7816164E-02  0.1320468E+00
        -11   -1    0    0    0    0  0.00000000000E+00  0.00000000000E+00  0.45593999997E+02  0.45594000000E+02  0.51100000000E-03 0.  1.
         11   -1    0    0    0    0 -0.00000000000E+00 -0.00000000000E+00 -0.45593999997E+02  0.45594000000E+02  0.51100000000E-03 0. -1.
    9900012    2    1    2    0    0 -0.18695995913E+02 -0.39272934609E+02 -0.11713660923E+02  0.46142317541E+02  0.99999979956E+01 0.  0.
        -12    1    1    2    0    0  0.18695995913E+02  0.39272934609E+02  0.11713660923E+02  0.45045682459E+02  0.00000000000E+00 0.  1.
         11    1    3    3    0    0 -0.13094333541E+02 -0.25355570646E+02 -0.32930071465E+01  0.28726476115E+02  0.51100000000E-03 0. -1.
        -11    1    3    3    0    0  0.15832621888E+00 -0.43368648072E+00 -0.71712578512E+00  0.85288968100E+00  0.51100000000E-03 0.  1.
         12    1    3    3    0    0 -0.57599885908E+01 -0.13483677483E+02 -0.77035279909E+01  0.16562951746E+02  0.00000000000E+00 0. -1.
</event>
<event>
 7    1  0.3435408E-009  0.4614232E+02  0.7816164E-02  0.1320468E+00
        -11   -1    0    0    0    0  0.00000000000E+00  0.00000000000E+00  0.45593999997E+02  0.45594000000E+02  0.51100000000E-03 0.  1.
         11   -1    0    0    0    0 -0.00000000000E+00 -0.00000000000E+00 -0.45593999997E+02  0.45594000000E+02  0.51100000000E-03 0. -1.
    9900012    2    1    2    0    0 -0.30909311586E+02 -0.84666496014E+01 -0.31655074192E+02  0.46142318516E+02  0.10000006888E+02 0.  0.
        -12    1    1    2    0    0  0.30909311586E+02  0.84666496014E+01  0.31655074192E+02  0.45045681484E+02  0.00000000000E+00 0.  1.
         11    1    3    3    0    0 -0.73681817579E+01  0.12570220931E+00 -0.42986181366E+01  0.85313552035E+01  0.51100000000E-03 0.  1.
        -11    1    3    3    0    0 -0.44824425841E+01 -0.24008015875E+00 -0.80940653587E+01  0.92554753683E+01  0.51100000000E-03 0. -1.
         12    1    3    3    0    0 -0.19058687244E+02 -0.83522716519E+01 -0.19262390697E+02  0.28355487945E+02  0.00000000000E+00 0. -1.
</event>
<event>
 7    1  0.3435408E-009  0.4614232E+02  0.7816164E-02  0.1320468E+00
        -11   -1    0    0    0    0  0.00000000000E+00  0.00000000000E+00  0.45593999997E+02  0.45594000000E+02  0.51100000000E-03 0.  1.
         11   -1    0    0    0    0 -0.00000000000E+00 -0.00000000000E+00 -0.45593999997E+02  0.45594000000E+02  0.51100000000E-03 0. -1.
    9900012    2    1    2    0    0 -0.36434259273E+02  0.53713140518E+01 -0.25938531941E+02  0.46142315382E+02  0.99999783094E+01 0.  0.
        -12    1    1    2    0    0  0.36434259273E+02 -0.53713140518E+01  0.25938531941E+02  0.45045684618E+02  0.00000000000E+00 0.  1.
         11    1    3    3    0    0 -0.33415157797E+01  0.24472557237E-01 -0.49755516167E+01  0.59935332453E+01  0.51100000000E-03 0. -1.
        -11    1    3    3    0    0 -0.72088912470E+01 -0.86082473609E+00 -0.22124349757E+01  0.75897299701E+01  0.51100000000E-03 0.  1.
         12    1    3    3    0    0 -0.25883852246E+02  0.62076662306E+01 -0.18750545349E+02  0.32559052167E+02  0.00000000000E+00 0. -1.
</event>
<event>
 7    1  0.3435408E-009  0.4614232E+02  0.7816164E-02  0.1320468E+00
        -11   -1    0    0    0    0  0.00000000000E+00  0.00000000000E+00  0.45593999997E+02  0.45594000000E+02  0.51100000000E-03 0. -1.
         11   -1    0    0    0    0 -0.00000000000E+00 -0.00000000000E+00 -0.45593999997E+02  0.45594000000E+02  0.51100000000E-03 0.  1.
    9900012    2    1    2    0    0 -0.37481627145E+02  0.80725521652E+01  0.23644767485E+02  0.46142317617E+02  0.99999986871E+01 0.  0.
        -12    1    1    2    0    0  0.37481627145E+02 -0.80725521652E+01 -0.23644767485E+02  0.45045682383E+02  0.00000000000E+00 0.  1.
         11    1    3    3    0    0 -0.24365995208E+02  0.51998284358E+01  0.12859490622E+02  0.28037589724E+02  0.51100000000E-03 0. -1.
        -11    1    3    3    0    0 -0.10666658277E+02  0.16316033676E+00  0.65762237446E+01  0.12531996612E+02  0.51100000000E-03 0.  1.
        -12    1    3    3    0    0 -0.24489736604E+01  0.27095633926E+01  0.42090531189E+01  0.55727312805E+01  0.00000000000E+00 0.  1.
</event>
<event>
 7    1  0.3435408E-009  0.4614232E+02  0.7816164E-02  0.1320468E+00
        -11   -1    0    0    0    0  0.00000000000E+00  0.00000000000E+00  0.45593999997E+02  0.45594000000E+02  0.51100000000E-03 0.  1.
         11   -1    0    0    0    0 -0.00000000000E+00 -0.00000000000E+00 -0.45593999997E+02  0.45594000000E+02  0.51100000000E-03 0. -1.
    9900012    2    1    2    0    0 -0.18447385240E+02 -0.13392537680E+02 -0.38851607224E+02  0.46142317948E+02  0.10000001700E+02 0.  0.
        -12    1    1    2    0    0  0.18447385240E+02  0.13392537680E+02  0.38851607224E+02  0.45045682052E+02  0.00000000000E+00 0.  1.
         11    1    3    3    0    0 -0.17761566945E+02 -0.90869345465E+01 -0.33608782575E+02  0.39084471421E+02  0.51100000000E-03 0. -1.
        -11    1    3    3    0    0 -0.73762137307E+00 -0.15504018443E+01 -0.96574480311E+00  0.19698970670E+01  0.51100000000E-03 0.  1.
         12    1    3    3    0    0  0.51803077688E-01 -0.27552012892E+01 -0.42770798451E+01  0.50879494597E+01  0.00000000000E+00 0. -1.
</event>
<event>
 7    1  0.3435408E-009  0.4614232E+02  0.7816164E-02  0.1320468E+00
        -11   -1    0    0    0    0  0.00000000000E+00  0.00000000000E+00  0.45593999997E+02  0.45594000000E+02  0.51100000000E-03 0. -1.
         11   -1    0    0    0    0 -0.00000000000E+00 -0.00000000000E+00 -0.45593999997E+02  0.45594000000E+02  0.51100000000E-03 0.  1.
    9900012    2    1    2    0    0 -0.16158858636E+02 -0.32683106779E+02  0.26454098664E+02  0.46142317440E+02  0.99999970729E+01 0.  0.
        -12    1    1    2    0    0  0.16158858636E+02  0.32683106779E+02 -0.26454098664E+02  0.45045682560E+02  0.00000000000E+00 0.  1.
         11    1    3    3    0    0  0.56266232807E+00 -0.15211564478E+01  0.26576569583E+01  0.31134621570E+01  0.51100000000E-03 0. -1.
        -11    1    3    3    0    0 -0.74354234304E+01 -0.89316986080E+01  0.60169017575E+01  0.13086782211E+02  0.51100000000E-03 0.  1.
        -12    1    3    3    0    0 -0.92860975333E+01 -0.22230251724E+02  0.17779539948E+02  0.29942073072E+02  0.00000000000E+00 0.  1.
</event>
<event>
 7    1  0.3435408E-009  0.4614232E+02  0.7816164E-02  0.1320468E+00
        -11   -1    0    0    0    0  0.00000000000E+00  0.00000000000E+00  0.45593999997E+02  0.45594000000E+02  0.51100000000E-03 0. -1.
         11   -1    0    0    0    0 -0.00000000000E+00 -0.00000000000E+00 -0.45593999997E+02  0.45594000000E+02  0.51100000000E-03 0.  1.
    9900012    2    1    2    0    0  0.26093454867E+02 -0.35809223606E+02  0.81206221440E+01  0.46142318895E+02  0.10000010340E+02 0.  0.
        -12    1    1    2    0    0 -0.26093454867E+02  0.35809223606E+02 -0.81206221440E+01  0.45045681105E+02  0.00000000000E+00 0.  1.
         11    1    3    3    0    0  0.66136526965E+01 -0.93887879540E+01 -0.77068429041E+00  0.11510156201E+02  0.51100000000E-03 0. -1.
        -11    1    3    3    0    0  0.20902602684E+01 -0.22341798486E+01 -0.10400500973E+01  0.32314783074E+01  0.51100000000E-03 0.  1.
        -12    1    3    3    0    0  0.17389541902E+02 -0.24186255804E+02  0.99313565317E+01  0.31400684387E+02  0.00000000000E+00 0.  1.
</event>
<event>
 7    1  0.3435408E-009  0.4614232E+02  0.7816164E-02  0.1320468E+00
        -11   -1    0    0    0    0  0.00000000000E+00  0.00000000000E+00  0.45593999997E+02  0.45594000000E+02  0.51100000000E-03 0. -1.
         11   -1    0    0    0    0 -0.00000000000E+00 -0.00000000000E+00 -0.45593999997E+02  0.45594000000E+02  0.51100000000E-03 0.  1.
    9900012    2    1    2    0    0 -0.18440434824E+02 -0.32419270956E+02  0.25259744677E+02  0.46142317999E+02  0.10000002166E+02 0.  0.
        -12    1    1    2    0    0  0.18440434824E+02  0.32419270956E+02 -0.25259744677E+02  0.45045682001E+02  0.00000000000E+00 0.  1.
         11    1    3    3    0    0 -0.10214783987E+02 -0.12628549204E+02  0.13302464393E+02  0.20994704715E+02  0.51100000000E-03 0. -1.
        -11    1    3    3    0    0 -0.48720009179E+01 -0.11536518721E+02  0.99995854558E+01  0.16025584753E+02  0.51100000000E-03 0.  1.
         12    1    3    3    0    0 -0.33536499198E+01 -0.82542030307E+01  0.19576948283E+01  0.91220285297E+01  0.00000000000E+00 0. -1.
</event>
<event>
 7    1  0.3435408E-009  0.4614232E+02  0.7816164E-02  0.1320468E+00
        -11   -1    0    0    0    0  0.00000000000E+00  0.00000000000E+00  0.45593999997E+02  0.45594000000E+02  0.51100000000E-03 0. -1.
         11   -1    0    0    0    0 -0.00000000000E+00 -0.00000000000E+00 -0.45593999997E+02  0.45594000000E+02  0.51100000000E-03 0.  1.
    9900012    2    1    2    0    0 -0.32669954247E+02 -0.26030121673E+02 -0.16858836317E+02  0.46142317556E+02  0.99999981333E+01 0.  0.
        -12    1    1    2    0    0  0.32669954247E+02  0.26030121673E+02  0.16858836317E+02  0.45045682444E+02  0.00000000000E+00 0.  1.
         11    1    3    3    0    0 -0.18086948448E+02 -0.11889735440E+02 -0.75912924903E+01  0.22937550761E+02  0.51100000000E-03 0. -1.
        -11    1    3    3    0    0 -0.26201313811E+00 -0.17020138349E+01 -0.25598843752E+01  0.30852082999E+01  0.51100000000E-03 0.  1.
         12    1    3    3    0    0 -0.14320992661E+02 -0.12438372398E+02 -0.67076594518E+01  0.20119558495E+02  0.00000000000E+00 0. -1.
</event>
<event>
 7    1  0.3435408E-009  0.4614232E+02  0.7816164E-02  0.1320468E+00
        -11   -1    0    0    0    0  0.00000000000E+00  0.00000000000E+00  0.45593999997E+02  0.45594000000E+02  0.51100000000E-03 0.  1.
         11   -1    0    0    0    0 -0.00000000000E+00 -0.00000000000E+00 -0.45593999997E+02  0.45594000000E+02  0.51100000000E-03 0. -1.
    9900012    2    1    2    0    0  0.16421102542E+02  0.25525878724E+01 -0.41868188814E+02  0.46142317098E+02  0.99999939509E+01 0.  0.
        -12    1    1    2    0    0 -0.16421102542E+02 -0.25525878724E+01  0.41868188814E+02  0.45045682902E+02  0.00000000000E+00 0.  1.
         11    1    3    3    0    0  0.10816306835E+02  0.23917296739E+01 -0.14768716783E+02  0.18461523774E+02  0.51100000000E-03 0. -1.
        -11    1    3    3    0    0  0.18949554187E+01  0.16844014007E+00 -0.78644214345E+01  0.80912516263E+01  0.51100000000E-03 0.  1.
         12    1    3    3    0    0  0.37098402884E+01 -0.75819415397E-02 -0.19235050597E+02  0.19589541697E+02  0.00000000000E+00 0. -1.
</event>
<event>
 7    1  0.3435408E-009  0.4614232E+02  0.7816164E-02  0.1320468E+00
        -11   -1    0    0    0    0  0.00000000000E+00  0.00000000000E+00  0.45593999997E+02  0.45594000000E+02  0.51100000000E-03 0.  1.
         11   -1    0    0    0    0 -0.00000000000E+00 -0.00000000000E+00 -0.45593999997E+02  0.45594000000E+02  0.51100000000E-03 0. -1.
    9900012    2    1    2    0    0 -0.20322048087E+02 -0.40199658627E+02 -0.33950893513E+00  0.46142318093E+02  0.10000003027E+02 0.  0.
        -12    1    1    2    0    0  0.20322048087E+02  0.40199658627E+02  0.33950893513E+00  0.45045681907E+02  0.00000000000E+00 0.  1.
         11    1    3    3    0    0 -0.53810304323E+01 -0.35694666168E+01 -0.71143608301E+00  0.64963622130E+01  0.51100000000E-03 0. -1.
        -11    1    3    3    0    0 -0.17920511068E+01 -0.62614660085E+01  0.70708254571E+00  0.65511349958E+01  0.51100000000E-03 0.  1.
         12    1    3    3    0    0 -0.13148966548E+02 -0.30368726001E+02 -0.33515539783E+00  0.33094820884E+02  0.00000000000E+00 0. -1.
</event>
<event>
 7    1  0.3435408E-009  0.4614232E+02  0.7816164E-02  0.1320468E+00
        -11   -1    0    0    0    0  0.00000000000E+00  0.00000000000E+00  0.45593999997E+02  0.45594000000E+02  0.51100000000E-03 0.  1.
         11   -1    0    0    0    0 -0.00000000000E+00 -0.00000000000E+00 -0.45593999997E+02  0.45594000000E+02  0.51100000000E-03 0. -1.
    9900012    2    1    2    0    0 -0.66569817505E+01 -0.26835962818E+02 -0.35561621574E+02  0.46142320570E+02  0.10000025612E+02 0.  0.
        -12    1    1    2    0    0  0.66569817505E+01  0.26835962818E+02  0.35561621574E+02  0.45045679430E+02  0.00000000000E+00 0.  1.
         11    1    3    3    0    0 -0.48086598842E+01 -0.16977185147E+02 -0.25773829560E+02  0.31235209553E+02  0.51100000000E-03 0. -1.
        -11    1    3    3    0    0 -0.58498883534E+00  0.38908251282E+00 -0.15373780754E+01  0.16903043356E+01  0.51100000000E-03 0.  1.
        -12    1    3    3    0    0 -0.12633330310E+01 -0.10247860183E+02 -0.82504139387E+01  0.13216806681E+02  0.00000000000E+00 0.  1.
</event>
<event>
 7    1  0.3435408E-009  0.4614232E+02  0.7816164E-02  0.1320468E+00
        -11   -1    0    0    0    0  0.00000000000E+00  0.00000000000E+00  0.45593999997E+02  0.45594000000E+02  0.51100000000E-03 0. -1.
         11   -1    0    0    0    0 -0.00000000000E+00 -0.00000000000E+00 -0.45593999997E+02  0.45594000000E+02  0.51100000000E-03 0.  1.
    9900012    2    1    2    0    0  0.35650470332E+01  0.12947613175E+01  0.44885713999E+02  0.46142319980E+02  0.10000020234E+02 0.  0.
        -12    1    1    2    0    0 -0.35650470332E+01 -0.12947613175E+01 -0.44885713999E+02  0.45045680020E+02  0.00000000000E+00 0.  1.
         11    1    3    3    0    0  0.35908503991E+00  0.22946826302E+01  0.32995058835E+01  0.40350030701E+01  0.51100000000E-03 0. -1.
        -11    1    3    3    0    0  0.17668946973E+00 -0.12883410339E+01  0.18871519135E+01  0.22918081059E+01  0.51100000000E-03 0.  1.
         12    1    3    3    0    0  0.30292725236E+01  0.28841972123E+00  0.39699056202E+02  0.39815508804E+02  0.00000000000E+00 0. -1.
</event>
<event>
 7    1  0.3435408E-009  0.4614232E+02  0.7816164E-02  0.1320468E+00
        -11   -1    0    0    0    0  0.00000000000E+00  0.00000000000E+00  0.45593999997E+02  0.45594000000E+02  0.51100000000E-03 0.  1.
         11   -1    0    0    0    0 -0.00000000000E+00 -0.00000000000E+00 -0.45593999997E+02  0.45594000000E+02  0.51100000000E-03 0. -1.
    9900012    2    1    2    0    0  0.25289409305E+02 -0.19194359334E+01 -0.37227341923E+02  0.46142318254E+02  0.10000004494E+02 0.  0.
        -12    1    1    2    0    0 -0.25289409305E+02  0.19194359334E+01  0.37227341923E+02  0.45045681746E+02  0.00000000000E+00 0.  1.
         11    1    3    3    0    0  0.81449240074E+01 -0.21675092340E+00 -0.94120663332E+01  0.12448845769E+02  0.51100000000E-03 0. -1.
        -11    1    3    3    0    0  0.36693989557E+01  0.22762384907E+01 -0.32897772514E+01  0.54284790676E+01  0.51100000000E-03 0.  1.
        -12    1    3    3    0    0  0.13475086342E+02 -0.39789235007E+01 -0.24525498339E+02  0.28264993418E+02  0.00000000000E+00 0.  1.
</event>
<event>
 7    1  0.3435408E-009  0.4614232E+02  0.7816164E-02  0.1320468E+00
        -11   -1    0    0    0    0  0.00000000000E+00  0.00000000000E+00  0.45593999997E+02  0.45594000000E+02  0.51100000000E-03 0. -1.
         11   -1    0    0    0    0 -0.00000000000E+00 -0.00000000000E+00 -0.45593999997E+02  0.45594000000E+02  0.51100000000E-03 0.  1.
    9900012    2    1    2    0    0  0.12636503972E+02 -0.11958882123E+02  0.41550178495E+02  0.46142318440E+02  0.10000006191E+02 0.  0.
        -12    1    1    2    0    0 -0.12636503972E+02  0.11958882123E+02 -0.41550178495E+02  0.45045681560E+02  0.00000000000E+00 0.  1.
         11    1    3    3    0    0  0.61415378527E+01 -0.99694702567E+01  0.22269535049E+02  0.25160306357E+02  0.51100000000E-03 0. -1.
        -11    1    3    3    0    0  0.11255647879E+01  0.10106519895E+01  0.13562203874E+01  0.20316612749E+01  0.51100000000E-03 0.  1.
        -12    1    3    3    0    0  0.53694013309E+01 -0.30000638558E+01  0.17924423058E+02  0.18950350809E+02  0.00000000000E+00 0.  1.
</event>
<event>
 7    1  0.3435408E-009  0.4614232E+02  0.7816164E-02  0.1320468E+00
        -11   -1    0    0    0    0  0.00000000000E+00  0.00000000000E+00  0.45593999997E+02  0.45594000000E+02  0.51100000000E-03 0. -1.
         11   -1    0    0    0    0 -0.00000000000E+00 -0.00000000000E+00 -0.45593999997E+02  0.45594000000E+02  0.51100000000E-03 0.  1.
    9900012    2    1    2    0    0 -0.72343043162E+01  0.28039683393E+02  0.34504412617E+02  0.46142317701E+02  0.99999994494E+01 0.  0.
        -12    1    1    2    0    0  0.72343043162E+01 -0.28039683393E+02 -0.34504412617E+02  0.45045682299E+02  0.00000000000E+00 0.  1.
         11    1    3    3    0    0  0.59016930061E+00 -0.74710982268E-01  0.10127774854E+01  0.11745637617E+01  0.51100000000E-03 0. -1.
        -11    1    3    3    0    0 -0.66252244167E+01  0.12177415287E+02  0.13243908328E+02  0.19172484182E+02  0.51100000000E-03 0.  1.
        -12    1    3    3    0    0 -0.11992492001E+01  0.15936979089E+02  0.20247726804E+02  0.25795269757E+02  0.00000000000E+00 0.  1.
</event>
<event>
 7    1  0.3435408E-009  0.4614232E+02  0.7816164E-02  0.1320468E+00
        -11   -1    0    0    0    0  0.00000000000E+00  0.00000000000E+00  0.45593999997E+02  0.45594000000E+02  0.51100000000E-03 0.  1.
         11   -1    0    0    0    0 -0.00000000000E+00 -0.00000000000E+00 -0.45593999997E+02  0.45594000000E+02  0.51100000000E-03 0. -1.
    9900012    2    1    2    0    0  0.41671989553E+02 -0.49024775223E+01 -0.16386718141E+02  0.46142317292E+02  0.99999957230E+01 0.  0.
        -12    1    1    2    0    0 -0.41671989553E+02  0.49024775223E+01  0.16386718141E+02  0.45045682708E+02  0.00000000000E+00 0.  1.
         11    1    3    3    0    0  0.11684010005E+02 -0.87465079696E+00 -0.40602501802E+01  0.12400271594E+02  0.51100000000E-03 0. -1.
        -11    1    3    3    0    0  0.32861919631E+01  0.92176510284E+00 -0.41664747908E+01  0.53859280507E+01  0.51100000000E-03 0.  1.
        -12    1    3    3    0    0  0.26701787585E+02 -0.49495918282E+01 -0.81599931701E+01  0.28356117647E+02  0.00000000000E+00 0.  1.
</event>
<event>
 7    1  0.3435408E-009  0.4614231E+02  0.7816164E-02  0.1320468E+00
        -11   -1    0    0    0    0  0.00000000000E+00  0.00000000000E+00  0.45593999997E+02  0.45594000000E+02  0.51100000000E-03 0.  1.
         11   -1    0    0    0    0 -0.00000000000E+00 -0.00000000000E+00 -0.45593999997E+02  0.45594000000E+02  0.51100000000E-03 0. -1.
    9900012    2    1    2    0    0  0.91210465474E+01  0.28364860161E+02 -0.33783946104E+02  0.46142314342E+02  0.99999688188E+01 0.  0.
        -12    1    1    2    0    0 -0.91210465474E+01 -0.28364860161E+02  0.33783946104E+02  0.45045685658E+02  0.00000000000E+00 0.  1.
         11    1    3    3    0    0  0.35202196493E+01  0.10851290287E+02 -0.70602461598E+01  0.13416017418E+02  0.51100000000E-03 0. -1.
        -11    1    3    3    0    0  0.39670231462E+01  0.98787905239E+01 -0.18783809280E+02  0.21590721761E+02  0.51100000000E-03 0.  1.
        -12    1    3    3    0    0  0.16338037519E+01  0.76347793507E+01 -0.79398906643E+01  0.11135575162E+02  0.00000000000E+00 0.  1.
</event>
<event>
 7    1  0.3435408E-009  0.4614232E+02  0.7816164E-02  0.1320468E+00
        -11   -1    0    0    0    0  0.00000000000E+00  0.00000000000E+00  0.45593999997E+02  0.45594000000E+02  0.51100000000E-03 0.  1.
         11   -1    0    0    0    0 -0.00000000000E+00 -0.00000000000E+00 -0.45593999997E+02  0.45594000000E+02  0.51100000000E-03 0. -1.
    9900012    2    1    2    0    0  0.57878654261E+01 -0.27832267871E+02 -0.34942509201E+02  0.46142317962E+02  0.10000001828E+02 0.  0.
        -12    1    1    2    0    0 -0.57878654261E+01  0.27832267871E+02  0.34942509201E+02  0.45045682038E+02  0.00000000000E+00 0.  1.
         11    1    3    3    0    0  0.54103910341E+01 -0.23356030952E+02 -0.23702764874E+02  0.33713462829E+02  0.51100000000E-03 0.  1.
        -11    1    3    3    0    0  0.25073825177E+00 -0.43971141258E+01 -0.11393098522E+02  0.12214752413E+02  0.51100000000E-03 0. -1.
        -12    1    3    3    0    0  0.12673614025E+00 -0.79122792961E-01  0.15335419498E+00  0.21410272004E+00  0.00000000000E+00 0.  1.
</event>
<event>
 7    1  0.3435408E-009  0.4614232E+02  0.7816164E-02  0.1320468E+00
        -11   -1    0    0    0    0  0.00000000000E+00  0.00000000000E+00  0.45593999997E+02  0.45594000000E+02  0.51100000000E-03 0. -1.
         11   -1    0    0    0    0 -0.00000000000E+00 -0.00000000000E+00 -0.45593999997E+02  0.45594000000E+02  0.51100000000E-03 0.  1.
    9900012    2    1    2    0    0  0.29184659323E+02  0.29106057853E+02 -0.18171584999E+02  0.46142318243E+02  0.10000004394E+02 0.  0.
        -12    1    1    2    0    0 -0.29184659323E+02 -0.29106057853E+02  0.18171584999E+02  0.45045681757E+02  0.00000000000E+00 0.  1.
         11    1    3    3    0    0  0.88006884924E+01  0.14089957394E+02 -0.92415573966E+01  0.19010139418E+02  0.51100000000E-03 0. -1.
        -11    1    3    3    0    0  0.85046490167E+01  0.60372995621E+01 -0.16583707726E+01  0.10560692912E+02  0.51100000000E-03 0.  1.
         12    1    3    3    0    0  0.11879321814E+02  0.89788008967E+01 -0.72716568302E+01  0.16571485913E+02  0.00000000000E+00 0. -1.
</event>
<event>
 7    1  0.3435408E-009  0.4614232E+02  0.7816164E-02  0.1320468E+00
        -11   -1    0    0    0    0  0.00000000000E+00  0.00000000000E+00  0.45593999997E+02  0.45594000000E+02  0.51100000000E-03 0.  1.
         11   -1    0    0    0    0 -0.00000000000E+00 -0.00000000000E+00 -0.45593999997E+02  0.45594000000E+02  0.51100000000E-03 0. -1.
    9900012    2    1    2    0    0  0.34328877816E+02 -0.21107826200E+01 -0.29089278433E+02  0.46142319018E+02  0.10000011460E+02 0.  0.
        -12    1    1    2    0    0 -0.34328877816E+02  0.21107826200E+01  0.29089278433E+02  0.45045680982E+02  0.00000000000E+00 0.  1.
         11    1    3    3    0    0  0.15900269503E+02 -0.37620875512E+01 -0.18523491320E+02  0.24700032469E+02  0.51100000000E-03 0. -1.
        -11    1    3    3    0    0  0.14700926753E+02  0.22135568607E+01 -0.88386771417E+01  0.17295643823E+02  0.51100000000E-03 0.  1.
         12    1    3    3    0    0  0.37276815603E+01 -0.56225192950E+00 -0.17271099715E+01  0.41466427264E+01  0.00000000000E+00 0. -1.
</event>
<event>
 7    1  0.3435408E-009  0.4614232E+02  0.7816164E-02  0.1320468E+00
        -11   -1    0    0    0    0  0.00000000000E+00  0.00000000000E+00  0.45593999997E+02  0.45594000000E+02  0.51100000000E-03 0.  1.
         11   -1    0    0    0    0 -0.00000000000E+00 -0.00000000000E+00 -0.45593999997E+02  0.45594000000E+02  0.51100000000E-03 0. -1.
    9900012    2    1    2    0    0  0.26332053066E+02 -0.13598526856E+02 -0.33923684670E+02  0.46142319487E+02  0.10000015734E+02 0.  0.
        -12    1    1    2    0    0 -0.26332053066E+02  0.13598526856E+02  0.33923684670E+02  0.45045680513E+02  0.00000000000E+00 0.  1.
         11    1    3    3    0    0  0.11544865692E+02 -0.61039712880E+01 -0.11953118645E+02  0.17703655976E+02  0.51100000000E-03 0. -1.
        -11    1    3    3    0    0 -0.17358861585E+00 -0.34266674390E+00 -0.38763449730E+01  0.38953310663E+01  0.51100000000E-03 0.  1.
        -12    1    3    3    0    0  0.14960775990E+02 -0.71518888245E+01 -0.18094221052E+02  0.24543332444E+02  0.00000000000E+00 0.  1.
</event>
<event>
 7    1  0.3435408E-009  0.4614232E+02  0.7816164E-02  0.1320468E+00
        -11   -1    0    0    0    0  0.00000000000E+00  0.00000000000E+00  0.45593999997E+02  0.45594000000E+02  0.51100000000E-03 0.  1.
         11   -1    0    0    0    0 -0.00000000000E+00 -0.00000000000E+00 -0.45593999997E+02  0.45594000000E+02  0.51100000000E-03 0. -1.
    9900012    2    1    2    0    0  0.38832995676E+02 -0.76356247547E+01 -0.21512999296E+02  0.46142318107E+02  0.10000003150E+02 0.  0.
        -12    1    1    2    0    0 -0.38832995676E+02  0.76356247547E+01  0.21512999296E+02  0.45045681893E+02  0.00000000000E+00 0.  1.
         11    1    3    3    0    0  0.95710792416E+01  0.11573475444E+01 -0.87713113147E+01  0.13033837256E+02  0.51100000000E-03 0. -1.
        -11    1    3    3    0    0  0.97264516652E+01 -0.26853684358E+01 -0.41535461945E+01  0.10911783167E+02  0.51100000000E-03 0.  1.
         12    1    3    3    0    0  0.19535464769E+02 -0.61076038633E+01 -0.85881417870E+01  0.22196697683E+02  0.00000000000E+00 0. -1.
</event>
<event>
 7    1  0.3435408E-009  0.4614232E+02  0.7816164E-02  0.1320468E+00
        -11   -1    0    0    0    0  0.00000000000E+00  0.00000000000E+00  0.45593999997E+02  0.45594000000E+02  0.51100000000E-03 0.  1.
         11   -1    0    0    0    0 -0.00000000000E+00 -0.00000000000E+00 -0.45593999997E+02  0.45594000000E+02  0.51100000000E-03 0. -1.
    9900012    2    1    2    0    0  0.19546270041E+02 -0.39907253779E+02 -0.73802387844E+01  0.46142317619E+02  0.99999987037E+01 0.  0.
        -12    1    1    2    0    0 -0.19546270041E+02  0.39907253779E+02  0.73802387844E+01  0.45045682381E+02  0.00000000000E+00 0.  1.
         11    1    3    3    0    0  0.70861458814E+01 -0.22987674092E+02 -0.53046633926E+01  0.24633028185E+02  0.51100000000E-03 0. -1.
        -11    1    3    3    0    0  0.29629518525E+01 -0.19899567208E+01  0.58253224002E+00  0.36164009046E+01  0.51100000000E-03 0.  1.
         12    1    3    3    0    0  0.94971723068E+01 -0.14929622966E+02 -0.26581076319E+01  0.17892888529E+02  0.00000000000E+00 0. -1.
</event>
<event>
 7    1  0.3435408E-009  0.4614232E+02  0.7816164E-02  0.1320468E+00
        -11   -1    0    0    0    0  0.00000000000E+00  0.00000000000E+00  0.45593999997E+02  0.45594000000E+02  0.51100000000E-03 0. -1.
         11   -1    0    0    0    0 -0.00000000000E+00 -0.00000000000E+00 -0.45593999997E+02  0.45594000000E+02  0.51100000000E-03 0.  1.
    9900012    2    1    2    0    0 -0.27615455293E+02  0.22844966868E+02  0.27287502874E+02  0.46142315464E+02  0.99999790507E+01 0.  0.
        -12    1    1    2    0    0  0.27615455293E+02 -0.22844966868E+02 -0.27287502874E+02  0.45045684536E+02  0.00000000000E+00 0.  1.
         11    1    3    3    0    0 -0.46917640357E+01  0.95477889304E+00  0.28899931363E+01  0.55925229629E+01  0.51100000000E-03 0. -1.
        -11    1    3    3    0    0 -0.90491001020E+01  0.12276349581E+02  0.90391381753E+01  0.17728536062E+02  0.51100000000E-03 0.  1.
         12    1    3    3    0    0 -0.13874591155E+02  0.96138383939E+01  0.15358371562E+02  0.22821256439E+02  0.00000000000E+00 0. -1.
</event>
<event>
 7    1  0.3435408E-009  0.4614232E+02  0.7816164E-02  0.1320468E+00
        -11   -1    0    0    0    0  0.00000000000E+00  0.00000000000E+00  0.45593999997E+02  0.45594000000E+02  0.51100000000E-03 0. -1.
         11   -1    0    0    0    0 -0.00000000000E+00 -0.00000000000E+00 -0.45593999997E+02  0.45594000000E+02  0.51100000000E-03 0.  1.
    9900012    2    1    2    0    0 -0.13928006487E+02  0.20087994200E+02  0.37836446363E+02  0.46142317087E+02  0.99999938556E+01 0.  0.
        -12    1    1    2    0    0  0.13928006487E+02 -0.20087994200E+02 -0.37836446363E+02  0.45045682913E+02  0.00000000000E+00 0.  1.
         11    1    3    3    0    0 -0.78375824347E+01  0.12661410875E+02  0.21218664856E+02  0.25922398853E+02  0.51100000000E-03 0. -1.
        -11    1    3    3    0    0 -0.34802533382E+01  0.79163713840E+01  0.14213986552E+02  0.16637863839E+02  0.51100000000E-03 0.  1.
        -12    1    3    3    0    0 -0.26101707146E+01 -0.48978805860E+00  0.24037949556E+01  0.35820543952E+01  0.00000000000E+00 0.  1.
</event>
<event>
 7    1  0.3435408E-009  0.4614232E+02  0.7816164E-02  0.1320468E+00
        -11   -1    0    0    0    0  0.00000000000E+00  0.00000000000E+00  0.45593999997E+02  0.45594000000E+02  0.51100000000E-03 0.  1.
         11   -1    0    0    0    0 -0.00000000000E+00 -0.00000000000E+00 -0.45593999997E+02  0.45594000000E+02  0.51100000000E-03 0. -1.
    9900012    2    1    2    0    0 -0.40651285291E+01 -0.38003966078E+02 -0.23838767370E+02  0.46142317217E+02  0.99999950421E+01 0.  0.
        -12    1    1    2    0    0  0.40651285291E+01  0.38003966078E+02  0.23838767370E+02  0.45045682783E+02  0.00000000000E+00 0.  1.
         11    1    3    3    0    0 -0.27945440215E+01 -0.21521890313E+02 -0.10102886522E+02  0.23938871220E+02  0.51100000000E-03 0. -1.
        -11    1    3    3    0    0  0.10860625954E+01 -0.35741506557E+00 -0.10411432680E+01  0.15463689908E+01  0.51100000000E-03 0.  1.
         12    1    3    3    0    0 -0.23566471030E+01 -0.16124660699E+02 -0.12694737580E+02  0.20657077007E+02  0.00000000000E+00 0. -1.
</event>
<event>
 7    1  0.3435408E-009  0.4614232E+02  0.7816164E-02  0.1320468E+00
        -11   -1    0    0    0    0  0.00000000000E+00  0.00000000000E+00  0.45593999997E+02  0.45594000000E+02  0.51100000000E-03 0.  1.
         11   -1    0    0    0    0 -0.00000000000E+00 -0.00000000000E+00 -0.45593999997E+02  0.45594000000E+02  0.51100000000E-03 0. -1.
    9900012    2    1    2    0    0 -0.41673985263E+02 -0.13136326497E+02 -0.10946661937E+02  0.46142317308E+02  0.99999958727E+01 0.  0.
        -12    1    1    2    0    0  0.41673985263E+02  0.13136326497E+02  0.10946661937E+02  0.45045682692E+02  0.00000000000E+00 0.  1.
         11    1    3    3    0    0 -0.77400463705E+00 -0.11870584555E+01 -0.40132437366E-01  0.14176747964E+01  0.51100000000E-03 0. -1.
        -11    1    3    3    0    0 -0.41268161168E+02 -0.11641021247E+02 -0.10655194600E+02  0.44182662596E+02  0.51100000000E-03 0.  1.
        -12    1    3    3    0    0  0.36818054147E+00 -0.30824679502E+00 -0.25133489918E+00  0.54197991595E+00  0.00000000000E+00 0.  1.
</event>
<event>
 7    1  0.3435408E-009  0.4614232E+02  0.7816164E-02  0.1320468E+00
        -11   -1    0    0    0    0  0.00000000000E+00  0.00000000000E+00  0.45593999997E+02  0.45594000000E+02  0.51100000000E-03 0.  1.
         11   -1    0    0    0    0 -0.00000000000E+00 -0.00000000000E+00 -0.45593999997E+02  0.45594000000E+02  0.51100000000E-03 0. -1.
    9900012    2    1    2    0    0 -0.43066278095E+02 -0.81432297900E+01 -0.10396968769E+02  0.46142318076E+02  0.10000002875E+02 0.  0.
        -12    1    1    2    0    0  0.43066278095E+02  0.81432297900E+01  0.10396968769E+02  0.45045681924E+02  0.00000000000E+00 0.  1.
         11    1    3    3    0    0 -0.32425602661E+02 -0.44540105667E+01 -0.10701810004E+02  0.34435253094E+02  0.51100000000E-03 0. -1.
        -11    1    3    3    0    0 -0.34276967835E+01 -0.19604778358E+01  0.14406833924E+01  0.42033495551E+01  0.51100000000E-03 0.  1.
        -12    1    3    3    0    0 -0.72129786511E+01 -0.17287413875E+01 -0.11358421579E+01  0.75037154272E+01  0.00000000000E+00 0.  1.
</event>
<event>
 7    1  0.3435408E-009  0.4614232E+02  0.7816164E-02  0.1320468E+00
        -11   -1    0    0    0    0  0.00000000000E+00  0.00000000000E+00  0.45593999997E+02  0.45594000000E+02  0.51100000000E-03 0.  1.
         11   -1    0    0    0    0 -0.00000000000E+00 -0.00000000000E+00 -0.45593999997E+02  0.45594000000E+02  0.51100000000E-03 0. -1.
    9900012    2    1    2    0    0 -0.23713175119E+02  0.31737359821E+02 -0.21436856798E+02  0.46142317499E+02  0.99999976061E+01 0.  0.
        -12    1    1    2    0    0  0.23713175119E+02 -0.31737359821E+02  0.21436856798E+02  0.45045682501E+02  0.00000000000E+00 0.  1.
         11    1    3    3    0    0  0.82273872966E-01  0.22268223972E+01  0.53412125588E-01  0.22289818517E+01  0.51100000000E-03 0. -1.
        -11    1    3    3    0    0 -0.21200705964E+02  0.23366976358E+02 -0.16667537395E+02  0.35683221836E+02  0.51100000000E-03 0.  1.
         12    1    3    3    0    0 -0.25947430278E+01  0.61435610662E+01 -0.48227315279E+01  0.82301138111E+01  0.00000000000E+00 0. -1.
</event>
<event>
 7    1  0.3435408E-009  0.4614232E+02  0.7816164E-02  0.1320468E+00
        -11   -1    0    0    0    0  0.00000000000E+00  0.00000000000E+00  0.45593999997E+02  0.45594000000E+02  0.51100000000E-03 0. -1.
         11   -1    0    0    0    0 -0.00000000000E+00 -0.00000000000E+00 -0.45593999997E+02  0.45594000000E+02  0.51100000000E-03 0.  1.
    9900012    2    1    2    0    0 -0.12053015085E+02  0.18575944512E+02  0.39227189928E+02  0.46142319665E+02  0.10000017363E+02 0.  0.
        -12    1    1    2    0    0  0.12053015085E+02 -0.18575944512E+02 -0.39227189928E+02  0.45045680335E+02  0.00000000000E+00 0.  1.
         11    1    3    3    0    0 -0.84280279240E+01  0.77916340059E+01  0.26486042881E+02  0.28866099198E+02  0.51100000000E-03 0. -1.
        -11    1    3    3    0    0 -0.10558301163E+01  0.19960103876E+01  0.12420869776E+01  0.25771331015E+01  0.51100000000E-03 0.  1.
         12    1    3    3    0    0 -0.25691570449E+01  0.87883001181E+01  0.11499060070E+02  0.14699087366E+02  0.00000000000E+00 0. -1.
</event>
<event>
 7    1  0.3435408E-009  0.4614232E+02  0.7816164E-02  0.1320468E+00
        -11   -1    0    0    0    0  0.00000000000E+00  0.00000000000E+00  0.45593999997E+02  0.45594000000E+02  0.51100000000E-03 0. -1.
         11   -1    0    0    0    0 -0.00000000000E+00 -0.00000000000E+00 -0.45593999997E+02  0.45594000000E+02  0.51100000000E-03 0.  1.
    9900012    2    1    2    0    0  0.42714674455E+02  0.14065311376E+02 -0.25955845300E+01  0.46142318109E+02  0.10000003176E+02 0.  0.
        -12    1    1    2    0    0 -0.42714674455E+02 -0.14065311376E+02  0.25955845300E+01  0.45045681891E+02  0.00000000000E+00 0.  1.
         11    1    3    3    0    0  0.31563349420E+01  0.37595503044E+01 -0.44047575262E+00  0.49285584005E+01  0.51100000000E-03 0.  1.
        -11    1    3    3    0    0  0.29917940698E+02  0.96673304142E+01 -0.25489799915E+01  0.31544218998E+02  0.51100000000E-03 0. -1.
         12    1    3    3    0    0  0.96403988153E+01  0.63843065790E+00  0.39387121412E+00  0.96695407107E+01  0.00000000000E+00 0. -1.
</event>
<event>
 7    1  0.3435408E-009  0.4614232E+02  0.7816164E-02  0.1320468E+00
        -11   -1    0    0    0    0  0.00000000000E+00  0.00000000000E+00  0.45593999997E+02  0.45594000000E+02  0.51100000000E-03 0.  1.
         11   -1    0    0    0    0 -0.00000000000E+00 -0.00000000000E+00 -0.45593999997E+02  0.45594000000E+02  0.51100000000E-03 0. -1.
    9900012    2    1    2    0    0 -0.40164168997E+01 -0.31550982692E+02 -0.31898546783E+02  0.46142318738E+02  0.10000008906E+02 0.  0.
        -12    1    1    2    0    0  0.40164168997E+01  0.31550982692E+02  0.31898546783E+02  0.45045681262E+02  0.00000000000E+00 0.  1.
         11    1    3    3    0    0 -0.14383907728E+01 -0.30300046383E+02 -0.28685332424E+02  0.41749372155E+02  0.51100000000E-03 0. -1.
        -11    1    3    3    0    0 -0.17619751878E+01 -0.12466686403E+01 -0.20890501727E+01  0.30038092726E+01  0.51100000000E-03 0.  1.
         12    1    3    3    0    0 -0.81605093916E+00 -0.42676683398E-02 -0.11241641860E+01  0.13891373098E+01  0.00000000000E+00 0. -1.
</event>
<event>
 7    1  0.3435408E-009  0.4614232E+02  0.7816164E-02  0.1320468E+00
        -11   -1    0    0    0    0  0.00000000000E+00  0.00000000000E+00  0.45593999997E+02  0.45594000000E+02  0.51100000000E-03 0.  1.
         11   -1    0    0    0    0 -0.00000000000E+00 -0.00000000000E+00 -0.45593999997E+02  0.45594000000E+02  0.51100000000E-03 0. -1.
    9900012    2    1    2    0    0 -0.93309125082E+01 -0.44045045515E+02 -0.14427373111E+01  0.46142318147E+02  0.10000003517E+02 0.  0.
        -12    1    1    2    0    0  0.93309125082E+01  0.44045045515E+02  0.14427373111E+01  0.45045681853E+02  0.00000000000E+00 0.  1.
         11    1    3    3    0    0 -0.87285308309E+01 -0.28975302492E+02  0.32182378585E+00  0.30263162026E+02  0.51100000000E-03 0. -1.
        -11    1    3    3    0    0 -0.15024294820E-01  0.28802763910E+00  0.24616090451E+00  0.37918478655E+00  0.51100000000E-03 0.  1.
         12    1    3    3    0    0 -0.58735738248E+00 -0.15357770662E+02 -0.20107220014E+01  0.15499971334E+02  0.00000000000E+00 0. -1.
</event>
<event>
 7    1  0.3435408E-009  0.4614232E+02  0.7816164E-02  0.1320468E+00
        -11   -1    0    0    0    0  0.00000000000E+00  0.00000000000E+00  0.45593999997E+02  0.45594000000E+02  0.51100000000E-03 0.  1.
         11   -1    0    0    0    0 -0.00000000000E+00 -0.00000000000E+00 -0.45593999997E+02  0.45594000000E+02  0.51100000000E-03 0. -1.
    9900012    2    1    2    0    0  0.10738136403E+01  0.19727054028E+02 -0.40482141021E+02  0.46142317876E+02  0.10000001050E+02 0.  0.
        -12    1    1    2    0    0 -0.10738136403E+01 -0.19727054028E+02  0.40482141021E+02  0.45045682124E+02  0.00000000000E+00 0.  1.
         11    1    3    3    0    0 -0.12963114440E+01  0.27026203899E+01 -0.30718515362E+01  0.42919520563E+01  0.51100000000E-03 0. -1.
        -11    1    3    3    0    0  0.12348891377E+01  0.16472348005E+02 -0.29241795952E+02  0.33584904805E+02  0.51100000000E-03 0.  1.
        -12    1    3    3    0    0  0.11352359466E+01  0.55208563284E+00 -0.81684935330E+01  0.82654610155E+01  0.00000000000E+00 0.  1.
</event>
<event>
 7    1  0.3435408E-009  0.4614231E+02  0.7816164E-02  0.1320468E+00
        -11   -1    0    0    0    0  0.00000000000E+00  0.00000000000E+00  0.45593999997E+02  0.45594000000E+02  0.51100000000E-03 0.  1.
         11   -1    0    0    0    0 -0.00000000000E+00 -0.00000000000E+00 -0.45593999997E+02  0.45594000000E+02  0.51100000000E-03 0. -1.
    9900012    2    1    2    0    0  0.91270285599E+01  0.44016110841E+02 -0.28971476051E+01  0.46142310660E+02  0.99999352431E+01 0.  0.
        -12    1    1    2    0    0 -0.91270285599E+01 -0.44016110841E+02  0.28971476051E+01  0.45045689340E+02  0.00000000000E+00 0.  1.
         11    1    3    3    0    0  0.46914962568E+01  0.90276043066E+01  0.43740464089E+00  0.10183275491E+02  0.51100000000E-03 0. -1.
        -11    1    3    3    0    0  0.22720037733E+00 -0.16803124919E-01 -0.54593312682E+00  0.59156199721E+00  0.51100000000E-03 0.  1.
         12    1    3    3    0    0  0.42083319257E+01  0.35005309659E+02 -0.27886191192E+01  0.35367473172E+02  0.00000000000E+00 0. -1.
</event>
<event>
 7    1  0.3860859E-009  0.4614232E+02  0.7816164E-02  0.1320468E+00
        -11   -1    0    0    0    0  0.00000000000E+00  0.00000000000E+00  0.45593999997E+02  0.45594000000E+02  0.51100000000E-03 0. -1.
         11   -1    0    0    0    0 -0.00000000000E+00 -0.00000000000E+00 -0.45593999997E+02  0.45594000000E+02  0.51100000000E-03 0.  1.
    9900012    2    1    2    0    0 -0.16384637286E+02  0.24166936921E+02  0.34301841479E+02  0.46142317544E+02  0.99999980172E+01 0.  0.
        -12    1    1    2    0    0  0.16384637286E+02 -0.24166936921E+02 -0.34301841479E+02  0.45045682456E+02  0.00000000000E+00 0.  1.
         11    1    3    3    0    0 -0.96835232283E+01  0.21430622732E+02  0.25198760926E+02  0.34467662602E+02  0.51100000000E-03 0. -1.
        -11    1    3    3    0    0 -0.24655864741E+01  0.50252535208E+00  0.33414269658E+01  0.41829155884E+01  0.51100000000E-03 0.  1.
         12    1    3    3    0    0 -0.42355275839E+01  0.22337888369E+01  0.57616535873E+01  0.74917393535E+01  0.00000000000E+00 0. -1.
</event>
<event>
 7    1  0.3435408E-009  0.4614232E+02  0.7816164E-02  0.1320468E+00
        -11   -1    0    0    0    0  0.00000000000E+00  0.00000000000E+00  0.45593999997E+02  0.45594000000E+02  0.51100000000E-03 0.  1.
         11   -1    0    0    0    0 -0.00000000000E+00 -0.00000000000E+00 -0.45593999997E+02  0.45594000000E+02  0.51100000000E-03 0. -1.
    9900012    2    1    2    0    0 -0.28544082791E+02 -0.25807628370E+02 -0.23416128077E+02  0.46142318758E+02  0.10000009087E+02 0.  0.
        -12    1    1    2    0    0  0.28544082791E+02  0.25807628370E+02  0.23416128077E+02  0.45045681242E+02  0.00000000000E+00 0.  1.
         11    1    3    3    0    0 -0.13033047351E+02 -0.10519392537E+02 -0.14468965634E+02  0.22132982387E+02  0.51100000000E-03 0. -1.
        -11    1    3    3    0    0 -0.80260374420E+01 -0.11078523432E+02 -0.51113547304E+01  0.14604003078E+02  0.51100000000E-03 0.  1.
         12    1    3    3    0    0 -0.74849979982E+01 -0.42097124020E+01 -0.38358077125E+01  0.94053332928E+01  0.00000000000E+00 0. -1.
</event>
<event>
 7    1  0.3435408E-009  0.4614232E+02  0.7816164E-02  0.1320468E+00
        -11   -1    0    0    0    0  0.00000000000E+00  0.00000000000E+00  0.45593999997E+02  0.45594000000E+02  0.51100000000E-03 0.  1.
         11   -1    0    0    0    0 -0.00000000000E+00 -0.00000000000E+00 -0.45593999997E+02  0.45594000000E+02  0.51100000000E-03 0. -1.
    9900012    2    1    2    0    0  0.32012221767E+02 -0.20370551726E+02 -0.24276982356E+02  0.46142316607E+02  0.99999894722E+01 0.  0.
        -12    1    1    2    0    0 -0.32012221767E+02  0.20370551726E+02  0.24276982356E+02  0.45045683393E+02  0.00000000000E+00 0.  1.
         11    1    3    3    0    0  0.40780181923E+01 -0.28773196777E+01 -0.66081350214E+01  0.82811019573E+01  0.51100000000E-03 0. -1.
        -11    1    3    3    0    0  0.32792897641E+01 -0.25172338528E+01 -0.20344720269E+00  0.41390335408E+01  0.51100000000E-03 0.  1.
         12    1    3    3    0    0  0.24654913811E+02 -0.14975998195E+02 -0.17465400132E+02  0.33722181108E+02  0.00000000000E+00 0. -1.
</event>
<event>
 7    1  0.3435408E-009  0.4614232E+02  0.7816164E-02  0.1320468E+00
        -11   -1    0    0    0    0  0.00000000000E+00  0.00000000000E+00  0.45593999997E+02  0.45594000000E+02  0.51100000000E-03 0.  1.
         11   -1    0    0    0    0 -0.00000000000E+00 -0.00000000000E+00 -0.45593999997E+02  0.45594000000E+02  0.51100000000E-03 0. -1.
    9900012    2    1    2    0    0  0.18826381412E+02 -0.24905900303E+01 -0.40847006474E+02  0.46142316370E+02  0.99999873150E+01 0.  0.
        -12    1    1    2    0    0 -0.18826381412E+02  0.24905900303E+01  0.40847006474E+02  0.45045683630E+02  0.00000000000E+00 0.  1.
         11    1    3    3    0    0  0.83806392246E+01 -0.10722518861E+01 -0.17749701487E+02  0.19657994329E+02  0.51100000000E-03 0. -1.
        -11    1    3    3    0    0 -0.26888014061E+00  0.20598473267E+00  0.44984131477E+00  0.56310186441E+00  0.51100000000E-03 0.  1.
        -12    1    3    3    0    0  0.10714622328E+02 -0.16243228769E+01 -0.23547146302E+02  0.25921220176E+02  0.00000000000E+00 0.  1.
</event>
<event>
 7    1  0.3435408E-009  0.4614232E+02  0.7816164E-02  0.1320468E+00
        -11   -1    0    0    0    0  0.00000000000E+00  0.00000000000E+00  0.45593999997E+02  0.45594000000E+02  0.51100000000E-03 0.  1.
         11   -1    0    0    0    0 -0.00000000000E+00 -0.00000000000E+00 -0.45593999997E+02  0.45594000000E+02  0.51100000000E-03 0. -1.
    9900012    2    1    2    0    0 -0.63486876094E+01 -0.25567777939E+02 -0.36538966519E+02  0.46142321213E+02  0.10000031479E+02 0.  0.
        -12    1    1    2    0    0  0.63486876094E+01  0.25567777939E+02  0.36538966519E+02  0.45045678787E+02  0.00000000000E+00 0.  1.
         11    1    3    3    0    0 -0.53256829553E+01 -0.10213971273E+02 -0.14037851692E+02  0.18159002959E+02  0.51100000000E-03 0. -1.
        -11    1    3    3    0    0  0.11634597499E+01 -0.34369571449E+01 -0.19311872957E+01  0.41104498096E+01  0.51100000000E-03 0.  1.
         12    1    3    3    0    0 -0.21864644040E+01 -0.11916849521E+02 -0.20569927532E+02  0.23872868444E+02  0.00000000000E+00 0. -1.
</event>
<event>
 7    1  0.3435408E-009  0.4614232E+02  0.7816164E-02  0.1320468E+00
        -11   -1    0    0    0    0  0.00000000000E+00  0.00000000000E+00  0.45593999997E+02  0.45594000000E+02  0.51100000000E-03 0.  1.
         11   -1    0    0    0    0 -0.00000000000E+00 -0.00000000000E+00 -0.45593999997E+02  0.45594000000E+02  0.51100000000E-03 0. -1.
    9900012    2    1    2    0    0 -0.35977882451E+02 -0.28322450485E+00 -0.27103970132E+02  0.46142318313E+02  0.10000005029E+02 0.  0.
        -12    1    1    2    0    0  0.35977882451E+02  0.28322450485E+00  0.27103970132E+02  0.45045681687E+02  0.00000000000E+00 0.  1.
         11    1    3    3    0    0 -0.21742267810E+02  0.39564251331E+01 -0.18063371529E+02  0.28542335234E+02  0.51100000000E-03 0.  1.
        -11    1    3    3    0    0 -0.51006963651E+01 -0.24401020126E+01 -0.45780468792E+01  0.72752810757E+01  0.51100000000E-03 0. -1.
        -12    1    3    3    0    0 -0.91349182755E+01 -0.17995476253E+01 -0.44625517232E+01  0.10324702002E+02  0.00000000000E+00 0.  1.
</event>
<event>
 7    1  0.3435408E-009  0.4614232E+02  0.7816164E-02  0.1320468E+00
        -11   -1    0    0    0    0  0.00000000000E+00  0.00000000000E+00  0.45593999997E+02  0.45594000000E+02  0.51100000000E-03 0.  1.
         11   -1    0    0    0    0 -0.00000000000E+00 -0.00000000000E+00 -0.45593999997E+02  0.45594000000E+02  0.51100000000E-03 0. -1.
    9900012    2    1    2    0    0  0.42076046387E+02 -0.15236626166E+02 -0.51541303930E+01  0.46142317448E+02  0.99999971429E+01 0.  0.
        -12    1    1    2    0    0 -0.42076046387E+02  0.15236626166E+02  0.51541303930E+01  0.45045682552E+02  0.00000000000E+00 0.  1.
         11    1    3    3    0    0  0.13036773483E+02 -0.46403792379E+01 -0.39126743317E+01  0.14380528606E+02  0.51100000000E-03 0. -1.
        -11    1    3    3    0    0  0.35055845260E+01 -0.39270154962E+01 -0.10658572842E+01  0.53709054719E+01  0.51100000000E-03 0.  1.
        -12    1    3    3    0    0  0.25533688378E+02 -0.66692314316E+01 -0.17559877712E+00  0.26390883370E+02  0.00000000000E+00 0.  1.
</event>
<event>
 7    1  0.3435408E-009  0.4614232E+02  0.7816164E-02  0.1320468E+00
        -11   -1    0    0    0    0  0.00000000000E+00  0.00000000000E+00  0.45593999997E+02  0.45594000000E+02  0.51100000000E-03 0.  1.
         11   -1    0    0    0    0 -0.00000000000E+00 -0.00000000000E+00 -0.45593999997E+02  0.45594000000E+02  0.51100000000E-03 0. -1.
    9900012    2    1    2    0    0 -0.44648262443E+02  0.40471919554E+01 -0.43893040628E+01  0.46142322160E+02  0.10000040109E+02 0.  0.
        -12    1    1    2    0    0  0.44648262443E+02 -0.40471919554E+01  0.43893040628E+01  0.45045677840E+02  0.00000000000E+00 0.  1.
         11    1    3    3    0    0 -0.18703452025E+02  0.29335877060E+01  0.13314441251E+00  0.18932585195E+02  0.51100000000E-03 0. -1.
        -11    1    3    3    0    0 -0.18244459057E+02 -0.44680432476E+00 -0.60084687733E+01  0.19213578991E+02  0.51100000000E-03 0.  1.
        -12    1    3    3    0    0 -0.77003513620E+01  0.15604085742E+01  0.14860202980E+01  0.79961579739E+01  0.00000000000E+00 0.  1.
</event>
<event>
 7    1  0.3435408E-009  0.4614232E+02  0.7816164E-02  0.1320468E+00
        -11   -1    0    0    0    0  0.00000000000E+00  0.00000000000E+00  0.45593999997E+02  0.45594000000E+02  0.51100000000E-03 0.  1.
         11   -1    0    0    0    0 -0.00000000000E+00 -0.00000000000E+00 -0.45593999997E+02  0.45594000000E+02  0.51100000000E-03 0. -1.
    9900012    2    1    2    0    0  0.14851513135E+02 -0.38641248560E+02 -0.17759505438E+02  0.46142316898E+02  0.99999921330E+01 0.  0.
        -12    1    1    2    0    0 -0.14851513135E+02  0.38641248560E+02  0.17759505438E+02  0.45045683102E+02  0.00000000000E+00 0.  1.
         11    1    3    3    0    0  0.77585072596E+01 -0.23957865208E+02 -0.84522896507E+01  0.26563413577E+02  0.51100000000E-03 0. -1.
        -11    1    3    3    0    0 -0.66410415570E+00 -0.10271224796E+01 -0.17874964415E+01  0.21659082869E+01  0.51100000000E-03 0.  1.
        -12    1    3    3    0    0  0.77571100315E+01 -0.13656260872E+02 -0.75197193461E+01  0.17412995035E+02  0.00000000000E+00 0.  1.
</event>
<event>
 7    1  0.3435408E-009  0.4614232E+02  0.7816164E-02  0.1320468E+00
        -11   -1    0    0    0    0  0.00000000000E+00  0.00000000000E+00  0.45593999997E+02  0.45594000000E+02  0.51100000000E-03 0.  1.
         11   -1    0    0    0    0 -0.00000000000E+00 -0.00000000000E+00 -0.45593999997E+02  0.45594000000E+02  0.51100000000E-03 0. -1.
    9900012    2    1    2    0    0 -0.17214267431E+02  0.39953937200E+02  0.11681840510E+02  0.46142317646E+02  0.99999989536E+01 0.  0.
        -12    1    1    2    0    0  0.17214267431E+02 -0.39953937200E+02 -0.11681840510E+02  0.45045682354E+02  0.00000000000E+00 0.  1.
         11    1    3    3    0    0  0.90350156111E+00  0.29948762585E+01  0.18038548070E+01  0.36110235807E+01  0.51100000000E-03 0. -1.
        -11    1    3    3    0    0 -0.16585412742E+02  0.31524584156E+02  0.95307006210E+01  0.36874240014E+02  0.51100000000E-03 0.  1.
        -12    1    3    3    0    0 -0.15323562505E+01  0.54344767855E+01  0.34728508183E+00  0.56570540513E+01  0.00000000000E+00 0.  1.
</event>
<event>
 7    1  0.3435408E-009  0.4614232E+02  0.7816164E-02  0.1320468E+00
        -11   -1    0    0    0    0  0.00000000000E+00  0.00000000000E+00  0.45593999997E+02  0.45594000000E+02  0.51100000000E-03 0.  1.
         11   -1    0    0    0    0 -0.00000000000E+00 -0.00000000000E+00 -0.45593999997E+02  0.45594000000E+02  0.51100000000E-03 0. -1.
    9900012    2    1    2    0    0 -0.38045153289E+02 -0.18467298228E+02  0.15512531782E+02  0.46142318354E+02  0.10000005410E+02 0.  0.
        -12    1    1    2    0    0  0.38045153289E+02  0.18467298228E+02 -0.15512531782E+02  0.45045681646E+02  0.00000000000E+00 0.  1.
         11    1    3    3    0    0 -0.13470357405E+02 -0.72248073944E+01  0.65102960435E+01  0.16614220576E+02  0.51100000000E-03 0. -1.
        -11    1    3    3    0    0 -0.23894696622E+02 -0.11596944636E+02  0.99018575843E+01  0.28345942134E+02  0.51100000000E-03 0.  1.
        -12    1    3    3    0    0 -0.68009926184E+00  0.35445380223E+00 -0.89962184582E+00  0.11821556451E+01  0.00000000000E+00 0.  1.
</event>
<event>
 7    1  0.3435408E-009  0.4614232E+02  0.7816164E-02  0.1320468E+00
        -11   -1    0    0    0    0  0.00000000000E+00  0.00000000000E+00  0.45593999997E+02  0.45594000000E+02  0.51100000000E-03 0.  1.
         11   -1    0    0    0    0 -0.00000000000E+00 -0.00000000000E+00 -0.45593999997E+02  0.45594000000E+02  0.51100000000E-03 0. -1.
    9900012    2    1    2    0    0 -0.83858888887E+01 -0.44163496631E+02  0.28940620668E+01  0.46142321380E+02  0.10000033000E+02 0.  0.
        -12    1    1    2    0    0  0.83858888887E+01  0.44163496631E+02 -0.28940620668E+01  0.45045678620E+02  0.00000000000E+00 0.  1.
         11    1    3    3    0    0  0.30608372135E+00 -0.17060974569E+02  0.19248329791E+01  0.17171939982E+02  0.51100000000E-03 0. -1.
        -11    1    3    3    0    0 -0.44395258201E+01 -0.13156292770E+02  0.31229797318E+01  0.14232021347E+02  0.51100000000E-03 0.  1.
        -12    1    3    3    0    0 -0.42524467900E+01 -0.13946229291E+02 -0.21537506440E+01  0.14738360050E+02  0.00000000000E+00 0.  1.
</event>
<event>
 7    1  0.3435408E-009  0.4614232E+02  0.7816164E-02  0.1320468E+00
        -11   -1    0    0    0    0  0.00000000000E+00  0.00000000000E+00  0.45593999997E+02  0.45594000000E+02  0.51100000000E-03 0.  1.
         11   -1    0    0    0    0 -0.00000000000E+00 -0.00000000000E+00 -0.45593999997E+02  0.45594000000E+02  0.51100000000E-03 0. -1.
    9900012    2    1    2    0    0  0.44662092778E+02 -0.58225087755E+01 -0.71364611167E+00  0.46142318403E+02  0.10000005853E+02 0.  0.
        -12    1    1    2    0    0 -0.44662092778E+02  0.58225087755E+01  0.71364611167E+00  0.45045681597E+02  0.00000000000E+00 0.  1.
         11    1    3    3    0    0  0.20080726950E+01 -0.95058471408E+00  0.13402748898E+01  0.25946684352E+01  0.51100000000E-03 0.  1.
        -11    1    3    3    0    0  0.25492995568E+01 -0.36911705162E+00 -0.18827154277E+01  0.31905788300E+01  0.51100000000E-03 0. -1.
         12    1    3    3    0    0  0.40104720526E+02 -0.45028070098E+01 -0.17120557378E+00  0.40357071138E+02  0.00000000000E+00 0. -1.
</event>
<event>
 7    1  0.3435408E-009  0.4614232E+02  0.7816164E-02  0.1320468E+00
        -11   -1    0    0    0    0  0.00000000000E+00  0.00000000000E+00  0.45593999997E+02  0.45594000000E+02  0.51100000000E-03 0.  1.
         11   -1    0    0    0    0 -0.00000000000E+00 -0.00000000000E+00 -0.45593999997E+02  0.45594000000E+02  0.51100000000E-03 0. -1.
    9900012    2    1    2    0    0  0.34244536543E+02 -0.10553930494E+02 -0.27295408107E+02  0.46142322787E+02  0.10000045826E+02 0.  0.
        -12    1    1    2    0    0 -0.34244536543E+02  0.10553930494E+02  0.27295408107E+02  0.45045677213E+02  0.00000000000E+00 0.  1.
         11    1    3    3    0    0  0.10122866968E+02 -0.32943469119E+01 -0.14055048300E+02  0.17631492852E+02  0.51100000000E-03 0. -1.
        -11    1    3    3    0    0  0.14386924599E+02 -0.48742135303E+01 -0.87285505567E+01  0.17519393598E+02  0.51100000000E-03 0.  1.
         12    1    3    3    0    0  0.97347449763E+01 -0.23853700519E+01 -0.45118092507E+01  0.10991436337E+02  0.00000000000E+00 0. -1.
</event>
<event>
 7    1  0.3435408E-009  0.4614232E+02  0.7816164E-02  0.1320468E+00
        -11   -1    0    0    0    0  0.00000000000E+00  0.00000000000E+00  0.45593999997E+02  0.45594000000E+02  0.51100000000E-03 0. -1.
         11   -1    0    0    0    0 -0.00000000000E+00 -0.00000000000E+00 -0.45593999997E+02  0.45594000000E+02  0.51100000000E-03 0.  1.
    9900012    2    1    2    0    0 -0.44709954238E+02  0.48077783700E+01 -0.26492780755E+01  0.46142318574E+02  0.10000007409E+02 0.  0.
        -12    1    1    2    0    0  0.44709954238E+02 -0.48077783700E+01  0.26492780755E+01  0.45045681426E+02  0.00000000000E+00 0.  1.
         11    1    3    3    0    0 -0.48060702801E+01  0.55349949785E+00  0.71831500569E+00  0.48908741489E+01  0.51100000000E-03 0. -1.
        -11    1    3    3    0    0 -0.83906432959E+01 -0.81583202862E+00 -0.39902554523E+01  0.93268759858E+01  0.51100000000E-03 0.  1.
        -12    1    3    3    0    0 -0.31513240662E+02  0.50701109008E+01  0.62266237117E+00  0.31924568439E+02  0.00000000000E+00 0.  1.
</event>
<event>
 7    1  0.3595780E-009  0.4614232E+02  0.7816164E-02  0.1320468E+00
        -11   -1    0    0    0    0  0.00000000000E+00  0.00000000000E+00  0.45593999997E+02  0.45594000000E+02  0.51100000000E-03 0. -1.
         11   -1    0    0    0    0 -0.00000000000E+00 -0.00000000000E+00 -0.45593999997E+02  0.45594000000E+02  0.51100000000E-03 0.  1.
    9900012    2    1    2    0    0  0.13278552782E+02  0.14284336531E+02  0.40604817434E+02  0.46142318376E+02  0.10000005609E+02 0.  0.
        -12    1    1    2    0    0 -0.13278552782E+02 -0.14284336531E+02 -0.40604817434E+02  0.45045681624E+02  0.00000000000E+00 0.  1.
         11    1    3    3    0    0  0.49223136404E+01  0.69687294431E+01  0.14802128856E+02  0.17084946021E+02  0.51100000000E-03 0. -1.
        -11    1    3    3    0    0  0.34759910114E+01 -0.10380580206E+01  0.83146730686E+01  0.90715966877E+01  0.51100000000E-03 0.  1.
        -12    1    3    3    0    0  0.48802481303E+01  0.83536651086E+01  0.17488015510E+02  0.19985775667E+02  0.00000000000E+00 0.  1.
</event>
<event>
 7    1  0.3435408E-009  0.4614232E+02  0.7816164E-02  0.1320468E+00
        -11   -1    0    0    0    0  0.00000000000E+00  0.00000000000E+00  0.45593999997E+02  0.45594000000E+02  0.51100000000E-03 0. -1.
         11   -1    0    0    0    0 -0.00000000000E+00 -0.00000000000E+00 -0.45593999997E+02  0.45594000000E+02  0.51100000000E-03 0.  1.
    9900012    2    1    2    0    0  0.13230162470E+02  0.85374704158E+01  0.42204122381E+02  0.46142317121E+02  0.99999941619E+01 0.  0.
        -12    1    1    2    0    0 -0.13230162470E+02 -0.85374704158E+01 -0.42204122381E+02  0.45045682879E+02  0.00000000000E+00 0.  1.
         11    1    3    3    0    0  0.42437285904E+01  0.73363808031E+01  0.16287226679E+02  0.18360432152E+02  0.51100000000E-03 0. -1.
        -11    1    3    3    0    0  0.75273998934E+01  0.20538007777E+01  0.16983910693E+02  0.18690453967E+02  0.51100000000E-03 0.  1.
         12    1    3    3    0    0  0.14590339863E+01 -0.85271116498E+00  0.89329850092E+01  0.90914310028E+01  0.00000000000E+00 0. -1.
</event>
<event>
 7    1  0.3435408E-009  0.4614232E+02  0.7816164E-02  0.1320468E+00
        -11   -1    0    0    0    0  0.00000000000E+00  0.00000000000E+00  0.45593999997E+02  0.45594000000E+02  0.51100000000E-03 0. -1.
         11   -1    0    0    0    0 -0.00000000000E+00 -0.00000000000E+00 -0.45593999997E+02  0.45594000000E+02  0.51100000000E-03 0.  1.
    9900012    2    1    2    0    0 -0.16450182927E+00  0.34205347807E+02  0.29310076123E+02  0.46142318278E+02  0.10000004715E+02 0.  0.
        -12    1    1    2    0    0  0.16450182927E+00 -0.34205347807E+02 -0.29310076123E+02  0.45045681722E+02  0.00000000000E+00 0.  1.
         11    1    3    3    0    0  0.10355794507E+01  0.12399008927E+02  0.90809413106E+01  0.15403614593E+02  0.51100000000E-03 0. -1.
        -11    1    3    3    0    0 -0.39920507748E+01  0.76020082572E+01  0.87963321941E+01  0.12292374029E+02  0.51100000000E-03 0.  1.
        -12    1    3    3    0    0  0.27919694948E+01  0.14204330622E+02  0.11432802619E+02  0.18446329657E+02  0.00000000000E+00 0.  1.
</event>
<event>
 7    1  0.3435408E-009  0.4614232E+02  0.7816164E-02  0.1320468E+00
        -11   -1    0    0    0    0  0.00000000000E+00  0.00000000000E+00  0.45593999997E+02  0.45594000000E+02  0.51100000000E-03 0. -1.
         11   -1    0    0    0    0 -0.00000000000E+00 -0.00000000000E+00 -0.45593999997E+02  0.45594000000E+02  0.51100000000E-03 0.  1.
    9900012    2    1    2    0    0 -0.35345893505E+02  0.19947470777E+02  0.19541742408E+02  0.46142317916E+02  0.10000001412E+02 0.  0.
        -12    1    1    2    0    0  0.35345893505E+02 -0.19947470777E+02 -0.19541742408E+02  0.45045682084E+02  0.00000000000E+00 0.  1.
         11    1    3    3    0    0 -0.16666900783E+02  0.11512110321E+02  0.87062187146E+01  0.22047959324E+02  0.51100000000E-03 0. -1.
        -11    1    3    3    0    0 -0.10865487970E+02  0.77442935529E+01  0.88233216653E+01  0.15996371993E+02  0.51100000000E-03 0.  1.
        -12    1    3    3    0    0 -0.78135047512E+01  0.69106690323E+00  0.20122020287E+01  0.80979865995E+01  0.00000000000E+00 0.  1.
</event>
<event>
 7    1  0.3435408E-009  0.4614231E+02  0.7816164E-02  0.1320468E+00
        -11   -1    0    0    0    0  0.00000000000E+00  0.00000000000E+00  0.45593999997E+02  0.45594000000E+02  0.51100000000E-03 0. -1.
         11   -1    0    0    0    0 -0.00000000000E+00 -0.00000000000E+00 -0.45593999997E+02  0.45594000000E+02  0.51100000000E-03 0.  1.
    9900012    2    1    2    0    0  0.20571387927E+02 -0.25717025996E+02  0.30733803537E+02  0.46142310893E+02  0.99999373675E+01 0.  0.
        -12    1    1    2    0    0 -0.20571387927E+02  0.25717025996E+02 -0.30733803537E+02  0.45045689107E+02  0.00000000000E+00 0.  1.
         11    1    3    3    0    0  0.13963322583E+01 -0.46523346444E+01  0.27943293002E+01  0.56037699737E+01  0.51100000000E-03 0. -1.
        -11    1    3    3    0    0  0.88350661735E+01 -0.47324912276E+01  0.88393163409E+01  0.13363696388E+02  0.51100000000E-03 0.  1.
         12    1    3    3    0    0  0.10339989495E+02 -0.16332200124E+02  0.19100157896E+02  0.27174844531E+02  0.00000000000E+00 0. -1.
</event>
<event>
 7    1  0.3435408E-009  0.4614232E+02  0.7816164E-02  0.1320468E+00
        -11   -1    0    0    0    0  0.00000000000E+00  0.00000000000E+00  0.45593999997E+02  0.45594000000E+02  0.51100000000E-03 0. -1.
         11   -1    0    0    0    0 -0.00000000000E+00 -0.00000000000E+00 -0.45593999997E+02  0.45594000000E+02  0.51100000000E-03 0.  1.
    9900012    2    1    2    0    0  0.12302938545E+02 -0.20803239670E+02  0.38012846054E+02  0.46142317158E+02  0.99999944970E+01 0.  0.
        -12    1    1    2    0    0 -0.12302938545E+02  0.20803239670E+02 -0.38012846054E+02  0.45045682842E+02  0.00000000000E+00 0.  1.
         11    1    3    3    0    0  0.50963844990E+01 -0.13144116511E+02  0.24882190152E+02  0.28598327238E+02  0.51100000000E-03 0. -1.
        -11    1    3    3    0    0  0.34317789782E+00 -0.30877597369E+01  0.20133658739E+01  0.37021174570E+01  0.51100000000E-03 0.  1.
         12    1    3    3    0    0  0.68633761482E+01 -0.45713634216E+01  0.11117290029E+02  0.13841872462E+02  0.00000000000E+00 0. -1.
</event>
<event>
 7    1  0.3435408E-009  0.4614232E+02  0.7816164E-02  0.1320468E+00
        -11   -1    0    0    0    0  0.00000000000E+00  0.00000000000E+00  0.45593999997E+02  0.45594000000E+02  0.51100000000E-03 0.  1.
         11   -1    0    0    0    0 -0.00000000000E+00 -0.00000000000E+00 -0.45593999997E+02  0.45594000000E+02  0.51100000000E-03 0. -1.
    9900012    2    1    2    0    0  0.93224426891E+00  0.44105769089E+02  0.91063563517E+01  0.46142315720E+02  0.99999813858E+01 0.  0.
        -12    1    1    2    0    0 -0.93224426891E+00 -0.44105769089E+02 -0.91063563517E+01  0.45045684280E+02  0.00000000000E+00 0.  1.
         11    1    3    3    0    0 -0.75609624758E+00  0.20332795613E+02  0.80178504389E+00  0.20362640264E+02  0.51100000000E-03 0. -1.
        -11    1    3    3    0    0  0.99375950387E+00  0.46460995163E+01  0.38830478737E+01  0.61361111233E+01  0.51100000000E-03 0.  1.
        -12    1    3    3    0    0  0.69458101263E+00  0.19126873959E+02  0.44215234341E+01  0.19643564333E+02  0.00000000000E+00 0.  1.
</event>
<event>
 7    1  0.3435408E-009  0.4614232E+02  0.7816164E-02  0.1320468E+00
        -11   -1    0    0    0    0  0.00000000000E+00  0.00000000000E+00  0.45593999997E+02  0.45594000000E+02  0.51100000000E-03 0. -1.
         11   -1    0    0    0    0 -0.00000000000E+00 -0.00000000000E+00 -0.45593999997E+02  0.45594000000E+02  0.51100000000E-03 0.  1.
    9900012    2    1    2    0    0  0.25213346353E+02  0.36314200486E+02 -0.86417258768E+01  0.46142318549E+02  0.10000007188E+02 0.  0.
        -12    1    1    2    0    0 -0.25213346353E+02 -0.36314200486E+02  0.86417258768E+01  0.45045681451E+02  0.00000000000E+00 0.  1.
         11    1    3    3    0    0  0.35129435498E+01  0.76246706860E+01 -0.87902617794E+00  0.84409159892E+01  0.51100000000E-03 0. -1.
        -11    1    3    3    0    0  0.12424865472E+02  0.11106266804E+02 -0.97076152811E+00  0.16693376607E+02  0.51100000000E-03 0.  1.
        -12    1    3    3    0    0  0.92755373308E+01  0.17583262995E+02 -0.67919381708E+01  0.21008025953E+02  0.00000000000E+00 0.  1.
</event>
<event>
 7    1  0.3435408E-009  0.4614232E+02  0.7816164E-02  0.1320468E+00
        -11   -1    0    0    0    0  0.00000000000E+00  0.00000000000E+00  0.45593999997E+02  0.45594000000E+02  0.51100000000E-03 0. -1.
         11   -1    0    0    0    0 -0.00000000000E+00 -0.00000000000E+00 -0.45593999997E+02  0.45594000000E+02  0.51100000000E-03 0.  1.
    9900012    2    1    2    0    0  0.14079887904E+01 -0.43485488975E+02  0.11668045815E+02  0.46142317887E+02  0.10000001152E+02 0.  0.
        -12    1    1    2    0    0 -0.14079887904E+01  0.43485488975E+02 -0.11668045815E+02  0.45045682113E+02  0.00000000000E+00 0.  1.
         11    1    3    3    0    0 -0.44927691619E+00 -0.19786263493E+02  0.76198729315E+01  0.21207558476E+02  0.51100000000E-03 0. -1.
        -11    1    3    3    0    0  0.15032793068E+01 -0.23042080195E+02  0.25125753584E+01  0.23227361959E+02  0.51100000000E-03 0.  1.
        -12    1    3    3    0    0  0.35398639979E+00 -0.65714528681E+00  0.15355975254E+01  0.17073974520E+01  0.00000000000E+00 0.  1.
</event>
<event>
 7    1  0.3435408E-009  0.4614232E+02  0.7816164E-02  0.1320468E+00
        -11   -1    0    0    0    0  0.00000000000E+00  0.00000000000E+00  0.45593999997E+02  0.45594000000E+02  0.51100000000E-03 0.  1.
         11   -1    0    0    0    0 -0.00000000000E+00 -0.00000000000E+00 -0.45593999997E+02  0.45594000000E+02  0.51100000000E-03 0. -1.
    9900012    2    1    2    0    0  0.42721795490E+02  0.14177944240E+02 -0.17168338050E+01  0.46142318397E+02  0.10000005802E+02 0.  0.
        -12    1    1    2    0    0 -0.42721795490E+02 -0.14177944240E+02  0.17168338050E+01  0.45045681603E+02  0.00000000000E+00 0.  1.
         11    1    3    3    0    0  0.25110623542E+02  0.11921143664E+02 -0.29549898881E+01  0.27953336946E+02  0.51100000000E-03 0. -1.
        -11    1    3    3    0    0  0.20616998266E+01 -0.50926667924E+00  0.11069655419E+01  0.23948552561E+01  0.51100000000E-03 0.  1.
        -12    1    3    3    0    0  0.15549472121E+02  0.27660672550E+01  0.13119054117E+00  0.15794126195E+02  0.00000000000E+00 0.  1.
</event>
<event>
 7    1  0.3435408E-009  0.4614232E+02  0.7816164E-02  0.1320468E+00
        -11   -1    0    0    0    0  0.00000000000E+00  0.00000000000E+00  0.45593999997E+02  0.45594000000E+02  0.51100000000E-03 0.  1.
         11   -1    0    0    0    0 -0.00000000000E+00 -0.00000000000E+00 -0.45593999997E+02  0.45594000000E+02  0.51100000000E-03 0. -1.
    9900012    2    1    2    0    0  0.24239422332E+02  0.34678523964E+02 -0.15458461892E+02  0.46142315818E+02  0.99999822852E+01 0.  0.
        -12    1    1    2    0    0 -0.24239422332E+02 -0.34678523964E+02  0.15458461892E+02  0.45045684182E+02  0.00000000000E+00 0.  1.
         11    1    3    3    0    0  0.79942760420E+01  0.59719107522E+01 -0.40750986346E+01  0.10778617565E+02  0.51100000000E-03 0. -1.
        -11    1    3    3    0    0  0.10687996526E+02  0.17207634091E+02 -0.97734128154E+01  0.22491232493E+02  0.51100000000E-03 0.  1.
        -12    1    3    3    0    0  0.55571497639E+01  0.11498979121E+02 -0.16099504424E+01  0.12872465760E+02  0.00000000000E+00 0.  1.
</event>
<event>
 7    1  0.3435408E-009  0.4614232E+02  0.7816164E-02  0.1320468E+00
        -11   -1    0    0    0    0  0.00000000000E+00  0.00000000000E+00  0.45593999997E+02  0.45594000000E+02  0.51100000000E-03 0.  1.
         11   -1    0    0    0    0 -0.00000000000E+00 -0.00000000000E+00 -0.45593999997E+02  0.45594000000E+02  0.51100000000E-03 0. -1.
    9900012    2    1    2    0    0 -0.37045571598E+01 -0.31134893380E+01 -0.44784996193E+02  0.46142318257E+02  0.10000004526E+02 0.  0.
        -12    1    1    2    0    0  0.37045571598E+01  0.31134893380E+01  0.44784996193E+02  0.45045681743E+02  0.00000000000E+00 0.  1.
         11    1    3    3    0    0 -0.73496035148E+00 -0.64119065486E-01 -0.70480184938E+01  0.70865254479E+01  0.51100000000E-03 0. -1.
        -11    1    3    3    0    0  0.13136998233E+00 -0.42421309363E+01 -0.73472622344E+01  0.84849982649E+01  0.51100000000E-03 0.  1.
        -12    1    3    3    0    0 -0.31009667906E+01  0.11927606639E+01 -0.30389715465E+02  0.30570794545E+02  0.00000000000E+00 0.  1.
</event>
<event>
 7    1  0.3435408E-009  0.4614231E+02  0.7816164E-02  0.1320468E+00
        -11   -1    0    0    0    0  0.00000000000E+00  0.00000000000E+00  0.45593999997E+02  0.45594000000E+02  0.51100000000E-03 0. -1.
         11   -1    0    0    0    0 -0.00000000000E+00 -0.00000000000E+00 -0.45593999997E+02  0.45594000000E+02  0.51100000000E-03 0.  1.
    9900012    2    1    2    0    0 -0.38277776168E+02  0.12029659158E+02  0.20474696488E+02  0.46142311592E+02  0.99999437457E+01 0.  0.
        -12    1    1    2    0    0  0.38277776168E+02 -0.12029659158E+02 -0.20474696488E+02  0.45045688408E+02  0.00000000000E+00 0.  1.
         11    1    3    3    0    0 -0.15267195041E+02  0.50458993698E+01  0.12379549727E+02  0.20292895224E+02  0.51100000000E-03 0. -1.
        -11    1    3    3    0    0 -0.11530356559E+02  0.26855344213E+01  0.15120822373E+01  0.11935141828E+02  0.51100000000E-03 0.  1.
        -12    1    3    3    0    0 -0.11480224569E+02  0.42982253671E+01  0.65830645244E+01  0.13914274540E+02  0.00000000000E+00 0.  1.
</event>
<event>
 7    1  0.4340971E-009  0.4614232E+02  0.7816164E-02  0.1320468E+00
        -11   -1    0    0    0    0  0.00000000000E+00  0.00000000000E+00  0.45593999997E+02  0.45594000000E+02  0.51100000000E-03 0. -1.
         11   -1    0    0    0    0 -0.00000000000E+00 -0.00000000000E+00 -0.45593999997E+02  0.45594000000E+02  0.51100000000E-03 0.  1.
    9900012    2    1    2    0    0  0.10784871077E+02 -0.15674532031E+02  0.40830247465E+02  0.46142317559E+02  0.99999981590E+01 0.  0.
        -12    1    1    2    0    0 -0.10784871077E+02  0.15674532031E+02 -0.40830247465E+02  0.45045682441E+02  0.00000000000E+00 0.  1.
         11    1    3    3    0    0  0.45988817479E+01 -0.50307286454E+01  0.19134141153E+02  0.20311900501E+02  0.51100000000E-03 0. -1.
        -11    1    3    3    0    0  0.16081647125E+01 -0.12501328604E+01  0.35412558401E+00  0.20674697341E+01  0.51100000000E-03 0.  1.
        -12    1    3    3    0    0  0.45778246162E+01 -0.93936705255E+01  0.21341980728E+02  0.23762947325E+02  0.00000000000E+00 0.  1.
</event>
<event>
 7    1  0.3435408E-009  0.4614232E+02  0.7816164E-02  0.1320468E+00
        -11   -1    0    0    0    0  0.00000000000E+00  0.00000000000E+00  0.45593999997E+02  0.45594000000E+02  0.51100000000E-03 0. -1.
         11   -1    0    0    0    0 -0.00000000000E+00 -0.00000000000E+00 -0.45593999997E+02  0.45594000000E+02  0.51100000000E-03 0.  1.
    9900012    2    1    2    0    0  0.37002069253E+02  0.20634267441E+02  0.15303183021E+02  0.46142317272E+02  0.99999955418E+01 0.  0.
        -12    1    1    2    0    0 -0.37002069253E+02 -0.20634267441E+02 -0.15303183021E+02  0.45045682728E+02  0.00000000000E+00 0.  1.
         11    1    3    3    0    0  0.57818038788E+01  0.54138350834E+00  0.18631435401E+01  0.60986602060E+01  0.51100000000E-03 0. -1.
        -11    1    3    3    0    0  0.83084049450E+01  0.87753491425E+01  0.30958947060E+01  0.12474811004E+02  0.51100000000E-03 0.  1.
        -12    1    3    3    0    0  0.22911860429E+02  0.11317534790E+02  0.10344144775E+02  0.27568846062E+02  0.00000000000E+00 0.  1.
</event>
<event>
 7    1  0.3435408E-009  0.4614232E+02  0.7816164E-02  0.1320468E+00
        -11   -1    0    0    0    0  0.00000000000E+00  0.00000000000E+00  0.45593999997E+02  0.45594000000E+02  0.51100000000E-03 0.  1.
         11   -1    0    0    0    0 -0.00000000000E+00 -0.00000000000E+00 -0.45593999997E+02  0.45594000000E+02  0.51100000000E-03 0. -1.
    9900012    2    1    2    0    0  0.80544657906E+01 -0.54430659123E+01 -0.43984224214E+02  0.46142319126E+02  0.10000012447E+02 0.  0.
        -12    1    1    2    0    0 -0.80544657906E+01  0.54430659123E+01  0.43984224214E+02  0.45045680874E+02  0.00000000000E+00 0.  1.
         11    1    3    3    0    0  0.15854901837E+01 -0.55491655043E+00 -0.12705091326E+02  0.12815656728E+02  0.51100000000E-03 0. -1.
        -11    1    3    3    0    0  0.14623819659E+01  0.20795619540E+01 -0.11312162467E+02  0.11594315800E+02  0.51100000000E-03 0.  1.
        -12    1    3    3    0    0  0.50065936410E+01 -0.69677113158E+01 -0.19966970420E+02  0.21732346598E+02  0.00000000000E+00 0.  1.
</event>
<event>
 7    1  0.3435408E-009  0.4614232E+02  0.7816164E-02  0.1320468E+00
        -11   -1    0    0    0    0  0.00000000000E+00  0.00000000000E+00  0.45593999997E+02  0.45594000000E+02  0.51100000000E-03 0. -1.
         11   -1    0    0    0    0 -0.00000000000E+00 -0.00000000000E+00 -0.45593999997E+02  0.45594000000E+02  0.51100000000E-03 0.  1.
    9900012    2    1    2    0    0  0.29661922659E+02 -0.33334765550E+02  0.61706732097E+01  0.46142318098E+02  0.10000003072E+02 0.  0.
        -12    1    1    2    0    0 -0.29661922659E+02  0.33334765550E+02 -0.61706732097E+01  0.45045681902E+02  0.00000000000E+00 0.  1.
         11    1    3    3    0    0  0.13053646111E+02 -0.10465368176E+02  0.25364021441E+01  0.16922025409E+02  0.51100000000E-03 0. -1.
        -11    1    3    3    0    0  0.12249625263E+02 -0.14448712119E+02 -0.32426917739E+00  0.18945283100E+02  0.51100000000E-03 0.  1.
         12    1    3    3    0    0  0.43586512863E+01 -0.84206852553E+01  0.39585402430E+01  0.10275009589E+02  0.00000000000E+00 0. -1.
</event>
<event>
 7    1  0.3435408E-009  0.4614232E+02  0.7816164E-02  0.1320468E+00
        -11   -1    0    0    0    0  0.00000000000E+00  0.00000000000E+00  0.45593999997E+02  0.45594000000E+02  0.51100000000E-03 0.  1.
         11   -1    0    0    0    0 -0.00000000000E+00 -0.00000000000E+00 -0.45593999997E+02  0.45594000000E+02  0.51100000000E-03 0. -1.
    9900012    2    1    2    0    0 -0.12496308798E+02  0.43075756148E+02 -0.41755252842E+01  0.46142317491E+02  0.99999975330E+01 0.  0.
        -12    1    1    2    0    0  0.12496308798E+02 -0.43075756148E+02  0.41755252842E+01  0.45045682509E+02  0.00000000000E+00 0.  1.
         11    1    3    3    0    0 -0.79983866151E+01  0.22935893419E+02 -0.52337404118E+01  0.24847966402E+02  0.51100000000E-03 0.  1.
        -11    1    3    3    0    0 -0.27213780648E+01  0.35484435236E+01 -0.65829791294E+00  0.45200338954E+01  0.51100000000E-03 0. -1.
         12    1    3    3    0    0 -0.17765441183E+01  0.16591419206E+02  0.17165130405E+01  0.16774317193E+02  0.00000000000E+00 0. -1.
</event>
<event>
 7    1  0.3435408E-009  0.4614232E+02  0.7816164E-02  0.1320468E+00
        -11   -1    0    0    0    0  0.00000000000E+00  0.00000000000E+00  0.45593999997E+02  0.45594000000E+02  0.51100000000E-03 0. -1.
         11   -1    0    0    0    0 -0.00000000000E+00 -0.00000000000E+00 -0.45593999997E+02  0.45594000000E+02  0.51100000000E-03 0.  1.
    9900012    2    1    2    0    0  0.36119193688E+02  0.20538181163E+02  0.17398289112E+02  0.46142317607E+02  0.99999985972E+01 0.  0.
        -12    1    1    2    0    0 -0.36119193688E+02 -0.20538181163E+02 -0.17398289112E+02  0.45045682393E+02  0.00000000000E+00 0.  1.
         11    1    3    3    0    0  0.11482600920E+02  0.87827403540E+01  0.43312344217E+01  0.15091263827E+02  0.51100000000E-03 0. -1.
        -11    1    3    3    0    0  0.10586737842E+02  0.16042279471E+01  0.35736547165E+01  0.11288205072E+02  0.51100000000E-03 0.  1.
        -12    1    3    3    0    0  0.14049854926E+02  0.10151212862E+02  0.94933999738E+01  0.19762848708E+02  0.00000000000E+00 0.  1.
</event>
<event>
 7    1  0.3435408E-009  0.4614232E+02  0.7816164E-02  0.1320468E+00
        -11   -1    0    0    0    0  0.00000000000E+00  0.00000000000E+00  0.45593999997E+02  0.45594000000E+02  0.51100000000E-03 0. -1.
         11   -1    0    0    0    0 -0.00000000000E+00 -0.00000000000E+00 -0.45593999997E+02  0.45594000000E+02  0.51100000000E-03 0.  1.
    9900012    2    1    2    0    0  0.55489558490E+00  0.91388516163E+00  0.45032989150E+02  0.46142320885E+02  0.10000028484E+02 0.  0.
        -12    1    1    2    0    0 -0.55489558490E+00 -0.91388516163E+00 -0.45032989150E+02  0.45045679115E+02  0.00000000000E+00 0.  1.
         11    1    3    3    0    0  0.36051782242E+00 -0.78459118233E+00  0.84971460610E+01  0.85409043939E+01  0.51100000000E-03 0. -1.
        -11    1    3    3    0    0 -0.12094951200E+01 -0.18729704135E+01  0.24993381893E+01  0.33492668243E+01  0.51100000000E-03 0.  1.
        -12    1    3    3    0    0  0.14038728825E+01  0.35714467574E+01  0.34036504899E+02  0.34252149667E+02  0.00000000000E+00 0.  1.
</event>
<event>
 7    1  0.3435408E-009  0.4614232E+02  0.7816164E-02  0.1320468E+00
        -11   -1    0    0    0    0  0.00000000000E+00  0.00000000000E+00  0.45593999997E+02  0.45594000000E+02  0.51100000000E-03 0.  1.
         11   -1    0    0    0    0 -0.00000000000E+00 -0.00000000000E+00 -0.45593999997E+02  0.45594000000E+02  0.51100000000E-03 0. -1.
    9900012    2    1    2    0    0 -0.22853959402E+02 -0.17438608307E+02 -0.34680037355E+02  0.46142317510E+02  0.99999977135E+01 0.  0.
        -12    1    1    2    0    0  0.22853959402E+02  0.17438608307E+02  0.34680037355E+02  0.45045682490E+02  0.00000000000E+00 0.  1.
         11    1    3    3    0    0 -0.82590679044E+01 -0.50327502961E+01 -0.90415561482E+01  0.13239732476E+02  0.51100000000E-03 0. -1.
        -11    1    3    3    0    0 -0.15031952062E+01 -0.11849562205E+01 -0.80413765714E+01  0.82660422511E+01  0.51100000000E-03 0.  1.
         12    1    3    3    0    0 -0.13091696291E+02 -0.11220901791E+02 -0.17597104635E+02  0.24636542783E+02  0.00000000000E+00 0. -1.
</event>
<event>
 7    1  0.3435408E-009  0.4614232E+02  0.7816164E-02  0.1320468E+00
        -11   -1    0    0    0    0  0.00000000000E+00  0.00000000000E+00  0.45593999997E+02  0.45594000000E+02  0.51100000000E-03 0. -1.
         11   -1    0    0    0    0 -0.00000000000E+00 -0.00000000000E+00 -0.45593999997E+02  0.45594000000E+02  0.51100000000E-03 0.  1.
    9900012    2    1    2    0    0 -0.25429402419E+02 -0.36889257468E+02  0.46520665841E+01  0.46142317105E+02  0.99999940193E+01 0.  0.
        -12    1    1    2    0    0  0.25429402419E+02  0.36889257468E+02 -0.46520665841E+01  0.45045682895E+02  0.00000000000E+00 0.  1.
         11    1    3    3    0    0 -0.87794895493E+01 -0.86651036776E+01 -0.19628600790E+01  0.12490647639E+02  0.51100000000E-03 0. -1.
        -11    1    3    3    0    0 -0.32203313029E+01 -0.83788701577E+01  0.26844160055E+01  0.93692095916E+01  0.51100000000E-03 0.  1.
         12    1    3    3    0    0 -0.13429581567E+02 -0.19845283633E+02  0.39305106576E+01  0.24282459875E+02  0.00000000000E+00 0. -1.
</event>
<event>
 7    1  0.3435408E-009  0.4614232E+02  0.7816164E-02  0.1320468E+00
        -11   -1    0    0    0    0  0.00000000000E+00  0.00000000000E+00  0.45593999997E+02  0.45594000000E+02  0.51100000000E-03 0. -1.
         11   -1    0    0    0    0 -0.00000000000E+00 -0.00000000000E+00 -0.45593999997E+02  0.45594000000E+02  0.51100000000E-03 0.  1.
    9900012    2    1    2    0    0  0.42544990624E+02 -0.98945878183E+01  0.11006106125E+02  0.46142317994E+02  0.10000002128E+02 0.  0.
        -12    1    1    2    0    0 -0.42544990624E+02  0.98945878183E+01 -0.11006106125E+02  0.45045682006E+02  0.00000000000E+00 0.  1.
         11    1    3    3    0    0  0.24647703301E+02 -0.70282842219E+01  0.54475399242E+01  0.26202704986E+02  0.51100000000E-03 0. -1.
        -11    1    3    3    0    0  0.92130788494E+01  0.54278100914E+00  0.52223691081E+01  0.10604177124E+02  0.51100000000E-03 0.  1.
        -12    1    3    3    0    0  0.86842084741E+01 -0.34090846055E+01  0.33619709300E+00  0.93354358846E+01  0.00000000000E+00 0.  1.
</event>
<event>
 7    1  0.3435408E-009  0.4614231E+02  0.7816164E-02  0.1320468E+00
        -11   -1    0    0    0    0  0.00000000000E+00  0.00000000000E+00  0.45593999997E+02  0.45594000000E+02  0.51100000000E-03 0.  1.
         11   -1    0    0    0    0 -0.00000000000E+00 -0.00000000000E+00 -0.45593999997E+02  0.45594000000E+02  0.51100000000E-03 0. -1.
    9900012    2    1    2    0    0 -0.33083143149E+02 -0.23567926569E+02 -0.19472345168E+02  0.46142314860E+02  0.99999735433E+01 0.  0.
        -12    1    1    2    0    0  0.33083143149E+02  0.23567926569E+02  0.19472345168E+02  0.45045685140E+02  0.00000000000E+00 0.  1.
         11    1    3    3    0    0 -0.25136176442E+02 -0.13963872992E+02 -0.15767748563E+02  0.32793886780E+02  0.51100000000E-03 0. -1.
        -11    1    3    3    0    0 -0.36152378460E+01 -0.25192994278E+01 -0.21385382441E+01  0.48979751299E+01  0.51100000000E-03 0.  1.
        -12    1    3    3    0    0 -0.43317288606E+01 -0.70847541492E+01 -0.15660583609E+01  0.84504529504E+01  0.00000000000E+00 0.  1.
</event>
<event>
 7    1  0.3435408E-009  0.4614232E+02  0.7816164E-02  0.1320468E+00
        -11   -1    0    0    0    0  0.00000000000E+00  0.00000000000E+00  0.45593999997E+02  0.45594000000E+02  0.51100000000E-03 0.  1.
         11   -1    0    0    0    0 -0.00000000000E+00 -0.00000000000E+00 -0.45593999997E+02  0.45594000000E+02  0.51100000000E-03 0. -1.
    9900012    2    1    2    0    0 -0.10488551698E+02  0.10668896894E+02 -0.42488568526E+02  0.46142317266E+02  0.99999954826E+01 0.  0.
        -12    1    1    2    0    0  0.10488551698E+02 -0.10668896894E+02  0.42488568526E+02  0.45045682734E+02  0.00000000000E+00 0.  1.
         11    1    3    3    0    0 -0.19786365986E+01  0.22816026870E+01 -0.16880026837E+02  0.17148061695E+02  0.51100000000E-03 0. -1.
        -11    1    3    3    0    0 -0.27294325733E+01  0.53664555655E+01 -0.67764800082E+01  0.90647299503E+01  0.51100000000E-03 0.  1.
        -12    1    3    3    0    0 -0.57804825259E+01  0.30208386411E+01 -0.18832061680E+02  0.19929525620E+02  0.00000000000E+00 0.  1.
</event>
<event>
 7    1  0.3435408E-009  0.4614232E+02  0.7816164E-02  0.1320468E+00
        -11   -1    0    0    0    0  0.00000000000E+00  0.00000000000E+00  0.45593999997E+02  0.45594000000E+02  0.51100000000E-03 0.  1.
         11   -1    0    0    0    0 -0.00000000000E+00 -0.00000000000E+00 -0.45593999997E+02  0.45594000000E+02  0.51100000000E-03 0. -1.
    9900012    2    1    2    0    0  0.30391330026E+02 -0.30857637676E+02 -0.12380901629E+02  0.46142317978E+02  0.10000001975E+02 0.  0.
        -12    1    1    2    0    0 -0.30391330026E+02  0.30857637676E+02  0.12380901629E+02  0.45045682022E+02  0.00000000000E+00 0.  1.
         11    1    3    3    0    0  0.15784712672E+02 -0.21779337891E+02 -0.84617717901E+01  0.28197487391E+02  0.51100000000E-03 0. -1.
        -11    1    3    3    0    0  0.12387289650E+02 -0.88049322238E+01 -0.39715402240E+01  0.15708116003E+02  0.51100000000E-03 0.  1.
        -12    1    3    3    0    0  0.22193277038E+01 -0.27336756187E+00  0.52410384961E-01  0.22367145837E+01  0.00000000000E+00 0.  1.
</event>
<event>
 7    1  0.3435408E-009  0.4614232E+02  0.7816164E-02  0.1320468E+00
        -11   -1    0    0    0    0  0.00000000000E+00  0.00000000000E+00  0.45593999997E+02  0.45594000000E+02  0.51100000000E-03 0.  1.
         11   -1    0    0    0    0 -0.00000000000E+00 -0.00000000000E+00 -0.45593999997E+02  0.45594000000E+02  0.51100000000E-03 0. -1.
    9900012    2    1    2    0    0 -0.33696087283E+02  0.65928981961E+01 -0.29158547015E+02  0.46142317978E+02  0.10000001979E+02 0.  0.
        -12    1    1    2    0    0  0.33696087283E+02 -0.65928981961E+01  0.29158547015E+02  0.45045682022E+02  0.00000000000E+00 0.  1.
         11    1    3    3    0    0 -0.22731096684E+02  0.33306777317E+01 -0.14602390231E+02  0.27221792213E+02  0.51100000000E-03 0. -1.
        -11    1    3    3    0    0 -0.73887437686E+01  0.32471520565E+01 -0.12234446120E+02  0.14656711878E+02  0.51100000000E-03 0.  1.
        -12    1    3    3    0    0 -0.35762468306E+01  0.15068407898E-01 -0.23217106637E+01  0.42638138862E+01  0.00000000000E+00 0.  1.
</event>
<event>
 7    1  0.3435408E-009  0.4614232E+02  0.7816164E-02  0.1320468E+00
        -11   -1    0    0    0    0  0.00000000000E+00  0.00000000000E+00  0.45593999997E+02  0.45594000000E+02  0.51100000000E-03 0.  1.
         11   -1    0    0    0    0 -0.00000000000E+00 -0.00000000000E+00 -0.45593999997E+02  0.45594000000E+02  0.51100000000E-03 0. -1.
    9900012    2    1    2    0    0 -0.35106062231E+01 -0.27152991774E+02 -0.35770158170E+02  0.46142317257E+02  0.99999953989E+01 0.  0.
        -12    1    1    2    0    0  0.35106062231E+01  0.27152991774E+02  0.35770158170E+02  0.45045682743E+02  0.00000000000E+00 0.  1.
         11    1    3    3    0    0 -0.74794513497E+00 -0.20116702265E+02 -0.19132556790E+02  0.27772213840E+02  0.51100000000E-03 0. -1.
        -11    1    3    3    0    0 -0.63771061650E+00 -0.35179889618E+01 -0.92355666796E+01  0.99034647129E+01  0.51100000000E-03 0.  1.
         12    1    3    3    0    0 -0.21249504716E+01 -0.35183005465E+01 -0.74020347001E+01  0.84666387040E+01  0.00000000000E+00 0. -1.
</event>
<event>
 7    1  0.3435408E-009  0.4614232E+02  0.7816164E-02  0.1320468E+00
        -11   -1    0    0    0    0  0.00000000000E+00  0.00000000000E+00  0.45593999997E+02  0.45594000000E+02  0.51100000000E-03 0. -1.
         11   -1    0    0    0    0 -0.00000000000E+00 -0.00000000000E+00 -0.45593999997E+02  0.45594000000E+02  0.51100000000E-03 0.  1.
    9900012    2    1    2    0    0 -0.18979822398E+02 -0.34823544618E+02 -0.21358851565E+02  0.46142318097E+02  0.10000003059E+02 0.  0.
        -12    1    1    2    0    0  0.18979822398E+02  0.34823544618E+02  0.21358851565E+02  0.45045681903E+02  0.00000000000E+00 0.  1.
         11    1    3    3    0    0 -0.51208894603E+01 -0.30080789659E+01 -0.44367843254E+01  0.74133058308E+01  0.51100000000E-03 0.  1.
        -11    1    3    3    0    0 -0.10745156791E+01 -0.37131081877E+01 -0.28333463232E+01  0.47926618915E+01  0.51100000000E-03 0. -1.
         12    1    3    3    0    0 -0.12784417259E+02 -0.28102357464E+02 -0.14088720916E+02  0.33936350374E+02  0.00000000000E+00 0. -1.
</event>
<event>
 7    1  0.3435408E-009  0.4614232E+02  0.7816164E-02  0.1320468E+00
        -11   -1    0    0    0    0  0.00000000000E+00  0.00000000000E+00  0.45593999997E+02  0.45594000000E+02  0.51100000000E-03 0. -1.
         11   -1    0    0    0    0 -0.00000000000E+00 -0.00000000000E+00 -0.45593999997E+02  0.45594000000E+02  0.51100000000E-03 0.  1.
    9900012    2    1    2    0    0  0.37796363126E+02 -0.19640264191E+02 -0.14656336972E+02  0.46142320335E+02  0.10000023470E+02 0.  0.
        -12    1    1    2    0    0 -0.37796363126E+02  0.19640264191E+02  0.14656336972E+02  0.45045679665E+02  0.00000000000E+00 0.  1.
         11    1    3    3    0    0  0.11200325662E+02 -0.57708676155E+01 -0.69463893102E+01  0.14387582587E+02  0.51100000000E-03 0. -1.
        -11    1    3    3    0    0  0.24892341738E+02 -0.11025009324E+02 -0.81300929339E+01  0.28412636611E+02  0.51100000000E-03 0.  1.
        -12    1    3    3    0    0  0.17036957261E+01 -0.28443872517E+01  0.42014527256E+00  0.33421011377E+01  0.00000000000E+00 0.  1.
</event>
<event>
 7    1  0.3435408E-009  0.4614232E+02  0.7816164E-02  0.1320468E+00
        -11   -1    0    0    0    0  0.00000000000E+00  0.00000000000E+00  0.45593999997E+02  0.45594000000E+02  0.51100000000E-03 0.  1.
         11   -1    0    0    0    0 -0.00000000000E+00 -0.00000000000E+00 -0.45593999997E+02  0.45594000000E+02  0.51100000000E-03 0. -1.
    9900012    2    1    2    0    0 -0.21329470972E+01  0.32499306618E+02 -0.31118471648E+02  0.46142315726E+02  0.99999814437E+01 0.  0.
        -12    1    1    2    0    0  0.21329470972E+01 -0.32499306618E+02  0.31118471648E+02  0.45045684274E+02  0.00000000000E+00 0.  1.
         11    1    3    3    0    0 -0.18249978654E+01  0.10756233055E+02 -0.46136327390E+01  0.11845369309E+02  0.51100000000E-03 0. -1.
        -11    1    3    3    0    0 -0.19030288608E+00  0.11610878732E+02 -0.13400388971E+02  0.17731868061E+02  0.51100000000E-03 0.  1.
         12    1    3    3    0    0 -0.11764634575E+00  0.10132194831E+02 -0.13104449938E+02  0.16565078356E+02  0.00000000000E+00 0. -1.
</event>
<event>
 7    1  0.3435408E-009  0.4614232E+02  0.7816164E-02  0.1320468E+00
        -11   -1    0    0    0    0  0.00000000000E+00  0.00000000000E+00  0.45593999997E+02  0.45594000000E+02  0.51100000000E-03 0.  1.
         11   -1    0    0    0    0 -0.00000000000E+00 -0.00000000000E+00 -0.45593999997E+02  0.45594000000E+02  0.51100000000E-03 0. -1.
    9900012    2    1    2    0    0 -0.25965784860E+02  0.13458983828E+02 -0.34259995017E+02  0.46142317769E+02  0.10000000075E+02 0.  0.
        -12    1    1    2    0    0  0.25965784860E+02 -0.13458983828E+02  0.34259995017E+02  0.45045682231E+02  0.00000000000E+00 0.  1.
         11    1    3    3    0    0 -0.16776317060E+02  0.79461525902E+01 -0.24497951703E+02  0.30736554670E+02  0.51100000000E-03 0. -1.
        -11    1    3    3    0    0 -0.35645145348E+01  0.93501131887E+00 -0.62076959283E+00  0.37370262487E+01  0.51100000000E-03 0.  1.
        -12    1    3    3    0    0 -0.56249532656E+01  0.45778199193E+01 -0.91412737209E+01  0.11668736851E+02  0.00000000000E+00 0.  1.
</event>
<event>
 7    1  0.3435408E-009  0.4614232E+02  0.7816164E-02  0.1320468E+00
        -11   -1    0    0    0    0  0.00000000000E+00  0.00000000000E+00  0.45593999997E+02  0.45594000000E+02  0.51100000000E-03 0. -1.
         11   -1    0    0    0    0 -0.00000000000E+00 -0.00000000000E+00 -0.45593999997E+02  0.45594000000E+02  0.51100000000E-03 0.  1.
    9900012    2    1    2    0    0  0.13365080391E+02 -0.34329499146E+02  0.25922454592E+02  0.46142317215E+02  0.99999950205E+01 0.  0.
        -12    1    1    2    0    0 -0.13365080391E+02  0.34329499146E+02 -0.25922454592E+02  0.45045682785E+02  0.00000000000E+00 0.  1.
         11    1    3    3    0    0  0.52124492842E+01 -0.13809910687E+02  0.10211758876E+02  0.17948907497E+02  0.51100000000E-03 0. -1.
        -11    1    3    3    0    0 -0.25527216188E+00 -0.51285411383E+01  0.68019752067E+01  0.85225562513E+01  0.51100000000E-03 0.  1.
        -12    1    3    3    0    0  0.84079032685E+01 -0.15391047321E+02  0.89087205100E+01  0.19670853467E+02  0.00000000000E+00 0.  1.
</event>
<event>
 7    1  0.3435408E-009  0.4614232E+02  0.7816164E-02  0.1320468E+00
        -11   -1    0    0    0    0  0.00000000000E+00  0.00000000000E+00  0.45593999997E+02  0.45594000000E+02  0.51100000000E-03 0.  1.
         11   -1    0    0    0    0 -0.00000000000E+00 -0.00000000000E+00 -0.45593999997E+02  0.45594000000E+02  0.51100000000E-03 0. -1.
    9900012    2    1    2    0    0  0.19595043804E+01  0.43604243632E+02 -0.11133003103E+02  0.46142317874E+02  0.10000001029E+02 0.  0.
        -12    1    1    2    0    0 -0.19595043804E+01 -0.43604243632E+02  0.11133003103E+02  0.45045682126E+02  0.00000000000E+00 0.  1.
         11    1    3    3    0    0  0.21271320544E+01  0.45575243147E+01 -0.35605699539E+01  0.61622542396E+01  0.51100000000E-03 0. -1.
        -11    1    3    3    0    0 -0.13575253270E+01  0.10466279462E+02 -0.80088957997E+00  0.10584295213E+02  0.51100000000E-03 0.  1.
         12    1    3    3    0    0  0.11898976530E+01  0.28580439855E+02 -0.67715435693E+01  0.29395768421E+02  0.00000000000E+00 0. -1.
</event>
<event>
 7    1  0.3435408E-009  0.4614232E+02  0.7816164E-02  0.1320468E+00
        -11   -1    0    0    0    0  0.00000000000E+00  0.00000000000E+00  0.45593999997E+02  0.45594000000E+02  0.51100000000E-03 0.  1.
         11   -1    0    0    0    0 -0.00000000000E+00 -0.00000000000E+00 -0.45593999997E+02  0.45594000000E+02  0.51100000000E-03 0. -1.
    9900012    2    1    2    0    0  0.14905558557E+01 -0.36363873076E+02 -0.26543553390E+02  0.46142320425E+02  0.10000024293E+02 0.  0.
        -12    1    1    2    0    0 -0.14905558557E+01  0.36363873076E+02  0.26543553390E+02  0.45045679575E+02  0.00000000000E+00 0.  1.
         11    1    3    3    0    0  0.40764185426E+01 -0.14551963987E+02 -0.11416229137E+02  0.18939565253E+02  0.51100000000E-03 0. -1.
        -11    1    3    3    0    0 -0.11273575751E+01 -0.19998575110E+02 -0.14678191167E+02  0.24832705002E+02  0.51100000000E-03 0.  1.
        -12    1    3    3    0    0 -0.14585051119E+01 -0.18133339780E+01 -0.44913308631E+00  0.23700501696E+01  0.00000000000E+00 0.  1.
</event>
<event>
 7    1  0.3435408E-009  0.4614232E+02  0.7816164E-02  0.1320468E+00
        -11   -1    0    0    0    0  0.00000000000E+00  0.00000000000E+00  0.45593999997E+02  0.45594000000E+02  0.51100000000E-03 0.  1.
         11   -1    0    0    0    0 -0.00000000000E+00 -0.00000000000E+00 -0.45593999997E+02  0.45594000000E+02  0.51100000000E-03 0. -1.
    9900012    2    1    2    0    0 -0.16459772863E+02  0.39357461571E+02 -0.14463045417E+02  0.46142316669E+02  0.99999900375E+01 0.  0.
        -12    1    1    2    0    0  0.16459772863E+02 -0.39357461571E+02  0.14463045417E+02  0.45045683331E+02  0.00000000000E+00 0.  1.
         11    1    3    3    0    0 -0.44549488349E+01  0.62107605529E+01 -0.33127213749E+00  0.76504808514E+01  0.51100000000E-03 0. -1.
        -11    1    3    3    0    0 -0.26849977245E+01  0.78833911414E+01 -0.58478180952E+00  0.83485950132E+01  0.51100000000E-03 0.  1.
         12    1    3    3    0    0 -0.93198263041E+01  0.25263309877E+02 -0.13546991470E+02  0.30143240804E+02  0.00000000000E+00 0. -1.
</event>
<event>
 7    1  0.3435408E-009  0.4614232E+02  0.7816164E-02  0.1320468E+00
        -11   -1    0    0    0    0  0.00000000000E+00  0.00000000000E+00  0.45593999997E+02  0.45594000000E+02  0.51100000000E-03 0.  1.
         11   -1    0    0    0    0 -0.00000000000E+00 -0.00000000000E+00 -0.45593999997E+02  0.45594000000E+02  0.51100000000E-03 0. -1.
    9900012    2    1    2    0    0  0.28184526553E+02  0.34680911922E+02 -0.56551038391E+01  0.46142318873E+02  0.10000010142E+02 0.  0.
        -12    1    1    2    0    0 -0.28184526553E+02 -0.34680911922E+02  0.56551038391E+01  0.45045681127E+02  0.00000000000E+00 0.  1.
         11    1    3    3    0    0  0.27949037640E+01  0.17783377602E+01 -0.71173584312E+00  0.33882946169E+01  0.51100000000E-03 0. -1.
        -11    1    3    3    0    0  0.16400032969E+02  0.15248266783E+02 -0.49895657436E+01  0.22942678306E+02  0.51100000000E-03 0.  1.
        -12    1    3    3    0    0  0.89895898201E+01  0.17654307379E+02  0.46197747662E-01  0.19811345951E+02  0.00000000000E+00 0.  1.
</event>
<event>
 7    1  0.3435408E-009  0.4614232E+02  0.7816164E-02  0.1320468E+00
        -11   -1    0    0    0    0  0.00000000000E+00  0.00000000000E+00  0.45593999997E+02  0.45594000000E+02  0.51100000000E-03 0.  1.
         11   -1    0    0    0    0 -0.00000000000E+00 -0.00000000000E+00 -0.45593999997E+02  0.45594000000E+02  0.51100000000E-03 0. -1.
    9900012    2    1    2    0    0  0.29202032475E+02 -0.13988392802E+02 -0.31315801559E+02  0.46142320283E+02  0.10000023001E+02 0.  0.
        -12    1    1    2    0    0 -0.29202032475E+02  0.13988392802E+02  0.31315801559E+02  0.45045679717E+02  0.00000000000E+00 0.  1.
         11    1    3    3    0    0  0.10984653139E+02 -0.11359157153E+01 -0.88981621683E+01  0.14182037912E+02  0.51100000000E-03 0. -1.
        -11    1    3    3    0    0  0.17912559164E+02 -0.11259513383E+02 -0.20779768213E+02  0.29655272460E+02  0.51100000000E-03 0.  1.
         12    1    3    3    0    0  0.30482017154E+00 -0.15929637036E+01 -0.16378711778E+01  0.23050099117E+01  0.00000000000E+00 0. -1.
</event>
<event>
 7    1  0.3435408E-009  0.4614232E+02  0.7816164E-02  0.1320468E+00
        -11   -1    0    0    0    0  0.00000000000E+00  0.00000000000E+00  0.45593999997E+02  0.45594000000E+02  0.51100000000E-03 0. -1.
         11   -1    0    0    0    0 -0.00000000000E+00 -0.00000000000E+00 -0.45593999997E+02  0.45594000000E+02  0.51100000000E-03 0.  1.
    9900012    2    1    2    0    0  0.87010064678E+01 -0.52624216328E+01  0.43882944842E+02  0.46142318265E+02  0.10000004592E+02 0.  0.
        -12    1    1    2    0    0 -0.87010064678E+01  0.52624216328E+01 -0.43882944842E+02  0.45045681735E+02  0.00000000000E+00 0.  1.
         11    1    3    3    0    0  0.11329222426E+01 -0.99007050796E+00  0.90934519914E+00  0.17580276934E+01  0.51100000000E-03 0. -1.
        -11    1    3    3    0    0  0.58706107497E+01 -0.39461054139E+00  0.15364715506E+02  0.16452789152E+02  0.51100000000E-03 0.  1.
         12    1    3    3    0    0  0.16974734756E+01 -0.38777405835E+01  0.27608884137E+02  0.27931501419E+02  0.00000000000E+00 0. -1.
</event>
<event>
 7    1  0.3435408E-009  0.4614232E+02  0.7816164E-02  0.1320468E+00
        -11   -1    0    0    0    0  0.00000000000E+00  0.00000000000E+00  0.45593999997E+02  0.45594000000E+02  0.51100000000E-03 0. -1.
         11   -1    0    0    0    0 -0.00000000000E+00 -0.00000000000E+00 -0.45593999997E+02  0.45594000000E+02  0.51100000000E-03 0.  1.
    9900012    2    1    2    0    0 -0.18564129953E+02  0.29801250391E+01  0.40934158946E+02  0.46142318355E+02  0.10000005419E+02 0.  0.
        -12    1    1    2    0    0  0.18564129953E+02 -0.29801250391E+01 -0.40934158946E+02  0.45045681645E+02  0.00000000000E+00 0.  1.
         11    1    3    3    0    0 -0.17220390570E+02  0.55366826180E+01  0.35405475163E+02  0.39758576152E+02  0.51100000000E-03 0. -1.
        -11    1    3    3    0    0  0.16859777795E-01 -0.13809080590E+01  0.21262895258E+01  0.25354089863E+01  0.51100000000E-03 0.  1.
         12    1    3    3    0    0 -0.13605991608E+01 -0.11756495199E+01  0.34023942573E+01  0.38483332173E+01  0.00000000000E+00 0. -1.
</event>
<event>
 7    1  0.3435408E-009  0.4614232E+02  0.7816164E-02  0.1320468E+00
        -11   -1    0    0    0    0  0.00000000000E+00  0.00000000000E+00  0.45593999997E+02  0.45594000000E+02  0.51100000000E-03 0.  1.
         11   -1    0    0    0    0 -0.00000000000E+00 -0.00000000000E+00 -0.45593999997E+02  0.45594000000E+02  0.51100000000E-03 0. -1.
    9900012    2    1    2    0    0 -0.15515355052E+00  0.41675278201E+02 -0.17095620863E+02  0.46142321646E+02  0.10000035422E+02 0.  0.
        -12    1    1    2    0    0  0.15515355052E+00 -0.41675278201E+02  0.17095620863E+02  0.45045678354E+02  0.00000000000E+00 0.  1.
         11    1    3    3    0    0  0.18535835084E+01  0.52260968043E+01 -0.21722236144E+01  0.59553686135E+01  0.51100000000E-03 0. -1.
        -11    1    3    3    0    0  0.53519028574E+00  0.30044195830E+01 -0.37470748171E+01  0.48325495981E+01  0.51100000000E-03 0.  1.
         12    1    3    3    0    0 -0.25439273446E+01  0.33444761813E+02 -0.11176322431E+02  0.35354403434E+02  0.00000000000E+00 0. -1.
</event>
<event>
 7    1  0.3435408E-009  0.4614232E+02  0.7816164E-02  0.1320468E+00
        -11   -1    0    0    0    0  0.00000000000E+00  0.00000000000E+00  0.45593999997E+02  0.45594000000E+02  0.51100000000E-03 0. -1.
         11   -1    0    0    0    0 -0.00000000000E+00 -0.00000000000E+00 -0.45593999997E+02  0.45594000000E+02  0.51100000000E-03 0.  1.
    9900012    2    1    2    0    0  0.39180172735E+02 -0.22143090935E+02  0.19264192088E+01  0.46142317602E+02  0.99999985534E+01 0.  0.
        -12    1    1    2    0    0 -0.39180172735E+02  0.22143090935E+02 -0.19264192088E+01  0.45045682398E+02  0.00000000000E+00 0.  1.
         11    1    3    3    0    0  0.29910658028E+02 -0.18204357698E+02 -0.42199561153E+00  0.35017483967E+02  0.51100000000E-03 0. -1.
        -11    1    3    3    0    0  0.61941633258E+00 -0.18656518333E+01  0.63884270216E+00  0.20669914406E+01  0.51100000000E-03 0.  1.
         12    1    3    3    0    0  0.86500983744E+01 -0.20730814042E+01  0.17095721182E+01  0.90578421946E+01  0.00000000000E+00 0. -1.
</event>
<event>
 7    1  0.3435408E-009  0.4614232E+02  0.7816164E-02  0.1320468E+00
        -11   -1    0    0    0    0  0.00000000000E+00  0.00000000000E+00  0.45593999997E+02  0.45594000000E+02  0.51100000000E-03 0.  1.
         11   -1    0    0    0    0 -0.00000000000E+00 -0.00000000000E+00 -0.45593999997E+02  0.45594000000E+02  0.51100000000E-03 0. -1.
    9900012    2    1    2    0    0  0.51123517234E+01  0.36928005298E+02 -0.25284378696E+02  0.46142317394E+02  0.99999966493E+01 0.  0.
        -12    1    1    2    0    0 -0.51123517234E+01 -0.36928005298E+02  0.25284378696E+02  0.45045682606E+02  0.00000000000E+00 0.  1.
         11    1    3    3    0    0  0.39391476688E+01  0.24411699078E+02 -0.17442307506E+02  0.30260238393E+02  0.51100000000E-03 0. -1.
        -11    1    3    3    0    0 -0.10316437089E+01  0.25350638656E+01 -0.42350505640E+01  0.50424687491E+01  0.51100000000E-03 0.  1.
         12    1    3    3    0    0  0.22048477635E+01  0.99812423548E+01 -0.36070206254E+01  0.10839610251E+02  0.00000000000E+00 0. -1.
</event>
<event>
 7    1  0.3435408E-009  0.4614232E+02  0.7816164E-02  0.1320468E+00
        -11   -1    0    0    0    0  0.00000000000E+00  0.00000000000E+00  0.45593999997E+02  0.45594000000E+02  0.51100000000E-03 0. -1.
         11   -1    0    0    0    0 -0.00000000000E+00 -0.00000000000E+00 -0.45593999997E+02  0.45594000000E+02  0.51100000000E-03 0.  1.
    9900012    2    1    2    0    0 -0.10388511494E+02 -0.41725433949E+02 -0.13423140226E+02  0.46142315380E+02  0.99999782904E+01 0.  0.
        -12    1    1    2    0    0  0.10388511494E+02  0.41725433949E+02  0.13423140226E+02  0.45045684620E+02  0.00000000000E+00 0.  1.
         11    1    3    3    0    0 -0.11179523681E+02 -0.29638674409E+02 -0.11414905257E+02  0.33670949389E+02  0.51100000000E-03 0.  1.
        -11    1    3    3    0    0 -0.42891479527E+00 -0.69995200039E+01 -0.51784209703E+00  0.70317429479E+01  0.51100000000E-03 0. -1.
        -12    1    3    3    0    0  0.12199269824E+01 -0.50872395366E+01 -0.14903928717E+01  0.54396230436E+01  0.00000000000E+00 0.  1.
</event>
<event>
 7    1  0.3435408E-009  0.4614232E+02  0.7816164E-02  0.1320468E+00
        -11   -1    0    0    0    0  0.00000000000E+00  0.00000000000E+00  0.45593999997E+02  0.45594000000E+02  0.51100000000E-03 0.  1.
         11   -1    0    0    0    0 -0.00000000000E+00 -0.00000000000E+00 -0.45593999997E+02  0.45594000000E+02  0.51100000000E-03 0. -1.
    9900012    2    1    2    0    0  0.42959275731E+02 -0.28513487899E+01 -0.13247036532E+02  0.46142317209E+02  0.99999949633E+01 0.  0.
        -12    1    1    2    0    0 -0.42959275731E+02  0.28513487899E+01  0.13247036532E+02  0.45045682791E+02  0.00000000000E+00 0.  1.
         11    1    3    3    0    0  0.66665062392E+01 -0.38725910382E+00 -0.25880696048E+01  0.71617302093E+01  0.51100000000E-03 0. -1.
        -11    1    3    3    0    0  0.62308913463E+01 -0.22321861270E+01  0.10818500282E+01  0.67064939886E+01  0.51100000000E-03 0.  1.
        -12    1    3    3    0    0  0.30061878145E+02 -0.23190355906E+00 -0.11740816955E+02  0.32274093011E+02  0.00000000000E+00 0.  1.
</event>
<event>
 7    1  0.3435408E-009  0.4614233E+02  0.7816164E-02  0.1320468E+00
        -11   -1    0    0    0    0  0.00000000000E+00  0.00000000000E+00  0.45593999997E+02  0.45594000000E+02  0.51100000000E-03 0.  1.
         11   -1    0    0    0    0 -0.00000000000E+00 -0.00000000000E+00 -0.45593999997E+02  0.45594000000E+02  0.51100000000E-03 0. -1.
    9900012    2    1    2    0    0  0.38908817934E+01 -0.72358179639E+01 -0.44290138365E+02  0.46142330074E+02  0.10000112277E+02 0.  0.
        -12    1    1    2    0    0 -0.38908817934E+01  0.72358179639E+01  0.44290138365E+02  0.45045669926E+02  0.00000000000E+00 0.  1.
         11    1    3    3    0    0  0.21225181445E+01 -0.11436239053E+01 -0.39692942893E+01  0.46441636843E+01  0.51100000000E-03 0. -1.
        -11    1    3    3    0    0 -0.11060927148E+01 -0.63876315225E+01 -0.32939880076E+02  0.33571728839E+02  0.51100000000E-03 0.  1.
        -12    1    3    3    0    0  0.28744563637E+01  0.29543746391E+00 -0.73809639998E+01  0.79264375509E+01  0.00000000000E+00 0.  1.
</event>
<event>
 7    1  0.3435408E-009  0.4614232E+02  0.7816164E-02  0.1320468E+00
        -11   -1    0    0    0    0  0.00000000000E+00  0.00000000000E+00  0.45593999997E+02  0.45594000000E+02  0.51100000000E-03 0.  1.
         11   -1    0    0    0    0 -0.00000000000E+00 -0.00000000000E+00 -0.45593999997E+02  0.45594000000E+02  0.51100000000E-03 0. -1.
    9900012    2    1    2    0    0 -0.32939917599E+01  0.42687595339E+02 -0.14001160772E+02  0.46142315629E+02  0.99999805562E+01 0.  0.
        -12    1    1    2    0    0  0.32939917599E+01 -0.42687595339E+02  0.14001160772E+02  0.45045684371E+02  0.00000000000E+00 0.  1.
         11    1    3    3    0    0 -0.28791395202E+01  0.58025785543E+01 -0.46069948846E+01  0.79488215720E+01  0.51100000000E-03 0. -1.
        -11    1    3    3    0    0  0.90702980734E+00  0.28920985804E+02 -0.69420653595E+01  0.29756316887E+02  0.51100000000E-03 0.  1.
         12    1    3    3    0    0 -0.13218820470E+01  0.79640309803E+01 -0.24521005278E+01  0.84371771701E+01  0.00000000000E+00 0. -1.
</event>
<event>
 7    1  0.3435408E-009  0.4614232E+02  0.7816164E-02  0.1320468E+00
        -11   -1    0    0    0    0  0.00000000000E+00  0.00000000000E+00  0.45593999997E+02  0.45594000000E+02  0.51100000000E-03 0. -1.
         11   -1    0    0    0    0 -0.00000000000E+00 -0.00000000000E+00 -0.45593999997E+02  0.45594000000E+02  0.51100000000E-03 0.  1.
    9900012    2    1    2    0    0  0.78021363452E+01  0.19852762035E+02  0.39675029035E+02  0.46142318510E+02  0.10000006833E+02 0.  0.
        -12    1    1    2    0    0 -0.78021363452E+01 -0.19852762035E+02 -0.39675029035E+02  0.45045681490E+02  0.00000000000E+00 0.  1.
         11    1    3    3    0    0  0.59441950786E+01  0.45605864565E+01  0.12830429074E+02  0.14857735845E+02  0.51100000000E-03 0. -1.
        -11    1    3    3    0    0  0.11130290578E+01  0.11545898634E+02  0.23503306459E+02  0.26209769623E+02  0.51100000000E-03 0.  1.
         12    1    3    3    0    0  0.74491220872E+00  0.37462769450E+01  0.33412935018E+01  0.50748130421E+01  0.00000000000E+00 0. -1.
</event>
<event>
 7    1  0.3435408E-009  0.4614232E+02  0.7816164E-02  0.1320468E+00
        -11   -1    0    0    0    0  0.00000000000E+00  0.00000000000E+00  0.45593999997E+02  0.45594000000E+02  0.51100000000E-03 0.  1.
         11   -1    0    0    0    0 -0.00000000000E+00 -0.00000000000E+00 -0.45593999997E+02  0.45594000000E+02  0.51100000000E-03 0. -1.
    9900012    2    1    2    0    0 -0.29077516451E+02  0.21561454067E+02 -0.26808862792E+02  0.46142318868E+02  0.10000010090E+02 0.  0.
        -12    1    1    2    0    0  0.29077516451E+02 -0.21561454067E+02  0.26808862792E+02  0.45045681132E+02  0.00000000000E+00 0.  1.
         11    1    3    3    0    0 -0.14707142076E+02  0.13552732628E+02 -0.10740164735E+02  0.22700831010E+02  0.51100000000E-03 0. -1.
        -11    1    3    3    0    0 -0.80928825257E+01  0.23156930789E+01 -0.63321702993E+01  0.10533449718E+02  0.51100000000E-03 0.  1.
        -12    1    3    3    0    0 -0.62774918494E+01  0.56930283600E+01 -0.97365277575E+01  0.12908038139E+02  0.00000000000E+00 0.  1.
</event>
<event>
 7    1  0.3435408E-009  0.4614232E+02  0.7816164E-02  0.1320468E+00
        -11   -1    0    0    0    0  0.00000000000E+00  0.00000000000E+00  0.45593999997E+02  0.45594000000E+02  0.51100000000E-03 0. -1.
         11   -1    0    0    0    0 -0.00000000000E+00 -0.00000000000E+00 -0.45593999997E+02  0.45594000000E+02  0.51100000000E-03 0.  1.
    9900012    2    1    2    0    0 -0.38055690437E+02 -0.22831572575E+02  0.77199235245E+01  0.46142317631E+02  0.99999988116E+01 0.  0.
        -12    1    1    2    0    0  0.38055690437E+02  0.22831572575E+02 -0.77199235245E+01  0.45045682369E+02  0.00000000000E+00 0.  1.
         11    1    3    3    0    0 -0.27064193707E+02 -0.15276569975E+02  0.77093658882E+01  0.32019970235E+02  0.51100000000E-03 0. -1.
        -11    1    3    3    0    0 -0.11436767557E+01  0.30691262884E-01  0.11715861498E+01  0.16375447605E+01  0.51100000000E-03 0.  1.
         12    1    3    3    0    0 -0.98478199746E+01 -0.75856938621E+01 -0.11610285135E+01  0.12484802635E+02  0.00000000000E+00 0. -1.
</event>
<event>
 7    1  0.3435408E-009  0.4614232E+02  0.7816164E-02  0.1320468E+00
        -11   -1    0    0    0    0  0.00000000000E+00  0.00000000000E+00  0.45593999997E+02  0.45594000000E+02  0.51100000000E-03 0. -1.
         11   -1    0    0    0    0 -0.00000000000E+00 -0.00000000000E+00 -0.45593999997E+02  0.45594000000E+02  0.51100000000E-03 0.  1.
    9900012    2    1    2    0    0 -0.17799791930E+02 -0.19223051228E+02  0.36643624097E+02  0.46142317874E+02  0.10000001026E+02 0.  0.
        -12    1    1    2    0    0  0.17799791930E+02  0.19223051228E+02 -0.36643624097E+02  0.45045682126E+02  0.00000000000E+00 0.  1.
         11    1    3    3    0    0 -0.14450435032E+02 -0.87643071632E+01  0.22524874912E+02  0.28160222704E+02  0.51100000000E-03 0. -1.
        -11    1    3    3    0    0 -0.26879663767E+01 -0.57859027266E+01  0.73836652818E+01  0.97580913532E+01  0.51100000000E-03 0.  1.
         12    1    3    3    0    0 -0.66139052173E+00 -0.46728413386E+01  0.67350839026E+01  0.82240038164E+01  0.00000000000E+00 0. -1.
</event>
<event>
 7    1  0.3435408E-009  0.4614232E+02  0.7816164E-02  0.1320468E+00
        -11   -1    0    0    0    0  0.00000000000E+00  0.00000000000E+00  0.45593999997E+02  0.45594000000E+02  0.51100000000E-03 0. -1.
         11   -1    0    0    0    0 -0.00000000000E+00 -0.00000000000E+00 -0.45593999997E+02  0.45594000000E+02  0.51100000000E-03 0.  1.
    9900012    2    1    2    0    0 -0.16767792329E+02  0.16294508538E+02  0.38502515090E+02  0.46142317228E+02  0.99999951419E+01 0.  0.
        -12    1    1    2    0    0  0.16767792329E+02 -0.16294508538E+02 -0.38502515090E+02  0.45045682772E+02  0.00000000000E+00 0.  1.
         11    1    3    3    0    0 -0.10414356766E+01  0.31245061023E+01  0.63157746791E+01  0.71229303457E+01  0.51100000000E-03 0. -1.
        -11    1    3    3    0    0 -0.11149774087E+01 -0.10461812305E+01  0.12758289422E+01  0.19913336084E+01  0.51100000000E-03 0.  1.
         12    1    3    3    0    0 -0.14611379244E+02  0.14216183666E+02  0.30910911469E+02  0.37028053274E+02  0.00000000000E+00 0. -1.
</event>
<event>
 7    1  0.3435408E-009  0.4614232E+02  0.7816164E-02  0.1320468E+00
        -11   -1    0    0    0    0  0.00000000000E+00  0.00000000000E+00  0.45593999997E+02  0.45594000000E+02  0.51100000000E-03 0.  1.
         11   -1    0    0    0    0 -0.00000000000E+00 -0.00000000000E+00 -0.45593999997E+02  0.45594000000E+02  0.51100000000E-03 0. -1.
    9900012    2    1    2    0    0  0.18101801089E+02 -0.39771766119E+02  0.10938218762E+02  0.46142320823E+02  0.10000027920E+02 0.  0.
        -12    1    1    2    0    0 -0.18101801089E+02  0.39771766119E+02 -0.10938218762E+02  0.45045679177E+02  0.00000000000E+00 0.  1.
         11    1    3    3    0    0  0.12195836466E+02 -0.24405893767E+02  0.71494866560E+01  0.28204631488E+02  0.51100000000E-03 0. -1.
        -11    1    3    3    0    0  0.31619552032E+01 -0.62324852204E+01 -0.13299889064E+01  0.71141200076E+01  0.51100000000E-03 0.  1.
        -12    1    3    3    0    0  0.27440094199E+01 -0.91333871306E+01  0.51187210126E+01  0.10823569327E+02  0.00000000000E+00 0.  1.
</event>
<event>
 7    1  0.3435408E-009  0.4614232E+02  0.7816164E-02  0.1320468E+00
        -11   -1    0    0    0    0  0.00000000000E+00  0.00000000000E+00  0.45593999997E+02  0.45594000000E+02  0.51100000000E-03 0. -1.
         11   -1    0    0    0    0 -0.00000000000E+00 -0.00000000000E+00 -0.45593999997E+02  0.45594000000E+02  0.51100000000E-03 0.  1.
    9900012    2    1    2    0    0  0.19883435520E+02  0.14446734624E+02  0.37749890878E+02  0.46142318624E+02  0.10000007866E+02 0.  0.
        -12    1    1    2    0    0 -0.19883435520E+02 -0.14446734624E+02 -0.37749890878E+02  0.45045681376E+02  0.00000000000E+00 0.  1.
         11    1    3    3    0    0  0.78975272850E+01  0.60774130299E+01  0.17619181816E+02  0.20242071398E+02  0.51100000000E-03 0. -1.
        -11    1    3    3    0    0  0.10143539419E+02  0.55814905639E+01  0.10226513198E+02  0.15447524116E+02  0.51100000000E-03 0.  1.
         12    1    3    3    0    0  0.18423688160E+01  0.27878310300E+01  0.99041958638E+01  0.10452723110E+02  0.00000000000E+00 0. -1.
</event>
<event>
 7    1  0.3435408E-009  0.4614232E+02  0.7816164E-02  0.1320468E+00
        -11   -1    0    0    0    0  0.00000000000E+00  0.00000000000E+00  0.45593999997E+02  0.45594000000E+02  0.51100000000E-03 0.  1.
         11   -1    0    0    0    0 -0.00000000000E+00 -0.00000000000E+00 -0.45593999997E+02  0.45594000000E+02  0.51100000000E-03 0. -1.
    9900012    2    1    2    0    0 -0.44308352170E+02 -0.74731453846E+01 -0.31678867476E+01  0.46142317849E+02  0.10000000805E+02 0.  0.
        -12    1    1    2    0    0  0.44308352170E+02  0.74731453846E+01  0.31678867476E+01  0.45045682151E+02  0.00000000000E+00 0.  1.
         11    1    3    3    0    0 -0.63605156465E+01  0.12844466906E+00 -0.52980084354E+00  0.63838347815E+01  0.51100000000E-03 0. -1.
        -11    1    3    3    0    0 -0.32163295834E+02 -0.95691576535E+01 -0.24413589852E+01  0.33645305929E+02  0.51100000000E-03 0.  1.
        -12    1    3    3    0    0 -0.57845406901E+01  0.19675675999E+01 -0.19672691879E+00  0.61131771393E+01  0.00000000000E+00 0.  1.
</event>
<event>
 7    1  0.3435408E-009  0.4614232E+02  0.7816164E-02  0.1320468E+00
        -11   -1    0    0    0    0  0.00000000000E+00  0.00000000000E+00  0.45593999997E+02  0.45594000000E+02  0.51100000000E-03 0.  1.
         11   -1    0    0    0    0 -0.00000000000E+00 -0.00000000000E+00 -0.45593999997E+02  0.45594000000E+02  0.51100000000E-03 0. -1.
    9900012    2    1    2    0    0 -0.22701960809E+01 -0.24327612613E+02 -0.37843455263E+02  0.46142316168E+02  0.99999854696E+01 0.  0.
        -12    1    1    2    0    0  0.22701960809E+01  0.24327612613E+02  0.37843455263E+02  0.45045683832E+02  0.00000000000E+00 0.  1.
         11    1    3    3    0    0 -0.12863330614E+01 -0.22614954224E+02 -0.34209165265E+02  0.41028743530E+02  0.51100000000E-03 0. -1.
        -11    1    3    3    0    0  0.43677132699E+00 -0.13457334277E+01 -0.26606168157E+00  0.14396377079E+01  0.51100000000E-03 0.  1.
         12    1    3    3    0    0 -0.14206343466E+01 -0.36692496127E+00 -0.33682283168E+01  0.36739349297E+01  0.00000000000E+00 0. -1.
</event>
<event>
 7    1  0.3435408E-009  0.4614232E+02  0.7816164E-02  0.1320468E+00
        -11   -1    0    0    0    0  0.00000000000E+00  0.00000000000E+00  0.45593999997E+02  0.45594000000E+02  0.51100000000E-03 0.  1.
         11   -1    0    0    0    0 -0.00000000000E+00 -0.00000000000E+00 -0.45593999997E+02  0.45594000000E+02  0.51100000000E-03 0. -1.
    9900012    2    1    2    0    0  0.39216036583E+02  0.10814462899E+02 -0.19345885882E+02  0.46142318369E+02  0.10000005543E+02 0.  0.
        -12    1    1    2    0    0 -0.39216036583E+02 -0.10814462899E+02  0.19345885882E+02  0.45045681631E+02  0.00000000000E+00 0.  1.
         11    1    3    3    0    0  0.22884759631E+02  0.78590663166E+01 -0.11123739533E+02  0.26631085749E+02  0.51100000000E-03 0. -1.
        -11    1    3    3    0    0  0.34858001346E+01  0.13240735489E+01  0.68987581019E+00  0.37920841546E+01  0.51100000000E-03 0.  1.
        -12    1    3    3    0    0  0.12845476817E+02  0.16313230334E+01 -0.89120221589E+01  0.15719148465E+02  0.00000000000E+00 0.  1.
</event>
<event>
 7    1  0.3435408E-009  0.4614232E+02  0.7816164E-02  0.1320468E+00
        -11   -1    0    0    0    0  0.00000000000E+00  0.00000000000E+00  0.45593999997E+02  0.45594000000E+02  0.51100000000E-03 0.  1.
         11   -1    0    0    0    0 -0.00000000000E+00 -0.00000000000E+00 -0.45593999997E+02  0.45594000000E+02  0.51100000000E-03 0. -1.
    9900012    2    1    2    0    0  0.10634054993E+02 -0.36569770555E+02  0.24055818575E+02  0.46142315952E+02  0.99999835018E+01 0.  0.
        -12    1    1    2    0    0 -0.10634054993E+02  0.36569770555E+02 -0.24055818575E+02  0.45045684048E+02  0.00000000000E+00 0.  1.
         11    1    3    3    0    0  0.43377447671E+00 -0.28184221996E+01  0.36927581823E+00  0.28754180362E+01  0.51100000000E-03 0. -1.
        -11    1    3    3    0    0  0.10025235180E+02 -0.30289159642E+02  0.23790747597E+02  0.39798721132E+02  0.51100000000E-03 0.  1.
        -12    1    3    3    0    0  0.17504533698E+00 -0.34621887134E+01 -0.10420484007E+00  0.34681767841E+01  0.00000000000E+00 0.  1.
</event>
<event>
 7    1  0.3435408E-009  0.4614232E+02  0.7816164E-02  0.1320468E+00
        -11   -1    0    0    0    0  0.00000000000E+00  0.00000000000E+00  0.45593999997E+02  0.45594000000E+02  0.51100000000E-03 0.  1.
         11   -1    0    0    0    0 -0.00000000000E+00 -0.00000000000E+00 -0.45593999997E+02  0.45594000000E+02  0.51100000000E-03 0. -1.
    9900012    2    1    2    0    0  0.27252121682E+01  0.37128758799E+02 -0.25360243611E+02  0.46142317995E+02  0.10000002131E+02 0.  0.
        -12    1    1    2    0    0 -0.27252121682E+01 -0.37128758799E+02  0.25360243611E+02  0.45045682005E+02  0.00000000000E+00 0.  1.
         11    1    3    3    0    0 -0.10240574303E+01  0.23440733888E+02 -0.13941185993E+02  0.27292368274E+02  0.51100000000E-03 0. -1.
        -11    1    3    3    0    0  0.22584582585E+01  0.69401530184E+01 -0.28345171471E+01  0.78294856371E+01  0.51100000000E-03 0.  1.
         12    1    3    3    0    0  0.14908113400E+01  0.67478718920E+01 -0.85845404713E+01  0.11020464084E+02  0.00000000000E+00 0. -1.
</event>
<event>
 7    1  0.3435408E-009  0.4614232E+02  0.7816164E-02  0.1320468E+00
        -11   -1    0    0    0    0  0.00000000000E+00  0.00000000000E+00  0.45593999997E+02  0.45594000000E+02  0.51100000000E-03 0. -1.
         11   -1    0    0    0    0 -0.00000000000E+00 -0.00000000000E+00 -0.45593999997E+02  0.45594000000E+02  0.51100000000E-03 0.  1.
    9900012    2    1    2    0    0  0.24166836649E+02  0.28466335303E+02  0.25194150207E+02  0.46142318256E+02  0.10000004511E+02 0.  0.
        -12    1    1    2    0    0 -0.24166836649E+02 -0.28466335303E+02 -0.25194150207E+02  0.45045681744E+02  0.00000000000E+00 0.  1.
         11    1    3    3    0    0  0.67007285970E+01  0.69487237286E+01  0.76801775049E+01  0.12335706382E+02  0.51100000000E-03 0. -1.
        -11    1    3    3    0    0  0.13281070969E+02  0.12132657064E+02  0.14479672858E+02  0.23092187854E+02  0.51100000000E-03 0.  1.
        -12    1    3    3    0    0  0.41850370826E+01  0.93849545099E+01  0.30342998437E+01  0.10714424020E+02  0.00000000000E+00 0.  1.
</event>
<event>
 7    1  0.3435408E-009  0.4614231E+02  0.7816164E-02  0.1320468E+00
        -11   -1    0    0    0    0  0.00000000000E+00  0.00000000000E+00  0.45593999997E+02  0.45594000000E+02  0.51100000000E-03 0.  1.
         11   -1    0    0    0    0 -0.00000000000E+00 -0.00000000000E+00 -0.45593999997E+02  0.45594000000E+02  0.51100000000E-03 0. -1.
    9900012    2    1    2    0    0 -0.30369775915E+01  0.33638559659E+02 -0.29805000449E+02  0.46142312297E+02  0.99999501780E+01 0.  0.
        -12    1    1    2    0    0  0.30369775915E+01 -0.33638559659E+02  0.29805000449E+02  0.45045687703E+02  0.00000000000E+00 0.  1.
         11    1    3    3    0    0  0.31704767831E+01  0.12405815362E+02 -0.13136366794E+02  0.18344489925E+02  0.51100000000E-03 0. -1.
        -11    1    3    3    0    0 -0.14675991731E+01  0.28594738248E+01 -0.17436517808E+01  0.36566049391E+01  0.51100000000E-03 0.  1.
         12    1    3    3    0    0 -0.47398552016E+01  0.18373270472E+02 -0.14924981875E+02  0.24141217433E+02  0.00000000000E+00 0. -1.
</event>
<event>
 7    1  0.3435408E-009  0.4614232E+02  0.7816164E-02  0.1320468E+00
        -11   -1    0    0    0    0  0.00000000000E+00  0.00000000000E+00  0.45593999997E+02  0.45594000000E+02  0.51100000000E-03 0. -1.
         11   -1    0    0    0    0 -0.00000000000E+00 -0.00000000000E+00 -0.45593999997E+02  0.45594000000E+02  0.51100000000E-03 0.  1.
    9900012    2    1    2    0    0  0.43156885942E+02 -0.11424148676E+02 -0.60071213525E+01  0.46142317808E+02  0.10000000429E+02 0.  0.
        -12    1    1    2    0    0 -0.43156885942E+02  0.11424148676E+02  0.60071213525E+01  0.45045682192E+02  0.00000000000E+00 0.  1.
         11    1    3    3    0    0  0.84677349351E+01 -0.22669156036E-01 -0.95075048563E+00  0.85209726891E+01  0.51100000000E-03 0. -1.
        -11    1    3    3    0    0  0.25632395349E+01 -0.19913659394E+01 -0.24069553640E+01  0.40409367235E+01  0.51100000000E-03 0.  1.
        -12    1    3    3    0    0  0.32125911472E+02 -0.94101135806E+01 -0.26494155029E+01  0.33580408396E+02  0.00000000000E+00 0.  1.
</event>
<event>
 7    1  0.3435408E-009  0.4614232E+02  0.7816164E-02  0.1320468E+00
        -11   -1    0    0    0    0  0.00000000000E+00  0.00000000000E+00  0.45593999997E+02  0.45594000000E+02  0.51100000000E-03 0.  1.
         11   -1    0    0    0    0 -0.00000000000E+00 -0.00000000000E+00 -0.45593999997E+02  0.45594000000E+02  0.51100000000E-03 0. -1.
    9900012    2    1    2    0    0 -0.13828180121E+02 -0.69344001348E+01 -0.42306129867E+02  0.46142322127E+02  0.10000039810E+02 0.  0.
        -12    1    1    2    0    0  0.13828180121E+02  0.69344001348E+01  0.42306129867E+02  0.45045677873E+02  0.00000000000E+00 0.  1.
         11    1    3    3    0    0 -0.11067456645E+02 -0.52165053552E+01 -0.31588671935E+02  0.33875429437E+02  0.51100000000E-03 0. -1.
        -11    1    3    3    0    0 -0.13914972317E+01  0.84617827667E+00 -0.83802830043E+01  0.85370618901E+01  0.51100000000E-03 0.  1.
         12    1    3    3    0    0 -0.13692262442E+01 -0.25640730563E+01 -0.23371749284E+01  0.37298307993E+01  0.00000000000E+00 0. -1.
</event>
<event>
 7    1  0.3435408E-009  0.4614232E+02  0.7816164E-02  0.1320468E+00
        -11   -1    0    0    0    0  0.00000000000E+00  0.00000000000E+00  0.45593999997E+02  0.45594000000E+02  0.51100000000E-03 0.  1.
         11   -1    0    0    0    0 -0.00000000000E+00 -0.00000000000E+00 -0.45593999997E+02  0.45594000000E+02  0.51100000000E-03 0. -1.
    9900012    2    1    2    0    0  0.26709184044E+00 -0.39777655693E+02 -0.21137180161E+02  0.46142316349E+02  0.99999871225E+01 0.  0.
        -12    1    1    2    0    0 -0.26709184044E+00  0.39777655693E+02  0.21137180161E+02  0.45045683651E+02  0.00000000000E+00 0.  1.
         11    1    3    3    0    0 -0.30893484358E+01 -0.16017281463E+02 -0.68944851397E+01  0.17709638754E+02  0.51100000000E-03 0. -1.
        -11    1    3    3    0    0 -0.39090831817E+00 -0.28114727582E+00 -0.12463997592E+01  0.13361757837E+01  0.51100000000E-03 0.  1.
         12    1    3    3    0    0  0.37473485944E+01 -0.23479226954E+02 -0.12996295262E+02  0.27096501811E+02  0.00000000000E+00 0. -1.
</event>
<event>
 7    1  0.3435408E-009  0.4614232E+02  0.7816164E-02  0.1320468E+00
        -11   -1    0    0    0    0  0.00000000000E+00  0.00000000000E+00  0.45593999997E+02  0.45594000000E+02  0.51100000000E-03 0.  1.
         11   -1    0    0    0    0 -0.00000000000E+00 -0.00000000000E+00 -0.45593999997E+02  0.45594000000E+02  0.51100000000E-03 0. -1.
    9900012    2    1    2    0    0  0.22663921717E+02 -0.11135305007E+02 -0.37302347007E+02  0.46142318105E+02  0.10000003133E+02 0.  0.
        -12    1    1    2    0    0 -0.22663921717E+02  0.11135305007E+02  0.37302347007E+02  0.45045681895E+02  0.00000000000E+00 0.  1.
         11    1    3    3    0    0  0.81766264516E+01 -0.30655903739E+01 -0.92883828832E+01  0.12748690965E+02  0.51100000000E-03 0. -1.
        -11    1    3    3    0    0  0.15839224914E+01 -0.29374202289E+01 -0.19607578650E+01  0.38706355714E+01  0.51100000000E-03 0.  1.
         12    1    3    3    0    0  0.12903372774E+02 -0.51322944038E+01 -0.26053206259E+02  0.29522991568E+02  0.00000000000E+00 0. -1.
</event>
<event>
 7    1  0.3435408E-009  0.4614232E+02  0.7816164E-02  0.1320468E+00
        -11   -1    0    0    0    0  0.00000000000E+00  0.00000000000E+00  0.45593999997E+02  0.45594000000E+02  0.51100000000E-03 0.  1.
         11   -1    0    0    0    0 -0.00000000000E+00 -0.00000000000E+00 -0.45593999997E+02  0.45594000000E+02  0.51100000000E-03 0. -1.
    9900012    2    1    2    0    0 -0.11537188110E+02  0.27979495986E+02 -0.33363974193E+02  0.46142315645E+02  0.99999807000E+01 0.  0.
        -12    1    1    2    0    0  0.11537188110E+02 -0.27979495986E+02  0.33363974193E+02  0.45045684355E+02  0.00000000000E+00 0.  1.
         11    1    3    3    0    0 -0.11801994060E+02  0.21941627253E+02 -0.27450942731E+02  0.37071233152E+02  0.51100000000E-03 0. -1.
        -11    1    3    3    0    0 -0.42422823661E+00  0.41109653205E+01 -0.56612443184E+01  0.70092576609E+01  0.51100000000E-03 0.  1.
         12    1    3    3    0    0  0.68903418738E+00  0.19269034119E+01 -0.25178714326E+00  0.20618248315E+01  0.00000000000E+00 0. -1.
</event>
<event>
 7    1  0.3435408E-009  0.4614232E+02  0.7816164E-02  0.1320468E+00
        -11   -1    0    0    0    0  0.00000000000E+00  0.00000000000E+00  0.45593999997E+02  0.45594000000E+02  0.51100000000E-03 0. -1.
         11   -1    0    0    0    0 -0.00000000000E+00 -0.00000000000E+00 -0.45593999997E+02  0.45594000000E+02  0.51100000000E-03 0.  1.
    9900012    2    1    2    0    0 -0.22475265896E+02 -0.38933451471E+02  0.28569676271E+01  0.46142317803E+02  0.10000000386E+02 0.  0.
        -12    1    1    2    0    0  0.22475265896E+02  0.38933451471E+02 -0.28569676271E+01  0.45045682197E+02  0.00000000000E+00 0.  1.
         11    1    3    3    0    0 -0.22048812703E+01 -0.45198789037E+01  0.11889496723E+01  0.51676308212E+01  0.51100000000E-03 0. -1.
        -11    1    3    3    0    0 -0.20474746062E+02 -0.32487510415E+02  0.31582383942E+01  0.38530871120E+02  0.51100000000E-03 0.  1.
        -12    1    3    3    0    0  0.20436143586E+00 -0.19260621518E+01 -0.14902204394E+01  0.24438158620E+01  0.00000000000E+00 0.  1.
</event>
<event>
 7    1  0.3435408E-009  0.4614232E+02  0.7816164E-02  0.1320468E+00
        -11   -1    0    0    0    0  0.00000000000E+00  0.00000000000E+00  0.45593999997E+02  0.45594000000E+02  0.51100000000E-03 0. -1.
         11   -1    0    0    0    0 -0.00000000000E+00 -0.00000000000E+00 -0.45593999997E+02  0.45594000000E+02  0.51100000000E-03 0.  1.
    9900012    2    1    2    0    0 -0.28991932196E+02 -0.81008512246E+01  0.33510558944E+02  0.46142317812E+02  0.10000000463E+02 0.  0.
        -12    1    1    2    0    0  0.28991932196E+02  0.81008512246E+01 -0.33510558944E+02  0.45045682188E+02  0.00000000000E+00 0.  1.
         11    1    3    3    0    0 -0.62346728773E+01  0.70168259013E+00  0.53744501679E+01  0.82612480421E+01  0.51100000000E-03 0. -1.
        -11    1    3    3    0    0 -0.46554342012E+01  0.87392073076E+00  0.66702849058E+01  0.81810455341E+01  0.51100000000E-03 0.  1.
         12    1    3    3    0    0 -0.18101825117E+02 -0.96764545455E+01  0.21465823871E+02  0.29700024236E+02  0.00000000000E+00 0. -1.
</event>
<event>
 7    1  0.3435408E-009  0.4614232E+02  0.7816164E-02  0.1320468E+00
        -11   -1    0    0    0    0  0.00000000000E+00  0.00000000000E+00  0.45593999997E+02  0.45594000000E+02  0.51100000000E-03 0. -1.
         11   -1    0    0    0    0 -0.00000000000E+00 -0.00000000000E+00 -0.45593999997E+02  0.45594000000E+02  0.51100000000E-03 0.  1.
    9900012    2    1    2    0    0 -0.17986456085E+01  0.44659514046E+02 -0.56041176413E+01  0.46142318128E+02  0.10000003342E+02 0.  0.
        -12    1    1    2    0    0  0.17986456085E+01 -0.44659514046E+02  0.56041176413E+01  0.45045681872E+02  0.00000000000E+00 0.  1.
         11    1    3    3    0    0  0.94178385569E+00  0.13549630349E+02  0.23292800485E+01  0.13780601773E+02  0.51100000000E-03 0. -1.
        -11    1    3    3    0    0 -0.10376890853E+01  0.24296725454E+01 -0.57989754779E+00  0.27048823898E+01  0.51100000000E-03 0.  1.
         12    1    3    3    0    0 -0.17027403789E+01  0.28680211151E+02 -0.73535001420E+01  0.29656833965E+02  0.00000000000E+00 0. -1.
</event>
<event>
 7    1  0.3435408E-009  0.4614232E+02  0.7816164E-02  0.1320468E+00
        -11   -1    0    0    0    0  0.00000000000E+00  0.00000000000E+00  0.45593999997E+02  0.45594000000E+02  0.51100000000E-03 0.  1.
         11   -1    0    0    0    0 -0.00000000000E+00 -0.00000000000E+00 -0.45593999997E+02  0.45594000000E+02  0.51100000000E-03 0. -1.
    9900012    2    1    2    0    0 -0.15550010274E+02  0.13635718176E+01 -0.42254602870E+02  0.46142316396E+02  0.99999875545E+01 0.  0.
        -12    1    1    2    0    0  0.15550010274E+02 -0.13635718176E+01  0.42254602870E+02  0.45045683604E+02  0.00000000000E+00 0.  1.
         11    1    3    3    0    0 -0.10017379458E+02  0.57025543701E+00 -0.26717168346E+02  0.28539098920E+02  0.51100000000E-03 0. -1.
        -11    1    3    3    0    0 -0.61437207212E+00  0.65175185680E+00 -0.10582486478E+02  0.10620322681E+02  0.51100000000E-03 0.  1.
         12    1    3    3    0    0 -0.49182587439E+01  0.14156452375E+00 -0.49549480456E+01  0.69828947952E+01  0.00000000000E+00 0. -1.
</event>
<event>
 7    1  0.3435408E-009  0.4614232E+02  0.7816164E-02  0.1320468E+00
        -11   -1    0    0    0    0  0.00000000000E+00  0.00000000000E+00  0.45593999997E+02  0.45594000000E+02  0.51100000000E-03 0.  1.
         11   -1    0    0    0    0 -0.00000000000E+00 -0.00000000000E+00 -0.45593999997E+02  0.45594000000E+02  0.51100000000E-03 0. -1.
    9900012    2    1    2    0    0  0.34182563735E+02 -0.23153516547E+02 -0.18016122137E+02  0.46142315980E+02  0.99999837584E+01 0.  0.
        -12    1    1    2    0    0 -0.34182563735E+02  0.23153516547E+02  0.18016122137E+02  0.45045684020E+02  0.00000000000E+00 0.  1.
         11    1    3    3    0    0  0.14540625372E+02 -0.88020853364E+01 -0.11586586228E+02  0.20570743136E+02  0.51100000000E-03 0. -1.
        -11    1    3    3    0    0  0.10929173619E+02 -0.51636424958E+01 -0.32147593075E+01  0.12507786274E+02  0.51100000000E-03 0.  1.
         12    1    3    3    0    0  0.87127647432E+01 -0.91877887149E+01 -0.32147766021E+01  0.13063786570E+02  0.00000000000E+00 0. -1.
</event>
<event>
 7    1  0.3435408E-009  0.4614232E+02  0.7816164E-02  0.1320468E+00
        -11   -1    0    0    0    0  0.00000000000E+00  0.00000000000E+00  0.45593999997E+02  0.45594000000E+02  0.51100000000E-03 0.  1.
         11   -1    0    0    0    0 -0.00000000000E+00 -0.00000000000E+00 -0.45593999997E+02  0.45594000000E+02  0.51100000000E-03 0. -1.
    9900012    2    1    2    0    0  0.64831638523E+01 -0.28205303916E+02 -0.34518732696E+02  0.46142317749E+02  0.99999998852E+01 0.  0.
        -12    1    1    2    0    0 -0.64831638523E+01  0.28205303916E+02  0.34518732696E+02  0.45045682251E+02  0.00000000000E+00 0.  1.
         11    1    3    3    0    0  0.48008509051E+01 -0.16651751501E+02 -0.14475795345E+02  0.22580470513E+02  0.51100000000E-03 0. -1.
        -11    1    3    3    0    0  0.21188973532E+01 -0.47154927953E+01 -0.11514906639E+02  0.12622150113E+02  0.51100000000E-03 0.  1.
         12    1    3    3    0    0 -0.43658440600E+00 -0.68380596206E+01 -0.85280307123E+01  0.10939697123E+02  0.00000000000E+00 0. -1.
</event>
<event>
 7    1  0.3569636E-009  0.4614232E+02  0.7816164E-02  0.1320468E+00
        -11   -1    0    0    0    0  0.00000000000E+00  0.00000000000E+00  0.45593999997E+02  0.45594000000E+02  0.51100000000E-03 0. -1.
         11   -1    0    0    0    0 -0.00000000000E+00 -0.00000000000E+00 -0.45593999997E+02  0.45594000000E+02  0.51100000000E-03 0.  1.
    9900012    2    1    2    0    0  0.98298038389E+01 -0.48766854033E+01  0.43688744712E+02  0.46142317426E+02  0.99999969437E+01 0.  0.
        -12    1    1    2    0    0 -0.98298038389E+01  0.48766854033E+01 -0.43688744712E+02  0.45045682574E+02  0.00000000000E+00 0.  1.
         11    1    3    3    0    0  0.72718777368E+01 -0.23733725812E+01  0.37024453407E+02  0.37806391702E+02  0.51100000000E-03 0. -1.
        -11    1    3    3    0    0 -0.85062606452E+00 -0.23116091762E+00  0.85874674586E+00  0.12306284192E+01  0.51100000000E-03 0.  1.
         12    1    3    3    0    0  0.34085521667E+01 -0.22721519044E+01  0.58055445597E+01  0.71052973044E+01  0.00000000000E+00 0. -1.
</event>
<event>
 7    1  0.3435408E-009  0.4614232E+02  0.7816164E-02  0.1320468E+00
        -11   -1    0    0    0    0  0.00000000000E+00  0.00000000000E+00  0.45593999997E+02  0.45594000000E+02  0.51100000000E-03 0.  1.
         11   -1    0    0    0    0 -0.00000000000E+00 -0.00000000000E+00 -0.45593999997E+02  0.45594000000E+02  0.51100000000E-03 0. -1.
    9900012    2    1    2    0    0 -0.19265983145E+02 -0.49254395461E+01 -0.40418750001E+02  0.46142318599E+02  0.10000007641E+02 0.  0.
        -12    1    1    2    0    0  0.19265983145E+02  0.49254395461E+01  0.40418750001E+02  0.45045681401E+02  0.00000000000E+00 0.  1.
         11    1    3    3    0    0 -0.35858656871E-01  0.56535054611E+00 -0.39582792975E+01  0.39986100512E+01  0.51100000000E-03 0.  1.
        -11    1    3    3    0    0 -0.15249040930E+02 -0.66687534071E+01 -0.31870741194E+02  0.35954828129E+02  0.51100000000E-03 0. -1.
         12    1    3    3    0    0 -0.39810835581E+01  0.11779633149E+01 -0.45897295094E+01  0.61888804187E+01  0.00000000000E+00 0. -1.
</event>
<event>
 7    1  0.3435408E-009  0.4614232E+02  0.7816164E-02  0.1320468E+00
        -11   -1    0    0    0    0  0.00000000000E+00  0.00000000000E+00  0.45593999997E+02  0.45594000000E+02  0.51100000000E-03 0.  1.
         11   -1    0    0    0    0 -0.00000000000E+00 -0.00000000000E+00 -0.45593999997E+02  0.45594000000E+02  0.51100000000E-03 0. -1.
    9900012    2    1    2    0    0 -0.35242917407E+01 -0.25697472928E+01 -0.44834018857E+02  0.46142317851E+02  0.10000000816E+02 0.  0.
        -12    1    1    2    0    0  0.35242917407E+01  0.25697472928E+01  0.44834018857E+02  0.45045682149E+02  0.00000000000E+00 0.  1.
         11    1    3    3    0    0  0.23941105420E+01 -0.16308061581E+01 -0.75758807197E+01  0.81108114854E+01  0.51100000000E-03 0. -1.
        -11    1    3    3    0    0 -0.57915895992E+01 -0.40123671980E+00 -0.21687892065E+02  0.22451462391E+02  0.51100000000E-03 0.  1.
        -12    1    3    3    0    0 -0.12681268340E+00 -0.53770441488E+00 -0.15570246072E+02  0.15580043974E+02  0.00000000000E+00 0.  1.
</event>
<event>
 7    1  0.3435408E-009  0.4614232E+02  0.7816164E-02  0.1320468E+00
        -11   -1    0    0    0    0  0.00000000000E+00  0.00000000000E+00  0.45593999997E+02  0.45594000000E+02  0.51100000000E-03 0.  1.
         11   -1    0    0    0    0 -0.00000000000E+00 -0.00000000000E+00 -0.45593999997E+02  0.45594000000E+02  0.51100000000E-03 0. -1.
    9900012    2    1    2    0    0 -0.53359715598E+01  0.36666698934E+02 -0.25616287080E+02  0.46142316889E+02  0.99999920444E+01 0.  0.
        -12    1    1    2    0    0  0.53359715598E+01 -0.36666698934E+02  0.25616287080E+02  0.45045683111E+02  0.00000000000E+00 0.  1.
         11    1    3    3    0    0 -0.25282184967E+01  0.27900342962E+02 -0.18577758059E+02  0.33614790211E+02  0.51100000000E-03 0. -1.
        -11    1    3    3    0    0  0.13316481902E+01  0.26665271150E+01 -0.22911810420E+01  0.37594101380E+01  0.51100000000E-03 0.  1.
        -12    1    3    3    0    0 -0.41394012533E+01  0.60998288566E+01 -0.47473479785E+01  0.87681165392E+01  0.00000000000E+00 0.  1.
</event>
<event>
 7    1  0.3435408E-009  0.4614232E+02  0.7816164E-02  0.1320468E+00
        -11   -1    0    0    0    0  0.00000000000E+00  0.00000000000E+00  0.45593999997E+02  0.45594000000E+02  0.51100000000E-03 0. -1.
         11   -1    0    0    0    0 -0.00000000000E+00 -0.00000000000E+00 -0.45593999997E+02  0.45594000000E+02  0.51100000000E-03 0.  1.
    9900012    2    1    2    0    0  0.35282987478E+02  0.13905574945E+02  0.24307598261E+02  0.46142317043E+02  0.99999934476E+01 0.  0.
        -12    1    1    2    0    0 -0.35282987478E+02 -0.13905574945E+02 -0.24307598261E+02  0.45045682957E+02  0.00000000000E+00 0.  1.
         11    1    3    3    0    0  0.18389727888E+02  0.44572527915E+01  0.10486196717E+02  0.21633527593E+02  0.51100000000E-03 0. -1.
        -11    1    3    3    0    0  0.15461482596E+02  0.71663886475E+01  0.97700345141E+01  0.19643526796E+02  0.51100000000E-03 0.  1.
        -12    1    3    3    0    0  0.14317769935E+01  0.22819335062E+01  0.40513670295E+01  0.48652626541E+01  0.00000000000E+00 0.  1.
</event>
<event>
 7    1  0.3435408E-009  0.4614231E+02  0.7816164E-02  0.1320468E+00
        -11   -1    0    0    0    0  0.00000000000E+00  0.00000000000E+00  0.45593999997E+02  0.45594000000E+02  0.51100000000E-03 0. -1.
         11   -1    0    0    0    0 -0.00000000000E+00 -0.00000000000E+00 -0.45593999997E+02  0.45594000000E+02  0.51100000000E-03 0.  1.
    9900012    2    1    2    0    0 -0.38278315839E+01 -0.44381834867E+02  0.66868705918E+01  0.46142314312E+02  0.99999685487E+01 0.  0.
        -12    1    1    2    0    0  0.38278315839E+01  0.44381834867E+02 -0.66868705918E+01  0.45045685688E+02  0.00000000000E+00 0.  1.
         11    1    3    3    0    0 -0.91023037362E+00 -0.18187280265E+02  0.18844615023E+01  0.18307290302E+02  0.51100000000E-03 0. -1.
        -11    1    3    3    0    0 -0.23767458241E+01 -0.26495621404E+02  0.51915582527E+01  0.27103858612E+02  0.51100000000E-03 0.  1.
        -12    1    3    3    0    0 -0.54085538622E+00  0.30106680252E+00 -0.38914916327E+00  0.73116539829E+00  0.00000000000E+00 0.  1.
</event>
<event>
 7    1  0.3435408E-009  0.4614232E+02  0.7816164E-02  0.1320468E+00
        -11   -1    0    0    0    0  0.00000000000E+00  0.00000000000E+00  0.45593999997E+02  0.45594000000E+02  0.51100000000E-03 0.  1.
         11   -1    0    0    0    0 -0.00000000000E+00 -0.00000000000E+00 -0.45593999997E+02  0.45594000000E+02  0.51100000000E-03 0. -1.
    9900012    2    1    2    0    0  0.28035807174E+02 -0.29035203202E+02 -0.20001599175E+02  0.46142317871E+02  0.10000001006E+02 0.  0.
        -12    1    1    2    0    0 -0.28035807174E+02  0.29035203202E+02  0.20001599175E+02  0.45045682129E+02  0.00000000000E+00 0.  1.
         11    1    3    3    0    0  0.92398863729E+01 -0.15697183241E+02 -0.71903995765E+01  0.19582617502E+02  0.51100000000E-03 0. -1.
        -11    1    3    3    0    0  0.69793149075E+01 -0.31698240192E+01 -0.38410794917E+01  0.85739438308E+01  0.51100000000E-03 0.  1.
         12    1    3    3    0    0  0.11816605893E+02 -0.10168195942E+02 -0.89701201068E+01  0.17985756539E+02  0.00000000000E+00 0. -1.
</event>
<event>
 7    1  0.3435408E-009  0.4614232E+02  0.7816164E-02  0.1320468E+00
        -11   -1    0    0    0    0  0.00000000000E+00  0.00000000000E+00  0.45593999997E+02  0.45594000000E+02  0.51100000000E-03 0.  1.
         11   -1    0    0    0    0 -0.00000000000E+00 -0.00000000000E+00 -0.45593999997E+02  0.45594000000E+02  0.51100000000E-03 0. -1.
    9900012    2    1    2    0    0 -0.16738042658E+02 -0.98335692661E+01 -0.40647908117E+02  0.46142316624E+02  0.99999896272E+01 0.  0.
        -12    1    1    2    0    0  0.16738042658E+02  0.98335692661E+01  0.40647908117E+02  0.45045683376E+02  0.00000000000E+00 0.  1.
         11    1    3    3    0    0 -0.96025120601E-01 -0.22000779280E+01 -0.23740904503E+01  0.32381892224E+01  0.51100000000E-03 0.  1.
        -11    1    3    3    0    0 -0.12240704015E+02 -0.22700637365E+01 -0.24539596711E+02  0.27516900828E+02  0.51100000000E-03 0. -1.
         12    1    3    3    0    0 -0.44013135222E+01 -0.53634276016E+01 -0.13734220956E+02  0.15387226573E+02  0.00000000000E+00 0. -1.
</event>
<event>
 7    1  0.3435408E-009  0.4614232E+02  0.7816164E-02  0.1320468E+00
        -11   -1    0    0    0    0  0.00000000000E+00  0.00000000000E+00  0.45593999997E+02  0.45594000000E+02  0.51100000000E-03 0. -1.
         11   -1    0    0    0    0 -0.00000000000E+00 -0.00000000000E+00 -0.45593999997E+02  0.45594000000E+02  0.51100000000E-03 0.  1.
    9900012    2    1    2    0    0 -0.29143097245E+02  0.31570225079E+01  0.34202729034E+02  0.46142316727E+02  0.99999905718E+01 0.  0.
        -12    1    1    2    0    0  0.29143097245E+02 -0.31570225079E+01 -0.34202729034E+02  0.45045683273E+02  0.00000000000E+00 0.  1.
         11    1    3    3    0    0 -0.45992175650E+01 -0.30581530034E+01  0.67201559940E+01  0.86985975218E+01  0.51100000000E-03 0. -1.
        -11    1    3    3    0    0 -0.13885771900E+02  0.46329500409E+01  0.15132954750E+02  0.21054339389E+02  0.51100000000E-03 0.  1.
         12    1    3    3    0    0 -0.10658107779E+02  0.15822254704E+01  0.12349618290E+02  0.16389379817E+02  0.00000000000E+00 0. -1.
</event>
<event>
 7    1  0.3435408E-009  0.4614232E+02  0.7816164E-02  0.1320468E+00
        -11   -1    0    0    0    0  0.00000000000E+00  0.00000000000E+00  0.45593999997E+02  0.45594000000E+02  0.51100000000E-03 0. -1.
         11   -1    0    0    0    0 -0.00000000000E+00 -0.00000000000E+00 -0.45593999997E+02  0.45594000000E+02  0.51100000000E-03 0.  1.
    9900012    2    1    2    0    0 -0.19379251471E+02 -0.36274898939E+02 -0.18376342256E+02  0.46142316130E+02  0.99999851267E+01 0.  0.
        -12    1    1    2    0    0  0.19379251471E+02  0.36274898939E+02  0.18376342256E+02  0.45045683870E+02  0.00000000000E+00 0.  1.
         11    1    3    3    0    0 -0.81032109581E+01 -0.13681434298E+02 -0.10726261493E+02  0.19180624550E+02  0.51100000000E-03 0. -1.
        -11    1    3    3    0    0 -0.24246805624E+00 -0.47190291700E+01 -0.40850154157E+00  0.47428789608E+01  0.51100000000E-03 0.  1.
         12    1    3    3    0    0 -0.11033572456E+02 -0.17874435471E+02 -0.72415792220E+01  0.22218812619E+02  0.00000000000E+00 0. -1.
</event>
<event>
 7    1  0.3435408E-009  0.4614232E+02  0.7816164E-02  0.1320468E+00
        -11   -1    0    0    0    0  0.00000000000E+00  0.00000000000E+00  0.45593999997E+02  0.45594000000E+02  0.51100000000E-03 0.  1.
         11   -1    0    0    0    0 -0.00000000000E+00 -0.00000000000E+00 -0.45593999997E+02  0.45594000000E+02  0.51100000000E-03 0. -1.
    9900012    2    1    2    0    0  0.10842591438E+02  0.41080919114E+02 -0.14963615947E+02  0.46142317560E+02  0.99999981617E+01 0.  0.
        -12    1    1    2    0    0 -0.10842591438E+02 -0.41080919114E+02  0.14963615947E+02  0.45045682440E+02  0.00000000000E+00 0.  1.
         11    1    3    3    0    0  0.70616978105E+00  0.19076593543E+02 -0.39849125730E+01  0.19501144208E+02  0.51100000000E-03 0. -1.
        -11    1    3    3    0    0  0.25979553128E+01  0.42039120047E+01 -0.23369119188E+01  0.54665716430E+01  0.51100000000E-03 0.  1.
         12    1    3    3    0    0  0.75384663439E+01  0.17800413567E+02 -0.86417914549E+01  0.21174601708E+02  0.00000000000E+00 0. -1.
</event>
<event>
 7    1  0.3435408E-009  0.4614232E+02  0.7816164E-02  0.1320468E+00
        -11   -1    0    0    0    0  0.00000000000E+00  0.00000000000E+00  0.45593999997E+02  0.45594000000E+02  0.51100000000E-03 0. -1.
         11   -1    0    0    0    0 -0.00000000000E+00 -0.00000000000E+00 -0.45593999997E+02  0.45594000000E+02  0.51100000000E-03 0.  1.
    9900012    2    1    2    0    0  0.12391001108E+02  0.42576234114E+02  0.79272215074E+01  0.46142318069E+02  0.10000002806E+02 0.  0.
        -12    1    1    2    0    0 -0.12391001108E+02 -0.42576234114E+02 -0.79272215074E+01  0.45045681931E+02  0.00000000000E+00 0.  1.
         11    1    3    3    0    0  0.94040144667E+00  0.43986048214E+00  0.58142913906E+00  0.11899126983E+01  0.51100000000E-03 0.  1.
        -11    1    3    3    0    0  0.10681688573E+02  0.26586707463E+02  0.63789506834E+01  0.29353747573E+02  0.51100000000E-03 0. -1.
         12    1    3    3    0    0  0.76891108758E+00  0.15549666170E+02  0.96684168493E+00  0.15598657798E+02  0.00000000000E+00 0. -1.
</event>
<event>
 7    1  0.3435408E-009  0.4614232E+02  0.7816164E-02  0.1320468E+00
        -11   -1    0    0    0    0  0.00000000000E+00  0.00000000000E+00  0.45593999997E+02  0.45594000000E+02  0.51100000000E-03 0.  1.
         11   -1    0    0    0    0 -0.00000000000E+00 -0.00000000000E+00 -0.45593999997E+02  0.45594000000E+02  0.51100000000E-03 0. -1.
    9900012    2    1    2    0    0 -0.34459055562E+02 -0.26965958766E+02  0.10701582353E+02  0.46142319772E+02  0.10000018332E+02 0.  0.
        -12    1    1    2    0    0  0.34459055562E+02  0.26965958766E+02 -0.10701582353E+02  0.45045680228E+02  0.00000000000E+00 0.  1.
         11    1    3    3    0    0 -0.18840211482E+02 -0.17250302577E+02  0.86199993743E+01  0.26959801504E+02  0.51100000000E-03 0. -1.
        -11    1    3    3    0    0 -0.19385766915E+01 -0.49953408490E+00  0.17891204761E+01  0.26848773212E+01  0.51100000000E-03 0.  1.
         12    1    3    3    0    0 -0.13680267389E+02 -0.92161221034E+01  0.29246250228E+00  0.16497640946E+02  0.00000000000E+00 0. -1.
</event>
<event>
 7    1  0.3435408E-009  0.4614232E+02  0.7816164E-02  0.1320468E+00
        -11   -1    0    0    0    0  0.00000000000E+00  0.00000000000E+00  0.45593999997E+02  0.45594000000E+02  0.51100000000E-03 0.  1.
         11   -1    0    0    0    0 -0.00000000000E+00 -0.00000000000E+00 -0.45593999997E+02  0.45594000000E+02  0.51100000000E-03 0. -1.
    9900012    2    1    2    0    0 -0.10236338453E+02  0.43164206882E+02 -0.78218946896E+01  0.46142318550E+02  0.10000007198E+02 0.  0.
        -12    1    1    2    0    0  0.10236338453E+02 -0.43164206882E+02  0.78218946896E+01  0.45045681450E+02  0.00000000000E+00 0.  1.
         11    1    3    3    0    0 -0.25812110980E+01  0.11382902010E+02  0.31261729418E+00  0.11676079768E+02  0.51100000000E-03 0.  1.
        -11    1    3    3    0    0 -0.12599389439E+01  0.20123936784E+02 -0.56475074320E+01  0.20939307970E+02  0.51100000000E-03 0. -1.
        -12    1    3    3    0    0 -0.63951884114E+01  0.11657368088E+02 -0.24870045518E+01  0.13526930812E+02  0.00000000000E+00 0.  1.
</event>
<event>
 7    1  0.3435408E-009  0.4614232E+02  0.7816164E-02  0.1320468E+00
        -11   -1    0    0    0    0  0.00000000000E+00  0.00000000000E+00  0.45593999997E+02  0.45594000000E+02  0.51100000000E-03 0.  1.
         11   -1    0    0    0    0 -0.00000000000E+00 -0.00000000000E+00 -0.45593999997E+02  0.45594000000E+02  0.51100000000E-03 0. -1.
    9900012    2    1    2    0    0  0.25723522180E+02  0.36946824411E+02 -0.15316994607E+01  0.46142317292E+02  0.99999957203E+01 0.  0.
        -12    1    1    2    0    0 -0.25723522180E+02 -0.36946824411E+02  0.15316994607E+01  0.45045682708E+02  0.00000000000E+00 0.  1.
         11    1    3    3    0    0  0.23306631700E+02  0.32862204882E+02 -0.88781036915E+00  0.40297789001E+02  0.51100000000E-03 0. -1.
        -11    1    3    3    0    0  0.26948332888E+01  0.26004297395E+01 -0.15836381760E+01  0.40659895988E+01  0.51100000000E-03 0.  1.
         12    1    3    3    0    0 -0.27794280811E+00  0.14841897897E+01  0.93974908442E+00  0.17785386918E+01  0.00000000000E+00 0. -1.
</event>
<event>
 7    1  0.3435408E-009  0.4614232E+02  0.7816164E-02  0.1320468E+00
        -11   -1    0    0    0    0  0.00000000000E+00  0.00000000000E+00  0.45593999997E+02  0.45594000000E+02  0.51100000000E-03 0.  1.
         11   -1    0    0    0    0 -0.00000000000E+00 -0.00000000000E+00 -0.45593999997E+02  0.45594000000E+02  0.51100000000E-03 0. -1.
    9900012    2    1    2    0    0  0.11187108886E+02  0.37605069776E+02 -0.22131895406E+02  0.46142317939E+02  0.10000001620E+02 0.  0.
        -12    1    1    2    0    0 -0.11187108886E+02 -0.37605069776E+02  0.22131895406E+02  0.45045682061E+02  0.00000000000E+00 0.  1.
         11    1    3    3    0    0  0.19588463598E+01  0.17955773537E+02 -0.90225302920E+01  0.20190416923E+02  0.51100000000E-03 0. -1.
        -11    1    3    3    0    0  0.30889427427E+01  0.21230262736E+01 -0.14167021297E+01  0.40069755442E+01  0.51100000000E-03 0.  1.
        -12    1    3    3    0    0  0.61393197834E+01  0.17526269966E+02 -0.11692662984E+02  0.21944925472E+02  0.00000000000E+00 0.  1.
</event>
<event>
 7    1  0.3435408E-009  0.4614232E+02  0.7816164E-02  0.1320468E+00
        -11   -1    0    0    0    0  0.00000000000E+00  0.00000000000E+00  0.45593999997E+02  0.45594000000E+02  0.51100000000E-03 0.  1.
         11   -1    0    0    0    0 -0.00000000000E+00 -0.00000000000E+00 -0.45593999997E+02  0.45594000000E+02  0.51100000000E-03 0. -1.
    9900012    2    1    2    0    0  0.14151680748E+02  0.47340323040E+01 -0.42502148149E+02  0.46142315111E+02  0.99999758330E+01 0.  0.
        -12    1    1    2    0    0 -0.14151680748E+02 -0.47340323040E+01  0.42502148149E+02  0.45045684889E+02  0.00000000000E+00 0.  1.
         11    1    3    3    0    0  0.90709207674E+01  0.44158745415E+01 -0.24327511954E+02  0.26336465019E+02  0.51100000000E-03 0. -1.
        -11    1    3    3    0    0  0.24074661769E+01 -0.27075018103E+01 -0.10893925964E+02  0.11480595917E+02  0.51100000000E-03 0.  1.
        -12    1    3    3    0    0  0.26732938041E+01  0.30256595729E+01 -0.72807102305E+01  0.83252541748E+01  0.00000000000E+00 0.  1.
</event>
<event>
 7    1  0.3435408E-009  0.4614232E+02  0.7816164E-02  0.1320468E+00
        -11   -1    0    0    0    0  0.00000000000E+00  0.00000000000E+00  0.45593999997E+02  0.45594000000E+02  0.51100000000E-03 0.  1.
         11   -1    0    0    0    0 -0.00000000000E+00 -0.00000000000E+00 -0.45593999997E+02  0.45594000000E+02  0.51100000000E-03 0. -1.
    9900012    2    1    2    0    0 -0.44885616601E+02 -0.20354256909E+01 -0.32018752260E+01  0.46142317184E+02  0.99999947342E+01 0.  0.
        -12    1    1    2    0    0  0.44885616601E+02  0.20354256909E+01  0.32018752260E+01  0.45045682816E+02  0.00000000000E+00 0.  1.
         11    1    3    3    0    0 -0.32704255132E+02 -0.21414241018E+01 -0.62950713512E+00  0.32780333745E+02  0.51100000000E-03 0. -1.
        -11    1    3    3    0    0 -0.66162917703E+01 -0.20501138193E+01 -0.17074336186E+00  0.69287399300E+01  0.51100000000E-03 0.  1.
         12    1    3    3    0    0 -0.55650696991E+01  0.21561122302E+01 -0.24016247290E+01  0.64332435089E+01  0.00000000000E+00 0. -1.
</event>
<event>
 7    1  0.3435408E-009  0.4614232E+02  0.7816164E-02  0.1320468E+00
        -11   -1    0    0    0    0  0.00000000000E+00  0.00000000000E+00  0.45593999997E+02  0.45594000000E+02  0.51100000000E-03 0. -1.
         11   -1    0    0    0    0 -0.00000000000E+00 -0.00000000000E+00 -0.45593999997E+02  0.45594000000E+02  0.51100000000E-03 0.  1.
    9900012    2    1    2    0    0  0.11871789006E+02 -0.16085528449E+02  0.40366198062E+02  0.46142317126E+02  0.99999942042E+01 0.  0.
        -12    1    1    2    0    0 -0.11871789006E+02  0.16085528449E+02 -0.40366198062E+02  0.45045682874E+02  0.00000000000E+00 0.  1.
         11    1    3    3    0    0  0.25590759587E+01 -0.43721306218E+00  0.56987981046E+01  0.62622939186E+01  0.51100000000E-03 0. -1.
        -11    1    3    3    0    0  0.41861615017E+01 -0.31175427192E+01  0.15928662894E+02  0.16762020242E+02  0.51100000000E-03 0.  1.
        -12    1    3    3    0    0  0.51265515451E+01 -0.12530772668E+02  0.18738737063E+02  0.23118002965E+02  0.00000000000E+00 0.  1.
</event>
<event>
 7    1  0.3435408E-009  0.4614232E+02  0.7816164E-02  0.1320468E+00
        -11   -1    0    0    0    0  0.00000000000E+00  0.00000000000E+00  0.45593999997E+02  0.45594000000E+02  0.51100000000E-03 0. -1.
         11   -1    0    0    0    0 -0.00000000000E+00 -0.00000000000E+00 -0.45593999997E+02  0.45594000000E+02  0.51100000000E-03 0.  1.
    9900012    2    1    2    0    0 -0.17272126375E+01  0.36385911418E+02  0.26498974718E+02  0.46142317917E+02  0.10000001419E+02 0.  0.
        -12    1    1    2    0    0  0.17272126375E+01 -0.36385911418E+02 -0.26498974718E+02  0.45045682083E+02  0.00000000000E+00 0.  1.
         11    1    3    3    0    0  0.74680281133E+00  0.12592644347E+02  0.55143833716E+01  0.13767382842E+02  0.51100000000E-03 0. -1.
        -11    1    3    3    0    0 -0.35681610267E+01  0.80571467339E+01  0.63910094921E+01  0.10885512813E+02  0.51100000000E-03 0.  1.
        -12    1    3    3    0    0  0.10941455779E+01  0.15736120337E+02  0.14593581855E+02  0.21489422262E+02  0.00000000000E+00 0.  1.
</event>
<event>
 7    1  0.3435408E-009  0.4614232E+02  0.7816164E-02  0.1320468E+00
        -11   -1    0    0    0    0  0.00000000000E+00  0.00000000000E+00  0.45593999997E+02  0.45594000000E+02  0.51100000000E-03 0.  1.
         11   -1    0    0    0    0 -0.00000000000E+00 -0.00000000000E+00 -0.45593999997E+02  0.45594000000E+02  0.51100000000E-03 0. -1.
    9900012    2    1    2    0    0 -0.30606998170E+02 -0.32977042520E+02  0.21999790096E+01  0.46142316767E+02  0.99999909316E+01 0.  0.
        -12    1    1    2    0    0  0.30606998170E+02  0.32977042520E+02 -0.21999790096E+01  0.45045683233E+02  0.00000000000E+00 0.  1.
         11    1    3    3    0    0 -0.82104006530E+01 -0.54099471414E+01 -0.23061731709E+00  0.98352118210E+01  0.51100000000E-03 0. -1.
        -11    1    3    3    0    0 -0.18638561431E+02 -0.18036954593E+02  0.93196768697E+00  0.25953733204E+02  0.51100000000E-03 0.  1.
        -12    1    3    3    0    0 -0.37580360855E+01 -0.95301407858E+01  0.14986286397E+01  0.10353371741E+02  0.00000000000E+00 0.  1.
</event>
<event>
 7    1  0.3435408E-009  0.4614232E+02  0.7816164E-02  0.1320468E+00
        -11   -1    0    0    0    0  0.00000000000E+00  0.00000000000E+00  0.45593999997E+02  0.45594000000E+02  0.51100000000E-03 0.  1.
         11   -1    0    0    0    0 -0.00000000000E+00 -0.00000000000E+00 -0.45593999997E+02  0.45594000000E+02  0.51100000000E-03 0. -1.
    9900012    2    1    2    0    0  0.10264180676E+02  0.21056887332E+02 -0.38475544781E+02  0.46142318129E+02  0.10000003351E+02 0.  0.
        -12    1    1    2    0    0 -0.10264180676E+02 -0.21056887332E+02  0.38475544781E+02  0.45045681871E+02  0.00000000000E+00 0.  1.
         11    1    3    3    0    0  0.76096248277E+01  0.18955467503E+02 -0.28993856328E+02  0.35466319845E+02  0.51100000000E-03 0. -1.
        -11    1    3    3    0    0  0.71273537299E-01  0.28315676409E+00 -0.58717736220E+01  0.58790291205E+01  0.51100000000E-03 0.  1.
        -12    1    3    3    0    0  0.25832823105E+01  0.18182630646E+01 -0.36099148311E+01  0.47969691635E+01  0.00000000000E+00 0.  1.
</event>
<event>
 7    1  0.3435408E-009  0.4614232E+02  0.7816164E-02  0.1320468E+00
        -11   -1    0    0    0    0  0.00000000000E+00  0.00000000000E+00  0.45593999997E+02  0.45594000000E+02  0.51100000000E-03 0.  1.
         11   -1    0    0    0    0 -0.00000000000E+00 -0.00000000000E+00 -0.45593999997E+02  0.45594000000E+02  0.51100000000E-03 0. -1.
    9900012    2    1    2    0    0  0.40939170051E+02  0.68398986256E+01 -0.17501817723E+02  0.46142317840E+02  0.10000000720E+02 0.  0.
        -12    1    1    2    0    0 -0.40939170051E+02 -0.68398986256E+01  0.17501817723E+02  0.45045682160E+02  0.00000000000E+00 0.  1.
         11    1    3    3    0    0  0.40787704516E+02  0.62138226374E+01 -0.17115458917E+02  0.44667520254E+02  0.51100000000E-03 0. -1.
        -11    1    3    3    0    0  0.37179564322E-01  0.97271790387E+00 -0.49758510883E+00  0.10932308275E+01  0.51100000000E-03 0.  1.
         12    1    3    3    0    0  0.11428597083E+00 -0.34664191567E+00  0.11122630322E+00  0.38156675872E+00  0.00000000000E+00 0. -1.
</event>
<event>
 7    1  0.3435408E-009  0.4614232E+02  0.7816164E-02  0.1320468E+00
        -11   -1    0    0    0    0  0.00000000000E+00  0.00000000000E+00  0.45593999997E+02  0.45594000000E+02  0.51100000000E-03 0. -1.
         11   -1    0    0    0    0 -0.00000000000E+00 -0.00000000000E+00 -0.45593999997E+02  0.45594000000E+02  0.51100000000E-03 0.  1.
    9900012    2    1    2    0    0 -0.21324315785E+02  0.20884838496E+02  0.33737377795E+02  0.46142316709E+02  0.99999904091E+01 0.  0.
        -12    1    1    2    0    0  0.21324315785E+02 -0.20884838496E+02 -0.33737377795E+02  0.45045683291E+02  0.00000000000E+00 0.  1.
         11    1    3    3    0    0 -0.30235864919E+01  0.30471815787E+01  0.75417930097E+01  0.86779048687E+01  0.51100000000E-03 0. -1.
        -11    1    3    3    0    0 -0.27306598609E+01  0.43677701461E+01  0.10077075098E+02  0.11317303659E+02  0.51100000000E-03 0.  1.
        -12    1    3    3    0    0 -0.15570069432E+02  0.13469886771E+02  0.16118509687E+02  0.26147108182E+02  0.00000000000E+00 0.  1.
</event>
<event>
 7    1  0.3435408E-009  0.4614232E+02  0.7816164E-02  0.1320468E+00
        -11   -1    0    0    0    0  0.00000000000E+00  0.00000000000E+00  0.45593999997E+02  0.45594000000E+02  0.51100000000E-03 0.  1.
         11   -1    0    0    0    0 -0.00000000000E+00 -0.00000000000E+00 -0.45593999997E+02  0.45594000000E+02  0.51100000000E-03 0. -1.
    9900012    2    1    2    0    0 -0.21478998956E+02 -0.19664270311E+01 -0.39546166185E+02  0.46142317728E+02  0.99999996960E+01 0.  0.
        -12    1    1    2    0    0  0.21478998956E+02  0.19664270311E+01  0.39546166185E+02  0.45045682272E+02  0.00000000000E+00 0.  1.
         11    1    3    3    0    0 -0.65637864292E+01  0.18979047583E+01 -0.19729333699E+02  0.20878983290E+02  0.51100000000E-03 0. -1.
        -11    1    3    3    0    0 -0.63047379970E+01 -0.36309830819E+00 -0.91071181205E+01  0.11082470948E+02  0.51100000000E-03 0.  1.
         12    1    3    3    0    0 -0.86104745298E+01 -0.35012334812E+01 -0.10709714366E+02  0.14180863490E+02  0.00000000000E+00 0. -1.
</event>
<event>
 7    1  0.3435408E-009  0.4614232E+02  0.7816164E-02  0.1320468E+00
        -11   -1    0    0    0    0  0.00000000000E+00  0.00000000000E+00  0.45593999997E+02  0.45594000000E+02  0.51100000000E-03 0.  1.
         11   -1    0    0    0    0 -0.00000000000E+00 -0.00000000000E+00 -0.45593999997E+02  0.45594000000E+02  0.51100000000E-03 0. -1.
    9900012    2    1    2    0    0  0.26013041988E+02 -0.19365276369E+02 -0.31263736404E+02  0.46142317674E+02  0.99999992011E+01 0.  0.
        -12    1    1    2    0    0 -0.26013041988E+02  0.19365276369E+02  0.31263736404E+02  0.45045682326E+02  0.00000000000E+00 0.  1.
         11    1    3    3    0    0  0.17994552448E+02 -0.13825489720E+02 -0.27378547655E+02  0.35560272156E+02  0.51100000000E-03 0. -1.
        -11    1    3    3    0    0  0.33318904826E+01 -0.14950074122E+01 -0.13943393188E+01  0.39090566314E+01  0.51100000000E-03 0.  1.
         12    1    3    3    0    0  0.46865990570E+01 -0.40447792367E+01 -0.24908494301E+01  0.66729888864E+01  0.00000000000E+00 0. -1.
</event>
<event>
 7    1  0.3435408E-009  0.4614232E+02  0.7816164E-02  0.1320468E+00
        -11   -1    0    0    0    0  0.00000000000E+00  0.00000000000E+00  0.45593999997E+02  0.45594000000E+02  0.51100000000E-03 0.  1.
         11   -1    0    0    0    0 -0.00000000000E+00 -0.00000000000E+00 -0.45593999997E+02  0.45594000000E+02  0.51100000000E-03 0. -1.
    9900012    2    1    2    0    0 -0.82185762299E+01 -0.29934683342E+02 -0.32641739738E+02  0.46142318351E+02  0.10000005381E+02 0.  0.
        -12    1    1    2    0    0  0.82185762299E+01  0.29934683342E+02  0.32641739738E+02  0.45045681649E+02  0.00000000000E+00 0.  1.
         11    1    3    3    0    0 -0.17085128635E+01 -0.86560320049E+01 -0.10057088364E+02  0.13378749302E+02  0.51100000000E-03 0. -1.
        -11    1    3    3    0    0  0.11419618595E+01 -0.55793439758E+01 -0.27140774022E+01  0.63086743849E+01  0.51100000000E-03 0.  1.
        -12    1    3    3    0    0 -0.76520252260E+01 -0.15699307362E+02 -0.19870573973E+02  0.26454894664E+02  0.00000000000E+00 0.  1.
</event>
<event>
 7    1  0.3435408E-009  0.4614232E+02  0.7816164E-02  0.1320468E+00
        -11   -1    0    0    0    0  0.00000000000E+00  0.00000000000E+00  0.45593999997E+02  0.45594000000E+02  0.51100000000E-03 0. -1.
         11   -1    0    0    0    0 -0.00000000000E+00 -0.00000000000E+00 -0.45593999997E+02  0.45594000000E+02  0.51100000000E-03 0.  1.
    9900012    2    1    2    0    0  0.42881927427E+02  0.13443256610E+02 -0.30874865524E+01  0.46142318505E+02  0.10000006782E+02 0.  0.
        -12    1    1    2    0    0 -0.42881927427E+02 -0.13443256610E+02  0.30874865524E+01  0.45045681495E+02  0.00000000000E+00 0.  1.
         11    1    3    3    0    0  0.15255536255E+02  0.49392603050E+01  0.27036645258E+00  0.16037480384E+02  0.51100000000E-03 0. -1.
        -11    1    3    3    0    0  0.15090183692E+02  0.85029265599E+01 -0.10072343572E+01  0.17350156347E+02  0.51100000000E-03 0.  1.
        -12    1    3    3    0    0  0.12536207480E+02  0.10697447740E-02 -0.23506186477E+01  0.12754681773E+02  0.00000000000E+00 0.  1.
</event>
<event>
 7    1  0.3435408E-009  0.4614231E+02  0.7816164E-02  0.1320468E+00
        -11   -1    0    0    0    0  0.00000000000E+00  0.00000000000E+00  0.45593999997E+02  0.45594000000E+02  0.51100000000E-03 0. -1.
         11   -1    0    0    0    0 -0.00000000000E+00 -0.00000000000E+00 -0.45593999997E+02  0.45594000000E+02  0.51100000000E-03 0.  1.
    9900012    2    1    2    0    0 -0.37966844342E+02  0.22169612050E+02  0.98051433739E+01  0.46142314255E+02  0.99999680247E+01 0.  0.
        -12    1    1    2    0    0  0.37966844342E+02 -0.22169612050E+02 -0.98051433739E+01  0.45045685745E+02  0.00000000000E+00 0.  1.
         11    1    3    3    0    0 -0.15827801509E+02  0.11870127703E+02  0.64187754586E+00  0.19794727564E+02  0.51100000000E-03 0. -1.
        -11    1    3    3    0    0 -0.19008394578E+02  0.98273580904E+01  0.70051044942E+01  0.22515939259E+02  0.51100000000E-03 0.  1.
        -12    1    3    3    0    0 -0.31306482547E+01  0.47212625581E+00  0.21581613338E+01  0.38316474314E+01  0.00000000000E+00 0.  1.
</event>
<event>
 7    1  0.3435408E-009  0.4614232E+02  0.7816164E-02  0.1320468E+00
        -11   -1    0    0    0    0  0.00000000000E+00  0.00000000000E+00  0.45593999997E+02  0.45594000000E+02  0.51100000000E-03 0.  1.
         11   -1    0    0    0    0 -0.00000000000E+00 -0.00000000000E+00 -0.45593999997E+02  0.45594000000E+02  0.51100000000E-03 0. -1.
    9900012    2    1    2    0    0 -0.23370350177E+01  0.19247224606E+02 -0.40659514589E+02  0.46142317473E+02  0.99999973738E+01 0.  0.
        -12    1    1    2    0    0  0.23370350177E+01 -0.19247224606E+02  0.40659514589E+02  0.45045682527E+02  0.00000000000E+00 0.  1.
         11    1    3    3    0    0 -0.48277139933E+00  0.99215013403E+01 -0.23480221499E+02  0.25494902608E+02  0.51100000000E-03 0. -1.
        -11    1    3    3    0    0  0.57415939247E-01  0.69348997564E+01 -0.15867853350E+02  0.17317185147E+02  0.51100000000E-03 0.  1.
        -12    1    3    3    0    0 -0.19116795576E+01  0.23908235095E+01 -0.13114397394E+01  0.33302297180E+01  0.00000000000E+00 0.  1.
</event>
<event>
 7    1  0.3435408E-009  0.4614232E+02  0.7816164E-02  0.1320468E+00
        -11   -1    0    0    0    0  0.00000000000E+00  0.00000000000E+00  0.45593999997E+02  0.45594000000E+02  0.51100000000E-03 0.  1.
         11   -1    0    0    0    0 -0.00000000000E+00 -0.00000000000E+00 -0.45593999997E+02  0.45594000000E+02  0.51100000000E-03 0. -1.
    9900012    2    1    2    0    0 -0.33401199139E+02 -0.12798642136E+02 -0.27380069585E+02  0.46142317022E+02  0.99999932644E+01 0.  0.
        -12    1    1    2    0    0  0.33401199139E+02  0.12798642136E+02  0.27380069585E+02  0.45045682978E+02  0.00000000000E+00 0.  1.
         11    1    3    3    0    0 -0.26897146578E+02 -0.95119188887E+01 -0.23918073015E+02  0.37229119141E+02  0.51100000000E-03 0. -1.
        -11    1    3    3    0    0 -0.49340260265E+01 -0.40844226118E+01 -0.23111242102E+01  0.68094358267E+01  0.51100000000E-03 0.  1.
         12    1    3    3    0    0 -0.15700265343E+01  0.79769936489E+00 -0.11508723597E+01  0.21037620549E+01  0.00000000000E+00 0. -1.
</event>
<event>
 7    1  0.3435408E-009  0.4614232E+02  0.7816164E-02  0.1320468E+00
        -11   -1    0    0    0    0  0.00000000000E+00  0.00000000000E+00  0.45593999997E+02  0.45594000000E+02  0.51100000000E-03 0.  1.
         11   -1    0    0    0    0 -0.00000000000E+00 -0.00000000000E+00 -0.45593999997E+02  0.45594000000E+02  0.51100000000E-03 0. -1.
    9900012    2    1    2    0    0  0.10248045830E+02  0.24727381208E+02 -0.36230481282E+02  0.46142316537E+02  0.99999888357E+01 0.  0.
        -12    1    1    2    0    0 -0.10248045830E+02 -0.24727381208E+02  0.36230481282E+02  0.45045683463E+02  0.00000000000E+00 0.  1.
         11    1    3    3    0    0  0.70945451064E+01  0.15088588675E+02 -0.20825800407E+02  0.26677931729E+02  0.51100000000E-03 0. -1.
        -11    1    3    3    0    0 -0.39140242225E+00 -0.11647118536E-01 -0.43512504844E+01  0.43688342325E+01  0.51100000000E-03 0.  1.
        -12    1    3    3    0    0  0.35449031458E+01  0.96504396512E+01 -0.11053430391E+02  0.15095550576E+02  0.00000000000E+00 0.  1.
</event>
<event>
 7    1  0.3435408E-009  0.4614232E+02  0.7816164E-02  0.1320468E+00
        -11   -1    0    0    0    0  0.00000000000E+00  0.00000000000E+00  0.45593999997E+02  0.45594000000E+02  0.51100000000E-03 0.  1.
         11   -1    0    0    0    0 -0.00000000000E+00 -0.00000000000E+00 -0.45593999997E+02  0.45594000000E+02  0.51100000000E-03 0. -1.
    9900012    2    1    2    0    0 -0.37498675570E+02  0.10745082711E+02 -0.22527894224E+02  0.46142317742E+02  0.99999998247E+01 0.  0.
        -12    1    1    2    0    0  0.37498675570E+02 -0.10745082711E+02  0.22527894224E+02  0.45045682258E+02  0.00000000000E+00 0.  1.
         11    1    3    3    0    0 -0.15602686518E+02  0.50354255627E+01 -0.65690022273E+01  0.17662138254E+02  0.51100000000E-03 0. -1.
        -11    1    3    3    0    0 -0.14391282448E+01 -0.26023988907E+00  0.50900601778E+00  0.15485161581E+01  0.51100000000E-03 0.  1.
        -12    1    3    3    0    0 -0.20456860807E+02  0.59698970375E+01 -0.16467898014E+02  0.26931663330E+02  0.00000000000E+00 0.  1.
</event>
<event>
 7    1  0.3435408E-009  0.4614232E+02  0.7816164E-02  0.1320468E+00
        -11   -1    0    0    0    0  0.00000000000E+00  0.00000000000E+00  0.45593999997E+02  0.45594000000E+02  0.51100000000E-03 0.  1.
         11   -1    0    0    0    0 -0.00000000000E+00 -0.00000000000E+00 -0.45593999997E+02  0.45594000000E+02  0.51100000000E-03 0. -1.
    9900012    2    1    2    0    0  0.16625047085E+01  0.28359465157E+02 -0.34958407447E+02  0.46142318330E+02  0.10000005185E+02 0.  0.
        -12    1    1    2    0    0 -0.16625047085E+01 -0.28359465157E+02  0.34958407447E+02  0.45045681670E+02  0.00000000000E+00 0.  1.
         11    1    3    3    0    0 -0.32224455303E+00  0.31595382986E+01 -0.13060955028E+01  0.34340077949E+01  0.51100000000E-03 0. -1.
        -11    1    3    3    0    0  0.30767228755E+01  0.48375419018E+01 -0.95330902290E+01  0.11124200865E+02  0.51100000000E-03 0.  1.
         12    1    3    3    0    0 -0.10919736139E+01  0.20362384956E+02 -0.24119221716E+02  0.31584109670E+02  0.00000000000E+00 0. -1.
</event>
<event>
 7    1  0.3435408E-009  0.4614232E+02  0.7816164E-02  0.1320468E+00
        -11   -1    0    0    0    0  0.00000000000E+00  0.00000000000E+00  0.45593999997E+02  0.45594000000E+02  0.51100000000E-03 0.  1.
         11   -1    0    0    0    0 -0.00000000000E+00 -0.00000000000E+00 -0.45593999997E+02  0.45594000000E+02  0.51100000000E-03 0. -1.
    9900012    2    1    2    0    0  0.14731893252E+02  0.35857075989E+02 -0.22942426332E+02  0.46142317595E+02  0.99999984864E+01 0.  0.
        -12    1    1    2    0    0 -0.14731893252E+02 -0.35857075989E+02  0.22942426332E+02  0.45045682405E+02  0.00000000000E+00 0.  1.
         11    1    3    3    0    0  0.89519843822E+01  0.20733143691E+02 -0.15282321566E+02  0.27268124695E+02  0.51100000000E-03 0. -1.
        -11    1    3    3    0    0 -0.55242901171E+00  0.11118960731E+01 -0.22571904832E+01  0.25761210820E+01  0.51100000000E-03 0.  1.
         12    1    3    3    0    0  0.63323378819E+01  0.14012036225E+02 -0.54029142831E+01  0.16298071818E+02  0.00000000000E+00 0. -1.
</event>
<event>
 7    1  0.3435408E-009  0.4614232E+02  0.7816164E-02  0.1320468E+00
        -11   -1    0    0    0    0  0.00000000000E+00  0.00000000000E+00  0.45593999997E+02  0.45594000000E+02  0.51100000000E-03 0.  1.
         11   -1    0    0    0    0 -0.00000000000E+00 -0.00000000000E+00 -0.45593999997E+02  0.45594000000E+02  0.51100000000E-03 0. -1.
    9900012    2    1    2    0    0  0.43375291646E+02 -0.11786987304E+02  0.29604844297E+01  0.46142318041E+02  0.10000002551E+02 0.  0.
        -12    1    1    2    0    0 -0.43375291646E+02  0.11786987304E+02 -0.29604844297E+01  0.45045681959E+02  0.00000000000E+00 0.  1.
         11    1    3    3    0    0  0.93726498139E+01 -0.25730749174E+01  0.26879400576E+01  0.10084260066E+02  0.51100000000E-03 0. -1.
        -11    1    3    3    0    0  0.21517267320E+02 -0.25134732693E+01 -0.17972007162E+01  0.21737991431E+02  0.51100000000E-03 0.  1.
        -12    1    3    3    0    0  0.12485374513E+02 -0.67004391171E+01  0.20697450883E+01  0.14320066544E+02  0.00000000000E+00 0.  1.
</event>
<event>
 7    1  0.3435408E-009  0.4614232E+02  0.7816164E-02  0.1320468E+00
        -11   -1    0    0    0    0  0.00000000000E+00  0.00000000000E+00  0.45593999997E+02  0.45594000000E+02  0.51100000000E-03 0.  1.
         11   -1    0    0    0    0 -0.00000000000E+00 -0.00000000000E+00 -0.45593999997E+02  0.45594000000E+02  0.51100000000E-03 0. -1.
    9900012    2    1    2    0    0 -0.38009897363E+02  0.37615149009E+00 -0.24170634983E+02  0.46142318931E+02  0.10000010664E+02 0.  0.
        -12    1    1    2    0    0  0.38009897363E+02 -0.37615149009E+00  0.24170634983E+02  0.45045681069E+02  0.00000000000E+00 0.  1.
         11    1    3    3    0    0 -0.28339167625E+02 -0.35024905927E+00 -0.18631724484E+02  0.33917138051E+02  0.51100000000E-03 0. -1.
        -11    1    3    3    0    0 -0.85188887314E+01  0.69661906974E+00 -0.23946271234E+01  0.88764284860E+01  0.51100000000E-03 0.  1.
         12    1    3    3    0    0 -0.11518410066E+01  0.29781479619E-01 -0.31442833761E+01  0.33487523931E+01  0.00000000000E+00 0. -1.
</event>
<event>
 7    1  0.3435408E-009  0.4614232E+02  0.7816164E-02  0.1320468E+00
        -11   -1    0    0    0    0  0.00000000000E+00  0.00000000000E+00  0.45593999997E+02  0.45594000000E+02  0.51100000000E-03 0.  1.
         11   -1    0    0    0    0 -0.00000000000E+00 -0.00000000000E+00 -0.45593999997E+02  0.45594000000E+02  0.51100000000E-03 0. -1.
    9900012    2    1    2    0    0  0.77439518361E+01  0.83464223739E+01 -0.43583046681E+02  0.46142317471E+02  0.99999973553E+01 0.  0.
        -12    1    1    2    0    0 -0.77439518361E+01 -0.83464223739E+01  0.43583046681E+02  0.45045682529E+02  0.00000000000E+00 0.  1.
         11    1    3    3    0    0  0.14362883742E+01  0.36725719820E+01 -0.74524206431E+01  0.84314460776E+01  0.51100000000E-03 0. -1.
        -11    1    3    3    0    0  0.78677678284E+01  0.28152530011E+01 -0.27021458721E+02  0.28284035280E+02  0.51100000000E-03 0.  1.
        -12    1    3    3    0    0 -0.15601043665E+01  0.18585973908E+01 -0.91091673174E+01  0.94268361136E+01  0.00000000000E+00 0.  1.
</event>
<event>
 7    1  0.3435408E-009  0.4614232E+02  0.7816164E-02  0.1320468E+00
        -11   -1    0    0    0    0  0.00000000000E+00  0.00000000000E+00  0.45593999997E+02  0.45594000000E+02  0.51100000000E-03 0.  1.
         11   -1    0    0    0    0 -0.00000000000E+00 -0.00000000000E+00 -0.45593999997E+02  0.45594000000E+02  0.51100000000E-03 0. -1.
    9900012    2    1    2    0    0 -0.12848505505E+02 -0.33807402277E+01 -0.43041839936E+02  0.46142317818E+02  0.10000000517E+02 0.  0.
        -12    1    1    2    0    0  0.12848505505E+02  0.33807402277E+01  0.43041839936E+02  0.45045682182E+02  0.00000000000E+00 0.  1.
         11    1    3    3    0    0 -0.46594304846E+01  0.24012489365E+01 -0.76265602796E+01  0.92542266481E+01  0.51100000000E-03 0. -1.
        -11    1    3    3    0    0 -0.52689373312E+01 -0.48764834140E+01 -0.22586443333E+02  0.23699983413E+02  0.51100000000E-03 0.  1.
        -12    1    3    3    0    0 -0.29201376893E+01 -0.90550575009E+00 -0.12828836323E+02  0.13188107756E+02  0.00000000000E+00 0.  1.
</event>
<event>
 7    1  0.3435408E-009  0.4614232E+02  0.7816164E-02  0.1320468E+00
        -11   -1    0    0    0    0  0.00000000000E+00  0.00000000000E+00  0.45593999997E+02  0.45594000000E+02  0.51100000000E-03 0.  1.
         11   -1    0    0    0    0 -0.00000000000E+00 -0.00000000000E+00 -0.45593999997E+02  0.45594000000E+02  0.51100000000E-03 0. -1.
    9900012    2    1    2    0    0  0.17807282576E+02 -0.32575830839E+01 -0.41248059726E+02  0.46142316617E+02  0.99999895655E+01 0.  0.
        -12    1    1    2    0    0 -0.17807282576E+02  0.32575830839E+01  0.41248059726E+02  0.45045683383E+02  0.00000000000E+00 0.  1.
         11    1    3    3    0    0 -0.89551304907E+00 -0.12839149871E+01 -0.21997938044E+01  0.26999026572E+01  0.51100000000E-03 0. -1.
        -11    1    3    3    0    0  0.36663111270E+01 -0.14519149094E+01 -0.68915435423E+01  0.79399790202E+01  0.51100000000E-03 0.  1.
         12    1    3    3    0    0  0.15036484498E+02 -0.52175318745E+00 -0.32156722379E+02  0.35502434939E+02  0.00000000000E+00 0. -1.
</event>
<event>
 7    1  0.3435408E-009  0.4614232E+02  0.7816164E-02  0.1320468E+00
        -11   -1    0    0    0    0  0.00000000000E+00  0.00000000000E+00  0.45593999997E+02  0.45594000000E+02  0.51100000000E-03 0. -1.
         11   -1    0    0    0    0 -0.00000000000E+00 -0.00000000000E+00 -0.45593999997E+02  0.45594000000E+02  0.51100000000E-03 0.  1.
    9900012    2    1    2    0    0  0.16717864783E+02  0.26420211004E+02  0.32428366095E+02  0.46142317854E+02  0.10000000851E+02 0.  0.
        -12    1    1    2    0    0 -0.16717864783E+02 -0.26420211004E+02 -0.32428366095E+02  0.45045682146E+02  0.00000000000E+00 0.  1.
         11    1    3    3    0    0  0.12849037573E+02  0.19300701454E+02  0.28058191576E+02  0.36398859295E+02  0.51100000000E-03 0. -1.
        -11    1    3    3    0    0  0.20163576308E+00 -0.33834323329E+00  0.25977021189E+00  0.47181982639E+00  0.51100000000E-03 0.  1.
         12    1    3    3    0    0  0.36671914463E+01  0.74578527829E+01  0.41104043071E+01  0.92716387335E+01  0.00000000000E+00 0. -1.
</event>
<event>
 7    1  0.3435408E-009  0.4614232E+02  0.7816164E-02  0.1320468E+00
        -11   -1    0    0    0    0  0.00000000000E+00  0.00000000000E+00  0.45593999997E+02  0.45594000000E+02  0.51100000000E-03 0. -1.
         11   -1    0    0    0    0 -0.00000000000E+00 -0.00000000000E+00 -0.45593999997E+02  0.45594000000E+02  0.51100000000E-03 0.  1.
    9900012    2    1    2    0    0 -0.25116848830E+02 -0.13710191013E+01  0.37368138378E+02  0.46142317028E+02  0.99999933169E+01 0.  0.
        -12    1    1    2    0    0  0.25116848830E+02  0.13710191013E+01 -0.37368138378E+02  0.45045682972E+02  0.00000000000E+00 0.  1.
         11    1    3    3    0    0 -0.11484389778E+02  0.10331554140E+01  0.21001542918E+02  0.23958785943E+02  0.51100000000E-03 0. -1.
        -11    1    3    3    0    0 -0.60817682852E+01 -0.34645156235E+01  0.10233665365E+02  0.12398333801E+02  0.51100000000E-03 0.  1.
        -12    1    3    3    0    0 -0.75506907677E+01  0.10603411082E+01  0.61329300955E+01  0.97851972842E+01  0.00000000000E+00 0.  1.
</event>
<event>
 7    1  0.3435408E-009  0.4614232E+02  0.7816164E-02  0.1320468E+00
        -11   -1    0    0    0    0  0.00000000000E+00  0.00000000000E+00  0.45593999997E+02  0.45594000000E+02  0.51100000000E-03 0.  1.
         11   -1    0    0    0    0 -0.00000000000E+00 -0.00000000000E+00 -0.45593999997E+02  0.45594000000E+02  0.51100000000E-03 0. -1.
    9900012    2    1    2    0    0 -0.50974478192E+00 -0.39764347707E+02 -0.21157747918E+02  0.46142317796E+02  0.10000000314E+02 0.  0.
        -12    1    1    2    0    0  0.50974478192E+00  0.39764347707E+02  0.21157747918E+02  0.45045682204E+02  0.00000000000E+00 0.  1.
         11    1    3    3    0    0 -0.44231784787E+01 -0.17537126565E+02 -0.80909921779E+01  0.19813618314E+02  0.51100000000E-03 0. -1.
        -11    1    3    3    0    0  0.36727476895E+01 -0.21927624258E+02 -0.12153910826E+02  0.25338258224E+02  0.51100000000E-03 0.  1.
        -12    1    3    3    0    0  0.24068600731E+00 -0.29959688350E+00 -0.91284491409E+00  0.99044125717E+00  0.00000000000E+00 0.  1.
</event>
<event>
 7    1  0.3435408E-009  0.4614232E+02  0.7816164E-02  0.1320468E+00
        -11   -1    0    0    0    0  0.00000000000E+00  0.00000000000E+00  0.45593999997E+02  0.45594000000E+02  0.51100000000E-03 0. -1.
         11   -1    0    0    0    0 -0.00000000000E+00 -0.00000000000E+00 -0.45593999997E+02  0.45594000000E+02  0.51100000000E-03 0.  1.
    9900012    2    1    2    0    0 -0.43995900038E+02  0.17917328666E+01  0.95007329187E+01  0.46142318156E+02  0.10000003600E+02 0.  0.
        -12    1    1    2    0    0  0.43995900038E+02 -0.17917328666E+01 -0.95007329187E+01  0.45045681844E+02  0.00000000000E+00 0.  1.
         11    1    3    3    0    0 -0.72668271099E+01  0.36452703638E+01  0.72393488108E+00  0.81620373831E+01  0.51100000000E-03 0. -1.
        -11    1    3    3    0    0 -0.17905954916E+02 -0.26145825448E+01  0.37088892997E+01  0.18472009188E+02  0.51100000000E-03 0.  1.
         12    1    3    3    0    0 -0.18823118012E+02  0.76104504766E+00  0.50679087379E+01  0.19508271585E+02  0.00000000000E+00 0. -1.
</event>
<event>
 7    1  0.3435408E-009  0.4614232E+02  0.7816164E-02  0.1320468E+00
        -11   -1    0    0    0    0  0.00000000000E+00  0.00000000000E+00  0.45593999997E+02  0.45594000000E+02  0.51100000000E-03 0.  1.
         11   -1    0    0    0    0 -0.00000000000E+00 -0.00000000000E+00 -0.45593999997E+02  0.45594000000E+02  0.51100000000E-03 0. -1.
    9900012    2    1    2    0    0  0.25551123396E+02  0.36151413199E+02 -0.83263943654E+01  0.46142318451E+02  0.10000006287E+02 0.  0.
        -12    1    1    2    0    0 -0.25551123396E+02 -0.36151413199E+02  0.83263943654E+01  0.45045681549E+02  0.00000000000E+00 0.  1.
         11    1    3    3    0    0  0.59034615833E+01  0.60108224639E+01 -0.21362829104E+01  0.86916368017E+01  0.51100000000E-03 0. -1.
        -11    1    3    3    0    0  0.11042670230E+01  0.34285343406E+00 -0.17173782635E+01  0.20703483998E+01  0.51100000000E-03 0.  1.
        -12    1    3    3    0    0  0.18543394790E+02  0.29797737301E+02 -0.44727331915E+01  0.35380333249E+02  0.00000000000E+00 0.  1.
</event>
<event>
 7    1  0.3435408E-009  0.4614232E+02  0.7816164E-02  0.1320468E+00
        -11   -1    0    0    0    0  0.00000000000E+00  0.00000000000E+00  0.45593999997E+02  0.45594000000E+02  0.51100000000E-03 0. -1.
         11   -1    0    0    0    0 -0.00000000000E+00 -0.00000000000E+00 -0.45593999997E+02  0.45594000000E+02  0.51100000000E-03 0.  1.
    9900012    2    1    2    0    0 -0.35240343627E+02 -0.20011460272E+01  0.27986194337E+02  0.46142317878E+02  0.10000001069E+02 0.  0.
        -12    1    1    2    0    0  0.35240343627E+02  0.20011460272E+01 -0.27986194337E+02  0.45045682122E+02  0.00000000000E+00 0.  1.
         11    1    3    3    0    0 -0.90068228140E+01 -0.71675669565E+00  0.10756883971E+02  0.14048030125E+02  0.51100000000E-03 0.  1.
        -11    1    3    3    0    0 -0.66700714970E+01  0.23509111269E+01  0.58051865805E+01  0.91496900711E+01  0.51100000000E-03 0. -1.
        -12    1    3    3    0    0 -0.19563449316E+02 -0.36353004584E+01  0.11424123786E+02  0.22944597683E+02  0.00000000000E+00 0.  1.
</event>
<event>
 7    1  0.3435408E-009  0.4614232E+02  0.7816164E-02  0.1320468E+00
        -11   -1    0    0    0    0  0.00000000000E+00  0.00000000000E+00  0.45593999997E+02  0.45594000000E+02  0.51100000000E-03 0. -1.
         11   -1    0    0    0    0 -0.00000000000E+00 -0.00000000000E+00 -0.45593999997E+02  0.45594000000E+02  0.51100000000E-03 0.  1.
    9900012    2    1    2    0    0 -0.76508596053E+01 -0.43551192580E+02  0.85948396022E+01  0.46142319901E+02  0.10000019509E+02 0.  0.
        -12    1    1    2    0    0  0.76508596053E+01  0.43551192580E+02 -0.85948396022E+01  0.45045680099E+02  0.00000000000E+00 0.  1.
         11    1    3    3    0    0  0.16573744987E+01 -0.46221425833E+01  0.47111045100E+00  0.49328528873E+01  0.51100000000E-03 0.  1.
        -11    1    3    3    0    0 -0.50815106213E+01 -0.26554573727E+02  0.31508535457E+01  0.27219386737E+02  0.51100000000E-03 0. -1.
         12    1    3    3    0    0 -0.42267234828E+01 -0.12374476270E+02  0.49728756055E+01  0.13990080276E+02  0.00000000000E+00 0. -1.
</event>
<event>
 7    1  0.3435408E-009  0.4614231E+02  0.7816164E-02  0.1320468E+00
        -11   -1    0    0    0    0  0.00000000000E+00  0.00000000000E+00  0.45593999997E+02  0.45594000000E+02  0.51100000000E-03 0.  1.
         11   -1    0    0    0    0 -0.00000000000E+00 -0.00000000000E+00 -0.45593999997E+02  0.45594000000E+02  0.51100000000E-03 0. -1.
    9900012    2    1    2    0    0 -0.33358619350E+02  0.24549139144E+02 -0.17710336826E+02  0.46142314878E+02  0.99999737090E+01 0.  0.
        -12    1    1    2    0    0  0.33358619350E+02 -0.24549139144E+02  0.17710336826E+02  0.45045685122E+02  0.00000000000E+00 0.  1.
         11    1    3    3    0    0 -0.94459696122E+01  0.48282017420E+01 -0.57986612214E+00  0.10624223217E+02  0.51100000000E-03 0. -1.
        -11    1    3    3    0    0 -0.21558062991E+02  0.18646000387E+02 -0.15319295195E+02  0.32358989723E+02  0.51100000000E-03 0.  1.
        -12    1    3    3    0    0 -0.23545867460E+01  0.10749370145E+01 -0.18111755089E+01  0.31591019379E+01  0.00000000000E+00 0.  1.
</event>
<event>
 7    1  0.3435408E-009  0.4614232E+02  0.7816164E-02  0.1320468E+00
        -11   -1    0    0    0    0  0.00000000000E+00  0.00000000000E+00  0.45593999997E+02  0.45594000000E+02  0.51100000000E-03 0. -1.
         11   -1    0    0    0    0 -0.00000000000E+00 -0.00000000000E+00 -0.45593999997E+02  0.45594000000E+02  0.51100000000E-03 0.  1.
    9900012    2    1    2    0    0 -0.18597221518E+02  0.46518841851E+01  0.40762931837E+02  0.46142320001E+02  0.10000020421E+02 0.  0.
        -12    1    1    2    0    0  0.18597221518E+02 -0.46518841851E+01 -0.40762931837E+02  0.45045679999E+02  0.00000000000E+00 0.  1.
         11    1    3    3    0    0 -0.10086825192E+01 -0.12555415520E+00  0.12079596441E+02  0.12122287520E+02  0.51100000000E-03 0. -1.
        -11    1    3    3    0    0 -0.62853992246E+01  0.13232424311E+01  0.11330116647E+02  0.13024160527E+02  0.51100000000E-03 0.  1.
         12    1    3    3    0    0 -0.11303139775E+02  0.34541959092E+01  0.17353218748E+02  0.20995871953E+02  0.00000000000E+00 0. -1.
</event>
<event>
 7    1  0.3435408E-009  0.4614232E+02  0.7816164E-02  0.1320468E+00
        -11   -1    0    0    0    0  0.00000000000E+00  0.00000000000E+00  0.45593999997E+02  0.45594000000E+02  0.51100000000E-03 0.  1.
         11   -1    0    0    0    0 -0.00000000000E+00 -0.00000000000E+00 -0.45593999997E+02  0.45594000000E+02  0.51100000000E-03 0. -1.
    9900012    2    1    2    0    0  0.30266224327E+02  0.96820960902E+01 -0.31926887345E+02  0.46142318129E+02  0.10000003351E+02 0.  0.
        -12    1    1    2    0    0 -0.30266224327E+02 -0.96820960902E+01  0.31926887345E+02  0.45045681871E+02  0.00000000000E+00 0.  1.
         11    1    3    3    0    0  0.12131198364E+02  0.62927305426E+01 -0.12233883942E+02  0.18342092247E+02  0.51100000000E-03 0. -1.
        -11    1    3    3    0    0  0.89786774186E+01 -0.16780114010E+01 -0.85049929758E+01  0.12480676113E+02  0.51100000000E-03 0.  1.
        -12    1    3    3    0    0  0.91563485447E+01  0.50673769486E+01 -0.11188010427E+02  0.15319549769E+02  0.00000000000E+00 0.  1.
</event>
<event>
 7    1  0.3435408E-009  0.4614232E+02  0.7816164E-02  0.1320468E+00
        -11   -1    0    0    0    0  0.00000000000E+00  0.00000000000E+00  0.45593999997E+02  0.45594000000E+02  0.51100000000E-03 0. -1.
         11   -1    0    0    0    0 -0.00000000000E+00 -0.00000000000E+00 -0.45593999997E+02  0.45594000000E+02  0.51100000000E-03 0.  1.
    9900012    2    1    2    0    0 -0.12212865712E+02 -0.42485740665E+02 -0.86557042571E+01  0.46142318021E+02  0.10000002370E+02 0.  0.
        -12    1    1    2    0    0  0.12212865712E+02  0.42485740665E+02  0.86557042571E+01  0.45045681979E+02  0.00000000000E+00 0.  1.
         11    1    3    3    0    0 -0.49700880494E+01 -0.26373529833E+02 -0.52388733060E+01  0.27344298215E+02  0.51100000000E-03 0. -1.
        -11    1    3    3    0    0 -0.53005293239E+00 -0.21450222635E+01 -0.24088308036E+01  0.32687218792E+01  0.51100000000E-03 0.  1.
         12    1    3    3    0    0 -0.67127247298E+01 -0.13967188568E+02 -0.10080001476E+01  0.15529297927E+02  0.00000000000E+00 0. -1.
</event>
<event>
 7    1  0.3435408E-009  0.4614232E+02  0.7816164E-02  0.1320468E+00
        -11   -1    0    0    0    0  0.00000000000E+00  0.00000000000E+00  0.45593999997E+02  0.45594000000E+02  0.51100000000E-03 0.  1.
         11   -1    0    0    0    0 -0.00000000000E+00 -0.00000000000E+00 -0.45593999997E+02  0.45594000000E+02  0.51100000000E-03 0. -1.
    9900012    2    1    2    0    0 -0.27371277466E+02  0.65544302217E+01 -0.35170529732E+02  0.46142317107E+02  0.99999940358E+01 0.  0.
        -12    1    1    2    0    0  0.27371277466E+02 -0.65544302217E+01  0.35170529732E+02  0.45045682893E+02  0.00000000000E+00 0.  1.
         11    1    3    3    0    0 -0.51767921044E+01 -0.81553701272E-01 -0.12073895620E+02  0.13137152782E+02  0.51100000000E-03 0. -1.
        -11    1    3    3    0    0 -0.12618277206E+02  0.16778967461E+01 -0.11285150396E+02  0.17011492494E+02  0.51100000000E-03 0.  1.
         12    1    3    3    0    0 -0.95762081552E+01  0.49580871768E+01 -0.11811483716E+02  0.15993671832E+02  0.00000000000E+00 0. -1.
</event>
<event>
 7    1  0.3435408E-009  0.4614232E+02  0.7816164E-02  0.1320468E+00
        -11   -1    0    0    0    0  0.00000000000E+00  0.00000000000E+00  0.45593999997E+02  0.45594000000E+02  0.51100000000E-03 0.  1.
         11   -1    0    0    0    0 -0.00000000000E+00 -0.00000000000E+00 -0.45593999997E+02  0.45594000000E+02  0.51100000000E-03 0. -1.
    9900012    2    1    2    0    0 -0.13836097596E+02  0.25557790510E+02 -0.34416205507E+02  0.46142318143E+02  0.10000003485E+02 0.  0.
        -12    1    1    2    0    0  0.13836097596E+02 -0.25557790510E+02  0.34416205507E+02  0.45045681857E+02  0.00000000000E+00 0.  1.
         11    1    3    3    0    0 -0.46628282458E+01  0.78445013738E+01 -0.83146353738E+01  0.12345498399E+02  0.51100000000E-03 0. -1.
        -11    1    3    3    0    0 -0.80974276154E+01  0.11110117354E+02 -0.22021701591E+02  0.25960708442E+02  0.51100000000E-03 0.  1.
        -12    1    3    3    0    0 -0.10758417348E+01  0.66031717815E+01 -0.40798685427E+01  0.78361113022E+01  0.00000000000E+00 0.  1.
</event>
<event>
 7    1  0.3435408E-009  0.4614232E+02  0.7816164E-02  0.1320468E+00
        -11   -1    0    0    0    0  0.00000000000E+00  0.00000000000E+00  0.45593999997E+02  0.45594000000E+02  0.51100000000E-03 0. -1.
         11   -1    0    0    0    0 -0.00000000000E+00 -0.00000000000E+00 -0.45593999997E+02  0.45594000000E+02  0.51100000000E-03 0.  1.
    9900012    2    1    2    0    0 -0.31719258164E+02  0.42883327378E+01  0.31695621688E+02  0.46142316851E+02  0.99999917044E+01 0.  0.
        -12    1    1    2    0    0  0.31719258164E+02 -0.42883327378E+01 -0.31695621688E+02  0.45045683149E+02  0.00000000000E+00 0.  1.
         11    1    3    3    0    0 -0.95623256163E+01  0.34367292506E+01  0.70620836576E+01  0.12374255734E+02  0.51100000000E-03 0. -1.
        -11    1    3    3    0    0 -0.22293493126E+02  0.10159166993E+01  0.24893021324E+02  0.33431937326E+02  0.51100000000E-03 0.  1.
        -12    1    3    3    0    0  0.13656057861E+00 -0.16431321211E+00 -0.25948329309E+00  0.33612379073E+00  0.00000000000E+00 0.  1.
</event>
<event>
 7    1  0.3435408E-009  0.4614232E+02  0.7816164E-02  0.1320468E+00
        -11   -1    0    0    0    0  0.00000000000E+00  0.00000000000E+00  0.45593999997E+02  0.45594000000E+02  0.51100000000E-03 0.  1.
         11   -1    0    0    0    0 -0.00000000000E+00 -0.00000000000E+00 -0.45593999997E+02  0.45594000000E+02  0.51100000000E-03 0. -1.
    9900012    2    1    2    0    0 -0.20784626719E+02  0.20503546007E+01 -0.39911262195E+02  0.46142317501E+02  0.99999976239E+01 0.  0.
        -12    1    1    2    0    0  0.20784626719E+02 -0.20503546007E+01  0.39911262195E+02  0.45045682499E+02  0.00000000000E+00 0.  1.
         11    1    3    3    0    0 -0.57390358178E+00  0.17582699666E+00  0.15326353829E+00  0.61949207196E+00  0.51100000000E-03 0. -1.
        -11    1    3    3    0    0 -0.11945719961E+01 -0.48859072365E+00 -0.21913506401E+00  0.13091002966E+01  0.51100000000E-03 0.  1.
         12    1    3    3    0    0 -0.19016151141E+02  0.23631183277E+01 -0.39845390669E+02  0.44213725132E+02  0.00000000000E+00 0. -1.
</event>
<event>
 7    1  0.3435408E-009  0.4614232E+02  0.7816164E-02  0.1320468E+00
        -11   -1    0    0    0    0  0.00000000000E+00  0.00000000000E+00  0.45593999997E+02  0.45594000000E+02  0.51100000000E-03 0.  1.
         11   -1    0    0    0    0 -0.00000000000E+00 -0.00000000000E+00 -0.45593999997E+02  0.45594000000E+02  0.51100000000E-03 0. -1.
    9900012    2    1    2    0    0  0.29072121503E+02  0.29867435944E+02 -0.17083959351E+02  0.46142316015E+02  0.99999840779E+01 0.  0.
        -12    1    1    2    0    0 -0.29072121503E+02 -0.29867435944E+02  0.17083959351E+02  0.45045683985E+02  0.00000000000E+00 0.  1.
         11    1    3    3    0    0  0.39296852841E+01  0.22071477793E+01  0.85826262402E+00  0.45880870463E+01  0.51100000000E-03 0. -1.
        -11    1    3    3    0    0  0.44364348428E+01  0.62144240047E+01 -0.43932424678E+01  0.88091770028E+01  0.51100000000E-03 0.  1.
         12    1    3    3    0    0  0.20706001376E+02  0.21445864160E+02 -0.13548979507E+02  0.32745051966E+02  0.00000000000E+00 0. -1.
</event>
<event>
 7    1  0.3435408E-009  0.4614232E+02  0.7816164E-02  0.1320468E+00
        -11   -1    0    0    0    0  0.00000000000E+00  0.00000000000E+00  0.45593999997E+02  0.45594000000E+02  0.51100000000E-03 0.  1.
         11   -1    0    0    0    0 -0.00000000000E+00 -0.00000000000E+00 -0.45593999997E+02  0.45594000000E+02  0.51100000000E-03 0. -1.
    9900012    2    1    2    0    0  0.33238824268E+02 -0.10688128771E+02 -0.28461516251E+02  0.46142318269E+02  0.10000004630E+02 0.  0.
        -12    1    1    2    0    0 -0.33238824268E+02  0.10688128771E+02  0.28461516251E+02  0.45045681731E+02  0.00000000000E+00 0.  1.
         11    1    3    3    0    0  0.15564445990E+02 -0.61471720177E+01 -0.18977294885E+02  0.25301727693E+02  0.51100000000E-03 0. -1.
        -11    1    3    3    0    0  0.17419849685E+02 -0.40985440418E+01 -0.96132506558E+01  0.20314128451E+02  0.51100000000E-03 0.  1.
         12    1    3    3    0    0  0.25452859235E+00 -0.44241271099E+00  0.12902929006E+00  0.52646212482E+00  0.00000000000E+00 0. -1.
</event>
<event>
 7    1  0.3435408E-009  0.4614232E+02  0.7816164E-02  0.1320468E+00
        -11   -1    0    0    0    0  0.00000000000E+00  0.00000000000E+00  0.45593999997E+02  0.45594000000E+02  0.51100000000E-03 0.  1.
         11   -1    0    0    0    0 -0.00000000000E+00 -0.00000000000E+00 -0.45593999997E+02  0.45594000000E+02  0.51100000000E-03 0. -1.
    9900012    2    1    2    0    0 -0.41157586858E+02  0.44690868991E+01 -0.17753698404E+02  0.46142317624E+02  0.99999987485E+01 0.  0.
        -12    1    1    2    0    0  0.41157586858E+02 -0.44690868991E+01  0.17753698404E+02  0.45045682376E+02  0.00000000000E+00 0.  1.
         11    1    3    3    0    0 -0.51049618183E+00  0.67494926989E+00 -0.12129169448E+00  0.85491216208E+00  0.51100000000E-03 0.  1.
        -11    1    3    3    0    0 -0.28930690350E+02 -0.51362954956E+00 -0.97967319966E+01  0.30548725301E+02  0.51100000000E-03 0. -1.
         12    1    3    3    0    0 -0.11716400327E+02  0.43077671787E+01 -0.78356747129E+01  0.14738680161E+02  0.00000000000E+00 0. -1.
</event>
<event>
 7    1  0.3435408E-009  0.4614232E+02  0.7816164E-02  0.1320468E+00
        -11   -1    0    0    0    0  0.00000000000E+00  0.00000000000E+00  0.45593999997E+02  0.45594000000E+02  0.51100000000E-03 0. -1.
         11   -1    0    0    0    0 -0.00000000000E+00 -0.00000000000E+00 -0.45593999997E+02  0.45594000000E+02  0.51100000000E-03 0.  1.
    9900012    2    1    2    0    0  0.36700939262E+02 -0.11219953436E+02  0.23585317073E+02  0.46142317863E+02  0.10000000925E+02 0.  0.
        -12    1    1    2    0    0 -0.36700939262E+02  0.11219953436E+02 -0.23585317073E+02  0.45045682137E+02  0.00000000000E+00 0.  1.
         11    1    3    3    0    0  0.24547713322E+02 -0.87185992771E+01  0.19373744052E+02  0.32464536984E+02  0.51100000000E-03 0. -1.
        -11    1    3    3    0    0  0.55796530949E+01 -0.30652250952E+01  0.26634193266E+01  0.69008648961E+01  0.51100000000E-03 0.  1.
         12    1    3    3    0    0  0.65735728446E+01  0.56387093615E+00  0.15481536941E+01  0.67769159827E+01  0.00000000000E+00 0. -1.
</event>
<event>
 7    1  0.3435408E-009  0.4614232E+02  0.7816164E-02  0.1320468E+00
        -11   -1    0    0    0    0  0.00000000000E+00  0.00000000000E+00  0.45593999997E+02  0.45594000000E+02  0.51100000000E-03 0.  1.
         11   -1    0    0    0    0 -0.00000000000E+00 -0.00000000000E+00 -0.45593999997E+02  0.45594000000E+02  0.51100000000E-03 0. -1.
    9900012    2    1    2    0    0  0.43599782275E+02  0.13445107787E+01  0.11241203524E+02  0.46142318960E+02  0.10000010933E+02 0.  0.
        -12    1    1    2    0    0 -0.43599782275E+02 -0.13445107787E+01 -0.11241203524E+02  0.45045681040E+02  0.00000000000E+00 0.  1.
         11    1    3    3    0    0  0.22279252216E+02  0.14280991115E+01  0.62728364159E+01  0.23189502438E+02  0.51100000000E-03 0. -1.
        -11    1    3    3    0    0  0.17740023485E+02 -0.75391207623E+00  0.66241869005E+01  0.18951429208E+02  0.51100000000E-03 0.  1.
        -12    1    3    3    0    0  0.35805065741E+01  0.67032374346E+00 -0.16558197927E+01  0.40013873137E+01  0.00000000000E+00 0.  1.
</event>
<event>
 7    1  0.3435408E-009  0.4614232E+02  0.7816164E-02  0.1320468E+00
        -11   -1    0    0    0    0  0.00000000000E+00  0.00000000000E+00  0.45593999997E+02  0.45594000000E+02  0.51100000000E-03 0. -1.
         11   -1    0    0    0    0 -0.00000000000E+00 -0.00000000000E+00 -0.45593999997E+02  0.45594000000E+02  0.51100000000E-03 0.  1.
    9900012    2    1    2    0    0  0.29092876055E+02  0.34002890196E+02 -0.51499086519E+01  0.46142317211E+02  0.99999949792E+01 0.  0.
        -12    1    1    2    0    0 -0.29092876055E+02 -0.34002890196E+02  0.51499086519E+01  0.45045682789E+02  0.00000000000E+00 0.  1.
         11    1    3    3    0    0  0.13583392024E+02  0.15437982493E+02 -0.36882316072E+01  0.20891215737E+02  0.51100000000E-03 0. -1.
        -11    1    3    3    0    0  0.11625697098E+01  0.58961789702E+01  0.38771528700E+00  0.60221938016E+01  0.51100000000E-03 0.  1.
        -12    1    3    3    0    0  0.14346914321E+02  0.12668728733E+02 -0.18493923318E+01  0.19228907672E+02  0.00000000000E+00 0.  1.
</event>
<event>
 7    1  0.3435408E-009  0.4614232E+02  0.7816164E-02  0.1320468E+00
        -11   -1    0    0    0    0  0.00000000000E+00  0.00000000000E+00  0.45593999997E+02  0.45594000000E+02  0.51100000000E-03 0.  1.
         11   -1    0    0    0    0 -0.00000000000E+00 -0.00000000000E+00 -0.45593999997E+02  0.45594000000E+02  0.51100000000E-03 0. -1.
    9900012    2    1    2    0    0 -0.21613748870E+01 -0.43620418269E+02  0.11031816816E+02  0.46142318591E+02  0.10000007569E+02 0.  0.
        -12    1    1    2    0    0  0.21613748870E+01  0.43620418269E+02 -0.11031816816E+02  0.45045681409E+02  0.00000000000E+00 0.  1.
         11    1    3    3    0    0 -0.21384095048E+01 -0.15162869105E+02  0.58017438784E+01  0.16375152732E+02  0.51100000000E-03 0. -1.
        -11    1    3    3    0    0  0.25333081192E+01 -0.23678992289E+02  0.34485338276E+01  0.24062516736E+02  0.51100000000E-03 0.  1.
        -12    1    3    3    0    0 -0.25562735014E+01 -0.47785568743E+01  0.17815391101E+01  0.57046491229E+01  0.00000000000E+00 0.  1.
</event>
<event>
 7    1  0.3435408E-009  0.4614232E+02  0.7816164E-02  0.1320468E+00
        -11   -1    0    0    0    0  0.00000000000E+00  0.00000000000E+00  0.45593999997E+02  0.45594000000E+02  0.51100000000E-03 0.  1.
         11   -1    0    0    0    0 -0.00000000000E+00 -0.00000000000E+00 -0.45593999997E+02  0.45594000000E+02  0.51100000000E-03 0. -1.
    9900012    2    1    2    0    0 -0.16185382283E+02  0.11361371303E+02 -0.40473032495E+02  0.46142315225E+02  0.99999768700E+01 0.  0.
        -12    1    1    2    0    0  0.16185382283E+02 -0.11361371303E+02  0.40473032495E+02  0.45045684775E+02  0.00000000000E+00 0.  1.
         11    1    3    3    0    0 -0.13337869860E+02  0.71849027634E+01 -0.28667524797E+02  0.32424505831E+02  0.51100000000E-03 0. -1.
        -11    1    3    3    0    0 -0.28320891612E+01  0.21866550547E+01 -0.29377391175E+01  0.46295248923E+01  0.51100000000E-03 0.  1.
         12    1    3    3    0    0 -0.15423262061E-01  0.19898134854E+01 -0.88677685804E+01  0.90882845015E+01  0.00000000000E+00 0. -1.
</event>
<event>
 7    1  0.3435408E-009  0.4614232E+02  0.7816164E-02  0.1320468E+00
        -11   -1    0    0    0    0  0.00000000000E+00  0.00000000000E+00  0.45593999997E+02  0.45594000000E+02  0.51100000000E-03 0.  1.
         11   -1    0    0    0    0 -0.00000000000E+00 -0.00000000000E+00 -0.45593999997E+02  0.45594000000E+02  0.51100000000E-03 0. -1.
    9900012    2    1    2    0    0 -0.13436834117E+02 -0.25632208624E+02 -0.34518906216E+02  0.46142317451E+02  0.99999971681E+01 0.  0.
        -12    1    1    2    0    0  0.13436834117E+02  0.25632208624E+02  0.34518906216E+02  0.45045682549E+02  0.00000000000E+00 0.  1.
         11    1    3    3    0    0 -0.11606312339E+02 -0.17828292588E+02 -0.20126795605E+02  0.29285532338E+02  0.51100000000E-03 0. -1.
        -11    1    3    3    0    0 -0.11132039567E+01 -0.76325642709E+01 -0.11324787846E+02  0.13702046578E+02  0.51100000000E-03 0.  1.
         12    1    3    3    0    0 -0.71731782074E+00 -0.17135176496E+00 -0.30673227639E+01  0.31547385346E+01  0.00000000000E+00 0. -1.
</event>
<event>
 7    1  0.3435408E-009  0.4614232E+02  0.7816164E-02  0.1320468E+00
        -11   -1    0    0    0    0  0.00000000000E+00  0.00000000000E+00  0.45593999997E+02  0.45594000000E+02  0.51100000000E-03 0. -1.
         11   -1    0    0    0    0 -0.00000000000E+00 -0.00000000000E+00 -0.45593999997E+02  0.45594000000E+02  0.51100000000E-03 0.  1.
    9900012    2    1    2    0    0 -0.11676480662E+02 -0.33772658349E+02  0.27425917154E+02  0.46142316696E+02  0.99999902891E+01 0.  0.
        -12    1    1    2    0    0  0.11676480662E+02  0.33772658349E+02 -0.27425917154E+02  0.45045683304E+02  0.00000000000E+00 0.  1.
         11    1    3    3    0    0 -0.84243574887E+01 -0.24610288301E+02  0.14828489929E+02  0.29941947218E+02  0.51100000000E-03 0. -1.
        -11    1    3    3    0    0 -0.18360480010E+01 -0.82309429121E+01  0.97948003520E+01  0.12925076699E+02  0.51100000000E-03 0.  1.
         12    1    3    3    0    0 -0.14160751719E+01 -0.93142713560E+00  0.28026268727E+01  0.32752927792E+01  0.00000000000E+00 0. -1.
</event>
<event>
 7    1  0.3435408E-009  0.4614232E+02  0.7816164E-02  0.1320468E+00
        -11   -1    0    0    0    0  0.00000000000E+00  0.00000000000E+00  0.45593999997E+02  0.45594000000E+02  0.51100000000E-03 0.  1.
         11   -1    0    0    0    0 -0.00000000000E+00 -0.00000000000E+00 -0.45593999997E+02  0.45594000000E+02  0.51100000000E-03 0. -1.
    9900012    2    1    2    0    0  0.69270812641E+01  0.20136207306E+02 -0.39694612247E+02  0.46142317177E+02  0.99999946762E+01 0.  0.
        -12    1    1    2    0    0 -0.69270812641E+01 -0.20136207306E+02  0.39694612247E+02  0.45045682823E+02  0.00000000000E+00 0.  1.
         11    1    3    3    0    0 -0.12470460843E+00  0.87141741443E+01 -0.15970058316E+02  0.18193271974E+02  0.51100000000E-03 0. -1.
        -11    1    3    3    0    0  0.37036059389E+01  0.10128750059E+01 -0.60390247833E+01  0.71562862801E+01  0.51100000000E-03 0.  1.
         12    1    3    3    0    0  0.33481799336E+01  0.10409158156E+02 -0.17685529148E+02  0.20792758923E+02  0.00000000000E+00 0. -1.
</event>
<event>
 7    1  0.3435408E-009  0.4614232E+02  0.7816164E-02  0.1320468E+00
        -11   -1    0    0    0    0  0.00000000000E+00  0.00000000000E+00  0.45593999997E+02  0.45594000000E+02  0.51100000000E-03 0.  1.
         11   -1    0    0    0    0 -0.00000000000E+00 -0.00000000000E+00 -0.45593999997E+02  0.45594000000E+02  0.51100000000E-03 0. -1.
    9900012    2    1    2    0    0 -0.34980667231E+02  0.23067810945E+02  0.16533073289E+02  0.46142317697E+02  0.99999994194E+01 0.  0.
        -12    1    1    2    0    0  0.34980667231E+02 -0.23067810945E+02 -0.16533073289E+02  0.45045682303E+02  0.00000000000E+00 0.  1.
         11    1    3    3    0    0 -0.93415275641E+01  0.58979799734E+01  0.16790722196E+01  0.11174506198E+02  0.51100000000E-03 0. -1.
        -11    1    3    3    0    0 -0.89873837518E+01  0.98726275780E+01  0.47651940071E+01  0.14175645177E+02  0.51100000000E-03 0.  1.
        -12    1    3    3    0    0 -0.16651755915E+02  0.72972033937E+01  0.10088807063E+02  0.20792166322E+02  0.00000000000E+00 0.  1.
</event>
<event>
 7    1  0.3435408E-009  0.4614232E+02  0.7816164E-02  0.1320468E+00
        -11   -1    0    0    0    0  0.00000000000E+00  0.00000000000E+00  0.45593999997E+02  0.45594000000E+02  0.51100000000E-03 0. -1.
         11   -1    0    0    0    0 -0.00000000000E+00 -0.00000000000E+00 -0.45593999997E+02  0.45594000000E+02  0.51100000000E-03 0.  1.
    9900012    2    1    2    0    0 -0.12939438077E+02 -0.41712731880E+02  0.11033242849E+02  0.46142317561E+02  0.99999981760E+01 0.  0.
        -12    1    1    2    0    0  0.12939438077E+02  0.41712731880E+02 -0.11033242849E+02  0.45045682439E+02  0.00000000000E+00 0.  1.
         11    1    3    3    0    0 -0.11564655927E+02 -0.25537623259E+02  0.39845864397E+01  0.28315868304E+02  0.51100000000E-03 0. -1.
        -11    1    3    3    0    0 -0.11432131455E+01 -0.36440317885E+01  0.12658569878E+01  0.40234684224E+01  0.51100000000E-03 0.  1.
         12    1    3    3    0    0 -0.23156900444E+00 -0.12531076832E+02  0.57827994219E+01  0.13802980835E+02  0.00000000000E+00 0. -1.
</event>
<event>
 7    1  0.3435408E-009  0.4614232E+02  0.7816164E-02  0.1320468E+00
        -11   -1    0    0    0    0  0.00000000000E+00  0.00000000000E+00  0.45593999997E+02  0.45594000000E+02  0.51100000000E-03 0. -1.
         11   -1    0    0    0    0 -0.00000000000E+00 -0.00000000000E+00 -0.45593999997E+02  0.45594000000E+02  0.51100000000E-03 0.  1.
    9900012    2    1    2    0    0 -0.22715836996E+02  0.38768322055E+02  0.31814469786E+01  0.46142315964E+02  0.99999836123E+01 0.  0.
        -12    1    1    2    0    0  0.22715836996E+02 -0.38768322055E+02 -0.31814469786E+01  0.45045684036E+02  0.00000000000E+00 0.  1.
         11    1    3    3    0    0 -0.15943426002E+02  0.24763227893E+02 -0.20660380502E+01  0.29524207048E+02  0.51100000000E-03 0. -1.
        -11    1    3    3    0    0 -0.21827318086E+01  0.22177360592E+01  0.84341456740E+00  0.32239757707E+01  0.51100000000E-03 0.  1.
         12    1    3    3    0    0 -0.45896791859E+01  0.11787358103E+02  0.44040704614E+01  0.13394133145E+02  0.00000000000E+00 0. -1.
</event>
<event>
 7    1  0.3435408E-009  0.4614232E+02  0.7816164E-02  0.1320468E+00
        -11   -1    0    0    0    0  0.00000000000E+00  0.00000000000E+00  0.45593999997E+02  0.45594000000E+02  0.51100000000E-03 0. -1.
         11   -1    0    0    0    0 -0.00000000000E+00 -0.00000000000E+00 -0.45593999997E+02  0.45594000000E+02  0.51100000000E-03 0.  1.
    9900012    2    1    2    0    0  0.11042844702E+02 -0.38244826302E+02  0.21083221194E+02  0.46142319031E+02  0.10000011584E+02 0.  0.
        -12    1    1    2    0    0 -0.11042844702E+02  0.38244826302E+02 -0.21083221194E+02  0.45045680969E+02  0.00000000000E+00 0.  1.
         11    1    3    3    0    0  0.34151957721E+01 -0.66921172395E+01  0.75273733102E+01  0.10635287703E+02  0.51100000000E-03 0. -1.
        -11    1    3    3    0    0  0.42834682861E+01 -0.25847568838E+02  0.10590181039E+02  0.28259455941E+02  0.51100000000E-03 0.  1.
         12    1    3    3    0    0  0.33441806439E+01 -0.57051402243E+01  0.29656668454E+01  0.72475753874E+01  0.00000000000E+00 0. -1.
</event>
<event>
 7    1  0.3435408E-009  0.4614232E+02  0.7816164E-02  0.1320468E+00
        -11   -1    0    0    0    0  0.00000000000E+00  0.00000000000E+00  0.45593999997E+02  0.45594000000E+02  0.51100000000E-03 0.  1.
         11   -1    0    0    0    0 -0.00000000000E+00 -0.00000000000E+00 -0.45593999997E+02  0.45594000000E+02  0.51100000000E-03 0. -1.
    9900012    2    1    2    0    0  0.34550344235E+02 -0.63662303592E+01 -0.28193231733E+02  0.46142317728E+02  0.99999997001E+01 0.  0.
        -12    1    1    2    0    0 -0.34550344235E+02  0.63662303592E+01  0.28193231733E+02  0.45045682272E+02  0.00000000000E+00 0.  1.
         11    1    3    3    0    0  0.12374982842E+02 -0.25753552988E+01 -0.13568579811E+02  0.18543975130E+02  0.51100000000E-03 0.  1.
        -11    1    3    3    0    0  0.15977427246E+02  0.27688154192E+00 -0.95852575436E+01  0.18634162370E+02  0.51100000000E-03 0. -1.
        -12    1    3    3    0    0  0.61979341468E+01 -0.40677566023E+01 -0.50393943787E+01  0.89641802285E+01  0.00000000000E+00 0.  1.
</event>
<event>
 7    1  0.3435408E-009  0.4614232E+02  0.7816164E-02  0.1320468E+00
        -11   -1    0    0    0    0  0.00000000000E+00  0.00000000000E+00  0.45593999997E+02  0.45594000000E+02  0.51100000000E-03 0.  1.
         11   -1    0    0    0    0 -0.00000000000E+00 -0.00000000000E+00 -0.45593999997E+02  0.45594000000E+02  0.51100000000E-03 0. -1.
    9900012    2    1    2    0    0 -0.28428100081E+02 -0.17894021282E+02 -0.30012665438E+02  0.46142323642E+02  0.10000053628E+02 0.  0.
        -12    1    1    2    0    0  0.28428100081E+02  0.17894021282E+02  0.30012665438E+02  0.45045676358E+02  0.00000000000E+00 0.  1.
         11    1    3    3    0    0 -0.10123400670E+02 -0.68513508646E+01 -0.59174884640E+01  0.13580902760E+02  0.51100000000E-03 0. -1.
        -11    1    3    3    0    0  0.11369218011E+00 -0.82037244300E+00 -0.10897953517E+01  0.13687918128E+01  0.51100000000E-03 0.  1.
         12    1    3    3    0    0 -0.18418391591E+02 -0.10222297974E+02 -0.23005381622E+02  0.31192629069E+02  0.00000000000E+00 0. -1.
</event>
<event>
 7    1  0.3435408E-009  0.4614232E+02  0.7816164E-02  0.1320468E+00
        -11   -1    0    0    0    0  0.00000000000E+00  0.00000000000E+00  0.45593999997E+02  0.45594000000E+02  0.51100000000E-03 0.  1.
         11   -1    0    0    0    0 -0.00000000000E+00 -0.00000000000E+00 -0.45593999997E+02  0.45594000000E+02  0.51100000000E-03 0. -1.
    9900012    2    1    2    0    0 -0.23361645407E+02  0.27234722832E+02 -0.27232644541E+02  0.46142317271E+02  0.99999955266E+01 0.  0.
        -12    1    1    2    0    0  0.23361645407E+02 -0.27234722832E+02  0.27232644541E+02  0.45045682729E+02  0.00000000000E+00 0.  1.
         11    1    3    3    0    0 -0.26578680418E+01  0.68626273943E+01 -0.24066479325E+01  0.77428594080E+01  0.51100000000E-03 0. -1.
        -11    1    3    3    0    0 -0.39146644628E+01  0.60700896570E+01 -0.66952206837E+01  0.98486834940E+01  0.51100000000E-03 0.  1.
         12    1    3    3    0    0 -0.16789112903E+02  0.14302005781E+02 -0.18130775924E+02  0.28550774369E+02  0.00000000000E+00 0. -1.
</event>
<event>
 7    1  0.3435408E-009  0.4614232E+02  0.7816164E-02  0.1320468E+00
        -11   -1    0    0    0    0  0.00000000000E+00  0.00000000000E+00  0.45593999997E+02  0.45594000000E+02  0.51100000000E-03 0. -1.
         11   -1    0    0    0    0 -0.00000000000E+00 -0.00000000000E+00 -0.45593999997E+02  0.45594000000E+02  0.51100000000E-03 0.  1.
    9900012    2    1    2    0    0 -0.60398820302E+01 -0.29710456739E+02  0.33315493716E+02  0.46142317231E+02  0.99999951680E+01 0.  0.
        -12    1    1    2    0    0  0.60398820302E+01  0.29710456739E+02 -0.33315493716E+02  0.45045682769E+02  0.00000000000E+00 0.  1.
         11    1    3    3    0    0 -0.19032433474E+01 -0.95028129912E+00  0.23981866362E+01  0.32057244408E+01  0.51100000000E-03 0. -1.
        -11    1    3    3    0    0  0.68880994823E+00 -0.26399920721E+01  0.94351196927E+00  0.28869070617E+01  0.51100000000E-03 0.  1.
         12    1    3    3    0    0 -0.48254486310E+01 -0.26120183368E+02  0.29973795110E+02  0.40049685729E+02  0.00000000000E+00 0. -1.
</event>
<event>
 7    1  0.3435408E-009  0.4614232E+02  0.7816164E-02  0.1320468E+00
        -11   -1    0    0    0    0  0.00000000000E+00  0.00000000000E+00  0.45593999997E+02  0.45594000000E+02  0.51100000000E-03 0.  1.
         11   -1    0    0    0    0 -0.00000000000E+00 -0.00000000000E+00 -0.45593999997E+02  0.45594000000E+02  0.51100000000E-03 0. -1.
    9900012    2    1    2    0    0  0.18353129006E+02  0.25915374270E+02  0.31947918915E+02  0.46142317734E+02  0.99999997506E+01 0.  0.
        -12    1    1    2    0    0 -0.18353129006E+02 -0.25915374270E+02 -0.31947918915E+02  0.45045682266E+02  0.00000000000E+00 0.  1.
         11    1    3    3    0    0  0.49907193929E+01  0.11594797761E+02  0.11020982824E+02  0.16757346981E+02  0.51100000000E-03 0. -1.
        -11    1    3    3    0    0  0.20651972210E+01  0.65397322633E+01  0.79866324818E+01  0.10527081091E+02  0.51100000000E-03 0.  1.
         12    1    3    3    0    0  0.11297212392E+02  0.77808442458E+01  0.12940303609E+02  0.18857889662E+02  0.00000000000E+00 0. -1.
</event>
<event>
 7    1  0.3435408E-009  0.4614232E+02  0.7816164E-02  0.1320468E+00
        -11   -1    0    0    0    0  0.00000000000E+00  0.00000000000E+00  0.45593999997E+02  0.45594000000E+02  0.51100000000E-03 0.  1.
         11   -1    0    0    0    0 -0.00000000000E+00 -0.00000000000E+00 -0.45593999997E+02  0.45594000000E+02  0.51100000000E-03 0. -1.
    9900012    2    1    2    0    0  0.41853470955E+01 -0.21134856010E+02 -0.39558996640E+02  0.46142317809E+02  0.10000000434E+02 0.  0.
        -12    1    1    2    0    0 -0.41853470955E+01  0.21134856010E+02  0.39558996640E+02  0.45045682191E+02  0.00000000000E+00 0.  1.
         11    1    3    3    0    0  0.21716497696E+01 -0.18351873669E+02 -0.31417702060E+02  0.36449682205E+02  0.51100000000E-03 0. -1.
        -11    1    3    3    0    0  0.27266193842E+00 -0.10271764946E+01  0.11974923086E+00  0.10694747417E+01  0.51100000000E-03 0.  1.
         12    1    3    3    0    0  0.17410353875E+01 -0.17558058468E+01 -0.82610438116E+01  0.86231608618E+01  0.00000000000E+00 0. -1.
</event>
<event>
 7    1  0.3435408E-009  0.4614232E+02  0.7816164E-02  0.1320468E+00
        -11   -1    0    0    0    0  0.00000000000E+00  0.00000000000E+00  0.45593999997E+02  0.45594000000E+02  0.51100000000E-03 0. -1.
         11   -1    0    0    0    0 -0.00000000000E+00 -0.00000000000E+00 -0.45593999997E+02  0.45594000000E+02  0.51100000000E-03 0.  1.
    9900012    2    1    2    0    0 -0.11434242487E+02  0.32336933573E+02  0.29200930435E+02  0.46142317494E+02  0.99999975646E+01 0.  0.
        -12    1    1    2    0    0  0.11434242487E+02 -0.32336933573E+02 -0.29200930435E+02  0.45045682506E+02  0.00000000000E+00 0.  1.
         11    1    3    3    0    0 -0.29817737273E+01  0.13720402309E+02  0.13298102822E+02  0.19338561296E+02  0.51100000000E-03 0. -1.
        -11    1    3    3    0    0  0.69894874876E+00  0.31249486013E+00  0.17846743305E+01  0.19419693916E+01  0.51100000000E-03 0.  1.
         12    1    3    3    0    0 -0.91514175088E+01  0.18304036403E+02  0.14118153283E+02  0.24861786806E+02  0.00000000000E+00 0. -1.
</event>
<event>
 7    1  0.3435408E-009  0.4614232E+02  0.7816164E-02  0.1320468E+00
        -11   -1    0    0    0    0  0.00000000000E+00  0.00000000000E+00  0.45593999997E+02  0.45594000000E+02  0.51100000000E-03 0.  1.
         11   -1    0    0    0    0 -0.00000000000E+00 -0.00000000000E+00 -0.45593999997E+02  0.45594000000E+02  0.51100000000E-03 0. -1.
    9900012    2    1    2    0    0  0.20294632962E+02  0.14727559216E+00 -0.40214669864E+02  0.46142317749E+02  0.99999998903E+01 0.  0.
        -12    1    1    2    0    0 -0.20294632962E+02 -0.14727559216E+00  0.40214669864E+02  0.45045682251E+02  0.00000000000E+00 0.  1.
         11    1    3    3    0    0  0.43504347548E+01 -0.14122502958E+00 -0.19068887650E+02  0.19559363577E+02  0.51100000000E-03 0. -1.
        -11    1    3    3    0    0  0.33279553071E+01 -0.42388198562E-01 -0.30061229691E+01  0.44848476955E+01  0.51100000000E-03 0.  1.
         12    1    3    3    0    0  0.12616242900E+02  0.33088882030E+00 -0.18139659245E+02  0.22098106477E+02  0.00000000000E+00 0. -1.
</event>
<event>
 7    1  0.3435408E-009  0.4614232E+02  0.7816164E-02  0.1320468E+00
        -11   -1    0    0    0    0  0.00000000000E+00  0.00000000000E+00  0.45593999997E+02  0.45594000000E+02  0.51100000000E-03 0.  1.
         11   -1    0    0    0    0 -0.00000000000E+00 -0.00000000000E+00 -0.45593999997E+02  0.45594000000E+02  0.51100000000E-03 0. -1.
    9900012    2    1    2    0    0 -0.11452973062E+02 -0.42067733828E+02 -0.11324688119E+02  0.46142318938E+02  0.10000010729E+02 0.  0.
        -12    1    1    2    0    0  0.11452973062E+02  0.42067733828E+02  0.11324688119E+02  0.45045681062E+02  0.00000000000E+00 0.  1.
         11    1    3    3    0    0 -0.82111178071E+01 -0.16027778282E+02 -0.69993690790E+01  0.19321058462E+02  0.51100000000E-03 0. -1.
        -11    1    3    3    0    0 -0.52052355221E-01 -0.41054836696E+00  0.38832845715E+00  0.56750212427E+00  0.51100000000E-03 0.  1.
         12    1    3    3    0    0 -0.31898028997E+01 -0.25629407179E+02 -0.47136474968E+01  0.26253758352E+02  0.00000000000E+00 0. -1.
</event>
<event>
 7    1  0.3435408E-009  0.4614232E+02  0.7816164E-02  0.1320468E+00
        -11   -1    0    0    0    0  0.00000000000E+00  0.00000000000E+00  0.45593999997E+02  0.45594000000E+02  0.51100000000E-03 0. -1.
         11   -1    0    0    0    0 -0.00000000000E+00 -0.00000000000E+00 -0.45593999997E+02  0.45594000000E+02  0.51100000000E-03 0.  1.
    9900012    2    1    2    0    0  0.14683798552E+02 -0.40624958013E+02  0.12771541126E+02  0.46142318562E+02  0.10000007302E+02 0.  0.
        -12    1    1    2    0    0 -0.14683798552E+02  0.40624958013E+02 -0.12771541126E+02  0.45045681438E+02  0.00000000000E+00 0.  1.
         11    1    3    3    0    0  0.58332730930E+01 -0.19571333275E+02  0.97710351131E+01  0.22639286397E+02  0.51100000000E-03 0. -1.
        -11    1    3    3    0    0  0.93106357502E+01 -0.19570007244E+02  0.32980749926E+01  0.21921460273E+02  0.51100000000E-03 0.  1.
         12    1    3    3    0    0 -0.46011029065E+00 -0.14836174951E+01 -0.29756897996E+00  0.15815718919E+01  0.00000000000E+00 0. -1.
</event>
<event>
 7    1  0.3435408E-009  0.4614232E+02  0.7816164E-02  0.1320468E+00
        -11   -1    0    0    0    0  0.00000000000E+00  0.00000000000E+00  0.45593999997E+02  0.45594000000E+02  0.51100000000E-03 0.  1.
         11   -1    0    0    0    0 -0.00000000000E+00 -0.00000000000E+00 -0.45593999997E+02  0.45594000000E+02  0.51100000000E-03 0. -1.
    9900012    2    1    2    0    0  0.71331496407E+01 -0.17777605824E+02 -0.40769944237E+02  0.46142318235E+02  0.10000004318E+02 0.  0.
        -12    1    1    2    0    0 -0.71331496407E+01  0.17777605824E+02  0.40769944237E+02  0.45045681765E+02  0.00000000000E+00 0.  1.
         11    1    3    3    0    0  0.32330179522E+01 -0.44342351334E+01 -0.63787751455E+01  0.84144886307E+01  0.51100000000E-03 0. -1.
        -11    1    3    3    0    0 -0.57716001719E+00 -0.59835767393E+00 -0.83514165190E+01  0.83926934727E+01  0.51100000000E-03 0.  1.
        -12    1    3    3    0    0  0.44772917057E+01 -0.12745013017E+02 -0.26039752572E+02  0.29335136131E+02  0.00000000000E+00 0.  1.
</event>
<event>
 7    1  0.3435408E-009  0.4614232E+02  0.7816164E-02  0.1320468E+00
        -11   -1    0    0    0    0  0.00000000000E+00  0.00000000000E+00  0.45593999997E+02  0.45594000000E+02  0.51100000000E-03 0. -1.
         11   -1    0    0    0    0 -0.00000000000E+00 -0.00000000000E+00 -0.45593999997E+02  0.45594000000E+02  0.51100000000E-03 0.  1.
    9900012    2    1    2    0    0 -0.40836552300E+02  0.18580387314E+02 -0.40322023128E+01  0.46142318165E+02  0.10000003680E+02 0.  0.
        -12    1    1    2    0    0  0.40836552300E+02 -0.18580387314E+02  0.40322023128E+01  0.45045681835E+02  0.00000000000E+00 0.  1.
         11    1    3    3    0    0 -0.34416949214E+02  0.12570535252E+02 -0.10910147341E+01  0.36656992009E+02  0.51100000000E-03 0. -1.
        -11    1    3    3    0    0 -0.19257853191E+01  0.75186844952E+00 -0.10283450571E+01  0.23089930875E+01  0.51100000000E-03 0.  1.
         12    1    3    3    0    0 -0.44938177673E+01  0.52579836128E+01 -0.19128425217E+01  0.71763330685E+01  0.00000000000E+00 0. -1.
</event>
<event>
 7    1  0.3435408E-009  0.4614232E+02  0.7816164E-02  0.1320468E+00
        -11   -1    0    0    0    0  0.00000000000E+00  0.00000000000E+00  0.45593999997E+02  0.45594000000E+02  0.51100000000E-03 0. -1.
         11   -1    0    0    0    0 -0.00000000000E+00 -0.00000000000E+00 -0.45593999997E+02  0.45594000000E+02  0.51100000000E-03 0.  1.
    9900012    2    1    2    0    0  0.62527562324E+01 -0.24037248363E+02  0.37579611017E+02  0.46142318369E+02  0.10000005542E+02 0.  0.
        -12    1    1    2    0    0 -0.62527562324E+01  0.24037248363E+02 -0.37579611017E+02  0.45045681631E+02  0.00000000000E+00 0.  1.
         11    1    3    3    0    0  0.31807721046E+01 -0.36107873987E+01  0.63887940797E+01  0.79982364853E+01  0.51100000000E-03 0. -1.
        -11    1    3    3    0    0 -0.48376183364E-01 -0.15825716773E+02  0.26520571343E+02  0.30883593643E+02  0.51100000000E-03 0.  1.
        -12    1    3    3    0    0  0.31203603112E+01 -0.46007441912E+01  0.46702455942E+01  0.72604882408E+01  0.00000000000E+00 0.  1.
</event>
<event>
 7    1  0.3435408E-009  0.4614232E+02  0.7816164E-02  0.1320468E+00
        -11   -1    0    0    0    0  0.00000000000E+00  0.00000000000E+00  0.45593999997E+02  0.45594000000E+02  0.51100000000E-03 0.  1.
         11   -1    0    0    0    0 -0.00000000000E+00 -0.00000000000E+00 -0.45593999997E+02  0.45594000000E+02  0.51100000000E-03 0. -1.
    9900012    2    1    2    0    0 -0.18580616099E+02  0.39865933763E+02 -0.97253030120E+01  0.46142317764E+02  0.10000000025E+02 0.  0.
        -12    1    1    2    0    0  0.18580616099E+02 -0.39865933763E+02  0.97253030120E+01  0.45045682236E+02  0.00000000000E+00 0.  1.
         11    1    3    3    0    0 -0.77859657060E+01  0.21370460225E+02 -0.75346246629E+01  0.23960141929E+02  0.51100000000E-03 0. -1.
        -11    1    3    3    0    0 -0.68853724641E+01  0.15583665746E+02 -0.57440170002E+00  0.17046669165E+02  0.51100000000E-03 0.  1.
         12    1    3    3    0    0 -0.39092779289E+01  0.29118077927E+01 -0.16162766490E+01  0.51355066696E+01  0.00000000000E+00 0. -1.
</event>
<event>
 7    1  0.3435408E-009  0.4614232E+02  0.7816164E-02  0.1320468E+00
        -11   -1    0    0    0    0  0.00000000000E+00  0.00000000000E+00  0.45593999997E+02  0.45594000000E+02  0.51100000000E-03 0.  1.
         11   -1    0    0    0    0 -0.00000000000E+00 -0.00000000000E+00 -0.45593999997E+02  0.45594000000E+02  0.51100000000E-03 0. -1.
    9900012    2    1    2    0    0  0.10733793234E+02  0.19682977680E+02 -0.39070185866E+02  0.46142319284E+02  0.10000013890E+02 0.  0.
        -12    1    1    2    0    0 -0.10733793234E+02 -0.19682977680E+02  0.39070185866E+02  0.45045680716E+02  0.00000000000E+00 0.  1.
         11    1    3    3    0    0  0.27484019643E+01  0.87368197411E+01 -0.78252325930E+01  0.12046576192E+02  0.51100000000E-03 0. -1.
        -11    1    3    3    0    0  0.80572275998E+01  0.10886258658E+02 -0.31122062297E+02  0.33941306782E+02  0.51100000000E-03 0.  1.
         12    1    3    3    0    0 -0.71836330269E-01  0.59899280473E-01 -0.12289097560E+00  0.15443631060E+00  0.00000000000E+00 0. -1.
</event>
<event>
 7    1  0.3435408E-009  0.4614232E+02  0.7816164E-02  0.1320468E+00
        -11   -1    0    0    0    0  0.00000000000E+00  0.00000000000E+00  0.45593999997E+02  0.45594000000E+02  0.51100000000E-03 0. -1.
         11   -1    0    0    0    0 -0.00000000000E+00 -0.00000000000E+00 -0.45593999997E+02  0.45594000000E+02  0.51100000000E-03 0.  1.
    9900012    2    1    2    0    0 -0.15195863561E+02  0.35914132746E+02  0.22547150657E+02  0.46142320929E+02  0.10000028885E+02 0.  0.
        -12    1    1    2    0    0  0.15195863561E+02 -0.35914132746E+02 -0.22547150657E+02  0.45045679071E+02  0.00000000000E+00 0.  1.
         11    1    3    3    0    0 -0.63067817266E+01  0.24851268672E+02  0.14581183772E+02  0.29495287265E+02  0.51100000000E-03 0. -1.
        -11    1    3    3    0    0 -0.69363180441E+01  0.84528377505E+01  0.43214804896E+01  0.11757472855E+02  0.51100000000E-03 0.  1.
         12    1    3    3    0    0 -0.19527637899E+01  0.26100263236E+01  0.36444863945E+01  0.48895608094E+01  0.00000000000E+00 0. -1.
</event>
<event>
 7    1  0.3435408E-009  0.4614232E+02  0.7816164E-02  0.1320468E+00
        -11   -1    0    0    0    0  0.00000000000E+00  0.00000000000E+00  0.45593999997E+02  0.45594000000E+02  0.51100000000E-03 0.  1.
         11   -1    0    0    0    0 -0.00000000000E+00 -0.00000000000E+00 -0.45593999997E+02  0.45594000000E+02  0.51100000000E-03 0. -1.
    9900012    2    1    2    0    0  0.47151424708E+01  0.24683345263E+02 -0.37384668346E+02  0.46142317307E+02  0.99999958634E+01 0.  0.
        -12    1    1    2    0    0 -0.47151424708E+01 -0.24683345263E+02  0.37384668346E+02  0.45045682693E+02  0.00000000000E+00 0.  1.
         11    1    3    3    0    0  0.91502578588E+00  0.34023554315E+01 -0.22868670129E+01  0.42003637541E+01  0.51100000000E-03 0. -1.
        -11    1    3    3    0    0  0.39476243959E+00  0.14632578172E+02 -0.28208231381E+02  0.31780064494E+02  0.51100000000E-03 0.  1.
        -12    1    3    3    0    0  0.34053542453E+01  0.66484116589E+01 -0.68895699526E+01  0.10161889059E+02  0.00000000000E+00 0.  1.
</event>
<event>
 7    1  0.3435408E-009  0.4614232E+02  0.7816164E-02  0.1320468E+00
        -11   -1    0    0    0    0  0.00000000000E+00  0.00000000000E+00  0.45593999997E+02  0.45594000000E+02  0.51100000000E-03 0. -1.
         11   -1    0    0    0    0 -0.00000000000E+00 -0.00000000000E+00 -0.45593999997E+02  0.45594000000E+02  0.51100000000E-03 0.  1.
    9900012    2    1    2    0    0  0.40933206264E+02  0.18592827513E+02  0.28094313055E+01  0.46142317474E+02  0.99999973832E+01 0.  0.
        -12    1    1    2    0    0 -0.40933206264E+02 -0.18592827513E+02 -0.28094313055E+01  0.45045682526E+02  0.00000000000E+00 0.  1.
         11    1    3    3    0    0  0.33733354284E+02  0.17898819619E+02  0.21646345809E+01  0.38249085978E+02  0.51100000000E-03 0. -1.
        -11    1    3    3    0    0  0.32430919700E+01 -0.14967420362E-01 -0.12160693622E+01  0.34636244751E+01  0.51100000000E-03 0.  1.
         12    1    3    3    0    0  0.39567600092E+01  0.70897531488E+00  0.18608660869E+01  0.44296070210E+01  0.00000000000E+00 0. -1.
</event>
<event>
 7    1  0.3435408E-009  0.4614232E+02  0.7816164E-02  0.1320468E+00
        -11   -1    0    0    0    0  0.00000000000E+00  0.00000000000E+00  0.45593999997E+02  0.45594000000E+02  0.51100000000E-03 0.  1.
         11   -1    0    0    0    0 -0.00000000000E+00 -0.00000000000E+00 -0.45593999997E+02  0.45594000000E+02  0.51100000000E-03 0. -1.
    9900012    2    1    2    0    0  0.93743133225E+01  0.43248783668E+02 -0.84129949265E+01  0.46142317380E+02  0.99999965271E+01 0.  0.
        -12    1    1    2    0    0 -0.93743133225E+01 -0.43248783668E+02  0.84129949265E+01  0.45045682620E+02  0.00000000000E+00 0.  1.
         11    1    3    3    0    0  0.37165624849E+01  0.24465591272E+02 -0.88989604471E+01  0.26297708842E+02  0.51100000000E-03 0. -1.
        -11    1    3    3    0    0  0.18061197137E+01  0.42269410082E+01  0.12641569264E+01  0.47673044483E+01  0.51100000000E-03 0.  1.
        -12    1    3    3    0    0  0.38516311239E+01  0.14556251388E+02 -0.77819140582E+00  0.15077304090E+02  0.00000000000E+00 0.  1.
</event>
<event>
 7    1  0.3435408E-009  0.4614232E+02  0.7816164E-02  0.1320468E+00
        -11   -1    0    0    0    0  0.00000000000E+00  0.00000000000E+00  0.45593999997E+02  0.45594000000E+02  0.51100000000E-03 0.  1.
         11   -1    0    0    0    0 -0.00000000000E+00 -0.00000000000E+00 -0.45593999997E+02  0.45594000000E+02  0.51100000000E-03 0. -1.
    9900012    2    1    2    0    0 -0.21145037598E+02 -0.34779239884E+02 -0.19297809867E+02  0.46142316437E+02  0.99999879294E+01 0.  0.
        -12    1    1    2    0    0  0.21145037598E+02  0.34779239884E+02  0.19297809867E+02  0.45045683563E+02  0.00000000000E+00 0.  1.
         11    1    3    3    0    0 -0.74541697847E+01 -0.17621975372E+02 -0.10122327341E+02  0.21646250813E+02  0.51100000000E-03 0. -1.
        -11    1    3    3    0    0 -0.43101727764E+01 -0.22172134467E+01 -0.60887227044E+00  0.48851152017E+01  0.51100000000E-03 0.  1.
         12    1    3    3    0    0 -0.93806950372E+01 -0.14940051065E+02 -0.85666102554E+01  0.19610950423E+02  0.00000000000E+00 0. -1.
</event>
