<event>
 7    1  0.2349719E-015  0.9000696E+02  0.7816164E-02  0.1186341E+00
        -11   -1    0    0    0    0  0.00000000000E+00  0.00000000000E+00  0.45593999997E+02  0.45594000000E+02  0.51100000000E-03 0.  1.
         11   -1    0    0    0    0 -0.00000000000E+00 -0.00000000000E+00 -0.45593999997E+02  0.45594000000E+02  0.51100000000E-03 0. -1.
    9900012    2    1    2    0    0 -0.28753208656E+00  0.64928560888E+00 -0.94372541416E+00  0.90006956326E+02  0.89999207346E+02 0.  0.
        -12    1    1    2    0    0  0.28753208656E+00 -0.64928560888E+00  0.94372541416E+00  0.11810436741E+01  0.00000000000E+00 0.  1.
         11    1    3    3    0    0  0.27839601411E+02  0.19898722178E+02 -0.13290242566E+02  0.36710122565E+02  0.51100000000E-03 0. -1.
        -11    1    3    3    0    0  0.52409041468E+01  0.45038624330E+01 -0.52894432253E+01  0.87023021659E+01  0.51100000000E-03 0.  1.
        -12    1    3    3    0    0 -0.33368037644E+02 -0.23753299002E+02  0.17635960377E+02  0.44594531595E+02  0.00000000000E+00 0.  1.
</event>
<event>
 7    1  0.2349719E-015  0.9000778E+02  0.7816164E-02  0.1186339E+00
        -11   -1    0    0    0    0  0.00000000000E+00  0.00000000000E+00  0.45593999997E+02  0.45594000000E+02  0.51100000000E-03 0. -1.
         11   -1    0    0    0    0 -0.00000000000E+00 -0.00000000000E+00 -0.45593999997E+02  0.45594000000E+02  0.51100000000E-03 0.  1.
    9900012    2    1    2    0    0  0.82290746108E+00  0.66053194231E+00  0.52861758943E+00  0.90007781507E+02  0.90000043422E+02 0.  0.
        -12    1    1    2    0    0 -0.82290746108E+00 -0.66053194231E+00 -0.52861758943E+00  0.11802184934E+01  0.00000000000E+00 0.  1.
         11    1    3    3    0    0 -0.44888230353E+01 -0.85422448660E+01  0.34856607540E+00  0.96561368136E+01  0.51100000000E-03 0. -1.
        -11    1    3    3    0    0 -0.74876302506E+01 -0.33601481314E+02 -0.69194691530E+01  0.35114145396E+02  0.51100000000E-03 0.  1.
         12    1    3    3    0    0  0.12799360747E+02  0.42804258122E+02  0.70995206671E+01  0.45237499297E+02  0.00000000000E+00 0. -1.
</event>
<event>
 7    1  0.2349719E-015  0.9000772E+02  0.7816164E-02  0.1186339E+00
        -11   -1    0    0    0    0  0.00000000000E+00  0.00000000000E+00  0.45593999997E+02  0.45594000000E+02  0.51100000000E-03 0.  1.
         11   -1    0    0    0    0 -0.00000000000E+00 -0.00000000000E+00 -0.45593999997E+02  0.45594000000E+02  0.51100000000E-03 0. -1.
    9900012    2    1    2    0    0  0.70984503371E+00 -0.71835229054E+00  0.61085159836E+00  0.90007724752E+02  0.89999985919E+02 0.  0.
        -12    1    1    2    0    0 -0.70984503371E+00  0.71835229054E+00 -0.61085159836E+00  0.11802752477E+01  0.00000000000E+00 0.  1.
         11    1    3    3    0    0  0.19977540906E+02 -0.24982661011E+02 -0.17103062374E+02  0.36273271629E+02  0.51100000000E-03 0. -1.
        -11    1    3    3    0    0 -0.22984050495E+01 -0.39174980608E+01 -0.98305628083E+01  0.10829100711E+02  0.51100000000E-03 0.  1.
        -12    1    3    3    0    0 -0.16969290823E+02  0.28181806781E+02  0.27544476781E+02  0.42905352412E+02  0.00000000000E+00 0.  1.
</event>
<event>
 7    1  0.2349719E-015  0.9000765E+02  0.7816164E-02  0.1186339E+00
        -11   -1    0    0    0    0  0.00000000000E+00  0.00000000000E+00  0.45593999997E+02  0.45594000000E+02  0.51100000000E-03 0. -1.
         11   -1    0    0    0    0 -0.00000000000E+00 -0.00000000000E+00 -0.45593999997E+02  0.45594000000E+02  0.51100000000E-03 0.  1.
    9900012    2    1    2    0    0 -0.20464325240E-01  0.24900657902E-01  0.11799075766E+01  0.90007652288E+02  0.89999912498E+02 0.  0.
        -12    1    1    2    0    0  0.20464325240E-01 -0.24900657902E-01 -0.11799075766E+01  0.11803477117E+01  0.00000000000E+00 0.  1.
         11    1    3    3    0    0  0.14845756846E+01 -0.99892003826E+01  0.70797486447E+00  0.10123700801E+02  0.51100000000E-03 0. -1.
        -11    1    3    3    0    0  0.24483045382E+02 -0.16911084663E+02 -0.21296678923E+02  0.36591704375E+02  0.51100000000E-03 0.  1.
         12    1    3    3    0    0 -0.25988085392E+02  0.26925185703E+02  0.21768611635E+02  0.43292247112E+02  0.00000000000E+00 0. -1.
</event>
<event>
 7    1  0.2349719E-015  0.9000765E+02  0.7816164E-02  0.1186339E+00
        -11   -1    0    0    0    0  0.00000000000E+00  0.00000000000E+00  0.45593999997E+02  0.45594000000E+02  0.51100000000E-03 0.  1.
         11   -1    0    0    0    0 -0.00000000000E+00 -0.00000000000E+00 -0.45593999997E+02  0.45594000000E+02  0.51100000000E-03 0. -1.
    9900012    2    1    2    0    0  0.44427201747E+00  0.96837383489E+00 -0.50802890155E+00  0.90007653070E+02  0.89999913291E+02 0.  0.
        -12    1    1    2    0    0 -0.44427201747E+00 -0.96837383489E+00  0.50802890155E+00  0.11803469297E+01  0.00000000000E+00 0.  1.
         11    1    3    3    0    0  0.47934098395E+01 -0.80126419728E+01 -0.23284125087E+00  0.93398835423E+01  0.51100000000E-03 0. -1.
        -11    1    3    3    0    0  0.27159530693E+02  0.28014579263E+02  0.13610855201E+02  0.41324473842E+02  0.51100000000E-03 0.  1.
         12    1    3    3    0    0 -0.31508668515E+02 -0.19033563455E+02 -0.13886042851E+02  0.39343295686E+02  0.00000000000E+00 0. -1.
</event>
<event>
 7    1  0.2349719E-015  0.9000788E+02  0.7816164E-02  0.1186339E+00
        -11   -1    0    0    0    0  0.00000000000E+00  0.00000000000E+00  0.45593999997E+02  0.45594000000E+02  0.51100000000E-03 0.  1.
         11   -1    0    0    0    0 -0.00000000000E+00 -0.00000000000E+00 -0.45593999997E+02  0.45594000000E+02  0.51100000000E-03 0. -1.
    9900012    2    1    2    0    0 -0.48216427513E+00 -0.30806442461E+00 -0.10321266773E+01  0.90007884940E+02  0.90000148221E+02 0.  0.
        -12    1    1    2    0    0  0.48216427513E+00  0.30806442461E+00  0.10321266773E+01  0.11801150604E+01  0.00000000000E+00 0.  1.
         11    1    3    3    0    0 -0.28482216879E+01  0.86714862407E+01  0.40883926034E+01  0.10001099677E+02  0.51100000000E-03 0. -1.
        -11    1    3    3    0    0 -0.24338541311E+02 -0.44320839750E+01  0.27905374266E+02  0.37292329971E+02  0.51100000000E-03 0.  1.
         12    1    3    3    0    0  0.26704598724E+02 -0.45474666904E+01 -0.33025893547E+02  0.42714455291E+02  0.00000000000E+00 0. -1.
</event>
<event>
 7    1  0.3121937E-015  0.9000770E+02  0.7816164E-02  0.1186339E+00
        -11   -1    0    0    0    0  0.00000000000E+00  0.00000000000E+00  0.45593999997E+02  0.45594000000E+02  0.51100000000E-03 0.  1.
         11   -1    0    0    0    0 -0.00000000000E+00 -0.00000000000E+00 -0.45593999997E+02  0.45594000000E+02  0.51100000000E-03 0. -1.
    9900012    2    1    2    0    0 -0.78579684203E+00 -0.87570694111E+00  0.93697905617E-01  0.90007695539E+02  0.89999956320E+02 0.  0.
        -12    1    1    2    0    0  0.78579684203E+00  0.87570694111E+00 -0.93697905617E-01  0.11803044612E+01  0.00000000000E+00 0.  1.
         11    1    3    3    0    0  0.21084506788E+02 -0.28170451890E+02  0.10796167719E+02  0.36806086777E+02  0.51100000000E-03 0. -1.
        -11    1    3    3    0    0  0.80010364097E+00 -0.27737872524E+01  0.98754325399E+01  0.10288742861E+02  0.51100000000E-03 0.  1.
        -12    1    3    3    0    0 -0.22670407271E+02  0.30068532201E+02 -0.20577902353E+02  0.42912865900E+02  0.00000000000E+00 0.  1.
</event>
<event>
 7    1  0.2349719E-015  0.9000800E+02  0.7816164E-02  0.1186339E+00
        -11   -1    0    0    0    0  0.00000000000E+00  0.00000000000E+00  0.45593999997E+02  0.45594000000E+02  0.51100000000E-03 0.  1.
         11   -1    0    0    0    0 -0.00000000000E+00 -0.00000000000E+00 -0.45593999997E+02  0.45594000000E+02  0.51100000000E-03 0. -1.
    9900012    2    1    2    0    0  0.24687279349E-01 -0.48587423297E+00 -0.10750449891E+01  0.90007997898E+02  0.90000262670E+02 0.  0.
        -12    1    1    2    0    0 -0.24687279349E-01  0.48587423297E+00  0.10750449891E+01  0.11800021019E+01  0.00000000000E+00 0.  1.
         11    1    3    3    0    0 -0.28192580917E+01 -0.37111081938E+01  0.89086954164E+01  0.10054123259E+02  0.51100000000E-03 0. -1.
        -11    1    3    3    0    0 -0.19686979866E+02 -0.11988296906E+02  0.26070244007E+02  0.34798765234E+02  0.51100000000E-03 0.  1.
         12    1    3    3    0    0  0.22530925237E+02  0.15213530867E+02 -0.36053984412E+02  0.45155109406E+02  0.00000000000E+00 0. -1.
</event>
<event>
 7    1  0.2349719E-015  0.9000777E+02  0.7816164E-02  0.1186339E+00
        -11   -1    0    0    0    0  0.00000000000E+00  0.00000000000E+00  0.45593999997E+02  0.45594000000E+02  0.51100000000E-03 0. -1.
         11   -1    0    0    0    0 -0.00000000000E+00 -0.00000000000E+00 -0.45593999997E+02  0.45594000000E+02  0.51100000000E-03 0.  1.
    9900012    2    1    2    0    0  0.90036333419E+00 -0.53844765699E+00 -0.54070782968E+00  0.90007769103E+02  0.90000030855E+02 0.  0.
        -12    1    1    2    0    0 -0.90036333419E+00  0.53844765699E+00  0.54070782968E+00  0.11802308969E+01  0.00000000000E+00 0.  1.
         11    1    3    3    0    0 -0.61531015504E+01  0.31295913820E+01  0.63030388242E+01  0.93479034863E+01  0.51100000000E-03 0. -1.
        -11    1    3    3    0    0 -0.29955661355E+02 -0.13407430725E+01 -0.25305082256E+02  0.39236289675E+02  0.51100000000E-03 0.  1.
         12    1    3    3    0    0  0.37009126240E+02 -0.23272959666E+01  0.18461335602E+02  0.41423575942E+02  0.00000000000E+00 0. -1.
</event>
<event>
 7    1  0.2349719E-015  0.9000776E+02  0.7816164E-02  0.1186339E+00
        -11   -1    0    0    0    0  0.00000000000E+00  0.00000000000E+00  0.45593999997E+02  0.45594000000E+02  0.51100000000E-03 0.  1.
         11   -1    0    0    0    0 -0.00000000000E+00 -0.00000000000E+00 -0.45593999997E+02  0.45594000000E+02  0.51100000000E-03 0. -1.
    9900012    2    1    2    0    0 -0.71022533404E-01  0.23120491102E+00 -0.11551931165E+01  0.90007758056E+02  0.90000019662E+02 0.  0.
        -12    1    1    2    0    0  0.71022533404E-01 -0.23120491102E+00  0.11551931165E+01  0.11802419445E+01  0.00000000000E+00 0.  1.
         11    1    3    3    0    0 -0.34326947046E+01 -0.33743420577E+00 -0.93905973072E+01  0.10004027830E+02  0.51100000000E-03 0. -1.
        -11    1    3    3    0    0 -0.37108895311E+02 -0.84686600765E+01  0.25472703759E+01  0.38148091713E+02  0.51100000000E-03 0.  1.
         12    1    3    3    0    0  0.40470567482E+02  0.90372991933E+01  0.56881338149E+01  0.41855638513E+02  0.00000000000E+00 0. -1.
</event>
<event>
 7    1  0.2349719E-015  0.9000776E+02  0.7816164E-02  0.1186339E+00
        -11   -1    0    0    0    0  0.00000000000E+00  0.00000000000E+00  0.45593999997E+02  0.45594000000E+02  0.51100000000E-03 0.  1.
         11   -1    0    0    0    0 -0.00000000000E+00 -0.00000000000E+00 -0.45593999997E+02  0.45594000000E+02  0.51100000000E-03 0. -1.
    9900012    2    1    2    0    0 -0.50500305559E+00  0.15123547821E+00 -0.10559630526E+01  0.90007763488E+02  0.90000025166E+02 0.  0.
        -12    1    1    2    0    0  0.50500305559E+00 -0.15123547821E+00  0.10559630526E+01  0.11802365121E+01  0.00000000000E+00 0.  1.
         11    1    3    3    0    0  0.14521767913E+02 -0.24660213521E+02 -0.20914032825E+02  0.35445798671E+02  0.51100000000E-03 0. -1.
        -11    1    3    3    0    0 -0.16998391471E+01 -0.13080014144E+00 -0.11909428137E+02  0.12030837070E+02  0.51100000000E-03 0.  1.
        -12    1    3    3    0    0 -0.13326931821E+02  0.24942249140E+02  0.31767497909E+02  0.42531127746E+02  0.00000000000E+00 0.  1.
</event>
<event>
 7    1  0.2349719E-015  0.9000772E+02  0.7816164E-02  0.1186339E+00
        -11   -1    0    0    0    0  0.00000000000E+00  0.00000000000E+00  0.45593999997E+02  0.45594000000E+02  0.51100000000E-03 0. -1.
         11   -1    0    0    0    0 -0.00000000000E+00 -0.00000000000E+00 -0.45593999997E+02  0.45594000000E+02  0.51100000000E-03 0.  1.
    9900012    2    1    2    0    0  0.93779208572E+00 -0.15109371982E+00  0.70055072313E+00  0.90007722650E+02  0.89999983789E+02 0.  0.
        -12    1    1    2    0    0 -0.93779208572E+00  0.15109371982E+00 -0.70055072313E+00  0.11802773504E+01  0.00000000000E+00 0.  1.
         11    1    3    3    0    0  0.69859078268E+01 -0.29646106094E+01  0.61147964325E+01  0.97458996456E+01  0.51100000000E-03 0. -1.
        -11    1    3    3    0    0 -0.21606327111E+01  0.27179970674E+02 -0.33292297412E+02  0.43032501749E+02  0.51100000000E-03 0.  1.
         12    1    3    3    0    0 -0.38874830300E+01 -0.24366453785E+02  0.27878051703E+02  0.37229321255E+02  0.00000000000E+00 0. -1.
</event>
<event>
 7    1  0.2349719E-015  0.9000813E+02  0.7816164E-02  0.1186338E+00
        -11   -1    0    0    0    0  0.00000000000E+00  0.00000000000E+00  0.45593999997E+02  0.45594000000E+02  0.51100000000E-03 0.  1.
         11   -1    0    0    0    0 -0.00000000000E+00 -0.00000000000E+00 -0.45593999997E+02  0.45594000000E+02  0.51100000000E-03 0. -1.
    9900012    2    1    2    0    0  0.95667921450E+00  0.30068344790E+00 -0.62165272172E+00  0.90008128074E+02  0.90000394564E+02 0.  0.
        -12    1    1    2    0    0 -0.95667921450E+00 -0.30068344790E+00  0.62165272172E+00  0.11798719260E+01  0.00000000000E+00 0.  1.
         11    1    3    3    0    0  0.26110725811E+02  0.15305602485E+02 -0.19128482238E+02  0.35804054279E+02  0.51100000000E-03 0. -1.
        -11    1    3    3    0    0  0.67652446813E+01  0.84255024559E+01  0.73438304585E+01  0.13064818150E+02  0.51100000000E-03 0.  1.
        -12    1    3    3    0    0 -0.31919291278E+02 -0.23430421493E+02  0.11162999058E+02  0.41139255645E+02  0.00000000000E+00 0.  1.
</event>
<event>
 7    1  0.2349719E-015  0.9000787E+02  0.7816164E-02  0.1186339E+00
        -11   -1    0    0    0    0  0.00000000000E+00  0.00000000000E+00  0.45593999997E+02  0.45594000000E+02  0.51100000000E-03 0.  1.
         11   -1    0    0    0    0 -0.00000000000E+00 -0.00000000000E+00 -0.45593999997E+02  0.45594000000E+02  0.51100000000E-03 0. -1.
    9900012    2    1    2    0    0  0.27005422660E+00 -0.86679662284E+00 -0.75395236263E+00  0.90007868721E+02  0.90000131788E+02 0.  0.
        -12    1    1    2    0    0 -0.27005422660E+00  0.86679662284E+00  0.75395236263E+00  0.11801312790E+01  0.00000000000E+00 0.  1.
         11    1    3    3    0    0 -0.74544742157E+01 -0.41271782182E+01 -0.32594486054E+00  0.85269587891E+01  0.51100000000E-03 0. -1.
        -11    1    3    3    0    0 -0.23316233314E+02  0.30519305314E+02  0.82156145005E+01  0.39275578349E+02  0.51100000000E-03 0.  1.
         12    1    3    3    0    0  0.31040761756E+02 -0.27258923718E+02 -0.86436220026E+01  0.42205331583E+02  0.00000000000E+00 0. -1.
</event>
<event>
 7    1  0.2349719E-015  0.9000776E+02  0.7816164E-02  0.1186339E+00
        -11   -1    0    0    0    0  0.00000000000E+00  0.00000000000E+00  0.45593999997E+02  0.45594000000E+02  0.51100000000E-03 0.  1.
         11   -1    0    0    0    0 -0.00000000000E+00 -0.00000000000E+00 -0.45593999997E+02  0.45594000000E+02  0.51100000000E-03 0. -1.
    9900012    2    1    2    0    0  0.25288705561E+00  0.65384203313E+00 -0.94948076380E+00  0.90007756386E+02  0.90000017970E+02 0.  0.
        -12    1    1    2    0    0 -0.25288705561E+00 -0.65384203313E+00  0.94948076380E+00  0.11802436138E+01  0.00000000000E+00 0.  1.
         11    1    3    3    0    0 -0.16174235868E+02 -0.17888757089E+02 -0.24013492184E+02  0.34033238800E+02  0.51100000000E-03 0. -1.
        -11    1    3    3    0    0  0.64342259654E+01 -0.79370137393E+01 -0.87079291016E+01  0.13424733903E+02  0.51100000000E-03 0.  1.
        -12    1    3    3    0    0  0.99928969582E+01  0.26479612861E+02  0.31771940522E+02  0.42549783683E+02  0.00000000000E+00 0.  1.
</event>
<event>
 7    1  0.2349719E-015  0.9000772E+02  0.7816164E-02  0.1186339E+00
        -11   -1    0    0    0    0  0.00000000000E+00  0.00000000000E+00  0.45593999997E+02  0.45594000000E+02  0.51100000000E-03 0. -1.
         11   -1    0    0    0    0 -0.00000000000E+00 -0.00000000000E+00 -0.45593999997E+02  0.45594000000E+02  0.51100000000E-03 0.  1.
    9900012    2    1    2    0    0 -0.38077242092E+00 -0.35991014990E+00  0.10576115724E+01  0.90007718173E+02  0.89999979253E+02 0.  0.
        -12    1    1    2    0    0  0.38077242092E+00  0.35991014990E+00 -0.10576115724E+01  0.11802818268E+01  0.00000000000E+00 0.  1.
         11    1    3    3    0    0 -0.10244734312E+02 -0.89094736185E+01 -0.13539118576E+02  0.19173967596E+02  0.51100000000E-03 0. -1.
        -11    1    3    3    0    0 -0.30739032631E-01 -0.25183407717E+02  0.23633978640E+02  0.34536501209E+02  0.51100000000E-03 0.  1.
         12    1    3    3    0    0  0.98947009235E+01  0.33732971186E+02 -0.90372484913E+01  0.36297249368E+02  0.00000000000E+00 0. -1.
</event>
<event>
 7    1  0.2349719E-015  0.9000780E+02  0.7816164E-02  0.1186339E+00
        -11   -1    0    0    0    0  0.00000000000E+00  0.00000000000E+00  0.45593999997E+02  0.45594000000E+02  0.51100000000E-03 0.  1.
         11   -1    0    0    0    0 -0.00000000000E+00 -0.00000000000E+00 -0.45593999997E+02  0.45594000000E+02  0.51100000000E-03 0. -1.
    9900012    2    1    2    0    0 -0.15039648831E+00  0.85045399936E-02 -0.11705514146E+01  0.90007795761E+02  0.90000057865E+02 0.  0.
        -12    1    1    2    0    0  0.15039648831E+00 -0.85045399937E-02  0.11705514146E+01  0.11802042388E+01  0.00000000000E+00 0.  1.
         11    1    3    3    0    0  0.20217346001E+02 -0.27920532530E+02 -0.11971911279E+02  0.36491421952E+02  0.51100000000E-03 0. -1.
        -11    1    3    3    0    0  0.37864308931E+01 -0.81213040347E+01  0.88979225164E+00  0.90046859271E+01  0.51100000000E-03 0.  1.
        -12    1    3    3    0    0 -0.24154173383E+02  0.36050341105E+02  0.99115676132E+01  0.44511687882E+02  0.00000000000E+00 0.  1.
</event>
<event>
 7    1  0.2349719E-015  0.9000785E+02  0.7816164E-02  0.1186339E+00
        -11   -1    0    0    0    0  0.00000000000E+00  0.00000000000E+00  0.45593999997E+02  0.45594000000E+02  0.51100000000E-03 0.  1.
         11   -1    0    0    0    0 -0.00000000000E+00 -0.00000000000E+00 -0.45593999997E+02  0.45594000000E+02  0.51100000000E-03 0. -1.
    9900012    2    1    2    0    0 -0.70140885305E+00  0.70006103169E+00 -0.64085557861E+00  0.90007849289E+02  0.90000112100E+02 0.  0.
        -12    1    1    2    0    0  0.70140885305E+00 -0.70006103169E+00  0.64085557861E+00  0.11801507107E+01  0.00000000000E+00 0.  1.
         11    1    3    3    0    0 -0.26657772594E+02 -0.78446334916E+01 -0.22700679894E+02  0.35881694250E+02  0.51100000000E-03 0. -1.
        -11    1    3    3    0    0 -0.76483111934E+00  0.24771272558E+01 -0.10934246926E+02  0.11237387694E+02  0.51100000000E-03 0.  1.
        -12    1    3    3    0    0  0.26721194861E+02  0.60675672674E+01  0.32994071242E+02  0.42888767346E+02  0.00000000000E+00 0.  1.
</event>
<event>
 7    1  0.2349719E-015  0.9000788E+02  0.7816164E-02  0.1186339E+00
        -11   -1    0    0    0    0  0.00000000000E+00  0.00000000000E+00  0.45593999997E+02  0.45594000000E+02  0.51100000000E-03 0. -1.
         11   -1    0    0    0    0 -0.00000000000E+00 -0.00000000000E+00 -0.45593999997E+02  0.45594000000E+02  0.51100000000E-03 0.  1.
    9900012    2    1    2    0    0  0.61104561873E+00 -0.51867455973E+00  0.86618564783E+00  0.90007882369E+02  0.90000145616E+02 0.  0.
        -12    1    1    2    0    0 -0.61104561873E+00  0.51867455973E+00 -0.86618564783E+00  0.11801176312E+01  0.00000000000E+00 0.  1.
         11    1    3    3    0    0 -0.97561880900E+01 -0.30609019003E+02 -0.18602663394E+02  0.37123501128E+02  0.51100000000E-03 0. -1.
        -11    1    3    3    0    0 -0.10619339412E+02 -0.12725350079E+01  0.64885389941E+00  0.10714976740E+02  0.51100000000E-03 0.  1.
        -12    1    3    3    0    0  0.20986573120E+02  0.31362879452E+02  0.18819995142E+02  0.42169404501E+02  0.00000000000E+00 0.  1.
</event>
<event>
 7    1  0.2349719E-015  0.9000781E+02  0.7816164E-02  0.1186339E+00
        -11   -1    0    0    0    0  0.00000000000E+00  0.00000000000E+00  0.45593999997E+02  0.45594000000E+02  0.51100000000E-03 0. -1.
         11   -1    0    0    0    0 -0.00000000000E+00 -0.00000000000E+00 -0.45593999997E+02  0.45594000000E+02  0.51100000000E-03 0.  1.
    9900012    2    1    2    0    0  0.88740934703E+00  0.72677036680E+00 -0.27775936196E+00  0.90007813244E+02  0.90000075579E+02 0.  0.
        -12    1    1    2    0    0 -0.88740934703E+00 -0.72677036680E+00  0.27775936196E+00  0.11801867557E+01  0.00000000000E+00 0.  1.
         11    1    3    3    0    0 -0.11220940799E+02 -0.37273862413E+02  0.14463113834E+02  0.41526280759E+02  0.51100000000E-03 0. -1.
        -11    1    3    3    0    0 -0.39122484681E+01  0.50237781301E+01  0.37817100816E+01  0.74057657389E+01  0.51100000000E-03 0.  1.
        -12    1    3    3    0    0  0.16020598614E+02  0.32976854650E+02 -0.18522583277E+02  0.41075766747E+02  0.00000000000E+00 0.  1.
</event>
<event>
 7    1  0.2349719E-015  0.9000779E+02  0.7816164E-02  0.1186339E+00
        -11   -1    0    0    0    0  0.00000000000E+00  0.00000000000E+00  0.45593999997E+02  0.45594000000E+02  0.51100000000E-03 0. -1.
         11   -1    0    0    0    0 -0.00000000000E+00 -0.00000000000E+00 -0.45593999997E+02  0.45594000000E+02  0.51100000000E-03 0.  1.
    9900012    2    1    2    0    0  0.30923012237E+00  0.61295409877E+00  0.95998093617E+00  0.90007788412E+02  0.90000050419E+02 0.  0.
        -12    1    1    2    0    0 -0.30923012237E+00 -0.61295409877E+00 -0.95998093617E+00  0.11802115885E+01  0.00000000000E+00 0.  1.
         11    1    3    3    0    0  0.94963010707E+01 -0.95722590285E+00 -0.39218583226E+01  0.10318768745E+02  0.51100000000E-03 0. -1.
        -11    1    3    3    0    0  0.20182432749E+02 -0.30074031945E+02  0.46455319781E+01  0.36515188028E+02  0.51100000000E-03 0.  1.
         12    1    3    3    0    0 -0.29369503698E+02  0.31644211947E+02  0.23630728064E+00  0.43173831638E+02  0.00000000000E+00 0. -1.
</event>
<event>
 7    1  0.2349719E-015  0.9000774E+02  0.7816164E-02  0.1186339E+00
        -11   -1    0    0    0    0  0.00000000000E+00  0.00000000000E+00  0.45593999997E+02  0.45594000000E+02  0.51100000000E-03 0.  1.
         11   -1    0    0    0    0 -0.00000000000E+00 -0.00000000000E+00 -0.45593999997E+02  0.45594000000E+02  0.51100000000E-03 0. -1.
    9900012    2    1    2    0    0 -0.56395870166E+00 -0.38903273998E+00  0.96105252811E+00  0.90007738227E+02  0.89999999572E+02 0.  0.
        -12    1    1    2    0    0  0.56395870166E+00  0.38903273998E+00 -0.96105252811E+00  0.11802617725E+01  0.00000000000E+00 0.  1.
         11    1    3    3    0    0  0.55460065576E+01 -0.10640935654E+02 -0.37132887459E+00  0.12005231598E+02  0.51100000000E-03 0. -1.
        -11    1    3    3    0    0 -0.12452116639E+02 -0.30195611079E+02 -0.12223888291E+02  0.34874827346E+02  0.51100000000E-03 0.  1.
         12    1    3    3    0    0  0.63421513799E+01  0.40447513993E+02  0.13556269693E+02  0.43127679283E+02  0.00000000000E+00 0. -1.
</event>
<event>
 7    1  0.2349719E-015  0.9000777E+02  0.7816164E-02  0.1186339E+00
        -11   -1    0    0    0    0  0.00000000000E+00  0.00000000000E+00  0.45593999997E+02  0.45594000000E+02  0.51100000000E-03 0.  1.
         11   -1    0    0    0    0 -0.00000000000E+00 -0.00000000000E+00 -0.45593999997E+02  0.45594000000E+02  0.51100000000E-03 0. -1.
    9900012    2    1    2    0    0  0.54810591123E+00  0.44369759337E+00  0.94639279706E+00  0.90007768256E+02  0.90000029997E+02 0.  0.
        -12    1    1    2    0    0 -0.54810591123E+00 -0.44369759337E+00 -0.94639279706E+00  0.11802317445E+01  0.00000000000E+00 0.  1.
         11    1    3    3    0    0  0.72494464472E+01 -0.54571592781E+01  0.38908230901E+01  0.98728701884E+01  0.51100000000E-03 0. -1.
        -11    1    3    3    0    0  0.20161310061E+02 -0.11201633038E+02  0.27628188658E+02  0.35989884897E+02  0.51100000000E-03 0.  1.
         12    1    3    3    0    0 -0.26862650597E+02  0.17102489910E+02 -0.30572618951E+02  0.44145013170E+02  0.00000000000E+00 0. -1.
</event>
<event>
 7    1  0.2349719E-015  0.9000768E+02  0.7816164E-02  0.1186339E+00
        -11   -1    0    0    0    0  0.00000000000E+00  0.00000000000E+00  0.45593999997E+02  0.45594000000E+02  0.51100000000E-03 0.  1.
         11   -1    0    0    0    0 -0.00000000000E+00 -0.00000000000E+00 -0.45593999997E+02  0.45594000000E+02  0.51100000000E-03 0. -1.
    9900012    2    1    2    0    0  0.96354005092E+00  0.67652472986E+00  0.83961336224E-01  0.90007684514E+02  0.89999945150E+02 0.  0.
        -12    1    1    2    0    0 -0.96354005092E+00 -0.67652472986E+00 -0.83961336224E-01  0.11803154857E+01  0.00000000000E+00 0.  1.
         11    1    3    3    0    0  0.45103387548E+01  0.46299672698E+01 -0.45558891966E+01  0.79079630269E+01  0.51100000000E-03 0. -1.
        -11    1    3    3    0    0  0.34773332690E+02 -0.18240397098E+02 -0.62899593725E+01  0.39767579029E+02  0.51100000000E-03 0.  1.
         12    1    3    3    0    0 -0.38320131393E+02  0.14286954558E+02  0.10929809905E+02  0.42332142459E+02  0.00000000000E+00 0. -1.
</event>
<event>
 7    1  0.2349719E-015  0.9000763E+02  0.7816164E-02  0.1186339E+00
        -11   -1    0    0    0    0  0.00000000000E+00  0.00000000000E+00  0.45593999997E+02  0.45594000000E+02  0.51100000000E-03 0.  1.
         11   -1    0    0    0    0 -0.00000000000E+00 -0.00000000000E+00 -0.45593999997E+02  0.45594000000E+02  0.51100000000E-03 0. -1.
    9900012    2    1    2    0    0  0.68535153028E+00  0.78892023635E+00 -0.54878881172E+00  0.90007630982E+02  0.89999890911E+02 0.  0.
        -12    1    1    2    0    0 -0.68535153028E+00 -0.78892023635E+00  0.54878881172E+00  0.11803690183E+01  0.00000000000E+00 0.  1.
         11    1    3    3    0    0 -0.21495189137E+02  0.20116891677E+02 -0.25562096043E+02  0.38989142606E+02  0.51100000000E-03 0. -1.
        -11    1    3    3    0    0 -0.60262590424E+01  0.44568916214E+01  0.53564993513E+01  0.92125873962E+01  0.51100000000E-03 0.  1.
        -12    1    3    3    0    0  0.28206799709E+02 -0.23784863062E+02  0.19656807880E+02  0.41805900980E+02  0.00000000000E+00 0.  1.
</event>
<event>
 7    1  0.2349719E-015  0.9000770E+02  0.7816164E-02  0.1186339E+00
        -11   -1    0    0    0    0  0.00000000000E+00  0.00000000000E+00  0.45593999997E+02  0.45594000000E+02  0.51100000000E-03 0.  1.
         11   -1    0    0    0    0 -0.00000000000E+00 -0.00000000000E+00 -0.45593999997E+02  0.45594000000E+02  0.51100000000E-03 0. -1.
    9900012    2    1    2    0    0 -0.37523302109E+00  0.89289679646E+00 -0.67456272358E+00  0.90007703691E+02  0.89999964580E+02 0.  0.
        -12    1    1    2    0    0  0.37523302109E+00 -0.89289679646E+00  0.67456272358E+00  0.11802963091E+01  0.00000000000E+00 0.  1.
         11    1    3    3    0    0 -0.35110816774E+01  0.24484644311E+01  0.94196049337E+01  0.10346575761E+02  0.51100000000E-03 0. -1.
        -11    1    3    3    0    0 -0.21872073379E+02  0.12427738581E+02  0.24245461715E+02  0.34938212521E+02  0.51100000000E-03 0.  1.
         12    1    3    3    0    0  0.25007922035E+02 -0.13983306216E+02 -0.34339629372E+02  0.44722915409E+02  0.00000000000E+00 0. -1.
</event>
<event>
 7    1  0.2349719E-015  0.9000771E+02  0.7816164E-02  0.1186339E+00
        -11   -1    0    0    0    0  0.00000000000E+00  0.00000000000E+00  0.45593999997E+02  0.45594000000E+02  0.51100000000E-03 0.  1.
         11   -1    0    0    0    0 -0.00000000000E+00 -0.00000000000E+00 -0.45593999997E+02  0.45594000000E+02  0.51100000000E-03 0. -1.
    9900012    2    1    2    0    0 -0.62244708560E+00 -0.25202311830E+00 -0.97062792880E+00  0.90007714186E+02  0.89999975213E+02 0.  0.
        -12    1    1    2    0    0  0.62244708560E+00  0.25202311830E+00  0.97062792880E+00  0.11802858140E+01  0.00000000000E+00 0.  1.
         11    1    3    3    0    0 -0.85325789006E+01 -0.28568653834E+01  0.38657372303E+00  0.90064433612E+01  0.51100000000E-03 0. -1.
        -11    1    3    3    0    0 -0.12691592890E+02  0.37301880379E+02  0.63764248348E+01  0.39914478624E+02  0.51100000000E-03 0.  1.
         12    1    3    3    0    0  0.20601724705E+02 -0.34697038114E+02 -0.77336264867E+01  0.41086792201E+02  0.00000000000E+00 0. -1.
</event>
<event>
 7    1  0.2349719E-015  0.9000776E+02  0.7816164E-02  0.1186339E+00
        -11   -1    0    0    0    0  0.00000000000E+00  0.00000000000E+00  0.45593999997E+02  0.45594000000E+02  0.51100000000E-03 0. -1.
         11   -1    0    0    0    0 -0.00000000000E+00 -0.00000000000E+00 -0.45593999997E+02  0.45594000000E+02  0.51100000000E-03 0.  1.
    9900012    2    1    2    0    0 -0.11750541118E+00  0.10628739063E+01  0.49944736848E+00  0.90007764373E+02  0.90000026062E+02 0.  0.
        -12    1    1    2    0    0  0.11750541118E+00 -0.10628739063E+01 -0.49944736848E+00  0.11802356274E+01  0.00000000000E+00 0.  1.
         11    1    3    3    0    0 -0.15612489851E+02 -0.33456688948E+02  0.19034393940E+02  0.41538031099E+02  0.51100000000E-03 0. -1.
        -11    1    3    3    0    0  0.13900654888E+02  0.69590918984E+01 -0.61590130838E+00  0.15557522330E+02  0.51100000000E-03 0.  1.
        -12    1    3    3    0    0  0.15943295511E+01  0.27560470956E+02 -0.17919045263E+02  0.32912210943E+02  0.00000000000E+00 0.  1.
</event>
<event>
 7    1  0.2349719E-015  0.9000763E+02  0.7816164E-02  0.1186339E+00
        -11   -1    0    0    0    0  0.00000000000E+00  0.00000000000E+00  0.45593999997E+02  0.45594000000E+02  0.51100000000E-03 0. -1.
         11   -1    0    0    0    0 -0.00000000000E+00 -0.00000000000E+00 -0.45593999997E+02  0.45594000000E+02  0.51100000000E-03 0.  1.
    9900012    2    1    2    0    0  0.47489942900E+00  0.10183214460E+01  0.36160047571E+00  0.90007634404E+02  0.89999894379E+02 0.  0.
        -12    1    1    2    0    0 -0.47489942900E+00 -0.10183214460E+01 -0.36160047571E+00  0.11803655955E+01  0.00000000000E+00 0.  1.
         11    1    3    3    0    0  0.26400886671E+01  0.37416963377E+01  0.75436941589E+01  0.88248332266E+01  0.51100000000E-03 0. -1.
        -11    1    3    3    0    0  0.36109505096E+02 -0.98167775767E+01  0.98476470909E+01  0.38694206721E+02  0.51100000000E-03 0.  1.
         12    1    3    3    0    0 -0.38274694335E+02  0.70934026851E+01 -0.17029740774E+02  0.42488594457E+02  0.00000000000E+00 0. -1.
</event>
<event>
 7    1  0.2349719E-015  0.9000772E+02  0.7816164E-02  0.1186339E+00
        -11   -1    0    0    0    0  0.00000000000E+00  0.00000000000E+00  0.45593999997E+02  0.45594000000E+02  0.51100000000E-03 0.  1.
         11   -1    0    0    0    0 -0.00000000000E+00 -0.00000000000E+00 -0.45593999997E+02  0.45594000000E+02  0.51100000000E-03 0. -1.
    9900012    2    1    2    0    0 -0.10404040007E+01 -0.25285509839E+00 -0.49666211932E+00  0.90007724843E+02  0.89999986011E+02 0.  0.
        -12    1    1    2    0    0  0.10404040007E+01  0.25285509839E+00  0.49666211932E+00  0.11802751570E+01  0.00000000000E+00 0.  1.
         11    1    3    3    0    0  0.64939011442E+01  0.64444755328E+01 -0.88983443447E+01  0.12762544782E+02  0.51100000000E-03 0. -1.
        -11    1    3    3    0    0  0.22273498552E+02 -0.24991371923E+02  0.21626327077E+02  0.39854428003E+02  0.51100000000E-03 0.  1.
         12    1    3    3    0    0 -0.29807803697E+02  0.18294041292E+02 -0.13224644852E+02  0.37390752058E+02  0.00000000000E+00 0. -1.
</event>
<event>
 7    1  0.2349719E-015  0.9000773E+02  0.7816164E-02  0.1186339E+00
        -11   -1    0    0    0    0  0.00000000000E+00  0.00000000000E+00  0.45593999997E+02  0.45594000000E+02  0.51100000000E-03 0.  1.
         11   -1    0    0    0    0 -0.00000000000E+00 -0.00000000000E+00 -0.45593999997E+02  0.45594000000E+02  0.51100000000E-03 0. -1.
    9900012    2    1    2    0    0 -0.93477927582E+00  0.72055409310E+00 -0.52807555899E-02  0.90007729530E+02  0.89999990760E+02 0.  0.
        -12    1    1    2    0    0  0.93477927582E+00 -0.72055409310E+00  0.52807555899E-02  0.11802704698E+01  0.00000000000E+00 0.  1.
         11    1    3    3    0    0 -0.52858069803E+01  0.54164498644E+00  0.78842108096E+01  0.95075714605E+01  0.51100000000E-03 0. -1.
        -11    1    3    3    0    0  0.11857638865E+02 -0.34148008143E+02  0.14375664920E+02  0.38901796896E+02  0.51100000000E-03 0.  1.
         12    1    3    3    0    0 -0.75066111606E+01  0.34326917250E+02 -0.22265156485E+02  0.41598361173E+02  0.00000000000E+00 0. -1.
</event>
<event>
 7    1  0.2349719E-015  0.9000790E+02  0.7816164E-02  0.1186339E+00
        -11   -1    0    0    0    0  0.00000000000E+00  0.00000000000E+00  0.45593999997E+02  0.45594000000E+02  0.51100000000E-03 0. -1.
         11   -1    0    0    0    0 -0.00000000000E+00 -0.00000000000E+00 -0.45593999997E+02  0.45594000000E+02  0.51100000000E-03 0.  1.
    9900012    2    1    2    0    0  0.60565239214E+00 -0.99689005203E+00  0.17900502456E+00  0.90007895176E+02  0.90000158593E+02 0.  0.
        -12    1    1    2    0    0 -0.60565239214E+00  0.99689005203E+00 -0.17900502456E+00  0.11801048236E+01  0.00000000000E+00 0.  1.
         11    1    3    3    0    0 -0.52350489259E+01 -0.93533159769E+01  0.17790365012E+02  0.20769866262E+02  0.51100000000E-03 0. -1.
        -11    1    3    3    0    0  0.34661261986E+02 -0.20069376909E+01 -0.16872426073E+02  0.38601938335E+02  0.51100000000E-03 0.  1.
         12    1    3    3    0    0 -0.28820560668E+02  0.10363363616E+02 -0.73893391494E+00  0.30636090579E+02  0.00000000000E+00 0. -1.
</event>
<event>
 7    1  0.2349719E-015  0.9000776E+02  0.7816164E-02  0.1186339E+00
        -11   -1    0    0    0    0  0.00000000000E+00  0.00000000000E+00  0.45593999997E+02  0.45594000000E+02  0.51100000000E-03 0.  1.
         11   -1    0    0    0    0 -0.00000000000E+00 -0.00000000000E+00 -0.45593999997E+02  0.45594000000E+02  0.51100000000E-03 0. -1.
    9900012    2    1    2    0    0 -0.64283402988E+00 -0.55747598361E+00 -0.81788851230E+00  0.90007764142E+02  0.90000025829E+02 0.  0.
        -12    1    1    2    0    0  0.64283402988E+00  0.55747598361E+00  0.81788851230E+00  0.11802358581E+01  0.00000000000E+00 0.  1.
         11    1    3    3    0    0 -0.34083959533E+01 -0.82963922552E+01  0.10084156653E+01  0.90257514835E+01  0.51100000000E-03 0. -1.
        -11    1    3    3    0    0 -0.38764288258E+02  0.54535797785E+01 -0.38855045840E+01  0.39338387393E+02  0.51100000000E-03 0.  1.
         12    1    3    3    0    0  0.41529850181E+02  0.22853364931E+01  0.20592004063E+01  0.41643625266E+02  0.00000000000E+00 0. -1.
</event>
<event>
 7    1  0.2349719E-015  0.9000861E+02  0.7816164E-02  0.1186337E+00
        -11   -1    0    0    0    0  0.00000000000E+00  0.00000000000E+00  0.45593999997E+02  0.45594000000E+02  0.51100000000E-03 0. -1.
         11   -1    0    0    0    0 -0.00000000000E+00 -0.00000000000E+00 -0.45593999997E+02  0.45594000000E+02  0.51100000000E-03 0.  1.
    9900012    2    1    2    0    0  0.65337657906E+00  0.61748344546E+00  0.76339671175E+00  0.90008609777E+02  0.90000882621E+02 0.  0.
        -12    1    1    2    0    0 -0.65337657906E+00 -0.61748344546E+00 -0.76339671175E+00  0.11793902234E+01  0.00000000000E+00 0.  1.
         11    1    3    3    0    0  0.16406470333E+02 -0.12199297623E+02  0.29317807698E+02  0.35742537400E+02  0.51100000000E-03 0. -1.
        -11    1    3    3    0    0  0.38911683046E+00 -0.22786353389E+01  0.97624100728E+01  0.10032359723E+02  0.51100000000E-03 0.  1.
        -12    1    3    3    0    0 -0.16142210584E+02  0.15095416407E+02 -0.38316821059E+02  0.44233712654E+02  0.00000000000E+00 0.  1.
</event>
<event>
 7    1  0.2349719E-015  0.9000773E+02  0.7816164E-02  0.1186339E+00
        -11   -1    0    0    0    0  0.00000000000E+00  0.00000000000E+00  0.45593999997E+02  0.45594000000E+02  0.51100000000E-03 0.  1.
         11   -1    0    0    0    0 -0.00000000000E+00 -0.00000000000E+00 -0.45593999997E+02  0.45594000000E+02  0.51100000000E-03 0. -1.
    9900012    2    1    2    0    0 -0.43826175135E-01  0.91796607163E+00 -0.74058186336E+00  0.90007727176E+02  0.89999988375E+02 0.  0.
        -12    1    1    2    0    0  0.43826175135E-01 -0.91796607163E+00  0.74058186336E+00  0.11802728238E+01  0.00000000000E+00 0.  1.
         11    1    3    3    0    0 -0.30083956683E+01 -0.85073497791E+01 -0.18395060155E+00  0.90254796463E+01  0.51100000000E-03 0. -1.
        -11    1    3    3    0    0 -0.36352972969E+02  0.16426971418E+02 -0.70839085621E+01  0.40516241119E+02  0.51100000000E-03 0.  1.
         12    1    3    3    0    0  0.39317542462E+02 -0.70016555671E+01  0.65272773003E+01  0.40466006411E+02  0.00000000000E+00 0. -1.
</event>
<event>
 7    1  0.2349719E-015  0.9000776E+02  0.7816164E-02  0.1186339E+00
        -11   -1    0    0    0    0  0.00000000000E+00  0.00000000000E+00  0.45593999997E+02  0.45594000000E+02  0.51100000000E-03 0.  1.
         11   -1    0    0    0    0 -0.00000000000E+00 -0.00000000000E+00 -0.45593999997E+02  0.45594000000E+02  0.51100000000E-03 0. -1.
    9900012    2    1    2    0    0  0.11443593564E+01  0.22197399053E+00  0.18477370363E+00  0.90007757605E+02  0.90000019206E+02 0.  0.
        -12    1    1    2    0    0 -0.11443593564E+01 -0.22197399053E+00 -0.18477370363E+00  0.11802423949E+01  0.00000000000E+00 0.  1.
         11    1    3    3    0    0 -0.70388860819E+01  0.54569444431E+01 -0.37164696220E+01  0.96507153435E+01  0.51100000000E-03 0. -1.
        -11    1    3    3    0    0 -0.25502878828E+00 -0.41260204141E+02  0.10954658723E+02  0.42690444287E+02  0.51100000000E-03 0.  1.
         12    1    3    3    0    0  0.84382742266E+01  0.36025233688E+02 -0.70534153970E+01  0.37666597975E+02  0.00000000000E+00 0. -1.
</event>
<event>
 7    1  0.2349719E-015  0.9000783E+02  0.7816164E-02  0.1186339E+00
        -11   -1    0    0    0    0  0.00000000000E+00  0.00000000000E+00  0.45593999997E+02  0.45594000000E+02  0.51100000000E-03 0. -1.
         11   -1    0    0    0    0 -0.00000000000E+00 -0.00000000000E+00 -0.45593999997E+02  0.45594000000E+02  0.51100000000E-03 0.  1.
    9900012    2    1    2    0    0  0.75681592682E+00  0.25432588796E+00  0.86910830241E+00  0.90007829993E+02  0.90000092549E+02 0.  0.
        -12    1    1    2    0    0 -0.75681592682E+00 -0.25432588796E+00 -0.86910830241E+00  0.11801700071E+01  0.00000000000E+00 0.  1.
         11    1    3    3    0    0  0.43967171478E+01 -0.39058771654E+02  0.45112681125E+01  0.39563497129E+02  0.51100000000E-03 0. -1.
        -11    1    3    3    0    0 -0.71421893359E+01 -0.73733754422E+00  0.57027269950E+01  0.91692764493E+01  0.51100000000E-03 0.  1.
        -12    1    3    3    0    0  0.35022881149E+01  0.40050435086E+02 -0.93448868051E+01  0.41275056415E+02  0.00000000000E+00 0.  1.
</event>
<event>
 7    1  0.2349719E-015  0.9000759E+02  0.7816164E-02  0.1186339E+00
        -11   -1    0    0    0    0  0.00000000000E+00  0.00000000000E+00  0.45593999997E+02  0.45594000000E+02  0.51100000000E-03 0. -1.
         11   -1    0    0    0    0 -0.00000000000E+00 -0.00000000000E+00 -0.45593999997E+02  0.45594000000E+02  0.51100000000E-03 0.  1.
    9900012    2    1    2    0    0  0.92306585727E+00  0.58143324383E+00 -0.45084599641E+00  0.90007585960E+02  0.89999845294E+02 0.  0.
        -12    1    1    2    0    0 -0.92306585727E+00 -0.58143324383E+00  0.45084599641E+00  0.11804140402E+01  0.00000000000E+00 0.  1.
         11    1    3    3    0    0  0.36431430857E+01 -0.37610853273E+02  0.54894555432E+01  0.38183542239E+02  0.51100000000E-03 0. -1.
        -11    1    3    3    0    0  0.88910562416E+01 -0.90821192045E+00 -0.64684863967E+01  0.11032544879E+02  0.51100000000E-03 0.  1.
        -12    1    3    3    0    0 -0.11611133470E+02  0.39100498438E+02  0.52818485705E+00  0.40791498842E+02  0.00000000000E+00 0.  1.
</event>
<event>
 7    1  0.2349719E-015  0.9000779E+02  0.7816164E-02  0.1186339E+00
        -11   -1    0    0    0    0  0.00000000000E+00  0.00000000000E+00  0.45593999997E+02  0.45594000000E+02  0.51100000000E-03 0.  1.
         11   -1    0    0    0    0 -0.00000000000E+00 -0.00000000000E+00 -0.45593999997E+02  0.45594000000E+02  0.51100000000E-03 0. -1.
    9900012    2    1    2    0    0  0.74749017825E+00  0.76244964618E+00 -0.50281939510E+00  0.90007788844E+02  0.90000050856E+02 0.  0.
        -12    1    1    2    0    0 -0.74749017825E+00 -0.76244964618E+00  0.50281939510E+00  0.11802111564E+01  0.00000000000E+00 0.  1.
         11    1    3    3    0    0  0.23726632485E+02  0.22588953732E+02 -0.24268600239E+02  0.40769828030E+02  0.51100000000E-03 0. -1.
        -11    1    3    3    0    0  0.32306283717E+01  0.36637921157E+01  0.81068365511E+01  0.94647309244E+01  0.51100000000E-03 0.  1.
        -12    1    3    3    0    0 -0.26209770678E+02 -0.25490296201E+02  0.15658944293E+02  0.39773229889E+02  0.00000000000E+00 0.  1.
</event>
<event>
 7    1  0.2349719E-015  0.9000770E+02  0.7816164E-02  0.1186339E+00
        -11   -1    0    0    0    0  0.00000000000E+00  0.00000000000E+00  0.45593999997E+02  0.45594000000E+02  0.51100000000E-03 0.  1.
         11   -1    0    0    0    0 -0.00000000000E+00 -0.00000000000E+00 -0.45593999997E+02  0.45594000000E+02  0.51100000000E-03 0. -1.
    9900012    2    1    2    0    0 -0.91755782948E+00  0.73765181208E+00  0.84013098728E-01  0.90007703102E+02  0.89999963983E+02 0.  0.
        -12    1    1    2    0    0  0.91755782948E+00 -0.73765181208E+00 -0.84013098728E-01  0.11802968978E+01  0.00000000000E+00 0.  1.
         11    1    3    3    0    0  0.10404347669E+02 -0.77346159629E+01 -0.33710917617E+02  0.36117872326E+02  0.51100000000E-03 0. -1.
        -11    1    3    3    0    0  0.78338527554E+01 -0.10241712538E+02  0.33088539174E+01  0.13312041137E+02  0.51100000000E-03 0.  1.
        -12    1    3    3    0    0 -0.19155758254E+02  0.18713980314E+02  0.30486076798E+02  0.40577789639E+02  0.00000000000E+00 0.  1.
</event>
<event>
 7    1  0.2349719E-015  0.9000774E+02  0.7816164E-02  0.1186339E+00
        -11   -1    0    0    0    0  0.00000000000E+00  0.00000000000E+00  0.45593999997E+02  0.45594000000E+02  0.51100000000E-03 0.  1.
         11   -1    0    0    0    0 -0.00000000000E+00 -0.00000000000E+00 -0.45593999997E+02  0.45594000000E+02  0.51100000000E-03 0. -1.
    9900012    2    1    2    0    0  0.64403412082E+00 -0.67991117625E+00 -0.71830605897E+00  0.90007736152E+02  0.89999997469E+02 0.  0.
        -12    1    1    2    0    0 -0.64403412082E+00  0.67991117625E+00  0.71830605897E+00  0.11802638479E+01  0.00000000000E+00 0.  1.
         11    1    3    3    0    0 -0.22953115686E+02  0.33495356235E+02 -0.50648715795E+00  0.40608385076E+02  0.51100000000E-03 0. -1.
        -11    1    3    3    0    0  0.15058921261E+01 -0.48227692757E+01 -0.10153513823E+02  0.11341104787E+02  0.51100000000E-03 0.  1.
        -12    1    3    3    0    0  0.22091257680E+02 -0.29352498135E+02  0.99416949219E+01  0.38058246289E+02  0.00000000000E+00 0.  1.
</event>
<event>
 7    1  0.2349719E-015  0.9000772E+02  0.7816164E-02  0.1186339E+00
        -11   -1    0    0    0    0  0.00000000000E+00  0.00000000000E+00  0.45593999997E+02  0.45594000000E+02  0.51100000000E-03 0. -1.
         11   -1    0    0    0    0 -0.00000000000E+00 -0.00000000000E+00 -0.45593999997E+02  0.45594000000E+02  0.51100000000E-03 0.  1.
    9900012    2    1    2    0    0  0.11758156477E+01  0.99546255868E-01 -0.24595892939E-01  0.90007721706E+02  0.89999982832E+02 0.  0.
        -12    1    1    2    0    0 -0.11758156477E+01 -0.99546255868E-01  0.24595892939E-01  0.11802782944E+01  0.00000000000E+00 0.  1.
         11    1    3    3    0    0  0.61170765853E+01 -0.75612401546E+01 -0.11586060361E+02  0.15127054359E+02  0.51100000000E-03 0. -1.
        -11    1    3    3    0    0 -0.28971292596E+02  0.28294075571E+01 -0.19705278548E+02  0.35151662048E+02  0.51100000000E-03 0.  1.
         12    1    3    3    0    0  0.24030031658E+02  0.48313788533E+01  0.31266743017E+02  0.39729005298E+02  0.00000000000E+00 0. -1.
</event>
<event>
 7    1  0.2349719E-015  0.9000768E+02  0.7816164E-02  0.1186339E+00
        -11   -1    0    0    0    0  0.00000000000E+00  0.00000000000E+00  0.45593999997E+02  0.45594000000E+02  0.51100000000E-03 0.  1.
         11   -1    0    0    0    0 -0.00000000000E+00 -0.00000000000E+00 -0.45593999997E+02  0.45594000000E+02  0.51100000000E-03 0. -1.
    9900012    2    1    2    0    0  0.10273374555E+01  0.38010379121E+00 -0.43961921488E+00  0.90007675386E+02  0.89999935901E+02 0.  0.
        -12    1    1    2    0    0 -0.10273374555E+01 -0.38010379121E+00  0.43961921488E+00  0.11803246137E+01  0.00000000000E+00 0.  1.
         11    1    3    3    0    0 -0.23070992711E+02 -0.77157684000E+01 -0.27184557522E+02  0.36480185780E+02  0.51100000000E-03 0. -1.
        -11    1    3    3    0    0 -0.10710720472E+02  0.32203323663E+01  0.73408812089E+01  0.13378288783E+02  0.51100000000E-03 0.  1.
        -12    1    3    3    0    0  0.34809050638E+02  0.48755398250E+01  0.19404057098E+02  0.40149200823E+02  0.00000000000E+00 0.  1.
</event>
<event>
 7    1  0.2349719E-015  0.9000769E+02  0.7816164E-02  0.1186339E+00
        -11   -1    0    0    0    0  0.00000000000E+00  0.00000000000E+00  0.45593999997E+02  0.45594000000E+02  0.51100000000E-03 0. -1.
         11   -1    0    0    0    0 -0.00000000000E+00 -0.00000000000E+00 -0.45593999997E+02  0.45594000000E+02  0.51100000000E-03 0.  1.
    9900012    2    1    2    0    0  0.66153091017E+00 -0.97502565508E+00  0.69490851938E-01  0.90007691925E+02  0.89999952658E+02 0.  0.
        -12    1    1    2    0    0 -0.66153091017E+00  0.97502565508E+00 -0.69490851938E-01  0.11803080749E+01  0.00000000000E+00 0.  1.
         11    1    3    3    0    0 -0.49113100840E+01 -0.56379912081E+01 -0.36358255185E+01  0.83142732133E+01  0.51100000000E-03 0. -1.
        -11    1    3    3    0    0  0.19284687556E+02 -0.84178810520E+01 -0.33718298822E+02  0.39745233315E+02  0.51100000000E-03 0.  1.
         12    1    3    3    0    0 -0.13711846561E+02  0.13080846605E+02  0.37423615192E+02  0.41948185397E+02  0.00000000000E+00 0. -1.
</event>
<event>
 7    1  0.2349719E-015  0.9000763E+02  0.7816164E-02  0.1186339E+00
        -11   -1    0    0    0    0  0.00000000000E+00  0.00000000000E+00  0.45593999997E+02  0.45594000000E+02  0.51100000000E-03 0.  1.
         11   -1    0    0    0    0 -0.00000000000E+00 -0.00000000000E+00 -0.45593999997E+02  0.45594000000E+02  0.51100000000E-03 0. -1.
    9900012    2    1    2    0    0  0.10490952486E+01 -0.38686441885E+00  0.37815830921E+00  0.90007631995E+02  0.89999891938E+02 0.  0.
        -12    1    1    2    0    0 -0.10490952486E+01  0.38686441885E+00 -0.37815830921E+00  0.11803680045E+01  0.00000000000E+00 0.  1.
         11    1    3    3    0    0  0.11765038612E+02  0.73020219527E+00  0.26420783782E+01  0.12080145165E+02  0.51100000000E-03 0. -1.
        -11    1    3    3    0    0  0.26231808903E+02  0.21152111751E+02 -0.73471053510E+01  0.34489122737E+02  0.51100000000E-03 0.  1.
         12    1    3    3    0    0 -0.36947752266E+02 -0.22269178365E+02  0.50831852821E+01  0.43438364094E+02  0.00000000000E+00 0. -1.
</event>
<event>
 7    1  0.2717080E-015  0.9000783E+02  0.7816164E-02  0.1186339E+00
        -11   -1    0    0    0    0  0.00000000000E+00  0.00000000000E+00  0.45593999997E+02  0.45594000000E+02  0.51100000000E-03 0.  1.
         11   -1    0    0    0    0 -0.00000000000E+00 -0.00000000000E+00 -0.45593999997E+02  0.45594000000E+02  0.51100000000E-03 0. -1.
    9900012    2    1    2    0    0 -0.50107178155E+00 -0.64159707564E+00 -0.85445106142E+00  0.90007827829E+02  0.90000090356E+02 0.  0.
        -12    1    1    2    0    0  0.50107178155E+00  0.64159707564E+00  0.85445106142E+00  0.11801721714E+01  0.00000000000E+00 0.  1.
         11    1    3    3    0    0 -0.10047290873E+02 -0.10364797051E+01 -0.36723630378E+02  0.38087364998E+02  0.51100000000E-03 0. -1.
        -11    1    3    3    0    0  0.36850290551E+01  0.74682994932E+01 -0.52121889002E+01  0.98245534173E+01  0.51100000000E-03 0.  1.
        -12    1    3    3    0    0  0.58611900362E+01 -0.70734168637E+01  0.41081368217E+02  0.42095909413E+02  0.00000000000E+00 0.  1.
</event>
<event>
 7    1  0.2349719E-015  0.9000771E+02  0.7816164E-02  0.1186339E+00
        -11   -1    0    0    0    0  0.00000000000E+00  0.00000000000E+00  0.45593999997E+02  0.45594000000E+02  0.51100000000E-03 0.  1.
         11   -1    0    0    0    0 -0.00000000000E+00 -0.00000000000E+00 -0.45593999997E+02  0.45594000000E+02  0.51100000000E-03 0. -1.
    9900012    2    1    2    0    0 -0.42025343037E+00  0.90190878106E+00  0.63485626744E+00  0.90007705598E+02  0.89999966512E+02 0.  0.
        -12    1    1    2    0    0  0.42025343037E+00 -0.90190878106E+00 -0.63485626744E+00  0.11802944020E+01  0.00000000000E+00 0.  1.
         11    1    3    3    0    0  0.60900151592E+01  0.25508610146E+02 -0.22778919815E+02  0.34736963949E+02  0.51100000000E-03 0. -1.
        -11    1    3    3    0    0 -0.58928637275E+01  0.11094185045E+02 -0.18913029960E-01  0.12562131296E+02  0.51100000000E-03 0.  1.
        -12    1    3    3    0    0 -0.61740486202E+00 -0.35700886410E+02  0.23432689113E+02  0.42708610353E+02  0.00000000000E+00 0.  1.
</event>
<event>
 7    1  0.3246944E-015  0.9000753E+02  0.7816164E-02  0.1186339E+00
        -11   -1    0    0    0    0  0.00000000000E+00  0.00000000000E+00  0.45593999997E+02  0.45594000000E+02  0.51100000000E-03 0. -1.
         11   -1    0    0    0    0 -0.00000000000E+00 -0.00000000000E+00 -0.45593999997E+02  0.45594000000E+02  0.51100000000E-03 0.  1.
    9900012    2    1    2    0    0 -0.31379110865E+00  0.37143125208E+00  0.10756835328E+01  0.90007525054E+02  0.89999783585E+02 0.  0.
        -12    1    1    2    0    0  0.31379110865E+00 -0.37143125208E+00 -0.10756835328E+01  0.11804749458E+01  0.00000000000E+00 0.  1.
         11    1    3    3    0    0 -0.19933093267E+02 -0.23214917474E+02  0.23329342468E+02  0.38477510585E+02  0.51100000000E-03 0. -1.
        -11    1    3    3    0    0  0.54679682200E+01 -0.41619003612E+00  0.84465633657E+01  0.10070567191E+02  0.51100000000E-03 0.  1.
        -12    1    3    3    0    0  0.14151333938E+02  0.24002538762E+02 -0.30700222301E+02  0.41459447278E+02  0.00000000000E+00 0.  1.
</event>
<event>
 7    1  0.2349719E-015  0.9000779E+02  0.7816164E-02  0.1186339E+00
        -11   -1    0    0    0    0  0.00000000000E+00  0.00000000000E+00  0.45593999997E+02  0.45594000000E+02  0.51100000000E-03 0.  1.
         11   -1    0    0    0    0 -0.00000000000E+00 -0.00000000000E+00 -0.45593999997E+02  0.45594000000E+02  0.51100000000E-03 0. -1.
    9900012    2    1    2    0    0 -0.74224132644E+00  0.20497096822E+00  0.89440527554E+00  0.90007789815E+02  0.90000051840E+02 0.  0.
        -12    1    1    2    0    0  0.74224132644E+00 -0.20497096822E+00 -0.89440527554E+00  0.11802101853E+01  0.00000000000E+00 0.  1.
         11    1    3    3    0    0 -0.55839462721E+01  0.54490962116E+01  0.64765672646E+01  0.10139971858E+02  0.51100000000E-03 0. -1.
        -11    1    3    3    0    0 -0.31508109470E+02  0.14890404357E+02  0.87162261795E+01  0.35922941185E+02  0.51100000000E-03 0.  1.
         12    1    3    3    0    0  0.36349814416E+02 -0.20134529600E+02 -0.14298388169E+02  0.43944876772E+02  0.00000000000E+00 0. -1.
</event>
<event>
 7    1  0.2349719E-015  0.9000681E+02  0.7816164E-02  0.1186341E+00
        -11   -1    0    0    0    0  0.00000000000E+00  0.00000000000E+00  0.45593999997E+02  0.45594000000E+02  0.51100000000E-03 0.  1.
         11   -1    0    0    0    0 -0.00000000000E+00 -0.00000000000E+00 -0.45593999997E+02  0.45594000000E+02  0.51100000000E-03 0. -1.
    9900012    2    1    2    0    0 -0.56235969776E-01 -0.88878303824E+00 -0.77595938840E+00  0.90006809606E+02  0.89999058688E+02 0.  0.
        -12    1    1    2    0    0  0.56235969776E-01  0.88878303824E+00  0.77595938840E+00  0.11811903935E+01  0.00000000000E+00 0.  1.
         11    1    3    3    0    0  0.80551224349E+01  0.61889332533E+01 -0.35056256087E+02  0.36498342200E+02  0.51100000000E-03 0. -1.
        -11    1    3    3    0    0  0.13629630659E+02 -0.98080101362E+00  0.15602461306E+01  0.13753660269E+02  0.51100000000E-03 0.  1.
        -12    1    3    3    0    0 -0.21740989064E+02 -0.60969152779E+01  0.32720050568E+02  0.39754807138E+02  0.00000000000E+00 0.  1.
</event>
<event>
 7    1  0.2349719E-015  0.9000778E+02  0.7816164E-02  0.1186339E+00
        -11   -1    0    0    0    0  0.00000000000E+00  0.00000000000E+00  0.45593999997E+02  0.45594000000E+02  0.51100000000E-03 0.  1.
         11   -1    0    0    0    0 -0.00000000000E+00 -0.00000000000E+00 -0.45593999997E+02  0.45594000000E+02  0.51100000000E-03 0. -1.
    9900012    2    1    2    0    0  0.68680209369E+00 -0.95894079306E+00  0.40590893566E-01  0.90007782994E+02  0.90000044930E+02 0.  0.
        -12    1    1    2    0    0 -0.68680209369E+00  0.95894079306E+00 -0.40590893566E-01  0.11802170060E+01  0.00000000000E+00 0.  1.
         11    1    3    3    0    0  0.47572620385E+01 -0.12161881813E+02  0.75567279098E+01  0.15087976945E+02  0.51100000000E-03 0. -1.
        -11    1    3    3    0    0 -0.80562784957E+01 -0.12927561778E+02  0.27954157795E+02  0.31834893042E+02  0.51100000000E-03 0.  1.
         12    1    3    3    0    0  0.39858185509E+01  0.24130502797E+02 -0.35470294811E+02  0.43084913007E+02  0.00000000000E+00 0. -1.
</event>
<event>
 7    1  0.2349719E-015  0.9000776E+02  0.7816164E-02  0.1186339E+00
        -11   -1    0    0    0    0  0.00000000000E+00  0.00000000000E+00  0.45593999997E+02  0.45594000000E+02  0.51100000000E-03 0.  1.
         11   -1    0    0    0    0 -0.00000000000E+00 -0.00000000000E+00 -0.45593999997E+02  0.45594000000E+02  0.51100000000E-03 0. -1.
    9900012    2    1    2    0    0  0.36765784998E+00  0.24564922882E+00 -0.10942860885E+01  0.90007755160E+02  0.90000016728E+02 0.  0.
        -12    1    1    2    0    0 -0.36765784998E+00 -0.24564922882E+00  0.10942860885E+01  0.11802448397E+01  0.00000000000E+00 0.  1.
         11    1    3    3    0    0  0.96686181208E+01 -0.33118763943E+02  0.71681157165E+00  0.34508673121E+02  0.51100000000E-03 0. -1.
        -11    1    3    3    0    0  0.14679468693E+02  0.11426242064E+01 -0.40501458618E+01  0.15270758755E+02  0.51100000000E-03 0.  1.
        -12    1    3    3    0    0 -0.23980428964E+02  0.32221788966E+02  0.22390482017E+01  0.40228323284E+02  0.00000000000E+00 0.  1.
</event>
<event>
 7    1  0.2349719E-015  0.9000790E+02  0.7816164E-02  0.1186339E+00
        -11   -1    0    0    0    0  0.00000000000E+00  0.00000000000E+00  0.45593999997E+02  0.45594000000E+02  0.51100000000E-03 0.  1.
         11   -1    0    0    0    0 -0.00000000000E+00 -0.00000000000E+00 -0.45593999997E+02  0.45594000000E+02  0.51100000000E-03 0. -1.
    9900012    2    1    2    0    0 -0.87551991214E+00 -0.28698610373E+00 -0.73738261556E+00  0.90007902859E+02  0.90000166377E+02 0.  0.
        -12    1    1    2    0    0  0.87551991214E+00  0.28698610373E+00  0.73738261556E+00  0.11800971409E+01  0.00000000000E+00 0.  1.
         11    1    3    3    0    0 -0.14079179801E+02  0.65628753422E+01 -0.37082747853E+02  0.40204786099E+02  0.51100000000E-03 0. -1.
        -11    1    3    3    0    0  0.46619213172E+01 -0.54124218955E+01 -0.42378338919E+01  0.83058447794E+01  0.51100000000E-03 0.  1.
        -12    1    3    3    0    0  0.85417385721E+01 -0.14374395504E+01  0.40583199129E+02  0.41497271981E+02  0.00000000000E+00 0.  1.
</event>
<event>
 7    1  0.2349719E-015  0.9000775E+02  0.7816164E-02  0.1186339E+00
        -11   -1    0    0    0    0  0.00000000000E+00  0.00000000000E+00  0.45593999997E+02  0.45594000000E+02  0.51100000000E-03 0.  1.
         11   -1    0    0    0    0 -0.00000000000E+00 -0.00000000000E+00 -0.45593999997E+02  0.45594000000E+02  0.51100000000E-03 0. -1.
    9900012    2    1    2    0    0 -0.10938609380E+00 -0.60770910459E+00 -0.10058417026E+01  0.90007748669E+02  0.90000010152E+02 0.  0.
        -12    1    1    2    0    0  0.10938609380E+00  0.60770910459E+00  0.10058417026E+01  0.11802513309E+01  0.00000000000E+00 0.  1.
         11    1    3    3    0    0 -0.71183201050E+01 -0.12390669282E+01  0.64168875661E+01  0.96634473283E+01  0.51100000000E-03 0. -1.
        -11    1    3    3    0    0 -0.14878467999E+02 -0.18190192502E+02  0.26752927738E+02  0.35608581214E+02  0.51100000000E-03 0.  1.
         12    1    3    3    0    0  0.21887402010E+02  0.18821550326E+02 -0.34175657007E+02  0.44735720127E+02  0.00000000000E+00 0. -1.
</event>
<event>
 7    1  0.2349719E-015  0.9000776E+02  0.7816164E-02  0.1186339E+00
        -11   -1    0    0    0    0  0.00000000000E+00  0.00000000000E+00  0.45593999997E+02  0.45594000000E+02  0.51100000000E-03 0. -1.
         11   -1    0    0    0    0 -0.00000000000E+00 -0.00000000000E+00 -0.45593999997E+02  0.45594000000E+02  0.51100000000E-03 0.  1.
    9900012    2    1    2    0    0 -0.39530642706E+00 -0.11016062724E+01 -0.15219960693E+00  0.90007759232E+02  0.90000020854E+02 0.  0.
        -12    1    1    2    0    0  0.39530642706E+00  0.11016062724E+01  0.15219960693E+00  0.11802407683E+01  0.00000000000E+00 0.  1.
         11    1    3    3    0    0  0.27110039019E+02  0.18145465432E+02 -0.18672552826E+02  0.37588247640E+02  0.51100000000E-03 0. -1.
        -11    1    3    3    0    0  0.24368223741E+01 -0.22360580196E+01 -0.81935094838E+01  0.88358166952E+01  0.51100000000E-03 0.  1.
        -12    1    3    3    0    0 -0.29942167820E+02 -0.17011013685E+02  0.26713862703E+02  0.43583694897E+02  0.00000000000E+00 0.  1.
</event>
<event>
 7    1  0.2349719E-015  0.9000770E+02  0.7816164E-02  0.1186339E+00
        -11   -1    0    0    0    0  0.00000000000E+00  0.00000000000E+00  0.45593999997E+02  0.45594000000E+02  0.51100000000E-03 0.  1.
         11   -1    0    0    0    0 -0.00000000000E+00 -0.00000000000E+00 -0.45593999997E+02  0.45594000000E+02  0.51100000000E-03 0. -1.
    9900012    2    1    2    0    0  0.41291766738E+00 -0.82212006901E+00 -0.73940501379E+00  0.90007702503E+02  0.89999963376E+02 0.  0.
        -12    1    1    2    0    0 -0.41291766738E+00  0.82212006901E+00  0.73940501379E+00  0.11802974974E+01  0.00000000000E+00 0.  1.
         11    1    3    3    0    0  0.12415709764E+02 -0.61138963785E+01 -0.36845326593E+02  0.39358705135E+02  0.51100000000E-03 0. -1.
        -11    1    3    3    0    0  0.99872771821E+01  0.16753415921E+01  0.26804188781E+01  0.10475548701E+02  0.51100000000E-03 0.  1.
        -12    1    3    3    0    0 -0.21990069278E+02  0.36164347173E+01  0.33425502702E+02  0.40173448667E+02  0.00000000000E+00 0.  1.
</event>
<event>
 7    1  0.2349719E-015  0.9000779E+02  0.7816164E-02  0.1186339E+00
        -11   -1    0    0    0    0  0.00000000000E+00  0.00000000000E+00  0.45593999997E+02  0.45594000000E+02  0.51100000000E-03 0.  1.
         11   -1    0    0    0    0 -0.00000000000E+00 -0.00000000000E+00 -0.45593999997E+02  0.45594000000E+02  0.51100000000E-03 0. -1.
    9900012    2    1    2    0    0 -0.60745852649E+00  0.64161548113E+00 -0.78243884813E+00  0.90007793731E+02  0.90000055808E+02 0.  0.
        -12    1    1    2    0    0  0.60745852649E+00 -0.64161548113E+00  0.78243884813E+00  0.11802062693E+01  0.00000000000E+00 0.  1.
         11    1    3    3    0    0 -0.61694356513E+01  0.35891910879E+00  0.54187474984E+01  0.82190987276E+01  0.51100000000E-03 0. -1.
        -11    1    3    3    0    0 -0.25080204356E+02  0.19635339671E+02  0.19510503895E+02  0.37352683665E+02  0.51100000000E-03 0.  1.
         12    1    3    3    0    0  0.30642181481E+02 -0.19352643298E+02 -0.25711690241E+02  0.44436011338E+02  0.00000000000E+00 0. -1.
</event>
<event>
 7    1  0.2349719E-015  0.9000771E+02  0.7816164E-02  0.1186339E+00
        -11   -1    0    0    0    0  0.00000000000E+00  0.00000000000E+00  0.45593999997E+02  0.45594000000E+02  0.51100000000E-03 0. -1.
         11   -1    0    0    0    0 -0.00000000000E+00 -0.00000000000E+00 -0.45593999997E+02  0.45594000000E+02  0.51100000000E-03 0.  1.
    9900012    2    1    2    0    0 -0.10539765925E+01 -0.20756931862E+00  0.48901034645E+00  0.90007710714E+02  0.89999971695E+02 0.  0.
        -12    1    1    2    0    0  0.10539765925E+01  0.20756931862E+00 -0.48901034645E+00  0.11802892859E+01  0.00000000000E+00 0.  1.
         11    1    3    3    0    0 -0.20393708529E+02 -0.11742008816E+02  0.95554028727E+01  0.25398500801E+02  0.51100000000E-03 0. -1.
        -11    1    3    3    0    0 -0.18442981187E+02 -0.21439618880E+01 -0.15156431137E+02  0.23967843723E+02  0.51100000000E-03 0.  1.
         12    1    3    3    0    0  0.37782713124E+02  0.13678401386E+02  0.60900386112E+01  0.40641366190E+02  0.00000000000E+00 0. -1.
</event>
<event>
 7    1  0.2349719E-015  0.9000752E+02  0.7816164E-02  0.1186339E+00
        -11   -1    0    0    0    0  0.00000000000E+00  0.00000000000E+00  0.45593999997E+02  0.45594000000E+02  0.51100000000E-03 0.  1.
         11   -1    0    0    0    0 -0.00000000000E+00 -0.00000000000E+00 -0.45593999997E+02  0.45594000000E+02  0.51100000000E-03 0. -1.
    9900012    2    1    2    0    0  0.65004182375E+00  0.27919292910E+00 -0.94500480760E+00  0.90007518255E+02  0.89999776696E+02 0.  0.
        -12    1    1    2    0    0 -0.65004182375E+00 -0.27919292910E+00  0.94500480760E+00  0.11804817452E+01  0.00000000000E+00 0.  1.
         11    1    3    3    0    0  0.53511735560E+01 -0.18221006032E+02 -0.25269734499E+02  0.31610118651E+02  0.51100000000E-03 0. -1.
        -11    1    3    3    0    0 -0.10183822268E+02  0.67104090256E+01 -0.13622623129E+02  0.18284301640E+02  0.51100000000E-03 0.  1.
        -12    1    3    3    0    0  0.54826905362E+01  0.11789789936E+02  0.37947352820E+02  0.40113097964E+02  0.00000000000E+00 0.  1.
</event>
<event>
 7    1  0.2349719E-015  0.9000778E+02  0.7816164E-02  0.1186339E+00
        -11   -1    0    0    0    0  0.00000000000E+00  0.00000000000E+00  0.45593999997E+02  0.45594000000E+02  0.51100000000E-03 0. -1.
         11   -1    0    0    0    0 -0.00000000000E+00 -0.00000000000E+00 -0.45593999997E+02  0.45594000000E+02  0.51100000000E-03 0.  1.
    9900012    2    1    2    0    0 -0.94612663292E+00 -0.65610380023E+00 -0.25942525113E+00  0.90007775757E+02  0.90000037597E+02 0.  0.
        -12    1    1    2    0    0  0.94612663292E+00  0.65610380023E+00  0.25942525113E+00  0.11802242427E+01  0.00000000000E+00 0.  1.
         11    1    3    3    0    0  0.57178992685E+01  0.38201808942E+01 -0.74217966290E+01  0.10117866355E+02  0.51100000000E-03 0. -1.
        -11    1    3    3    0    0 -0.19843545568E+02  0.28998047604E+02 -0.14370475507E+02  0.37962661026E+02  0.51100000000E-03 0.  1.
         12    1    3    3    0    0  0.13179519667E+02 -0.33474332299E+02  0.21532846885E+02  0.41927248377E+02  0.00000000000E+00 0. -1.
</event>
<event>
 7    1  0.2349719E-015  0.9000777E+02  0.7816164E-02  0.1186339E+00
        -11   -1    0    0    0    0  0.00000000000E+00  0.00000000000E+00  0.45593999997E+02  0.45594000000E+02  0.51100000000E-03 0.  1.
         11   -1    0    0    0    0 -0.00000000000E+00 -0.00000000000E+00 -0.45593999997E+02  0.45594000000E+02  0.51100000000E-03 0. -1.
    9900012    2    1    2    0    0 -0.86228834381E+00  0.72915389498E+00 -0.34313886357E+00  0.90007766604E+02  0.90000028323E+02 0.  0.
        -12    1    1    2    0    0  0.86228834381E+00 -0.72915389498E+00  0.34313886357E+00  0.11802333965E+01  0.00000000000E+00 0.  1.
         11    1    3    3    0    0 -0.31161951381E+01 -0.62154657754E+01 -0.52516983371E+01  0.87133818136E+01  0.51100000000E-03 0. -1.
        -11    1    3    3    0    0  0.32599142793E+02 -0.15609501592E+02  0.19136364455E+02  0.40896957046E+02  0.51100000000E-03 0.  1.
         12    1    3    3    0    0 -0.30345235999E+02  0.22554121262E+02 -0.14227804982E+02  0.40397427744E+02  0.00000000000E+00 0. -1.
</event>
<event>
 7    1  0.2349719E-015  0.9000771E+02  0.7816164E-02  0.1186339E+00
        -11   -1    0    0    0    0  0.00000000000E+00  0.00000000000E+00  0.45593999997E+02  0.45594000000E+02  0.51100000000E-03 0. -1.
         11   -1    0    0    0    0 -0.00000000000E+00 -0.00000000000E+00 -0.45593999997E+02  0.45594000000E+02  0.51100000000E-03 0.  1.
    9900012    2    1    2    0    0 -0.65909529684E+00  0.67884183839E+00  0.70558753664E+00  0.90007709094E+02  0.89999970054E+02 0.  0.
        -12    1    1    2    0    0  0.65909529684E+00 -0.67884183839E+00 -0.70558753664E+00  0.11802909064E+01  0.00000000000E+00 0.  1.
         11    1    3    3    0    0  0.24579793750E+02 -0.12491166115E+02  0.17429154599E+00  0.27572193774E+02  0.51100000000E-03 0. -1.
        -11    1    3    3    0    0  0.32953289970E+01 -0.19006137363E+02  0.20816727534E+01  0.19401696121E+02  0.51100000000E-03 0.  1.
        -12    1    3    3    0    0 -0.28534218043E+02  0.32176145316E+02 -0.15503767628E+01  0.43033819199E+02  0.00000000000E+00 0.  1.
</event>
<event>
 7    1  0.2349719E-015  0.9000784E+02  0.7816164E-02  0.1186339E+00
        -11   -1    0    0    0    0  0.00000000000E+00  0.00000000000E+00  0.45593999997E+02  0.45594000000E+02  0.51100000000E-03 0.  1.
         11   -1    0    0    0    0 -0.00000000000E+00 -0.00000000000E+00 -0.45593999997E+02  0.45594000000E+02  0.51100000000E-03 0. -1.
    9900012    2    1    2    0    0  0.39438461630E+00 -0.66602046059E+00  0.89086773982E+00  0.90007844159E+02  0.90000106902E+02 0.  0.
        -12    1    1    2    0    0 -0.39438461630E+00  0.66602046059E+00 -0.89086773982E+00  0.11801558411E+01  0.00000000000E+00 0.  1.
         11    1    3    3    0    0  0.54637581586E+01  0.78343242579E+01  0.79633522505E+01  0.12435604896E+02  0.51100000000E-03 0. -1.
        -11    1    3    3    0    0 -0.13377793477E+02 -0.28189151184E+02  0.24344676807E+02  0.39575963563E+02  0.51100000000E-03 0.  1.
         12    1    3    3    0    0  0.83084199350E+01  0.19688806466E+02 -0.31417161318E+02  0.37996275701E+02  0.00000000000E+00 0. -1.
</event>
<event>
 7    1  0.2349719E-015  0.9000774E+02  0.7816164E-02  0.1186339E+00
        -11   -1    0    0    0    0  0.00000000000E+00  0.00000000000E+00  0.45593999997E+02  0.45594000000E+02  0.51100000000E-03 0. -1.
         11   -1    0    0    0    0 -0.00000000000E+00 -0.00000000000E+00 -0.45593999997E+02  0.45594000000E+02  0.51100000000E-03 0.  1.
    9900012    2    1    2    0    0 -0.35430916484E+00  0.32308324716E+00  0.10784720179E+01  0.90007737460E+02  0.89999998795E+02 0.  0.
        -12    1    1    2    0    0  0.35430916484E+00 -0.32308324716E+00 -0.10784720179E+01  0.11802625395E+01  0.00000000000E+00 0.  1.
         11    1    3    3    0    0  0.86762408197E+01 -0.14379774755E+01  0.59062794888E+01  0.10593822334E+02  0.51100000000E-03 0. -1.
        -11    1    3    3    0    0  0.20915440269E+02  0.30858568665E+02 -0.53211847073E+01  0.37656631669E+02  0.51100000000E-03 0.  1.
         12    1    3    3    0    0 -0.29945990253E+02 -0.29097507942E+02  0.49337723637E+00  0.41757283458E+02  0.00000000000E+00 0. -1.
</event>
<event>
 7    1  0.2349719E-015  0.9000770E+02  0.7816164E-02  0.1186339E+00
        -11   -1    0    0    0    0  0.00000000000E+00  0.00000000000E+00  0.45593999997E+02  0.45594000000E+02  0.51100000000E-03 0.  1.
         11   -1    0    0    0    0 -0.00000000000E+00 -0.00000000000E+00 -0.45593999997E+02  0.45594000000E+02  0.51100000000E-03 0. -1.
    9900012    2    1    2    0    0 -0.67075573880E+00  0.75971509379E+00 -0.60500582048E+00  0.90007698205E+02  0.89999959021E+02 0.  0.
        -12    1    1    2    0    0  0.67075573880E+00 -0.75971509379E+00  0.60500582048E+00  0.11803017952E+01  0.00000000000E+00 0.  1.
         11    1    3    3    0    0 -0.35267176334E+02 -0.53438731085E+01  0.16922414187E+02  0.39480359782E+02  0.51100000000E-03 0. -1.
        -11    1    3    3    0    0  0.38018269408E+01 -0.15514151908E+01  0.85305284161E+01  0.94673487578E+01  0.51100000000E-03 0.  1.
        -12    1    3    3    0    0  0.30794593654E+02  0.76550033931E+01 -0.26057948423E+02  0.41059989665E+02  0.00000000000E+00 0.  1.
</event>
<event>
 7    1  0.2349719E-015  0.9000763E+02  0.7816164E-02  0.1186339E+00
        -11   -1    0    0    0    0  0.00000000000E+00  0.00000000000E+00  0.45593999997E+02  0.45594000000E+02  0.51100000000E-03 0. -1.
         11   -1    0    0    0    0 -0.00000000000E+00 -0.00000000000E+00 -0.45593999997E+02  0.45594000000E+02  0.51100000000E-03 0.  1.
    9900012    2    1    2    0    0 -0.28395052103E+00  0.10687789985E+01  0.41274052426E+00  0.90007630911E+02  0.89999890839E+02 0.  0.
        -12    1    1    2    0    0  0.28395052103E+00 -0.10687789985E+01 -0.41274052426E+00  0.11803690891E+01  0.00000000000E+00 0.  1.
         11    1    3    3    0    0 -0.11437955355E+01  0.45592546765E+01  0.10168968834E+02  0.11202812095E+02  0.51100000000E-03 0. -1.
        -11    1    3    3    0    0  0.31838807622E+02  0.17379284458E+02 -0.18089374894E+02  0.40533624108E+02  0.51100000000E-03 0.  1.
         12    1    3    3    0    0 -0.30978962607E+02 -0.20869760136E+02  0.83331465844E+01  0.38271194708E+02  0.00000000000E+00 0. -1.
</event>
<event>
 7    1  0.2349719E-015  0.9000781E+02  0.7816164E-02  0.1186339E+00
        -11   -1    0    0    0    0  0.00000000000E+00  0.00000000000E+00  0.45593999997E+02  0.45594000000E+02  0.51100000000E-03 0.  1.
         11   -1    0    0    0    0 -0.00000000000E+00 -0.00000000000E+00 -0.45593999997E+02  0.45594000000E+02  0.51100000000E-03 0. -1.
    9900012    2    1    2    0    0 -0.78521792313E+00  0.82077785087E+00 -0.32030574856E+00  0.90007813896E+02  0.90000076239E+02 0.  0.
        -12    1    1    2    0    0  0.78521792313E+00 -0.82077785087E+00  0.32030574856E+00  0.11801861039E+01  0.00000000000E+00 0.  1.
         11    1    3    3    0    0  0.37302422993E+02  0.12109791868E+02 -0.63090599127E+01  0.39723067070E+02  0.51100000000E-03 0. -1.
        -11    1    3    3    0    0  0.25155441051E+01 -0.88822263894E+01  0.16734098780E+01  0.93820151705E+01  0.51100000000E-03 0.  1.
        -12    1    3    3    0    0 -0.40603185021E+02 -0.24067876274E+01  0.43153442861E+01  0.40902731655E+02  0.00000000000E+00 0.  1.
</event>
<event>
 7    1  0.2349719E-015  0.9000769E+02  0.7816164E-02  0.1186339E+00
        -11   -1    0    0    0    0  0.00000000000E+00  0.00000000000E+00  0.45593999997E+02  0.45594000000E+02  0.51100000000E-03 0. -1.
         11   -1    0    0    0    0 -0.00000000000E+00 -0.00000000000E+00 -0.45593999997E+02  0.45594000000E+02  0.51100000000E-03 0.  1.
    9900012    2    1    2    0    0 -0.34310373374E-01  0.25057938099E-02  0.11798047780E+01  0.90007693771E+02  0.89999954528E+02 0.  0.
        -12    1    1    2    0    0  0.34310373374E-01 -0.25057938099E-02 -0.11798047780E+01  0.11803062293E+01  0.00000000000E+00 0.  1.
         11    1    3    3    0    0 -0.88303798678E+01 -0.13954472391E+01  0.40324008103E+01  0.98073002484E+01  0.51100000000E-03 0. -1.
        -11    1    3    3    0    0 -0.31532147703E+01 -0.37294774519E+02 -0.10751342186E+02  0.38941421763E+02  0.51100000000E-03 0.  1.
         12    1    3    3    0    0  0.11949284265E+02  0.38692727552E+02  0.78987461534E+01  0.41258971760E+02  0.00000000000E+00 0. -1.
</event>
<event>
 7    1  0.2349719E-015  0.9000792E+02  0.7816164E-02  0.1186339E+00
        -11   -1    0    0    0    0  0.00000000000E+00  0.00000000000E+00  0.45593999997E+02  0.45594000000E+02  0.51100000000E-03 0.  1.
         11   -1    0    0    0    0 -0.00000000000E+00 -0.00000000000E+00 -0.45593999997E+02  0.45594000000E+02  0.51100000000E-03 0. -1.
    9900012    2    1    2    0    0 -0.45635837863E+00  0.77017980949E+00 -0.76886016110E+00  0.90007921250E+02  0.90000185010E+02 0.  0.
        -12    1    1    2    0    0  0.45635837863E+00 -0.77017980949E+00  0.76886016110E+00  0.11800787499E+01  0.00000000000E+00 0.  1.
         11    1    3    3    0    0 -0.79570458650E+01  0.45446212274E+01 -0.41472121271E+02  0.42472402851E+02  0.51100000000E-03 0. -1.
        -11    1    3    3    0    0 -0.69169776991E+01 -0.12433425586E+01  0.41535428169E+01  0.81634796136E+01  0.51100000000E-03 0.  1.
        -12    1    3    3    0    0  0.14417665186E+02 -0.25310988593E+01  0.36549718293E+02  0.39372038785E+02  0.00000000000E+00 0.  1.
</event>
<event>
 7    1  0.2349719E-015  0.9000746E+02  0.7816164E-02  0.1186340E+00
        -11   -1    0    0    0    0  0.00000000000E+00  0.00000000000E+00  0.45593999997E+02  0.45594000000E+02  0.51100000000E-03 0. -1.
         11   -1    0    0    0    0 -0.00000000000E+00 -0.00000000000E+00 -0.45593999997E+02  0.45594000000E+02  0.51100000000E-03 0.  1.
    9900012    2    1    2    0    0  0.11228488525E+01 -0.38081184553E-01  0.36254115755E+00  0.90007459525E+02  0.89999717190E+02 0.  0.
        -12    1    1    2    0    0 -0.11228488525E+01  0.38081184553E-01 -0.36254115755E+00  0.11805404750E+01  0.00000000000E+00 0.  1.
         11    1    3    3    0    0  0.95882561709E+01 -0.38704977993E+01  0.14603548454E+01  0.10442607249E+02  0.51100000000E-03 0. -1.
        -11    1    3    3    0    0 -0.33750234416E+02  0.12783664574E+02 -0.24784284034E+02  0.43780830719E+02  0.51100000000E-03 0.  1.
         12    1    3    3    0    0  0.25284827098E+02 -0.89512479597E+01  0.23686470346E+02  0.35784021558E+02  0.00000000000E+00 0. -1.
</event>
<event>
 7    1  0.2349719E-015  0.9000777E+02  0.7816164E-02  0.1186339E+00
        -11   -1    0    0    0    0  0.00000000000E+00  0.00000000000E+00  0.45593999997E+02  0.45594000000E+02  0.51100000000E-03 0.  1.
         11   -1    0    0    0    0 -0.00000000000E+00 -0.00000000000E+00 -0.45593999997E+02  0.45594000000E+02  0.51100000000E-03 0. -1.
    9900012    2    1    2    0    0  0.49400035175E+00 -0.27491743765E+00 -0.10360098797E+01  0.90007774422E+02  0.90000036244E+02 0.  0.
        -12    1    1    2    0    0 -0.49400035175E+00  0.27491743765E+00  0.10360098797E+01  0.11802255784E+01  0.00000000000E+00 0.  1.
         11    1    3    3    0    0  0.17142361720E+02  0.57420725560E+00 -0.39490793024E+02  0.43054767602E+02  0.51100000000E-03 0. -1.
        -11    1    3    3    0    0  0.38321283210E+01  0.43247565424E+01  0.72567867240E+01  0.92762966984E+01  0.51100000000E-03 0.  1.
        -12    1    3    3    0    0 -0.20480489689E+02 -0.51738812356E+01  0.31197996420E+02  0.37676710122E+02  0.00000000000E+00 0.  1.
</event>
<event>
 7    1  0.2349719E-015  0.9000769E+02  0.7816164E-02  0.1186339E+00
        -11   -1    0    0    0    0  0.00000000000E+00  0.00000000000E+00  0.45593999997E+02  0.45594000000E+02  0.51100000000E-03 0.  1.
         11   -1    0    0    0    0 -0.00000000000E+00 -0.00000000000E+00 -0.45593999997E+02  0.45594000000E+02  0.51100000000E-03 0. -1.
    9900012    2    1    2    0    0  0.10860620465E+01  0.15633024293E+00 -0.43491542956E+00  0.90007694385E+02  0.89999955151E+02 0.  0.
        -12    1    1    2    0    0 -0.10860620465E+01 -0.15633024293E+00  0.43491542956E+00  0.11803056149E+01  0.00000000000E+00 0.  1.
         11    1    3    3    0    0 -0.10773559562E+02 -0.85061075249E+01  0.78144926214E+01  0.15795244412E+02  0.51100000000E-03 0. -1.
        -11    1    3    3    0    0  0.11616239205E+02 -0.18057511413E+02  0.24084777208E+02  0.32265883300E+02  0.51100000000E-03 0.  1.
         12    1    3    3    0    0  0.24338240364E+00  0.26719949181E+02 -0.32334185259E+02  0.41946566673E+02  0.00000000000E+00 0. -1.
</event>
<event>
 7    1  0.2349719E-015  0.9000773E+02  0.7816164E-02  0.1186339E+00
        -11   -1    0    0    0    0  0.00000000000E+00  0.00000000000E+00  0.45593999997E+02  0.45594000000E+02  0.51100000000E-03 0. -1.
         11   -1    0    0    0    0 -0.00000000000E+00 -0.00000000000E+00 -0.45593999997E+02  0.45594000000E+02  0.51100000000E-03 0.  1.
    9900012    2    1    2    0    0  0.97341753260E-01  0.11049797851E+01 -0.40322406206E+00  0.90007726563E+02  0.89999987753E+02 0.  0.
        -12    1    1    2    0    0 -0.97341753260E-01 -0.11049797851E+01  0.40322406206E+00  0.11802734372E+01  0.00000000000E+00 0.  1.
         11    1    3    3    0    0  0.69992676384E+01 -0.64069010293E+01  0.40550609387E+00  0.94975030259E+01  0.51100000000E-03 0. -1.
        -11    1    3    3    0    0  0.27453162200E+02 -0.21991101351E+02  0.10031256287E+01  0.35189357975E+02  0.51100000000E-03 0.  1.
         12    1    3    3    0    0 -0.34355088085E+02  0.29502982165E+02 -0.18118557847E+01  0.45320865562E+02  0.00000000000E+00 0. -1.
</event>
<event>
 7    1  0.2349719E-015  0.9000797E+02  0.7816164E-02  0.1186339E+00
        -11   -1    0    0    0    0  0.00000000000E+00  0.00000000000E+00  0.45593999997E+02  0.45594000000E+02  0.51100000000E-03 0.  1.
         11   -1    0    0    0    0 -0.00000000000E+00 -0.00000000000E+00 -0.45593999997E+02  0.45594000000E+02  0.51100000000E-03 0. -1.
    9900012    2    1    2    0    0  0.26645040768E+00  0.83629249437E+00 -0.78872669334E+00  0.90007970020E+02  0.90000234424E+02 0.  0.
        -12    1    1    2    0    0 -0.26645040768E+00 -0.83629249437E+00  0.78872669334E+00  0.11800299796E+01  0.00000000000E+00 0.  1.
         11    1    3    3    0    0  0.18997257948E+01 -0.11261498788E+02  0.56096732072E+00  0.11434377886E+02  0.51100000000E-03 0. -1.
        -11    1    3    3    0    0  0.31314897287E+02  0.26847268475E+02  0.61497859999E+01  0.41703938481E+02  0.51100000000E-03 0.  1.
         12    1    3    3    0    0 -0.32948172674E+02 -0.14749477193E+02 -0.74994800139E+01  0.36869653653E+02  0.00000000000E+00 0. -1.
</event>
<event>
 7    1  0.2349719E-015  0.9000765E+02  0.7816164E-02  0.1186339E+00
        -11   -1    0    0    0    0  0.00000000000E+00  0.00000000000E+00  0.45593999997E+02  0.45594000000E+02  0.51100000000E-03 0. -1.
         11   -1    0    0    0    0 -0.00000000000E+00 -0.00000000000E+00 -0.45593999997E+02  0.45594000000E+02  0.51100000000E-03 0.  1.
    9900012    2    1    2    0    0  0.46239017185E+00  0.40254091029E+00  0.10086486063E+01  0.90007654344E+02  0.89999914582E+02 0.  0.
        -12    1    1    2    0    0 -0.46239017185E+00 -0.40254091029E+00 -0.10086486063E+01  0.11803456555E+01  0.00000000000E+00 0.  1.
         11    1    3    3    0    0  0.26015038030E+01 -0.44573077942E+01 -0.35861245578E+01  0.62845607973E+01  0.51100000000E-03 0. -1.
        -11    1    3    3    0    0 -0.23335754463E+02  0.37772124898E+02  0.38912784449E+01  0.44569416688E+02  0.51100000000E-03 0.  1.
         12    1    3    3    0    0  0.21196640832E+02 -0.32912276193E+02  0.70349471920E+00  0.39153676860E+02  0.00000000000E+00 0. -1.
</event>
<event>
 7    1  0.2349719E-015  0.9000768E+02  0.7816164E-02  0.1186339E+00
        -11   -1    0    0    0    0  0.00000000000E+00  0.00000000000E+00  0.45593999997E+02  0.45594000000E+02  0.51100000000E-03 0.  1.
         11   -1    0    0    0    0 -0.00000000000E+00 -0.00000000000E+00 -0.45593999997E+02  0.45594000000E+02  0.51100000000E-03 0. -1.
    9900012    2    1    2    0    0 -0.10150119208E+01  0.57434912157E+00 -0.18170943354E+00  0.90007684605E+02  0.89999945242E+02 0.  0.
        -12    1    1    2    0    0  0.10150119208E+01 -0.57434912157E+00  0.18170943354E+00  0.11803153947E+01  0.00000000000E+00 0.  1.
         11    1    3    3    0    0  0.54190043854E+00  0.23026529308E+02 -0.32403002022E+02  0.39755116003E+02  0.51100000000E-03 0. -1.
        -11    1    3    3    0    0 -0.10731581561E+02  0.12997830836E+01  0.24617735221E+01  0.11086776267E+02  0.51100000000E-03 0.  1.
        -12    1    3    3    0    0  0.91746692019E+01 -0.23751963270E+02  0.29759519067E+02  0.39165792335E+02  0.00000000000E+00 0.  1.
</event>
<event>
 7    1  0.2349719E-015  0.9000772E+02  0.7816164E-02  0.1186339E+00
        -11   -1    0    0    0    0  0.00000000000E+00  0.00000000000E+00  0.45593999997E+02  0.45594000000E+02  0.51100000000E-03 0.  1.
         11   -1    0    0    0    0 -0.00000000000E+00 -0.00000000000E+00 -0.45593999997E+02  0.45594000000E+02  0.51100000000E-03 0. -1.
    9900012    2    1    2    0    0  0.10351036343E+01  0.52730962419E+00 -0.20874725606E+00  0.90007715970E+02  0.89999977021E+02 0.  0.
        -12    1    1    2    0    0 -0.10351036343E+01 -0.52730962419E+00  0.20874725606E+00  0.11802840295E+01  0.00000000000E+00 0.  1.
         11    1    3    3    0    0 -0.36193269072E+02  0.36078421880E+01  0.23180140150E+01  0.36446432481E+02  0.51100000000E-03 0. -1.
        -11    1    3    3    0    0  0.12793916583E+02  0.16006411513E+02 -0.81450647626E+01  0.22050659657E+02  0.51100000000E-03 0.  1.
        -12    1    3    3    0    0  0.24434456123E+02 -0.19086944076E+02  0.56183034916E+01  0.31510623832E+02  0.00000000000E+00 0.  1.
</event>
<event>
 7    1  0.2349719E-015  0.9000789E+02  0.7816164E-02  0.1186339E+00
        -11   -1    0    0    0    0  0.00000000000E+00  0.00000000000E+00  0.45593999997E+02  0.45594000000E+02  0.51100000000E-03 0. -1.
         11   -1    0    0    0    0 -0.00000000000E+00 -0.00000000000E+00 -0.45593999997E+02  0.45594000000E+02  0.51100000000E-03 0.  1.
    9900012    2    1    2    0    0 -0.25701707340E+00 -0.64759175107E+00  0.95247972794E+00  0.90007893867E+02  0.90000157266E+02 0.  0.
        -12    1    1    2    0    0  0.25701707340E+00  0.64759175107E+00 -0.95247972794E+00  0.11801061326E+01  0.00000000000E+00 0.  1.
         11    1    3    3    0    0  0.27537651205E+02  0.13313536107E+02  0.24389836373E+02  0.39120794932E+02  0.51100000000E-03 0. -1.
        -11    1    3    3    0    0  0.70472367956E+01 -0.63627552308E+01 -0.54290748177E+01  0.10937232475E+02  0.51100000000E-03 0.  1.
        -12    1    3    3    0    0 -0.34841905074E+02 -0.75983726276E+01 -0.18008281828E+02  0.39949866460E+02  0.00000000000E+00 0.  1.
</event>
<event>
 7    1  0.2349719E-015  0.9000761E+02  0.7816164E-02  0.1186339E+00
        -11   -1    0    0    0    0  0.00000000000E+00  0.00000000000E+00  0.45593999997E+02  0.45594000000E+02  0.51100000000E-03 0.  1.
         11   -1    0    0    0    0 -0.00000000000E+00 -0.00000000000E+00 -0.45593999997E+02  0.45594000000E+02  0.51100000000E-03 0. -1.
    9900012    2    1    2    0    0  0.52990956496E+00  0.67886148811E+00  0.80725836750E+00  0.90007608904E+02  0.89999868542E+02 0.  0.
        -12    1    1    2    0    0 -0.52990956496E+00 -0.67886148811E+00 -0.80725836750E+00  0.11803910958E+01  0.00000000000E+00 0.  1.
         11    1    3    3    0    0 -0.17032866179E+02 -0.12667703785E+02 -0.31701416563E+02  0.38151920815E+02  0.51100000000E-03 0. -1.
        -11    1    3    3    0    0 -0.89284463132E+01  0.60424021024E+01  0.23099907598E+01  0.11025599045E+02  0.51100000000E-03 0.  1.
        -12    1    3    3    0    0  0.26491222057E+02  0.73041631710E+01  0.30198684171E+02  0.40830089044E+02  0.00000000000E+00 0.  1.
</event>
<event>
 7    1  0.2349719E-015  0.9000818E+02  0.7816164E-02  0.1186338E+00
        -11   -1    0    0    0    0  0.00000000000E+00  0.00000000000E+00  0.45593999997E+02  0.45594000000E+02  0.51100000000E-03 0.  1.
         11   -1    0    0    0    0 -0.00000000000E+00 -0.00000000000E+00 -0.45593999997E+02  0.45594000000E+02  0.51100000000E-03 0. -1.
    9900012    2    1    2    0    0 -0.84270204806E+00 -0.75102929305E+00  0.34319473667E+00  0.90008180366E+02  0.90000447546E+02 0.  0.
        -12    1    1    2    0    0  0.84270204806E+00  0.75102929305E+00 -0.34319473667E+00  0.11798196337E+01  0.00000000000E+00 0.  1.
         11    1    3    3    0    0  0.87399033249E+01  0.77203888238E+01  0.11448633942E+01  0.11717552055E+02  0.51100000000E-03 0. -1.
        -11    1    3    3    0    0 -0.21988450626E+02  0.51255478044E+01  0.32893101729E+02  0.39896357513E+02  0.51100000000E-03 0.  1.
         12    1    3    3    0    0  0.12405845253E+02 -0.13596965921E+02 -0.33694770386E+02  0.38394270798E+02  0.00000000000E+00 0. -1.
</event>
<event>
 7    1  0.2349719E-015  0.9000778E+02  0.7816164E-02  0.1186339E+00
        -11   -1    0    0    0    0  0.00000000000E+00  0.00000000000E+00  0.45593999997E+02  0.45594000000E+02  0.51100000000E-03 0. -1.
         11   -1    0    0    0    0 -0.00000000000E+00 -0.00000000000E+00 -0.45593999997E+02  0.45594000000E+02  0.51100000000E-03 0.  1.
    9900012    2    1    2    0    0  0.36984759417E+00 -0.98813894681E+00 -0.52887952252E+00  0.90007779948E+02  0.90000041844E+02 0.  0.
        -12    1    1    2    0    0 -0.36984759417E+00  0.98813894681E+00  0.52887952252E+00  0.11802200517E+01  0.00000000000E+00 0.  1.
         11    1    3    3    0    0 -0.77506180513E+01  0.35732006602E+00  0.47622846491E+01  0.91037966336E+01  0.51100000000E-03 0. -1.
        -11    1    3    3    0    0 -0.34313840322E+02 -0.51150097605E+01  0.92229496885E+01  0.35897991081E+02  0.51100000000E-03 0.  1.
         12    1    3    3    0    0  0.42434305967E+02  0.37695507477E+01 -0.14514113860E+02  0.45005992233E+02  0.00000000000E+00 0. -1.
</event>
<event>
 7    1  0.2349719E-015  0.9000772E+02  0.7816164E-02  0.1186339E+00
        -11   -1    0    0    0    0  0.00000000000E+00  0.00000000000E+00  0.45593999997E+02  0.45594000000E+02  0.51100000000E-03 0.  1.
         11   -1    0    0    0    0 -0.00000000000E+00 -0.00000000000E+00 -0.45593999997E+02  0.45594000000E+02  0.51100000000E-03 0. -1.
    9900012    2    1    2    0    0  0.95618309114E+00 -0.58633043144E+00  0.36741825776E+00  0.90007717977E+02  0.89999979054E+02 0.  0.
        -12    1    1    2    0    0 -0.95618309114E+00  0.58633043144E+00 -0.36741825776E+00  0.11802820234E+01  0.00000000000E+00 0.  1.
         11    1    3    3    0    0  0.18184714395E+02 -0.17824276850E+02 -0.24342475835E+02  0.35227046610E+02  0.51100000000E-03 0. -1.
        -11    1    3    3    0    0  0.52893629200E+01 -0.22259620883E+01 -0.84547919729E+01  0.10218403735E+02  0.51100000000E-03 0.  1.
        -12    1    3    3    0    0 -0.22517894224E+02  0.19463908507E+02  0.33164686065E+02  0.44562267632E+02  0.00000000000E+00 0.  1.
</event>
<event>
 7    1  0.2349719E-015  0.9000774E+02  0.7816164E-02  0.1186339E+00
        -11   -1    0    0    0    0  0.00000000000E+00  0.00000000000E+00  0.45593999997E+02  0.45594000000E+02  0.51100000000E-03 0.  1.
         11   -1    0    0    0    0 -0.00000000000E+00 -0.00000000000E+00 -0.45593999997E+02  0.45594000000E+02  0.51100000000E-03 0. -1.
    9900012    2    1    2    0    0  0.11302462771E+01  0.33728938679E+00 -0.42373259226E-01  0.90007738897E+02  0.90000000251E+02 0.  0.
        -12    1    1    2    0    0 -0.11302462771E+01 -0.33728938679E+00  0.42373259226E-01  0.11802611026E+01  0.00000000000E+00 0.  1.
         11    1    3    3    0    0  0.85044438234E+01  0.12506246745E+02 -0.11092387393E+02  0.18755607981E+02  0.51100000000E-03 0. -1.
        -11    1    3    3    0    0  0.67289653632E+01  0.26616617506E+02  0.12021414240E+02  0.29970613990E+02  0.51100000000E-03 0.  1.
         12    1    3    3    0    0 -0.14103162909E+02 -0.38785574865E+02 -0.97140010643E+00  0.41281516927E+02  0.00000000000E+00 0. -1.
</event>
<event>
 7    1  0.2349719E-015  0.9000777E+02  0.7816164E-02  0.1186339E+00
        -11   -1    0    0    0    0  0.00000000000E+00  0.00000000000E+00  0.45593999997E+02  0.45594000000E+02  0.51100000000E-03 0.  1.
         11   -1    0    0    0    0 -0.00000000000E+00 -0.00000000000E+00 -0.45593999997E+02  0.45594000000E+02  0.51100000000E-03 0. -1.
    9900012    2    1    2    0    0  0.83720810244E-01 -0.24710679656E+00 -0.11510265893E+01  0.90007774110E+02  0.90000035928E+02 0.  0.
        -12    1    1    2    0    0 -0.83720810244E-01  0.24710679656E+00  0.11510265893E+01  0.11802258904E+01  0.00000000000E+00 0.  1.
         11    1    3    3    0    0 -0.25279623078E+01 -0.42486495992E+01  0.10534485927E+02  0.11636881492E+02  0.51100000000E-03 0. -1.
        -11    1    3    3    0    0  0.82166763111E+01  0.19933702308E+02  0.27942569436E+02  0.35293815949E+02  0.51100000000E-03 0.  1.
         12    1    3    3    0    0 -0.56049931930E+01 -0.15932159505E+02 -0.39628081952E+02  0.43077076669E+02  0.00000000000E+00 0. -1.
</event>
<event>
 7    1  0.2349719E-015  0.9000767E+02  0.7816164E-02  0.1186339E+00
        -11   -1    0    0    0    0  0.00000000000E+00  0.00000000000E+00  0.45593999997E+02  0.45594000000E+02  0.51100000000E-03 0. -1.
         11   -1    0    0    0    0 -0.00000000000E+00 -0.00000000000E+00 -0.45593999997E+02  0.45594000000E+02  0.51100000000E-03 0.  1.
    9900012    2    1    2    0    0  0.32566490888E+00 -0.96722886545E+00  0.59294501096E+00  0.90007672462E+02  0.89999932938E+02 0.  0.
        -12    1    1    2    0    0 -0.32566490888E+00  0.96722886545E+00 -0.59294501096E+00  0.11803275380E+01  0.00000000000E+00 0.  1.
         11    1    3    3    0    0 -0.23900107572E+02 -0.22648378927E+02  0.24025593647E+02  0.40760193330E+02  0.51100000000E-03 0. -1.
        -11    1    3    3    0    0  0.57961466573E+01 -0.70614455497E+01 -0.41361174296E+01  0.10028299805E+02  0.51100000000E-03 0.  1.
        -12    1    3    3    0    0  0.18429625824E+02  0.28742595611E+02 -0.19296531206E+02  0.39219179327E+02  0.00000000000E+00 0.  1.
</event>
<event>
 7    1  0.2349719E-015  0.9000776E+02  0.7816164E-02  0.1186339E+00
        -11   -1    0    0    0    0  0.00000000000E+00  0.00000000000E+00  0.45593999997E+02  0.45594000000E+02  0.51100000000E-03 0.  1.
         11   -1    0    0    0    0 -0.00000000000E+00 -0.00000000000E+00 -0.45593999997E+02  0.45594000000E+02  0.51100000000E-03 0. -1.
    9900012    2    1    2    0    0 -0.33317829745E+00 -0.10919266232E+01 -0.29940954435E+00  0.90007763751E+02  0.90000025432E+02 0.  0.
        -12    1    1    2    0    0  0.33317829745E+00  0.10919266232E+01  0.29940954435E+00  0.11802362490E+01  0.00000000000E+00 0.  1.
         11    1    3    3    0    0  0.24132115844E+01 -0.81702186218E+01  0.12221835894E+02  0.14897964135E+02  0.51100000000E-03 0. -1.
        -11    1    3    3    0    0 -0.10937501246E+02  0.15655816826E+02  0.27436520948E+02  0.33428972703E+02  0.51100000000E-03 0.  1.
         12    1    3    3    0    0  0.81911113644E+01 -0.85775248271E+01 -0.39957766387E+02  0.41680826913E+02  0.00000000000E+00 0. -1.
</event>
<event>
 7    1  0.2349719E-015  0.9000759E+02  0.7816164E-02  0.1186339E+00
        -11   -1    0    0    0    0  0.00000000000E+00  0.00000000000E+00  0.45593999997E+02  0.45594000000E+02  0.51100000000E-03 0.  1.
         11   -1    0    0    0    0 -0.00000000000E+00 -0.00000000000E+00 -0.45593999997E+02  0.45594000000E+02  0.51100000000E-03 0. -1.
    9900012    2    1    2    0    0  0.88608452435E-01  0.39233299330E+00 -0.11097674088E+01  0.90007593148E+02  0.89999852577E+02 0.  0.
        -12    1    1    2    0    0 -0.88608452435E-01 -0.39233299330E+00  0.11097674088E+01  0.11804068524E+01  0.00000000000E+00 0.  1.
         11    1    3    3    0    0 -0.28677819510E+02 -0.12737008736E+02 -0.19814161618E+02  0.37111315313E+02  0.51100000000E-03 0. -1.
        -11    1    3    3    0    0 -0.51030693426E+01 -0.42607385876E+01 -0.47573309608E+01  0.81748032490E+01  0.51100000000E-03 0.  1.
        -12    1    3    3    0    0  0.33869497305E+02  0.17390080317E+02  0.23461725170E+02  0.44721474585E+02  0.00000000000E+00 0.  1.
</event>
<event>
 7    1  0.2349719E-015  0.9000773E+02  0.7816164E-02  0.1186339E+00
        -11   -1    0    0    0    0  0.00000000000E+00  0.00000000000E+00  0.45593999997E+02  0.45594000000E+02  0.51100000000E-03 0. -1.
         11   -1    0    0    0    0 -0.00000000000E+00 -0.00000000000E+00 -0.45593999997E+02  0.45594000000E+02  0.51100000000E-03 0.  1.
    9900012    2    1    2    0    0  0.48875950136E+00 -0.97851390698E+00  0.44347337153E+00  0.90007727172E+02  0.89999988371E+02 0.  0.
        -12    1    1    2    0    0 -0.48875950136E+00  0.97851390698E+00 -0.44347337153E+00  0.11802728276E+01  0.00000000000E+00 0.  1.
         11    1    3    3    0    0 -0.15539261439E+02 -0.48277327362E+01  0.34475433580E+02  0.38122580844E+02  0.51100000000E-03 0. -1.
        -11    1    3    3    0    0  0.64640181577E+01  0.74536409720E+01  0.53328357835E+01  0.11215142988E+02  0.51100000000E-03 0.  1.
        -12    1    3    3    0    0  0.95640027827E+01 -0.36044221428E+01 -0.39364795992E+02  0.40670003340E+02  0.00000000000E+00 0.  1.
</event>
<event>
 7    1  0.2349719E-015  0.9000766E+02  0.7816164E-02  0.1186339E+00
        -11   -1    0    0    0    0  0.00000000000E+00  0.00000000000E+00  0.45593999997E+02  0.45594000000E+02  0.51100000000E-03 0.  1.
         11   -1    0    0    0    0 -0.00000000000E+00 -0.00000000000E+00 -0.45593999997E+02  0.45594000000E+02  0.51100000000E-03 0. -1.
    9900012    2    1    2    0    0 -0.63675834701E+00  0.66982047828E+00 -0.73422380426E+00  0.90007658837E+02  0.89999919134E+02 0.  0.
        -12    1    1    2    0    0  0.63675834701E+00 -0.66982047828E+00  0.73422380426E+00  0.11803411627E+01  0.00000000000E+00 0.  1.
         11    1    3    3    0    0 -0.23110543763E+01 -0.25413573275E+01  0.77991064869E+01  0.85220614673E+01  0.51100000000E-03 0. -1.
        -11    1    3    3    0    0 -0.10090766478E+02 -0.18173726067E+02  0.29624080186E+02  0.36189694865E+02  0.51100000000E-03 0.  1.
         12    1    3    3    0    0  0.11765062508E+02  0.21384903873E+02 -0.38157410477E+02  0.45295902505E+02  0.00000000000E+00 0. -1.
</event>
<event>
 7    1  0.2349719E-015  0.9000773E+02  0.7816164E-02  0.1186339E+00
        -11   -1    0    0    0    0  0.00000000000E+00  0.00000000000E+00  0.45593999997E+02  0.45594000000E+02  0.51100000000E-03 0.  1.
         11   -1    0    0    0    0 -0.00000000000E+00 -0.00000000000E+00 -0.45593999997E+02  0.45594000000E+02  0.51100000000E-03 0. -1.
    9900012    2    1    2    0    0 -0.31859922416E+00  0.72888149243E+00 -0.87193074470E+00  0.90007730150E+02  0.89999991388E+02 0.  0.
        -12    1    1    2    0    0  0.31859922416E+00 -0.72888149243E+00  0.87193074470E+00  0.11802698502E+01  0.00000000000E+00 0.  1.
         11    1    3    3    0    0  0.26418632512E+01 -0.12765546123E+02 -0.46050812756E+01  0.13825533736E+02  0.51100000000E-03 0. -1.
        -11    1    3    3    0    0  0.21461900428E+02 -0.17355786330E+02  0.19498916731E+02  0.33794145100E+02  0.51100000000E-03 0.  1.
         12    1    3    3    0    0 -0.24422362903E+02  0.30850213946E+02 -0.15765766200E+02  0.42388051314E+02  0.00000000000E+00 0. -1.
</event>
<event>
 7    1  0.2349719E-015  0.9000775E+02  0.7816164E-02  0.1186339E+00
        -11   -1    0    0    0    0  0.00000000000E+00  0.00000000000E+00  0.45593999997E+02  0.45594000000E+02  0.51100000000E-03 0.  1.
         11   -1    0    0    0    0 -0.00000000000E+00 -0.00000000000E+00 -0.45593999997E+02  0.45594000000E+02  0.51100000000E-03 0. -1.
    9900012    2    1    2    0    0 -0.15506575762E+00 -0.11639121191E+01  0.11939121396E+00  0.90007749572E+02  0.90000011067E+02 0.  0.
        -12    1    1    2    0    0  0.15506575762E+00  0.11639121191E+01 -0.11939121396E+00  0.11802504277E+01  0.00000000000E+00 0.  1.
         11    1    3    3    0    0 -0.14281633344E+02  0.72045684239E+00 -0.88897648984E+01  0.16837815454E+02  0.51100000000E-03 0. -1.
        -11    1    3    3    0    0 -0.11114294548E+02 -0.30747718966E+02 -0.33943910991E+01  0.32870528686E+02  0.51100000000E-03 0.  1.
         12    1    3    3    0    0  0.25240862135E+02  0.28863350004E+02  0.12403547211E+02  0.40299405432E+02  0.00000000000E+00 0. -1.
</event>
<event>
 7    1  0.2349719E-015  0.9000785E+02  0.7816164E-02  0.1186339E+00
        -11   -1    0    0    0    0  0.00000000000E+00  0.00000000000E+00  0.45593999997E+02  0.45594000000E+02  0.51100000000E-03 0. -1.
         11   -1    0    0    0    0 -0.00000000000E+00 -0.00000000000E+00 -0.45593999997E+02  0.45594000000E+02  0.51100000000E-03 0.  1.
    9900012    2    1    2    0    0 -0.43401576158E+00 -0.10793131075E+01 -0.19866905601E+00  0.90007849222E+02  0.90000112032E+02 0.  0.
        -12    1    1    2    0    0  0.43401576158E+00  0.10793131075E+01  0.19866905601E+00  0.11801507781E+01  0.00000000000E+00 0.  1.
         11    1    3    3    0    0  0.15251629599E+02  0.78112533953E+01  0.31638598952E+02  0.35980950918E+02  0.51100000000E-03 0. -1.
        -11    1    3    3    0    0  0.78846608357E+01  0.58061768853E+01  0.22583788978E+01  0.10048872674E+02  0.51100000000E-03 0.  1.
        -12    1    3    3    0    0 -0.23570306197E+02 -0.14696743388E+02 -0.34095646905E+02  0.43978025630E+02  0.00000000000E+00 0.  1.
</event>
<event>
 7    1  0.2349719E-015  0.9000765E+02  0.7816164E-02  0.1186339E+00
        -11   -1    0    0    0    0  0.00000000000E+00  0.00000000000E+00  0.45593999997E+02  0.45594000000E+02  0.51100000000E-03 0.  1.
         11   -1    0    0    0    0 -0.00000000000E+00 -0.00000000000E+00 -0.45593999997E+02  0.45594000000E+02  0.51100000000E-03 0. -1.
    9900012    2    1    2    0    0  0.25965969999E-02 -0.11800799592E+01  0.25225292157E-01  0.90007647609E+02  0.89999907757E+02 0.  0.
        -12    1    1    2    0    0 -0.25965969999E-02  0.11800799592E+01 -0.25225292157E-01  0.11803523914E+01  0.00000000000E+00 0.  1.
         11    1    3    3    0    0 -0.10784264145E+02  0.53592292090E+01  0.49874332204E+01  0.13034422935E+02  0.51100000000E-03 0. -1.
        -11    1    3    3    0    0 -0.72116542737E+01  0.32756819688E+02 -0.79212452316E+00  0.33550628235E+02  0.51100000000E-03 0.  1.
         12    1    3    3    0    0  0.17998515015E+02 -0.39296128856E+02 -0.41700834051E+01  0.43422596439E+02  0.00000000000E+00 0. -1.
</event>
<event>
 7    1  0.2349719E-015  0.9000767E+02  0.7816164E-02  0.1186339E+00
        -11   -1    0    0    0    0  0.00000000000E+00  0.00000000000E+00  0.45593999997E+02  0.45594000000E+02  0.51100000000E-03 0. -1.
         11   -1    0    0    0    0 -0.00000000000E+00 -0.00000000000E+00 -0.45593999997E+02  0.45594000000E+02  0.51100000000E-03 0.  1.
    9900012    2    1    2    0    0  0.82660721802E+00  0.84165687923E+00  0.38984942674E-01  0.90007667157E+02  0.89999927563E+02 0.  0.
        -12    1    1    2    0    0 -0.82660721802E+00 -0.84165687923E+00 -0.38984942674E-01  0.11803328433E+01  0.00000000000E+00 0.  1.
         11    1    3    3    0    0 -0.15742103261E+02  0.14954668831E+02  0.26076686130E+02  0.33933014819E+02  0.51100000000E-03 0. -1.
        -11    1    3    3    0    0 -0.75249288693E+01  0.10301606652E+02  0.40583223630E+00  0.12763712397E+02  0.51100000000E-03 0.  1.
        -12    1    3    3    0    0  0.24093639348E+02 -0.24414618604E+02 -0.26443533423E+02  0.43310939940E+02  0.00000000000E+00 0.  1.
</event>
<event>
 7    1  0.2349719E-015  0.9000775E+02  0.7816164E-02  0.1186339E+00
        -11   -1    0    0    0    0  0.00000000000E+00  0.00000000000E+00  0.45593999997E+02  0.45594000000E+02  0.51100000000E-03 0.  1.
         11   -1    0    0    0    0 -0.00000000000E+00 -0.00000000000E+00 -0.45593999997E+02  0.45594000000E+02  0.51100000000E-03 0. -1.
    9900012    2    1    2    0    0 -0.89328859382E+00  0.67007549186E+00  0.38212679281E+00  0.90007751483E+02  0.90000013002E+02 0.  0.
        -12    1    1    2    0    0  0.89328859382E+00 -0.67007549186E+00 -0.38212679281E+00  0.11802485172E+01  0.00000000000E+00 0.  1.
         11    1    3    3    0    0  0.50571880332E+01  0.88235675019E+00  0.54438165296E+01  0.74825692718E+01  0.51100000000E-03 0. -1.
        -11    1    3    3    0    0 -0.11285586647E+02 -0.40301155025E+02 -0.80232197706E+00  0.41859183976E+02  0.51100000000E-03 0.  1.
         12    1    3    3    0    0  0.53351100196E+01  0.40088873766E+02 -0.42593677598E+01  0.40665998235E+02  0.00000000000E+00 0. -1.
</event>
<event>
 7    1  0.2349719E-015  0.9000802E+02  0.7816164E-02  0.1186338E+00
        -11   -1    0    0    0    0  0.00000000000E+00  0.00000000000E+00  0.45593999997E+02  0.45594000000E+02  0.51100000000E-03 0. -1.
         11   -1    0    0    0    0 -0.00000000000E+00 -0.00000000000E+00 -0.45593999997E+02  0.45594000000E+02  0.51100000000E-03 0.  1.
    9900012    2    1    2    0    0  0.66948166334E+00 -0.36001011037E+00  0.90251275556E+00  0.90008024470E+02  0.90000289593E+02 0.  0.
        -12    1    1    2    0    0 -0.66948166334E+00  0.36001011037E+00 -0.90251275556E+00  0.11799755299E+01  0.00000000000E+00 0.  1.
         11    1    3    3    0    0  0.82188647180E+01  0.43221099946E+01  0.34949438161E+01  0.99219456055E+01  0.51100000000E-03 0. -1.
        -11    1    3    3    0    0 -0.24637011744E+02  0.21929367157E+02  0.22321425233E+02  0.39826191335E+02  0.51100000000E-03 0.  1.
         12    1    3    3    0    0  0.17087628689E+02 -0.26611487262E+02 -0.24913856294E+02  0.40259887530E+02  0.00000000000E+00 0. -1.
</event>
<event>
 7    1  0.2349719E-015  0.9000771E+02  0.7816164E-02  0.1186339E+00
        -11   -1    0    0    0    0  0.00000000000E+00  0.00000000000E+00  0.45593999997E+02  0.45594000000E+02  0.51100000000E-03 0.  1.
         11   -1    0    0    0    0 -0.00000000000E+00 -0.00000000000E+00 -0.45593999997E+02  0.45594000000E+02  0.51100000000E-03 0. -1.
    9900012    2    1    2    0    0  0.86709779412E-01  0.11643868164E+01  0.17255823656E+00  0.90007706990E+02  0.89999967922E+02 0.  0.
        -12    1    1    2    0    0 -0.86709779412E-01 -0.11643868164E+01 -0.17255823656E+00  0.11802930098E+01  0.00000000000E+00 0.  1.
         11    1    3    3    0    0 -0.33222022650E+02  0.16467889300E+02 -0.79994042561E+01  0.37932632860E+02  0.51100000000E-03 0. -1.
        -11    1    3    3    0    0 -0.66961602093E+01  0.16574695856E+01  0.49762959515E+01  0.85058385027E+01  0.51100000000E-03 0.  1.
        -12    1    3    3    0    0  0.40004892638E+02 -0.16960972070E+02  0.31956665411E+01  0.43569235628E+02  0.00000000000E+00 0.  1.
</event>
<event>
 7    1  0.2349719E-015  0.9000776E+02  0.7816164E-02  0.1186339E+00
        -11   -1    0    0    0    0  0.00000000000E+00  0.00000000000E+00  0.45593999997E+02  0.45594000000E+02  0.51100000000E-03 0. -1.
         11   -1    0    0    0    0 -0.00000000000E+00 -0.00000000000E+00 -0.45593999997E+02  0.45594000000E+02  0.51100000000E-03 0.  1.
    9900012    2    1    2    0    0  0.35720500075E+00  0.11223780785E+01 -0.75074041704E-01  0.90007761009E+02  0.90000022655E+02 0.  0.
        -12    1    1    2    0    0 -0.35720500075E+00 -0.11223780785E+01  0.75074041704E-01  0.11802389908E+01  0.00000000000E+00 0.  1.
         11    1    3    3    0    0  0.24790942271E+02  0.27192139116E+02  0.17187962386E+01  0.36836904175E+02  0.51100000000E-03 0. -1.
        -11    1    3    3    0    0  0.69152384995E+01 -0.19850169064E+00 -0.95491849469E+01  0.11791813255E+02  0.51100000000E-03 0.  1.
        -12    1    3    3    0    0 -0.31348975770E+02 -0.25871259347E+02  0.77553146667E+01  0.41379043580E+02  0.00000000000E+00 0.  1.
</event>
<event>
 7    1  0.2349719E-015  0.9000767E+02  0.7816164E-02  0.1186339E+00
        -11   -1    0    0    0    0  0.00000000000E+00  0.00000000000E+00  0.45593999997E+02  0.45594000000E+02  0.51100000000E-03 0. -1.
         11   -1    0    0    0    0 -0.00000000000E+00 -0.00000000000E+00 -0.45593999997E+02  0.45594000000E+02  0.51100000000E-03 0.  1.
    9900012    2    1    2    0    0  0.26398278926E+00 -0.85312344786E+00  0.77180483070E+00  0.90007665629E+02  0.89999926015E+02 0.  0.
        -12    1    1    2    0    0 -0.26398278926E+00  0.85312344786E+00 -0.77180483070E+00  0.11803343709E+01  0.00000000000E+00 0.  1.
         11    1    3    3    0    0 -0.10646467946E+02  0.23806526625E+01 -0.38013569519E+01  0.11552709715E+02  0.51100000000E-03 0. -1.
        -11    1    3    3    0    0 -0.22394998429E+02  0.25689035337E+02  0.42374258855E+01  0.34342659617E+02  0.51100000000E-03 0.  1.
         12    1    3    3    0    0  0.33305449164E+02 -0.28922811447E+02  0.33573589705E+00  0.44112296297E+02  0.00000000000E+00 0. -1.
</event>
<event>
 7    1  0.2349719E-015  0.9000787E+02  0.7816164E-02  0.1186339E+00
        -11   -1    0    0    0    0  0.00000000000E+00  0.00000000000E+00  0.45593999997E+02  0.45594000000E+02  0.51100000000E-03 0.  1.
         11   -1    0    0    0    0 -0.00000000000E+00 -0.00000000000E+00 -0.45593999997E+02  0.45594000000E+02  0.51100000000E-03 0. -1.
    9900012    2    1    2    0    0  0.44017760005E-02  0.97253213940E+00 -0.66847697692E+00  0.90007873055E+02  0.90000136179E+02 0.  0.
        -12    1    1    2    0    0 -0.44017760005E-02 -0.97253213940E+00  0.66847697692E+00  0.11801269451E+01  0.00000000000E+00 0.  1.
         11    1    3    3    0    0 -0.22985186289E+01 -0.16808780897E+02 -0.79594555856E+00  0.16983869780E+02  0.51100000000E-03 0. -1.
        -11    1    3    3    0    0  0.18859236895E+02 -0.20722983691E+02 -0.10266565435E+02  0.29841501896E+02  0.51100000000E-03 0.  1.
        -12    1    3    3    0    0 -0.16556316490E+02  0.38504296727E+02  0.10394034016E+02  0.43182501379E+02  0.00000000000E+00 0.  1.
</event>
<event>
 7    1  0.2349719E-015  0.9000762E+02  0.7816164E-02  0.1186339E+00
        -11   -1    0    0    0    0  0.00000000000E+00  0.00000000000E+00  0.45593999997E+02  0.45594000000E+02  0.51100000000E-03 0.  1.
         11   -1    0    0    0    0 -0.00000000000E+00 -0.00000000000E+00 -0.45593999997E+02  0.45594000000E+02  0.51100000000E-03 0. -1.
    9900012    2    1    2    0    0 -0.66356331954E+00 -0.82749719105E+00 -0.51791231255E+00  0.90007618264E+02  0.89999878025E+02 0.  0.
        -12    1    1    2    0    0  0.66356331954E+00  0.82749719105E+00  0.51791231255E+00  0.11803817364E+01  0.00000000000E+00 0.  1.
         11    1    3    3    0    0  0.34154407272E+02  0.19760580013E+02  0.15132848606E+01  0.39487898018E+02  0.51100000000E-03 0. -1.
        -11    1    3    3    0    0  0.42849053139E+00 -0.37782014373E+01 -0.99705732379E+01  0.10671023437E+02  0.51100000000E-03 0.  1.
        -12    1    3    3    0    0 -0.35246461123E+02 -0.16809875767E+02  0.79393760648E+01  0.39848696808E+02  0.00000000000E+00 0.  1.
</event>
<event>
 7    1  0.2349719E-015  0.9000777E+02  0.7816164E-02  0.1186339E+00
        -11   -1    0    0    0    0  0.00000000000E+00  0.00000000000E+00  0.45593999997E+02  0.45594000000E+02  0.51100000000E-03 0. -1.
         11   -1    0    0    0    0 -0.00000000000E+00 -0.00000000000E+00 -0.45593999997E+02  0.45594000000E+02  0.51100000000E-03 0.  1.
    9900012    2    1    2    0    0  0.59056725850E+00 -0.80763605897E+00  0.62601396836E+00  0.90007771556E+02  0.90000033341E+02 0.  0.
        -12    1    1    2    0    0 -0.59056725850E+00  0.80763605897E+00 -0.62601396836E+00  0.11802284436E+01  0.00000000000E+00 0.  1.
         11    1    3    3    0    0  0.43502372090E+00 -0.14786487903E+01  0.14685997916E+02  0.14766657811E+02  0.51100000000E-03 0. -1.
        -11    1    3    3    0    0 -0.33006826836E+02 -0.13668835783E+02 -0.15813586159E+02  0.39068621642E+02  0.51100000000E-03 0.  1.
         12    1    3    3    0    0  0.33162370374E+02  0.14339848515E+02  0.17536022122E+01  0.36172492103E+02  0.00000000000E+00 0. -1.
</event>
<event>
 7    1  0.2349719E-015  0.9000771E+02  0.7816164E-02  0.1186339E+00
        -11   -1    0    0    0    0  0.00000000000E+00  0.00000000000E+00  0.45593999997E+02  0.45594000000E+02  0.51100000000E-03 0.  1.
         11   -1    0    0    0    0 -0.00000000000E+00 -0.00000000000E+00 -0.45593999997E+02  0.45594000000E+02  0.51100000000E-03 0. -1.
    9900012    2    1    2    0    0 -0.86330651761E-01 -0.75454341728E+00 -0.90349113992E+00  0.90007709786E+02  0.89999970755E+02 0.  0.
        -12    1    1    2    0    0  0.86330651761E-01  0.75454341728E+00  0.90349113992E+00  0.11802902143E+01  0.00000000000E+00 0.  1.
         11    1    3    3    0    0  0.21544915821E+01 -0.43337373978E+02  0.85035850413E+00  0.43399227264E+02  0.51100000000E-03 0. -1.
        -11    1    3    3    0    0 -0.65513996633E+01  0.72339743059E+01  0.39783361618E+01  0.10539372879E+02  0.51100000000E-03 0.  1.
        -12    1    3    3    0    0  0.43105774294E+01  0.35348856255E+02 -0.57321858059E+01  0.36069109643E+02  0.00000000000E+00 0.  1.
</event>
<event>
 7    1  0.2349719E-015  0.9000779E+02  0.7816164E-02  0.1186339E+00
        -11   -1    0    0    0    0  0.00000000000E+00  0.00000000000E+00  0.45593999997E+02  0.45594000000E+02  0.51100000000E-03 0.  1.
         11   -1    0    0    0    0 -0.00000000000E+00 -0.00000000000E+00 -0.45593999997E+02  0.45594000000E+02  0.51100000000E-03 0. -1.
    9900012    2    1    2    0    0 -0.52616131406E+00 -0.73781188914E+00 -0.75610460360E+00  0.90007785492E+02  0.90000047461E+02 0.  0.
        -12    1    1    2    0    0  0.52616131406E+00  0.73781188914E+00  0.75610460360E+00  0.11802145075E+01  0.00000000000E+00 0.  1.
         11    1    3    3    0    0 -0.18043001524E+02 -0.20115134433E+02  0.17593437248E+02  0.32244341701E+02  0.51100000000E-03 0. -1.
        -11    1    3    3    0    0 -0.48368475050E+01  0.27004354082E+02  0.66419331922E+00  0.27442146166E+02  0.51100000000E-03 0.  1.
        -12    1    3    3    0    0  0.22353687715E+02 -0.76270315375E+01 -0.19013735171E+02  0.30321297625E+02  0.00000000000E+00 0.  1.
</event>
<event>
 7    1  0.2349719E-015  0.9000768E+02  0.7816164E-02  0.1186339E+00
        -11   -1    0    0    0    0  0.00000000000E+00  0.00000000000E+00  0.45593999997E+02  0.45594000000E+02  0.51100000000E-03 0. -1.
         11   -1    0    0    0    0 -0.00000000000E+00 -0.00000000000E+00 -0.45593999997E+02  0.45594000000E+02  0.51100000000E-03 0.  1.
    9900012    2    1    2    0    0  0.53261136414E+00  0.10473618618E+01  0.11188599066E+00  0.90007677921E+02  0.89999938470E+02 0.  0.
        -12    1    1    2    0    0 -0.53261136414E+00 -0.10473618618E+01 -0.11188599066E+00  0.11803220788E+01  0.00000000000E+00 0.  1.
         11    1    3    3    0    0  0.43275859496E+01  0.48061841132E+01 -0.83104622099E+01  0.10530488511E+02  0.51100000000E-03 0. -1.
        -11    1    3    3    0    0  0.23283982702E+02  0.22941502182E+02 -0.13744768992E+02  0.35459484595E+02  0.51100000000E-03 0.  1.
         12    1    3    3    0    0 -0.27078957288E+02 -0.26700324433E+02  0.22167117192E+02  0.44017704815E+02  0.00000000000E+00 0. -1.
</event>
<event>
 7    1  0.2487205E-015  0.9000770E+02  0.7816164E-02  0.1186339E+00
        -11   -1    0    0    0    0  0.00000000000E+00  0.00000000000E+00  0.45593999997E+02  0.45594000000E+02  0.51100000000E-03 0. -1.
         11   -1    0    0    0    0 -0.00000000000E+00 -0.00000000000E+00 -0.45593999997E+02  0.45594000000E+02  0.51100000000E-03 0.  1.
    9900012    2    1    2    0    0 -0.41639860555E-01  0.59159509358E+00  0.10204875448E+01  0.90007697724E+02  0.89999958534E+02 0.  0.
        -12    1    1    2    0    0  0.41639860555E-01 -0.59159509358E+00 -0.10204875448E+01  0.11803022756E+01  0.00000000000E+00 0.  1.
         11    1    3    3    0    0  0.54539394379E+01  0.26411122354E+02  0.32888761589E+02  0.42531911296E+02  0.51100000000E-03 0. -1.
        -11    1    3    3    0    0 -0.46316891010E+01 -0.73233751910E+01  0.19849692192E+01  0.88895709221E+01  0.51100000000E-03 0.  1.
        -12    1    3    3    0    0 -0.86389019741E+00 -0.18496152070E+02 -0.33853243263E+02  0.38586215506E+02  0.00000000000E+00 0.  1.
</event>
<event>
 7    1  0.2349719E-015  0.9000792E+02  0.7816164E-02  0.1186339E+00
        -11   -1    0    0    0    0  0.00000000000E+00  0.00000000000E+00  0.45593999997E+02  0.45594000000E+02  0.51100000000E-03 0. -1.
         11   -1    0    0    0    0 -0.00000000000E+00 -0.00000000000E+00 -0.45593999997E+02  0.45594000000E+02  0.51100000000E-03 0.  1.
    9900012    2    1    2    0    0 -0.71656184429E+00 -0.21133756742E+00  0.91348882568E+00  0.90007921071E+02  0.90000184829E+02 0.  0.
        -12    1    1    2    0    0  0.71656184429E+00  0.21133756742E+00 -0.91348882568E+00  0.11800789290E+01  0.00000000000E+00 0.  1.
         11    1    3    3    0    0 -0.28624119789E+01  0.84753147307E+01 -0.21338194480E+01  0.91966052334E+01  0.51100000000E-03 0. -1.
        -11    1    3    3    0    0 -0.61116947032E+01  0.34548666515E+02 -0.67224698515E+01  0.35723308516E+02  0.51100000000E-03 0.  1.
         12    1    3    3    0    0  0.82575448377E+01 -0.43235318813E+02  0.97697781252E+01  0.45088007322E+02  0.00000000000E+00 0. -1.
</event>
<event>
 7    1  0.2349719E-015  0.9000770E+02  0.7816164E-02  0.1186339E+00
        -11   -1    0    0    0    0  0.00000000000E+00  0.00000000000E+00  0.45593999997E+02  0.45594000000E+02  0.51100000000E-03 0. -1.
         11   -1    0    0    0    0 -0.00000000000E+00 -0.00000000000E+00 -0.45593999997E+02  0.45594000000E+02  0.51100000000E-03 0.  1.
    9900012    2    1    2    0    0 -0.57629466815E+00  0.73387830294E+00 -0.72277777147E+00  0.90007703167E+02  0.89999964048E+02 0.  0.
        -12    1    1    2    0    0  0.57629466815E+00 -0.73387830294E+00  0.72277777147E+00  0.11802968334E+01  0.00000000000E+00 0.  1.
         11    1    3    3    0    0 -0.92012609559E+01 -0.12728065451E+01  0.56641400962E+01  0.10879601232E+02  0.51100000000E-03 0. -1.
        -11    1    3    3    0    0 -0.18528118023E+02  0.33513941899E+01 -0.34947561338E+02  0.39697040749E+02  0.51100000000E-03 0.  1.
         12    1    3    3    0    0  0.27153084311E+02 -0.13447093419E+01  0.28560643470E+02  0.39431061186E+02  0.00000000000E+00 0. -1.
</event>
<event>
 7    1  0.2349719E-015  0.9000775E+02  0.7816164E-02  0.1186339E+00
        -11   -1    0    0    0    0  0.00000000000E+00  0.00000000000E+00  0.45593999997E+02  0.45594000000E+02  0.51100000000E-03 0.  1.
         11   -1    0    0    0    0 -0.00000000000E+00 -0.00000000000E+00 -0.45593999997E+02  0.45594000000E+02  0.51100000000E-03 0. -1.
    9900012    2    1    2    0    0  0.11951072556E-01  0.55906981189E+00 -0.10393635533E+01  0.90007754907E+02  0.90000016472E+02 0.  0.
        -12    1    1    2    0    0 -0.11951072556E-01 -0.55906981189E+00  0.10393635533E+01  0.11802450926E+01  0.00000000000E+00 0.  1.
         11    1    3    3    0    0 -0.42317988033E+02 -0.55176553137E+01 -0.56368185589E+01  0.43046839083E+02  0.51100000000E-03 0. -1.
        -11    1    3    3    0    0  0.62569447974E+01 -0.36443443252E+01  0.62490098144E+01  0.95645558015E+01  0.51100000000E-03 0.  1.
        -12    1    3    3    0    0  0.36072994308E+02  0.97210694508E+01 -0.16515548088E+01  0.37396360022E+02  0.00000000000E+00 0.  1.
</event>
<event>
 7    1  0.2349719E-015  0.9000772E+02  0.7816164E-02  0.1186339E+00
        -11   -1    0    0    0    0  0.00000000000E+00  0.00000000000E+00  0.45593999997E+02  0.45594000000E+02  0.51100000000E-03 0. -1.
         11   -1    0    0    0    0 -0.00000000000E+00 -0.00000000000E+00 -0.45593999997E+02  0.45594000000E+02  0.51100000000E-03 0.  1.
    9900012    2    1    2    0    0  0.10567948733E+01  0.34027306706E+00 -0.40056435675E+00  0.90007723351E+02  0.89999984499E+02 0.  0.
        -12    1    1    2    0    0 -0.10567948733E+01 -0.34027306706E+00  0.40056435675E+00  0.11802766490E+01  0.00000000000E+00 0.  1.
         11    1    3    3    0    0 -0.31712958210E+02  0.88961250199E+01 -0.21127165838E+02  0.39130677165E+02  0.51100000000E-03 0. -1.
        -11    1    3    3    0    0  0.44471065721E+00 -0.62135762160E+01 -0.61643613010E+01  0.87638831274E+01  0.51100000000E-03 0.  1.
        -12    1    3    3    0    0  0.32325042426E+02 -0.23422757369E+01  0.26890962782E+02  0.42113163059E+02  0.00000000000E+00 0.  1.
</event>
<event>
 7    1  0.2349719E-015  0.9000698E+02  0.7816164E-02  0.1186341E+00
        -11   -1    0    0    0    0  0.00000000000E+00  0.00000000000E+00  0.45593999997E+02  0.45594000000E+02  0.51100000000E-03 0. -1.
         11   -1    0    0    0    0 -0.00000000000E+00 -0.00000000000E+00 -0.45593999997E+02  0.45594000000E+02  0.51100000000E-03 0.  1.
    9900012    2    1    2    0    0 -0.46811228940E+00  0.86167939193E+00  0.65817814325E+00  0.90006975462E+02  0.89999226735E+02 0.  0.
        -12    1    1    2    0    0  0.46811228940E+00 -0.86167939193E+00 -0.65817814325E+00  0.11810245375E+01  0.00000000000E+00 0.  1.
         11    1    3    3    0    0  0.38034114513E+01 -0.13139808228E+02  0.18802559802E+02  0.23252026886E+02  0.51100000000E-03 0. -1.
        -11    1    3    3    0    0 -0.65409007363E+00  0.32108276071E+02  0.95183908018E+01  0.33495805555E+02  0.51100000000E-03 0.  1.
        -12    1    3    3    0    0 -0.36174336671E+01 -0.18106788450E+02 -0.27662772460E+02  0.33259143021E+02  0.00000000000E+00 0.  1.
</event>
<event>
 7    1  0.2675821E-015  0.9000765E+02  0.7816164E-02  0.1186339E+00
        -11   -1    0    0    0    0  0.00000000000E+00  0.00000000000E+00  0.45593999997E+02  0.45594000000E+02  0.51100000000E-03 0. -1.
         11   -1    0    0    0    0 -0.00000000000E+00 -0.00000000000E+00 -0.45593999997E+02  0.45594000000E+02  0.51100000000E-03 0.  1.
    9900012    2    1    2    0    0 -0.46860307731E+00 -0.14393404414E+00  0.10737455219E+01  0.90007646113E+02  0.89999906242E+02 0.  0.
        -12    1    1    2    0    0  0.46860307731E+00  0.14393404414E+00 -0.10737455219E+01  0.11803538871E+01  0.00000000000E+00 0.  1.
         11    1    3    3    0    0  0.23675362948E+02  0.40493179786E+01  0.26530830579E+02  0.35788332712E+02  0.51100000000E-03 0. -1.
        -11    1    3    3    0    0  0.69726798608E+01  0.41272895176E+01  0.53008098474E+01  0.96825290344E+01  0.51100000000E-03 0.  1.
        -12    1    3    3    0    0 -0.31116645886E+02 -0.83205415404E+01 -0.30757894905E+02  0.44536784366E+02  0.00000000000E+00 0.  1.
</event>
<event>
 7    1  0.2349719E-015  0.9000788E+02  0.7816164E-02  0.1186339E+00
        -11   -1    0    0    0    0  0.00000000000E+00  0.00000000000E+00  0.45593999997E+02  0.45594000000E+02  0.51100000000E-03 0.  1.
         11   -1    0    0    0    0 -0.00000000000E+00 -0.00000000000E+00 -0.45593999997E+02  0.45594000000E+02  0.51100000000E-03 0. -1.
    9900012    2    1    2    0    0 -0.34079117499E+00  0.57363315796E-01 -0.11283842636E+01  0.90007881268E+02  0.90000144501E+02 0.  0.
        -12    1    1    2    0    0  0.34079117499E+00 -0.57363315796E-01  0.11283842636E+01  0.11801187319E+01  0.00000000000E+00 0.  1.
         11    1    3    3    0    0  0.15650087521E+02  0.47128406513E+01 -0.32803642968E+02  0.36649899026E+02  0.51100000000E-03 0. -1.
        -11    1    3    3    0    0 -0.93410929574E+01  0.53311876048E+01 -0.70211444008E+01  0.12844222354E+02  0.51100000000E-03 0.  1.
        -12    1    3    3    0    0 -0.66497857389E+01 -0.99866649403E+01  0.38696403105E+02  0.40513759888E+02  0.00000000000E+00 0.  1.
</event>
<event>
 7    1  0.2349719E-015  0.9000783E+02  0.7816164E-02  0.1186339E+00
        -11   -1    0    0    0    0  0.00000000000E+00  0.00000000000E+00  0.45593999997E+02  0.45594000000E+02  0.51100000000E-03 0. -1.
         11   -1    0    0    0    0 -0.00000000000E+00 -0.00000000000E+00 -0.45593999997E+02  0.45594000000E+02  0.51100000000E-03 0.  1.
    9900012    2    1    2    0    0  0.10894525632E+01  0.67985812592E-01  0.44864586799E+00  0.90007825406E+02  0.90000087901E+02 0.  0.
        -12    1    1    2    0    0 -0.10894525632E+01 -0.67985812592E-01 -0.44864586799E+00  0.11801745943E+01  0.00000000000E+00 0.  1.
         11    1    3    3    0    0 -0.82905698332E-01 -0.91936763593E+01 -0.58649812554E+01  0.10905437348E+02  0.51100000000E-03 0. -1.
        -11    1    3    3    0    0  0.81454458263E+01 -0.95457805286E+01 -0.32814721863E+02  0.35132267004E+02  0.51100000000E-03 0.  1.
         12    1    3    3    0    0 -0.69730875648E+01  0.18807442700E+02  0.39128348987E+02  0.43970121054E+02  0.00000000000E+00 0. -1.
</event>
<event>
 7    1  0.2349719E-015  0.9000768E+02  0.7816164E-02  0.1186339E+00
        -11   -1    0    0    0    0  0.00000000000E+00  0.00000000000E+00  0.45593999997E+02  0.45594000000E+02  0.51100000000E-03 0. -1.
         11   -1    0    0    0    0 -0.00000000000E+00 -0.00000000000E+00 -0.45593999997E+02  0.45594000000E+02  0.51100000000E-03 0.  1.
    9900012    2    1    2    0    0 -0.37038579089E+00  0.10140103482E+01  0.47722664485E+00  0.90007683140E+02  0.89999943757E+02 0.  0.
        -12    1    1    2    0    0  0.37038579089E+00 -0.10140103482E+01 -0.47722664485E+00  0.11803168604E+01  0.00000000000E+00 0.  1.
         11    1    3    3    0    0 -0.20680249295E+01 -0.79009842217E+01 -0.55393899561E+01  0.98684912791E+01  0.51100000000E-03 0. -1.
        -11    1    3    3    0    0 -0.17478137869E+02  0.37663149139E+02 -0.89597570955E+01  0.42476762517E+02  0.51100000000E-03 0.  1.
         12    1    3    3    0    0  0.19175777007E+02 -0.28748154569E+02  0.14976373696E+02  0.37662429344E+02  0.00000000000E+00 0. -1.
</event>
<event>
 7    1  0.2349719E-015  0.9000741E+02  0.7816164E-02  0.1186340E+00
        -11   -1    0    0    0    0  0.00000000000E+00  0.00000000000E+00  0.45593999997E+02  0.45594000000E+02  0.51100000000E-03 0.  1.
         11   -1    0    0    0    0 -0.00000000000E+00 -0.00000000000E+00 -0.45593999997E+02  0.45594000000E+02  0.51100000000E-03 0. -1.
    9900012    2    1    2    0    0  0.57024673196E+00  0.10311312974E+01 -0.73326466429E-01  0.90007411224E+02  0.89999668251E+02 0.  0.
        -12    1    1    2    0    0 -0.57024673196E+00 -0.10311312974E+01  0.73326466429E-01  0.11805887762E+01  0.00000000000E+00 0.  1.
         11    1    3    3    0    0 -0.33289770521E+01 -0.90328015830E+00  0.11434096391E+02  0.11943055045E+02  0.51100000000E-03 0. -1.
        -11    1    3    3    0    0 -0.19338967811E+02  0.29426488632E+02  0.93870631120E+01  0.36442157775E+02  0.51100000000E-03 0.  1.
         12    1    3    3    0    0  0.23238191595E+02 -0.27492077176E+02 -0.20894485969E+02  0.41622198404E+02  0.00000000000E+00 0. -1.
</event>
<event>
 7    1  0.2349719E-015  0.9000769E+02  0.7816164E-02  0.1186339E+00
        -11   -1    0    0    0    0  0.00000000000E+00  0.00000000000E+00  0.45593999997E+02  0.45594000000E+02  0.51100000000E-03 0. -1.
         11   -1    0    0    0    0 -0.00000000000E+00 -0.00000000000E+00 -0.45593999997E+02  0.45594000000E+02  0.51100000000E-03 0.  1.
    9900012    2    1    2    0    0  0.40339006409E+00 -0.10625539928E+00  0.11041365162E+01  0.90007690210E+02  0.89999950921E+02 0.  0.
        -12    1    1    2    0    0 -0.40339006409E+00  0.10625539928E+00 -0.11041365162E+01  0.11803097899E+01  0.00000000000E+00 0.  1.
         11    1    3    3    0    0  0.95391907109E+01  0.19272668410E+02  0.33546499162E+02  0.39847202077E+02  0.51100000000E-03 0. -1.
        -11    1    3    3    0    0 -0.96512163546E+01 -0.30383366228E+01  0.34742702088E+01  0.10698038152E+02  0.51100000000E-03 0.  1.
        -12    1    3    3    0    0  0.51541570778E+00 -0.16340587187E+02 -0.35916632854E+02  0.39462449981E+02  0.00000000000E+00 0.  1.
</event>
<event>
 7    1  0.2349719E-015  0.9000767E+02  0.7816164E-02  0.1186339E+00
        -11   -1    0    0    0    0  0.00000000000E+00  0.00000000000E+00  0.45593999997E+02  0.45594000000E+02  0.51100000000E-03 0.  1.
         11   -1    0    0    0    0 -0.00000000000E+00 -0.00000000000E+00 -0.45593999997E+02  0.45594000000E+02  0.51100000000E-03 0. -1.
    9900012    2    1    2    0    0  0.47848354763E+00 -0.10236062683E+01 -0.34125867366E+00  0.90007672173E+02  0.89999932645E+02 0.  0.
        -12    1    1    2    0    0 -0.47848354763E+00  0.10236062683E+01  0.34125867366E+00  0.11803278274E+01  0.00000000000E+00 0.  1.
         11    1    3    3    0    0 -0.25969490023E+02  0.16254163437E+02 -0.23131152729E+02  0.38388311606E+02  0.51100000000E-03 0. -1.
        -11    1    3    3    0    0 -0.50936480943E+01  0.51555060955E+01  0.60832963540E+01  0.94620816315E+01  0.51100000000E-03 0.  1.
        -12    1    3    3    0    0  0.31541621665E+02 -0.22433275801E+02  0.16706597701E+02  0.42157278935E+02  0.00000000000E+00 0.  1.
</event>
<event>
 7    1  0.2349719E-015  0.9000771E+02  0.7816164E-02  0.1186339E+00
        -11   -1    0    0    0    0  0.00000000000E+00  0.00000000000E+00  0.45593999997E+02  0.45594000000E+02  0.51100000000E-03 0.  1.
         11   -1    0    0    0    0 -0.00000000000E+00 -0.00000000000E+00 -0.45593999997E+02  0.45594000000E+02  0.51100000000E-03 0. -1.
    9900012    2    1    2    0    0 -0.81795902668E+00  0.84857911052E+00  0.62834566526E-01  0.90007706961E+02  0.89999967892E+02 0.  0.
        -12    1    1    2    0    0  0.81795902668E+00 -0.84857911052E+00 -0.62834566526E-01  0.11802930394E+01  0.00000000000E+00 0.  1.
         11    1    3    3    0    0 -0.25618165394E+00  0.33506067216E+01  0.85046767325E+01  0.91444912941E+01  0.51100000000E-03 0. -1.
        -11    1    3    3    0    0 -0.12616916096E+02  0.50434782716E+01  0.33726765741E+02  0.36360940203E+02  0.51100000000E-03 0.  1.
         12    1    3    3    0    0  0.12055138724E+02 -0.75455058826E+01 -0.42168607906E+02  0.44502275464E+02  0.00000000000E+00 0. -1.
</event>
<event>
 7    1  0.2349719E-015  0.9000772E+02  0.7816164E-02  0.1186339E+00
        -11   -1    0    0    0    0  0.00000000000E+00  0.00000000000E+00  0.45593999997E+02  0.45594000000E+02  0.51100000000E-03 0.  1.
         11   -1    0    0    0    0 -0.00000000000E+00 -0.00000000000E+00 -0.45593999997E+02  0.45594000000E+02  0.51100000000E-03 0. -1.
    9900012    2    1    2    0    0  0.10097565074E+01 -0.37858466701E+00 -0.47970821297E+00  0.90007722692E+02  0.89999983832E+02 0.  0.
        -12    1    1    2    0    0 -0.10097565074E+01  0.37858466701E+00  0.47970821297E+00  0.11802773080E+01  0.00000000000E+00 0.  1.
         11    1    3    3    0    0 -0.24076240516E+02 -0.14452316572E+02 -0.20835766357E+02  0.34966612241E+02  0.51100000000E-03 0. -1.
        -11    1    3    3    0    0 -0.10205531326E+02  0.54966290534E+01 -0.28559352106E+01  0.11938264814E+02  0.51100000000E-03 0.  1.
        -12    1    3    3    0    0  0.35291528348E+02  0.85771028518E+01  0.23211993355E+02  0.43102845637E+02  0.00000000000E+00 0.  1.
</event>
<event>
 7    1  0.2349719E-015  0.9000775E+02  0.7816164E-02  0.1186339E+00
        -11   -1    0    0    0    0  0.00000000000E+00  0.00000000000E+00  0.45593999997E+02  0.45594000000E+02  0.51100000000E-03 0.  1.
         11   -1    0    0    0    0 -0.00000000000E+00 -0.00000000000E+00 -0.45593999997E+02  0.45594000000E+02  0.51100000000E-03 0. -1.
    9900012    2    1    2    0    0 -0.30921089096E+00 -0.63979958721E+00 -0.94236131929E+00  0.90007745899E+02  0.90000007345E+02 0.  0.
        -12    1    1    2    0    0  0.30921089096E+00  0.63979958721E+00  0.94236131929E+00  0.11802541010E+01  0.00000000000E+00 0.  1.
         11    1    3    3    0    0  0.22267404926E+02  0.24570603890E+02 -0.26512695900E+02  0.42455564321E+02  0.51100000000E-03 0. -1.
        -11    1    3    3    0    0  0.22493931520E+00 -0.11079944395E+02  0.91864534903E+00  0.11120237184E+02  0.51100000000E-03 0.  1.
        -12    1    3    3    0    0 -0.22801555133E+02 -0.14130459082E+02  0.24651689231E+02  0.36431944394E+02  0.00000000000E+00 0.  1.
</event>
<event>
 7    1  0.2349719E-015  0.9000780E+02  0.7816164E-02  0.1186339E+00
        -11   -1    0    0    0    0  0.00000000000E+00  0.00000000000E+00  0.45593999997E+02  0.45594000000E+02  0.51100000000E-03 0.  1.
         11   -1    0    0    0    0 -0.00000000000E+00 -0.00000000000E+00 -0.45593999997E+02  0.45594000000E+02  0.51100000000E-03 0. -1.
    9900012    2    1    2    0    0  0.36333449931E+00 -0.64228067134E+00 -0.92105208889E+00  0.90007799437E+02  0.90000061589E+02 0.  0.
        -12    1    1    2    0    0 -0.36333449931E+00  0.64228067134E+00  0.92105208889E+00  0.11802005633E+01  0.00000000000E+00 0.  1.
         11    1    3    3    0    0 -0.31686326907E+01  0.27174857310E+01  0.10164181388E+02  0.10987972760E+02  0.51100000000E-03 0. -1.
        -11    1    3    3    0    0 -0.11048368692E+02  0.10097570282E+02  0.29926376062E+02  0.33460653921E+02  0.51100000000E-03 0.  1.
         12    1    3    3    0    0  0.14580335882E+02 -0.13457336684E+02 -0.41011609540E+02  0.45559172755E+02  0.00000000000E+00 0. -1.
</event>
<event>
 7    1  0.2349719E-015  0.9000826E+02  0.7816164E-02  0.1186338E+00
        -11   -1    0    0    0    0  0.00000000000E+00  0.00000000000E+00  0.45593999997E+02  0.45594000000E+02  0.51100000000E-03 0. -1.
         11   -1    0    0    0    0 -0.00000000000E+00 -0.00000000000E+00 -0.45593999997E+02  0.45594000000E+02  0.51100000000E-03 0.  1.
    9900012    2    1    2    0    0 -0.73350454392E+00 -0.83037942667E+00  0.40524147804E+00  0.90008262926E+02  0.90000531195E+02 0.  0.
        -12    1    1    2    0    0  0.73350454392E+00  0.83037942667E+00 -0.40524147804E+00  0.11797370740E+01  0.00000000000E+00 0.  1.
         11    1    3    3    0    0 -0.41717769105E+01  0.84501436544E+01  0.51915982454E+01  0.10759244535E+02  0.51100000000E-03 0. -1.
        -11    1    3    3    0    0  0.18889365419E+01  0.33774529452E+02 -0.11325059683E+02  0.35672733258E+02  0.51100000000E-03 0.  1.
         12    1    3    3    0    0  0.15493358246E+01 -0.43055052533E+02  0.65387029159E+01  0.43576285133E+02  0.00000000000E+00 0. -1.
</event>
<event>
 7    1  0.2349719E-015  0.9000723E+02  0.7816164E-02  0.1186340E+00
        -11   -1    0    0    0    0  0.00000000000E+00  0.00000000000E+00  0.45593999997E+02  0.45594000000E+02  0.51100000000E-03 0.  1.
         11   -1    0    0    0    0 -0.00000000000E+00 -0.00000000000E+00 -0.45593999997E+02  0.45594000000E+02  0.51100000000E-03 0. -1.
    9900012    2    1    2    0    0 -0.21465395669E+00 -0.33921232778E+00 -0.11104417976E+01  0.90007228087E+02  0.89999482696E+02 0.  0.
        -12    1    1    2    0    0  0.21465395669E+00  0.33921232778E+00  0.11104417976E+01  0.11807719129E+01  0.00000000000E+00 0.  1.
         11    1    3    3    0    0  0.20559405616E+02 -0.26747695128E+01 -0.25661867324E+02  0.32990528733E+02  0.51100000000E-03 0. -1.
        -11    1    3    3    0    0  0.98481520964E+01 -0.39149854423E+01 -0.69248742586E+01  0.12659664075E+02  0.51100000000E-03 0.  1.
        -12    1    3    3    0    0 -0.30622211669E+02  0.62505426273E+01  0.31476299785E+02  0.44357035280E+02  0.00000000000E+00 0.  1.
</event>
<event>
 7    1  0.2349719E-015  0.9000769E+02  0.7816164E-02  0.1186339E+00
        -11   -1    0    0    0    0  0.00000000000E+00  0.00000000000E+00  0.45593999997E+02  0.45594000000E+02  0.51100000000E-03 0.  1.
         11   -1    0    0    0    0 -0.00000000000E+00 -0.00000000000E+00 -0.45593999997E+02  0.45594000000E+02  0.51100000000E-03 0. -1.
    9900012    2    1    2    0    0  0.10854185328E+00 -0.64663803937E+00 -0.98143058929E+00  0.90007691528E+02  0.89999952256E+02 0.  0.
        -12    1    1    2    0    0 -0.10854185328E+00  0.64663803937E+00  0.98143058929E+00  0.11803084722E+01  0.00000000000E+00 0.  1.
         11    1    3    3    0    0 -0.24438483475E+01 -0.38542064871E+02 -0.14342001999E+02  0.41196555449E+02  0.51100000000E-03 0. -1.
        -11    1    3    3    0    0  0.13359254827E+00 -0.95000122809E+00  0.96682454995E+01  0.97157254285E+01  0.51100000000E-03 0.  1.
        -12    1    3    3    0    0  0.24187976525E+01  0.38845428060E+02  0.36923259104E+01  0.39095410650E+02  0.00000000000E+00 0.  1.
</event>
<event>
 7    1  0.2349719E-015  0.9000772E+02  0.7816164E-02  0.1186339E+00
        -11   -1    0    0    0    0  0.00000000000E+00  0.00000000000E+00  0.45593999997E+02  0.45594000000E+02  0.51100000000E-03 0.  1.
         11   -1    0    0    0    0 -0.00000000000E+00 -0.00000000000E+00 -0.45593999997E+02  0.45594000000E+02  0.51100000000E-03 0. -1.
    9900012    2    1    2    0    0  0.27895254733E+00 -0.65952313434E+00 -0.93822842192E+00  0.90007721279E+02  0.89999982400E+02 0.  0.
        -12    1    1    2    0    0 -0.27895254733E+00  0.65952313434E+00  0.93822842192E+00  0.11802787214E+01  0.00000000000E+00 0.  1.
         11    1    3    3    0    0  0.68296399404E+01  0.48080327869E+01  0.87866299109E+01  0.12122954526E+02  0.51100000000E-03 0. -1.
        -11    1    3    3    0    0  0.25142354235E+02 -0.19954082719E+02  0.14726249724E+02  0.35315235025E+02  0.51100000000E-03 0.  1.
         12    1    3    3    0    0 -0.31693041628E+02  0.14486526798E+02 -0.24451108057E+02  0.42569531728E+02  0.00000000000E+00 0. -1.
</event>
<event>
 7    1  0.2349719E-015  0.9000791E+02  0.7816164E-02  0.1186339E+00
        -11   -1    0    0    0    0  0.00000000000E+00  0.00000000000E+00  0.45593999997E+02  0.45594000000E+02  0.51100000000E-03 0. -1.
         11   -1    0    0    0    0 -0.00000000000E+00 -0.00000000000E+00 -0.45593999997E+02  0.45594000000E+02  0.51100000000E-03 0.  1.
    9900012    2    1    2    0    0  0.46159974293E+00 -0.97317278470E+00 -0.48215628335E+00  0.90007909210E+02  0.90000172811E+02 0.  0.
        -12    1    1    2    0    0 -0.46159974293E+00  0.97317278470E+00  0.48215628335E+00  0.11800907902E+01  0.00000000000E+00 0.  1.
         11    1    3    3    0    0 -0.20844014557E+02 -0.75752356278E+01  0.36514135166E+02  0.42721647965E+02  0.51100000000E-03 0. -1.
        -11    1    3    3    0    0  0.58274563877E+01  0.72581646252E+01 -0.27610680219E+01  0.97089494056E+01  0.51100000000E-03 0.  1.
        -12    1    3    3    0    0  0.15478157912E+02 -0.65610178207E+00 -0.34235223428E+02  0.37577311839E+02  0.00000000000E+00 0.  1.
</event>
<event>
 7    1  0.2349719E-015  0.9000747E+02  0.7816164E-02  0.1186340E+00
        -11   -1    0    0    0    0  0.00000000000E+00  0.00000000000E+00  0.45593999997E+02  0.45594000000E+02  0.51100000000E-03 0. -1.
         11   -1    0    0    0    0 -0.00000000000E+00 -0.00000000000E+00 -0.45593999997E+02  0.45594000000E+02  0.51100000000E-03 0.  1.
    9900012    2    1    2    0    0  0.72248571513E+00  0.92887588504E+00  0.94129503037E-01  0.90007467755E+02  0.89999725529E+02 0.  0.
        -12    1    1    2    0    0 -0.72248571513E+00 -0.92887588504E+00 -0.94129503037E-01  0.11805322451E+01  0.00000000000E+00 0.  1.
         11    1    3    3    0    0 -0.34096275266E+02  0.57671287878E+01  0.62662418289E+01  0.35143727014E+02  0.51100000000E-03 0. -1.
        -11    1    3    3    0    0 -0.96271503876E+01 -0.27785573959E+01 -0.96450922009E+00  0.10066413665E+02  0.51100000000E-03 0.  1.
        -12    1    3    3    0    0  0.44445911369E+02 -0.20596955068E+01 -0.52076031058E+01  0.44797327076E+02  0.00000000000E+00 0.  1.
</event>
<event>
 7    1  0.2349719E-015  0.9000771E+02  0.7816164E-02  0.1186339E+00
        -11   -1    0    0    0    0  0.00000000000E+00  0.00000000000E+00  0.45593999997E+02  0.45594000000E+02  0.51100000000E-03 0.  1.
         11   -1    0    0    0    0 -0.00000000000E+00 -0.00000000000E+00 -0.45593999997E+02  0.45594000000E+02  0.51100000000E-03 0. -1.
    9900012    2    1    2    0    0 -0.56698250154E+00 -0.52593820540E+00 -0.89162866923E+00  0.90007711121E+02  0.89999972108E+02 0.  0.
        -12    1    1    2    0    0  0.56698250154E+00  0.52593820540E+00  0.89162866923E+00  0.11802888785E+01  0.00000000000E+00 0.  1.
         11    1    3    3    0    0  0.15371873962E+02 -0.30756892520E+02 -0.19405804715E+02  0.39482479703E+02  0.51100000000E-03 0. -1.
        -11    1    3    3    0    0 -0.86305969626E+01 -0.54677255044E+01  0.15606280821E+01  0.10335317431E+02  0.51100000000E-03 0.  1.
        -12    1    3    3    0    0 -0.73082595007E+01  0.35698679819E+02  0.16953547964E+02  0.40189913988E+02  0.00000000000E+00 0.  1.
</event>
<event>
 7    1  0.2349719E-015  0.9000777E+02  0.7816164E-02  0.1186339E+00
        -11   -1    0    0    0    0  0.00000000000E+00  0.00000000000E+00  0.45593999997E+02  0.45594000000E+02  0.51100000000E-03 0. -1.
         11   -1    0    0    0    0 -0.00000000000E+00 -0.00000000000E+00 -0.45593999997E+02  0.45594000000E+02  0.51100000000E-03 0.  1.
    9900012    2    1    2    0    0  0.58287374004E+00  0.29742814034E+00  0.98220633166E+00  0.90007773508E+02  0.90000035318E+02 0.  0.
        -12    1    1    2    0    0 -0.58287374004E+00 -0.29742814034E+00 -0.98220633166E+00  0.11802264924E+01  0.00000000000E+00 0.  1.
         11    1    3    3    0    0  0.58057065719E+01 -0.56751369669E+01  0.63756779767E+01  0.10322920048E+02  0.51100000000E-03 0. -1.
        -11    1    3    3    0    0  0.18487278918E+02 -0.26268056273E+02 -0.19113530810E+02  0.37378032619E+02  0.51100000000E-03 0.  1.
         12    1    3    3    0    0 -0.23710111750E+02  0.32240621380E+02  0.13720059165E+02  0.42306820841E+02  0.00000000000E+00 0. -1.
</event>
<event>
 7    1  0.2349719E-015  0.9000770E+02  0.7816164E-02  0.1186339E+00
        -11   -1    0    0    0    0  0.00000000000E+00  0.00000000000E+00  0.45593999997E+02  0.45594000000E+02  0.51100000000E-03 0. -1.
         11   -1    0    0    0    0 -0.00000000000E+00 -0.00000000000E+00 -0.45593999997E+02  0.45594000000E+02  0.51100000000E-03 0.  1.
    9900012    2    1    2    0    0 -0.33854660460E+00  0.79736969092E+00  0.80167633245E+00  0.90007704626E+02  0.89999965527E+02 0.  0.
        -12    1    1    2    0    0  0.33854660460E+00 -0.79736969092E+00 -0.80167633245E+00  0.11802953738E+01  0.00000000000E+00 0.  1.
         11    1    3    3    0    0 -0.29422834067E+00 -0.93782930367E+01 -0.25253843782E+00  0.93863052647E+01  0.51100000000E-03 0. -1.
        -11    1    3    3    0    0 -0.23598325457E+02  0.10259360399E+02 -0.31351878394E+02  0.40559533026E+02  0.51100000000E-03 0.  1.
         12    1    3    3    0    0  0.23554007193E+02 -0.83697671398E-01  0.32406093164E+02  0.40061866336E+02  0.00000000000E+00 0. -1.
</event>
<event>
 7    1  0.2349719E-015  0.9000777E+02  0.7816164E-02  0.1186339E+00
        -11   -1    0    0    0    0  0.00000000000E+00  0.00000000000E+00  0.45593999997E+02  0.45594000000E+02  0.51100000000E-03 0. -1.
         11   -1    0    0    0    0 -0.00000000000E+00 -0.00000000000E+00 -0.45593999997E+02  0.45594000000E+02  0.51100000000E-03 0.  1.
    9900012    2    1    2    0    0  0.86264749394E+00  0.11649729401E+00  0.79699493853E+00  0.90007774068E+02  0.90000035886E+02 0.  0.
        -12    1    1    2    0    0 -0.86264749394E+00 -0.11649729401E+00 -0.79699493853E+00  0.11802259319E+01  0.00000000000E+00 0.  1.
         11    1    3    3    0    0  0.14687747502E+02  0.34523731695E+02 -0.16888431440E+02  0.41144101565E+02  0.51100000000E-03 0. -1.
        -11    1    3    3    0    0  0.36006083045E+01 -0.79834256959E+01 -0.48476372155E+01  0.10009947694E+02  0.51100000000E-03 0.  1.
        -12    1    3    3    0    0 -0.17425708312E+02 -0.26423808705E+02  0.22533063594E+02  0.38853724809E+02  0.00000000000E+00 0.  1.
</event>
<event>
 8    1  0.2349719E-015  0.9000762E+02  0.7816164E-02  0.1186339E+00
        -11   -1    0    0    0    0  0.00000000000E+00  0.00000000000E+00  0.45593999997E+02  0.45594000000E+02  0.51100000000E-03 0.  1.
         11   -1    0    0    0    0 -0.00000000000E+00 -0.00000000000E+00 -0.45593999997E+02  0.45594000000E+02  0.51100000000E-03 0. -1.
    9900012    2    1    2    0    0  0.11681314232E+01 -0.16356538332E+00  0.44899513265E-01  0.90007618442E+02  0.89999878205E+02 0.  0.
         23    2    3    3    0    0  0.10655683995E+02  0.87623963924E+01  0.24722874913E+02  0.62102620372E+02  0.55273788735E+02 0.  0.
        -12    1    1    2    0    0 -0.11681314232E+01  0.16356538332E+00 -0.44899513265E-01  0.11803815581E+01  0.00000000000E+00 0.  1.
         11    1    4    4    0    0 -0.11956243152E+02 -0.15822496736E+02  0.20350040282E+02  0.28415265141E+02  0.51100000000E-03 0. -1.
        -11    1    4    4    0    0  0.22611927148E+02  0.24584893129E+02  0.43728346317E+01  0.33687355231E+02  0.51100000000E-03 0.  1.
         12    1    3    3    0    0 -0.94875525721E+01 -0.89259617757E+01 -0.24677975400E+02  0.27904998070E+02  0.00000000000E+00 0. -1.
</event>
<event>
 7    1  0.2349719E-015  0.9000831E+02  0.7816164E-02  0.1186338E+00
        -11   -1    0    0    0    0  0.00000000000E+00  0.00000000000E+00  0.45593999997E+02  0.45594000000E+02  0.51100000000E-03 0. -1.
         11   -1    0    0    0    0 -0.00000000000E+00 -0.00000000000E+00 -0.45593999997E+02  0.45594000000E+02  0.51100000000E-03 0.  1.
    9900012    2    1    2    0    0 -0.11413742850E+01  0.28213748072E+00 -0.96630608241E-01  0.90008307544E+02  0.90000576402E+02 0.  0.
        -12    1    1    2    0    0  0.11413742850E+01 -0.28213748072E+00  0.96630608241E-01  0.11796924561E+01  0.00000000000E+00 0.  1.
         11    1    3    3    0    0  0.49053161568E+01  0.63780916698E+01  0.80902100905E+01  0.11410244499E+02  0.51100000000E-03 0. -1.
        -11    1    3    3    0    0 -0.18482155760E+02  0.19959661982E+02  0.23344228779E+02  0.35845937085E+02  0.51100000000E-03 0.  1.
         12    1    3    3    0    0  0.12435465318E+02 -0.26055616171E+02 -0.31531069478E+02  0.42752125960E+02  0.00000000000E+00 0. -1.
</event>
<event>
 7    1  0.2349719E-015  0.9000713E+02  0.7816164E-02  0.1186340E+00
        -11   -1    0    0    0    0  0.00000000000E+00  0.00000000000E+00  0.45593999997E+02  0.45594000000E+02  0.51100000000E-03 0.  1.
         11   -1    0    0    0    0 -0.00000000000E+00 -0.00000000000E+00 -0.45593999997E+02  0.45594000000E+02  0.51100000000E-03 0. -1.
    9900012    2    1    2    0    0  0.74379325525E+00  0.76158018019E+00 -0.51110768147E+00  0.90007125816E+02  0.89999379074E+02 0.  0.
        -12    1    1    2    0    0 -0.74379325525E+00 -0.76158018019E+00  0.51110768147E+00  0.11808741844E+01  0.00000000000E+00 0.  1.
         11    1    3    3    0    0  0.51040605236E+01  0.55883994998E+01 -0.59989817291E+01  0.96576096859E+01  0.51100000000E-03 0. -1.
        -11    1    3    3    0    0  0.15526518495E+02  0.33518106725E+02  0.14876418037E+01  0.36969573076E+02  0.51100000000E-03 0.  1.
         12    1    3    3    0    0 -0.19886785764E+02 -0.38344926044E+02  0.40002322438E+01  0.43379943054E+02  0.00000000000E+00 0. -1.
</event>
<event>
 7    1  0.2349719E-015  0.9000771E+02  0.7816164E-02  0.1186339E+00
        -11   -1    0    0    0    0  0.00000000000E+00  0.00000000000E+00  0.45593999997E+02  0.45594000000E+02  0.51100000000E-03 0.  1.
         11   -1    0    0    0    0 -0.00000000000E+00 -0.00000000000E+00 -0.45593999997E+02  0.45594000000E+02  0.51100000000E-03 0. -1.
    9900012    2    1    2    0    0 -0.30739052003E+00 -0.15227556021E+00 -0.11293364588E+01  0.90007712910E+02  0.89999973920E+02 0.  0.
        -12    1    1    2    0    0  0.30739052003E+00  0.15227556021E+00  0.11293364588E+01  0.11802870901E+01  0.00000000000E+00 0.  1.
         11    1    3    3    0    0 -0.10752312831E+02 -0.20176209738E+01 -0.41083166730E+02  0.42514816411E+02  0.51100000000E-03 0. -1.
        -11    1    3    3    0    0  0.81704291858E+01 -0.25028123258E+01  0.14402275181E+01  0.86656931739E+01  0.51100000000E-03 0.  1.
        -12    1    3    3    0    0  0.22744931251E+01  0.43681577395E+01  0.38513602753E+02  0.38827203325E+02  0.00000000000E+00 0.  1.
</event>
<event>
 7    1  0.2349719E-015  0.9000769E+02  0.7816164E-02  0.1186339E+00
        -11   -1    0    0    0    0  0.00000000000E+00  0.00000000000E+00  0.45593999997E+02  0.45594000000E+02  0.51100000000E-03 0. -1.
         11   -1    0    0    0    0 -0.00000000000E+00 -0.00000000000E+00 -0.45593999997E+02  0.45594000000E+02  0.51100000000E-03 0.  1.
    9900012    2    1    2    0    0  0.94749654504E+00  0.47758446360E+00  0.51700582155E+00  0.90007690023E+02  0.89999950731E+02 0.  0.
        -12    1    1    2    0    0 -0.94749654504E+00 -0.47758446360E+00 -0.51700582155E+00  0.11803099772E+01  0.00000000000E+00 0.  1.
         11    1    3    3    0    0  0.12750584246E+02  0.22940809235E+01 -0.95853808937E+01  0.16115822443E+02  0.51100000000E-03 0. -1.
        -11    1    3    3    0    0  0.10466554638E+02  0.26670984441E+02 -0.12489901528E+02  0.31255204647E+02  0.51100000000E-03 0.  1.
         12    1    3    3    0    0 -0.22269642339E+02 -0.28487480901E+02  0.22592288243E+02  0.42636662933E+02  0.00000000000E+00 0. -1.
</event>
<event>
 7    1  0.2349719E-015  0.9000779E+02  0.7816164E-02  0.1186339E+00
        -11   -1    0    0    0    0  0.00000000000E+00  0.00000000000E+00  0.45593999997E+02  0.45594000000E+02  0.51100000000E-03 0. -1.
         11   -1    0    0    0    0 -0.00000000000E+00 -0.00000000000E+00 -0.45593999997E+02  0.45594000000E+02  0.51100000000E-03 0.  1.
    9900012    2    1    2    0    0 -0.80337226517E+00 -0.73252797483E+00  0.45922250588E+00  0.90007792586E+02  0.90000054648E+02 0.  0.
        -12    1    1    2    0    0  0.80337226517E+00  0.73252797483E+00 -0.45922250588E+00  0.11802074141E+01  0.00000000000E+00 0.  1.
         11    1    3    3    0    0 -0.25330674827E+01 -0.19167310422E+01 -0.93983166485E+01  0.99206171606E+01  0.51100000000E-03 0. -1.
        -11    1    3    3    0    0  0.16582508492E+01  0.31199026302E+02 -0.20522670239E+02  0.37380596999E+02  0.51100000000E-03 0.  1.
         12    1    3    3    0    0  0.71444368305E-01 -0.30014823234E+02  0.30380209393E+02  0.42706578426E+02  0.00000000000E+00 0. -1.
</event>
<event>
 7    1  0.2432838E-015  0.9000742E+02  0.7816164E-02  0.1186340E+00
        -11   -1    0    0    0    0  0.00000000000E+00  0.00000000000E+00  0.45593999997E+02  0.45594000000E+02  0.51100000000E-03 0. -1.
         11   -1    0    0    0    0 -0.00000000000E+00 -0.00000000000E+00 -0.45593999997E+02  0.45594000000E+02  0.51100000000E-03 0.  1.
    9900012    2    1    2    0    0 -0.50188357385E+00 -0.68581959268E+00  0.81946794011E+00  0.90007422455E+02  0.89999679631E+02 0.  0.
        -12    1    1    2    0    0  0.50188357385E+00  0.68581959268E+00 -0.81946794011E+00  0.11805775452E+01  0.00000000000E+00 0.  1.
         11    1    3    3    0    0  0.18535662383E+02  0.45824744480E+01  0.32919147149E+02  0.38055749911E+02  0.51100000000E-03 0. -1.
        -11    1    3    3    0    0 -0.42360191519E+01  0.46784788576E+01  0.67277750591E+01  0.92246940428E+01  0.51100000000E-03 0.  1.
        -12    1    3    3    0    0 -0.14801526805E+02 -0.99467728983E+01 -0.38827454268E+02  0.42726978501E+02  0.00000000000E+00 0.  1.
</event>
<event>
 7    1  0.2349719E-015  0.9000765E+02  0.7816164E-02  0.1186339E+00
        -11   -1    0    0    0    0  0.00000000000E+00  0.00000000000E+00  0.45593999997E+02  0.45594000000E+02  0.51100000000E-03 0. -1.
         11   -1    0    0    0    0 -0.00000000000E+00 -0.00000000000E+00 -0.45593999997E+02  0.45594000000E+02  0.51100000000E-03 0.  1.
    9900012    2    1    2    0    0 -0.55385607659E+00  0.86346111382E+00  0.58387610992E+00  0.90007647103E+02  0.89999907245E+02 0.  0.
        -12    1    1    2    0    0  0.55385607659E+00 -0.86346111382E+00 -0.58387610992E+00  0.11803528965E+01  0.00000000000E+00 0.  1.
         11    1    3    3    0    0  0.72179400200E+00 -0.95062558167E+01  0.41861813156E+02  0.42933684762E+02  0.51100000000E-03 0. -1.
        -11    1    3    3    0    0  0.38665567851E+01 -0.48230462164E+01 -0.78035175508E+01  0.99552459842E+01  0.51100000000E-03 0.  1.
        -12    1    3    3    0    0 -0.51422068637E+01  0.15192763147E+02 -0.33474419495E+02  0.37118716357E+02  0.00000000000E+00 0.  1.
</event>
<event>
 7    1  0.2349719E-015  0.9000772E+02  0.7816164E-02  0.1186339E+00
        -11   -1    0    0    0    0  0.00000000000E+00  0.00000000000E+00  0.45593999997E+02  0.45594000000E+02  0.51100000000E-03 0. -1.
         11   -1    0    0    0    0 -0.00000000000E+00 -0.00000000000E+00 -0.45593999997E+02  0.45594000000E+02  0.51100000000E-03 0.  1.
    9900012    2    1    2    0    0 -0.25496069839E+00  0.85627572093E+00  0.77126777834E+00  0.90007717384E+02  0.89999978453E+02 0.  0.
        -12    1    1    2    0    0  0.25496069839E+00 -0.85627572093E+00 -0.77126777834E+00  0.11802826161E+01  0.00000000000E+00 0.  1.
         11    1    3    3    0    0 -0.47186012895E+01  0.97081436903E+01 -0.59228106598E+01  0.12312308411E+02  0.51100000000E-03 0. -1.
        -11    1    3    3    0    0 -0.25268935943E+02  0.11647102934E+02  0.24821998144E+02  0.37286803598E+02  0.51100000000E-03 0.  1.
         12    1    3    3    0    0  0.29732576534E+02 -0.20498970904E+02 -0.18127919705E+02  0.40408605375E+02  0.00000000000E+00 0. -1.
</event>
<event>
 7    1  0.2349719E-015  0.9000773E+02  0.7816164E-02  0.1186339E+00
        -11   -1    0    0    0    0  0.00000000000E+00  0.00000000000E+00  0.45593999997E+02  0.45594000000E+02  0.51100000000E-03 0. -1.
         11   -1    0    0    0    0 -0.00000000000E+00 -0.00000000000E+00 -0.45593999997E+02  0.45594000000E+02  0.51100000000E-03 0.  1.
    9900012    2    1    2    0    0  0.10275562807E+01  0.50315184226E+00  0.28982338531E+00  0.90007732538E+02  0.89999993808E+02 0.  0.
        -12    1    1    2    0    0 -0.10275562807E+01 -0.50315184226E+00 -0.28982338531E+00  0.11802674616E+01  0.00000000000E+00 0.  1.
         11    1    3    3    0    0  0.11829738626E+02 -0.30741238736E+02 -0.23303784042E+02  0.40348888781E+02  0.51100000000E-03 0. -1.
        -11    1    3    3    0    0 -0.77117356940E+01 -0.36555578117E+01  0.31688810304E+01  0.91036134351E+01  0.51100000000E-03 0.  1.
        -12    1    3    3    0    0 -0.30904466510E+01  0.34899948390E+02  0.20424726397E+02  0.40555230322E+02  0.00000000000E+00 0.  1.
</event>
<event>
 7    1  0.2349719E-015  0.9000775E+02  0.7816164E-02  0.1186339E+00
        -11   -1    0    0    0    0  0.00000000000E+00  0.00000000000E+00  0.45593999997E+02  0.45594000000E+02  0.51100000000E-03 0. -1.
         11   -1    0    0    0    0 -0.00000000000E+00 -0.00000000000E+00 -0.45593999997E+02  0.45594000000E+02  0.51100000000E-03 0.  1.
    9900012    2    1    2    0    0  0.75705091254E-01 -0.11768272290E+01 -0.48329234730E-01  0.90007750322E+02  0.90000011826E+02 0.  0.
        -12    1    1    2    0    0 -0.75705091254E-01  0.11768272290E+01  0.48329234730E-01  0.11802496781E+01  0.00000000000E+00 0.  1.
         11    1    3    3    0    0  0.60854359938E+01  0.21336240804E+01 -0.22265062752E+01  0.68221853834E+01  0.51100000000E-03 0. -1.
        -11    1    3    3    0    0 -0.59802792880E+01 -0.20214519902E+02 -0.35839276466E+02  0.41579373410E+02  0.51100000000E-03 0.  1.
         12    1    3    3    0    0 -0.29451614501E-01  0.16904068593E+02  0.38017453507E+02  0.41606191529E+02  0.00000000000E+00 0. -1.
</event>
<event>
 7    1  0.2349719E-015  0.9000755E+02  0.7816164E-02  0.1186339E+00
        -11   -1    0    0    0    0  0.00000000000E+00  0.00000000000E+00  0.45593999997E+02  0.45594000000E+02  0.51100000000E-03 0.  1.
         11   -1    0    0    0    0 -0.00000000000E+00 -0.00000000000E+00 -0.45593999997E+02  0.45594000000E+02  0.51100000000E-03 0. -1.
    9900012    2    1    2    0    0 -0.29551307033E+00 -0.11428388766E+01 -0.73948855433E-02  0.90007549511E+02  0.89999808364E+02 0.  0.
        -12    1    1    2    0    0  0.29551307033E+00  0.11428388766E+01  0.73948855433E-02  0.11804504890E+01  0.00000000000E+00 0.  1.
         11    1    3    3    0    0  0.18576545072E+01 -0.22369324117E+02 -0.36606012728E+02  0.42939931414E+02  0.51100000000E-03 0. -1.
        -11    1    3    3    0    0 -0.68574369371E+01  0.52437201725E+01  0.22954803198E+01  0.89325401065E+01  0.51100000000E-03 0.  1.
        -12    1    3    3    0    0  0.47042693596E+01  0.15982765068E+02  0.34303137523E+02  0.38135077990E+02  0.00000000000E+00 0.  1.
</event>
<event>
 7    1  0.2349719E-015  0.9000771E+02  0.7816164E-02  0.1186339E+00
        -11   -1    0    0    0    0  0.00000000000E+00  0.00000000000E+00  0.45593999997E+02  0.45594000000E+02  0.51100000000E-03 0. -1.
         11   -1    0    0    0    0 -0.00000000000E+00 -0.00000000000E+00 -0.45593999997E+02  0.45594000000E+02  0.51100000000E-03 0.  1.
    9900012    2    1    2    0    0  0.10138491199E+01 -0.28833158185E+00 -0.53108671950E+00  0.90007712644E+02  0.89999973651E+02 0.  0.
        -12    1    1    2    0    0 -0.10138491199E+01  0.28833158185E+00  0.53108671950E+00  0.11802873559E+01  0.00000000000E+00 0.  1.
         11    1    3    3    0    0 -0.43471670056E+01  0.66967513352E+01 -0.50842500062E+01  0.94654074295E+01  0.51100000000E-03 0. -1.
        -11    1    3    3    0    0 -0.11169310465E+02  0.13545172288E+02 -0.31392590574E+02  0.35968318445E+02  0.51100000000E-03 0.  1.
         12    1    3    3    0    0  0.16530326590E+02 -0.20530255205E+02  0.35945753860E+02  0.44573986770E+02  0.00000000000E+00 0. -1.
</event>
<event>
 7    1  0.2349719E-015  0.9000788E+02  0.7816164E-02  0.1186339E+00
        -11   -1    0    0    0    0  0.00000000000E+00  0.00000000000E+00  0.45593999997E+02  0.45594000000E+02  0.51100000000E-03 0. -1.
         11   -1    0    0    0    0 -0.00000000000E+00 -0.00000000000E+00 -0.45593999997E+02  0.45594000000E+02  0.51100000000E-03 0.  1.
    9900012    2    1    2    0    0  0.11405808427E+01 -0.22543926761E+00 -0.20235138236E+00  0.90007875598E+02  0.90000138756E+02 0.  0.
        -12    1    1    2    0    0 -0.11405808427E+01  0.22543926761E+00  0.20235138236E+00  0.11801244020E+01  0.00000000000E+00 0.  1.
         11    1    3    3    0    0  0.11668185685E+02 -0.34515311091E+02  0.11608612753E+02  0.38238895737E+02  0.51100000000E-03 0. -1.
        -11    1    3    3    0    0  0.47611639303E+01  0.42050788342E+01  0.98122857389E+01  0.11688982918E+02  0.51100000000E-03 0.  1.
        -12    1    3    3    0    0 -0.15288768772E+02  0.30084792990E+02 -0.21623249874E+02  0.40079996943E+02  0.00000000000E+00 0.  1.
</event>
<event>
 7    1  0.2349719E-015  0.9000763E+02  0.7816164E-02  0.1186339E+00
        -11   -1    0    0    0    0  0.00000000000E+00  0.00000000000E+00  0.45593999997E+02  0.45594000000E+02  0.51100000000E-03 0.  1.
         11   -1    0    0    0    0 -0.00000000000E+00 -0.00000000000E+00 -0.45593999997E+02  0.45594000000E+02  0.51100000000E-03 0. -1.
    9900012    2    1    2    0    0  0.72105127976E+00 -0.84977827164E+00 -0.38888142407E+00  0.90007632760E+02  0.89999892712E+02 0.  0.
        -12    1    1    2    0    0 -0.72105127976E+00  0.84977827164E+00  0.38888142407E+00  0.11803672399E+01  0.00000000000E+00 0.  1.
         11    1    3    3    0    0  0.14638050586E+02 -0.35817562583E+02 -0.10792950532E+02  0.40170363402E+02  0.51100000000E-03 0. -1.
        -11    1    3    3    0    0 -0.89289873050E+01 -0.55204216155E+00 -0.56066386411E+01  0.10557744170E+02  0.51100000000E-03 0.  1.
        -12    1    3    3    0    0 -0.49880120012E+01  0.35519826473E+02  0.16010707749E+02  0.39279525189E+02  0.00000000000E+00 0.  1.
</event>
<event>
 7    1  0.2349719E-015  0.9000763E+02  0.7816164E-02  0.1186339E+00
        -11   -1    0    0    0    0  0.00000000000E+00  0.00000000000E+00  0.45593999997E+02  0.45594000000E+02  0.51100000000E-03 0. -1.
         11   -1    0    0    0    0 -0.00000000000E+00 -0.00000000000E+00 -0.45593999997E+02  0.45594000000E+02  0.51100000000E-03 0.  1.
    9900012    2    1    2    0    0  0.15304872067E+00 -0.16335312148E+00  0.11589544317E+01  0.90007625683E+02  0.89999885542E+02 0.  0.
        -12    1    1    2    0    0 -0.15304872067E+00  0.16335312148E+00 -0.11589544317E+01  0.11803743169E+01  0.00000000000E+00 0.  1.
         11    1    3    3    0    0 -0.82036247398E+01 -0.26801108614E+01  0.43598914733E+02  0.44444885187E+02  0.51100000000E-03 0. -1.
        -11    1    3    3    0    0  0.58750736761E+00  0.54607005405E+01 -0.57805369942E+01  0.79736455592E+01  0.51100000000E-03 0.  1.
        -12    1    3    3    0    0  0.77691660929E+01 -0.29439428006E+01 -0.36659423307E+02  0.37589094937E+02  0.00000000000E+00 0.  1.
</event>
<event>
 7    1  0.2349719E-015  0.9000773E+02  0.7816164E-02  0.1186339E+00
        -11   -1    0    0    0    0  0.00000000000E+00  0.00000000000E+00  0.45593999997E+02  0.45594000000E+02  0.51100000000E-03 0.  1.
         11   -1    0    0    0    0 -0.00000000000E+00 -0.00000000000E+00 -0.45593999997E+02  0.45594000000E+02  0.51100000000E-03 0. -1.
    9900012    2    1    2    0    0 -0.10332273448E+01  0.74938684989E-02  0.57045028157E+00  0.90007733747E+02  0.89999995032E+02 0.  0.
        -12    1    1    2    0    0  0.10332273448E+01 -0.74938684989E-02 -0.57045028157E+00  0.11802662530E+01  0.00000000000E+00 0.  1.
         11    1    3    3    0    0  0.60799607154E+01  0.50479511663E+01 -0.60893731698E+01  0.99763820667E+01  0.51100000000E-03 0. -1.
        -11    1    3    3    0    0  0.14629088961E+02  0.32839740144E+02  0.76558191498E+00  0.35958933417E+02  0.51100000000E-03 0.  1.
         12    1    3    3    0    0 -0.21742277021E+02 -0.37880197442E+02  0.58942415364E+01  0.44072418263E+02  0.00000000000E+00 0. -1.
</event>
<event>
 7    1  0.2349719E-015  0.9000776E+02  0.7816164E-02  0.1186339E+00
        -11   -1    0    0    0    0  0.00000000000E+00  0.00000000000E+00  0.45593999997E+02  0.45594000000E+02  0.51100000000E-03 0.  1.
         11   -1    0    0    0    0 -0.00000000000E+00 -0.00000000000E+00 -0.45593999997E+02  0.45594000000E+02  0.51100000000E-03 0. -1.
    9900012    2    1    2    0    0  0.29050959049E+00  0.11381822127E+01 -0.11455743084E+00  0.90007755120E+02  0.90000016688E+02 0.  0.
        -12    1    1    2    0    0 -0.29050959049E+00 -0.11381822127E+01  0.11455743084E+00  0.11802448798E+01  0.00000000000E+00 0.  1.
         11    1    3    3    0    0 -0.27267363047E+02  0.22296479962E+02 -0.20382733325E+02  0.40695183060E+02  0.51100000000E-03 0. -1.
        -11    1    3    3    0    0  0.65338206883E+01  0.35042482876E+00 -0.63724041341E+01  0.91335176715E+01  0.51100000000E-03 0.  1.
        -12    1    3    3    0    0  0.21024051949E+02 -0.21508722578E+02  0.26640580028E+02  0.40179054388E+02  0.00000000000E+00 0.  1.
</event>
<event>
 7    1  0.2349719E-015  0.9000777E+02  0.7816164E-02  0.1186339E+00
        -11   -1    0    0    0    0  0.00000000000E+00  0.00000000000E+00  0.45593999997E+02  0.45594000000E+02  0.51100000000E-03 0.  1.
         11   -1    0    0    0    0 -0.00000000000E+00 -0.00000000000E+00 -0.45593999997E+02  0.45594000000E+02  0.51100000000E-03 0. -1.
    9900012    2    1    2    0    0  0.41840836259E+00  0.10704582802E+01 -0.26831683556E+00  0.90007771034E+02  0.90000032812E+02 0.  0.
        -12    1    1    2    0    0 -0.41840836259E+00 -0.10704582802E+01  0.26831683556E+00  0.11802289659E+01  0.00000000000E+00 0.  1.
         11    1    3    3    0    0  0.62776773361E+01  0.27829496617E+02  0.44118886284E+01  0.28867886591E+02  0.51100000000E-03 0. -1.
        -11    1    3    3    0    0  0.14070726454E+01  0.49078747995E+01  0.19807693500E+02  0.20455116977E+02  0.51100000000E-03 0.  1.
        -12    1    3    3    0    0 -0.72663416189E+01 -0.31666913137E+02 -0.24487898964E+02  0.40684767466E+02  0.00000000000E+00 0.  1.
</event>
<event>
 7    1  0.2349719E-015  0.9000766E+02  0.7816164E-02  0.1186339E+00
        -11   -1    0    0    0    0  0.00000000000E+00  0.00000000000E+00  0.45593999997E+02  0.45594000000E+02  0.51100000000E-03 0.  1.
         11   -1    0    0    0    0 -0.00000000000E+00 -0.00000000000E+00 -0.45593999997E+02  0.45594000000E+02  0.51100000000E-03 0. -1.
    9900012    2    1    2    0    0 -0.15992986749E-02 -0.11564471030E+01 -0.23627972339E+00  0.90007660825E+02  0.89999921148E+02 0.  0.
        -12    1    1    2    0    0  0.15992986749E-02  0.11564471030E+01  0.23627972339E+00  0.11803391748E+01  0.00000000000E+00 0.  1.
         11    1    3    3    0    0 -0.23317902299E+02  0.45871332341E+01 -0.24238083649E+02  0.33944823731E+02  0.51100000000E-03 0. -1.
        -11    1    3    3    0    0 -0.42748279950E+01  0.92012400991E+01 -0.67034574901E+01  0.12160317279E+02  0.51100000000E-03 0.  1.
        -12    1    3    3    0    0  0.27591130995E+02 -0.14944820436E+02  0.30705261416E+02  0.43902519815E+02  0.00000000000E+00 0.  1.
</event>
<event>
 7    1  0.2349719E-015  0.9000777E+02  0.7816164E-02  0.1186339E+00
        -11   -1    0    0    0    0  0.00000000000E+00  0.00000000000E+00  0.45593999997E+02  0.45594000000E+02  0.51100000000E-03 0. -1.
         11   -1    0    0    0    0 -0.00000000000E+00 -0.00000000000E+00 -0.45593999997E+02  0.45594000000E+02  0.51100000000E-03 0.  1.
    9900012    2    1    2    0    0  0.48493261610E+00 -0.96877268105E+00  0.46825551714E+00  0.90007769777E+02  0.90000031538E+02 0.  0.
        -12    1    1    2    0    0 -0.48493261610E+00  0.96877268105E+00 -0.46825551714E+00  0.11802302229E+01  0.00000000000E+00 0.  1.
         11    1    3    3    0    0 -0.10010145535E+02  0.31232994716E+00 -0.56617100786E+01  0.11504587125E+02  0.51100000000E-03 0. -1.
        -11    1    3    3    0    0  0.28943772333E+02  0.81715991281E+01 -0.26340982346E+02  0.39979549027E+02  0.51100000000E-03 0.  1.
         12    1    3    3    0    0 -0.18448694182E+02 -0.94527017563E+01  0.32470947941E+02  0.38523633626E+02  0.00000000000E+00 0. -1.
</event>
<event>
 7    1  0.2349719E-015  0.9000772E+02  0.7816164E-02  0.1186339E+00
        -11   -1    0    0    0    0  0.00000000000E+00  0.00000000000E+00  0.45593999997E+02  0.45594000000E+02  0.51100000000E-03 0.  1.
         11   -1    0    0    0    0 -0.00000000000E+00 -0.00000000000E+00 -0.45593999997E+02  0.45594000000E+02  0.51100000000E-03 0. -1.
    9900012    2    1    2    0    0  0.40646293426E+00 -0.13364617566E+00 -0.10999978951E+01  0.90007716650E+02  0.89999977710E+02 0.  0.
        -12    1    1    2    0    0 -0.40646293426E+00  0.13364617566E+00  0.10999978951E+01  0.11802833501E+01  0.00000000000E+00 0.  1.
         11    1    3    3    0    0  0.17718296517E+01 -0.10436500155E+02  0.42810645834E+01  0.11418731542E+02  0.51100000000E-03 0. -1.
        -11    1    3    3    0    0  0.18891381797E+02 -0.24188662678E+02  0.14472733616E+02  0.33932811951E+02  0.51100000000E-03 0.  1.
         12    1    3    3    0    0 -0.20256748515E+02  0.34491516657E+02 -0.19853796095E+02  0.44656173157E+02  0.00000000000E+00 0. -1.
</event>
<event>
 7    1  0.2349719E-015  0.9000769E+02  0.7816164E-02  0.1186339E+00
        -11   -1    0    0    0    0  0.00000000000E+00  0.00000000000E+00  0.45593999997E+02  0.45594000000E+02  0.51100000000E-03 0.  1.
         11   -1    0    0    0    0 -0.00000000000E+00 -0.00000000000E+00 -0.45593999997E+02  0.45594000000E+02  0.51100000000E-03 0. -1.
    9900012    2    1    2    0    0  0.10544450165E+01 -0.35692155356E+00 -0.39227595046E+00  0.90007691689E+02  0.89999952419E+02 0.  0.
        -12    1    1    2    0    0 -0.10544450165E+01  0.35692155356E+00  0.39227595046E+00  0.11803083112E+01  0.00000000000E+00 0.  1.
         11    1    3    3    0    0 -0.23882636018E+02  0.17210953170E+02 -0.17910342049E+02  0.34458345357E+02  0.51100000000E-03 0. -1.
        -11    1    3    3    0    0 -0.64685924476E+01  0.62739726836E+01 -0.48320858057E+01  0.10225188261E+02  0.51100000000E-03 0.  1.
        -12    1    3    3    0    0  0.31405673482E+02 -0.23841847407E+02  0.22350151904E+02  0.45324158070E+02  0.00000000000E+00 0.  1.
</event>
<event>
 7    1  0.2349719E-015  0.9000775E+02  0.7816164E-02  0.1186339E+00
        -11   -1    0    0    0    0  0.00000000000E+00  0.00000000000E+00  0.45593999997E+02  0.45594000000E+02  0.51100000000E-03 0.  1.
         11   -1    0    0    0    0 -0.00000000000E+00 -0.00000000000E+00 -0.45593999997E+02  0.45594000000E+02  0.51100000000E-03 0. -1.
    9900012    2    1    2    0    0 -0.83823426566E+00  0.81421658483E+00  0.16551591153E+00  0.90007753904E+02  0.90000015455E+02 0.  0.
        -12    1    1    2    0    0  0.83823426566E+00 -0.81421658483E+00 -0.16551591153E+00  0.11802460964E+01  0.00000000000E+00 0.  1.
         11    1    3    3    0    0 -0.57455040041E+01 -0.94527552507E+01  0.17317872083E+01  0.11196628300E+02  0.51100000000E-03 0. -1.
        -11    1    3    3    0    0  0.42815349608E+01 -0.14989010513E+02  0.32707536522E+02  0.36232373968E+02  0.51100000000E-03 0.  1.
         12    1    3    3    0    0  0.62573477758E+00  0.25255982349E+02 -0.34273807819E+02  0.42578751635E+02  0.00000000000E+00 0. -1.
</event>
<event>
 7    1  0.2349719E-015  0.9000747E+02  0.7816164E-02  0.1186340E+00
        -11   -1    0    0    0    0  0.00000000000E+00  0.00000000000E+00  0.45593999997E+02  0.45594000000E+02  0.51100000000E-03 0.  1.
         11   -1    0    0    0    0 -0.00000000000E+00 -0.00000000000E+00 -0.45593999997E+02  0.45594000000E+02  0.51100000000E-03 0. -1.
    9900012    2    1    2    0    0  0.10929054573E+01 -0.24253155372E+00 -0.37468616413E+00  0.90007468927E+02  0.89999726716E+02 0.  0.
        -12    1    1    2    0    0 -0.10929054573E+01  0.24253155372E+00  0.37468616413E+00  0.11805310732E+01  0.00000000000E+00 0.  1.
         11    1    3    3    0    0  0.97666190568E+01  0.55671650760E+01 -0.17201687207E+01  0.11372737378E+02  0.51100000000E-03 0. -1.
        -11    1    3    3    0    0  0.22567451875E+02 -0.31085282544E+02 -0.32340361441E+00  0.38414701159E+02  0.51100000000E-03 0.  1.
         12    1    3    3    0    0 -0.31241165474E+02  0.25275585914E+02  0.16688861710E+01  0.40220030390E+02  0.00000000000E+00 0. -1.
</event>
<event>
 7    1  0.2349719E-015  0.9000771E+02  0.7816164E-02  0.1186339E+00
        -11   -1    0    0    0    0  0.00000000000E+00  0.00000000000E+00  0.45593999997E+02  0.45594000000E+02  0.51100000000E-03 0.  1.
         11   -1    0    0    0    0 -0.00000000000E+00 -0.00000000000E+00 -0.45593999997E+02  0.45594000000E+02  0.51100000000E-03 0. -1.
    9900012    2    1    2    0    0 -0.85040556022E+00 -0.54581808058E+00 -0.60989280223E+00  0.90007713499E+02  0.89999974517E+02 0.  0.
        -12    1    1    2    0    0  0.85040556022E+00  0.54581808058E+00  0.60989280223E+00  0.11802865009E+01  0.00000000000E+00 0.  1.
         11    1    3    3    0    0  0.82525165437E+01  0.36002704904E+01  0.27604615973E+01  0.94173311187E+01  0.51100000000E-03 0. -1.
        -11    1    3    3    0    0  0.26298620707E+02  0.17884103206E+01 -0.26906593975E+02  0.37666704954E+02  0.51100000000E-03 0.  1.
         12    1    3    3    0    0 -0.35401542810E+02 -0.59344988915E+01  0.23536239575E+02  0.42923677426E+02  0.00000000000E+00 0. -1.
</event>
<event>
 7    1  0.2349719E-015  0.9000774E+02  0.7816164E-02  0.1186339E+00
        -11   -1    0    0    0    0  0.00000000000E+00  0.00000000000E+00  0.45593999997E+02  0.45594000000E+02  0.51100000000E-03 0.  1.
         11   -1    0    0    0    0 -0.00000000000E+00 -0.00000000000E+00 -0.45593999997E+02  0.45594000000E+02  0.51100000000E-03 0. -1.
    9900012    2    1    2    0    0 -0.46135078748E+00 -0.75912680363E+00 -0.77710028987E+00  0.90007744556E+02  0.90000005984E+02 0.  0.
        -12    1    1    2    0    0  0.46135078748E+00  0.75912680363E+00  0.77710028987E+00  0.11802554442E+01  0.00000000000E+00 0.  1.
         11    1    3    3    0    0 -0.63097366800E+00  0.42922760233E+01 -0.99438027820E+01  0.10849008031E+02  0.51100000000E-03 0. -1.
        -11    1    3    3    0    0 -0.22906254995E+02  0.62062815059E+01  0.35291595479E+02  0.42528944964E+02  0.51100000000E-03 0.  1.
         12    1    3    3    0    0  0.23075877875E+02 -0.11257684333E+02 -0.26124892987E+02  0.36629791561E+02  0.00000000000E+00 0. -1.
</event>
<event>
 7    1  0.3188417E-015  0.9000777E+02  0.7816164E-02  0.1186339E+00
        -11   -1    0    0    0    0  0.00000000000E+00  0.00000000000E+00  0.45593999997E+02  0.45594000000E+02  0.51100000000E-03 0. -1.
         11   -1    0    0    0    0 -0.00000000000E+00 -0.00000000000E+00 -0.45593999997E+02  0.45594000000E+02  0.51100000000E-03 0.  1.
    9900012    2    1    2    0    0  0.55252464791E+00  0.29551777629E+00  0.10001670941E+01  0.90007767625E+02  0.90000029358E+02 0.  0.
        -12    1    1    2    0    0 -0.55252464791E+00 -0.29551777629E+00 -0.10001670941E+01  0.11802323749E+01  0.00000000000E+00 0.  1.
         11    1    3    3    0    0  0.90655640492E+01 -0.19534180437E+02  0.30864020838E+02  0.37634511282E+02  0.51100000000E-03 0. -1.
        -11    1    3    3    0    0 -0.45330008807E+01 -0.11614988930E+01  0.77858499144E+01  0.90838667875E+01  0.51100000000E-03 0.  1.
        -12    1    3    3    0    0 -0.39800385206E+01  0.20991197107E+02 -0.37649703658E+02  0.43289389556E+02  0.00000000000E+00 0.  1.
</event>
<event>
 7    1  0.2349719E-015  0.9000817E+02  0.7816164E-02  0.1186338E+00
        -11   -1    0    0    0    0  0.00000000000E+00  0.00000000000E+00  0.45593999997E+02  0.45594000000E+02  0.51100000000E-03 0.  1.
         11   -1    0    0    0    0 -0.00000000000E+00 -0.00000000000E+00 -0.45593999997E+02  0.45594000000E+02  0.51100000000E-03 0. -1.
    9900012    2    1    2    0    0  0.99264095293E+00 -0.62349100553E+00  0.13386206085E+00  0.90008171137E+02  0.90000438195E+02 0.  0.
        -12    1    1    2    0    0 -0.99264095293E+00  0.62349100553E+00 -0.13386206085E+00  0.11798288633E+01  0.00000000000E+00 0.  1.
         11    1    3    3    0    0  0.21651436040E+02  0.34175394113E+02 -0.32104362522E+01  0.40583853274E+02  0.51100000000E-03 0. -1.
        -11    1    3    3    0    0 -0.69559425657E+01  0.83858666019E+00 -0.69615059496E+01  0.98767874286E+01  0.51100000000E-03 0.  1.
        -12    1    3    3    0    0 -0.13702852521E+02 -0.35637471778E+02  0.10305804263E+02  0.39547530434E+02  0.00000000000E+00 0.  1.
</event>
<event>
 7    1  0.2349719E-015  0.9000762E+02  0.7816164E-02  0.1186339E+00
        -11   -1    0    0    0    0  0.00000000000E+00  0.00000000000E+00  0.45593999997E+02  0.45594000000E+02  0.51100000000E-03 0.  1.
         11   -1    0    0    0    0 -0.00000000000E+00 -0.00000000000E+00 -0.45593999997E+02  0.45594000000E+02  0.51100000000E-03 0. -1.
    9900012    2    1    2    0    0  0.37659046955E+00  0.11162932321E+01  0.73273228839E-01  0.90007618736E+02  0.89999878503E+02 0.  0.
        -12    1    1    2    0    0 -0.37659046955E+00 -0.11162932321E+01 -0.73273228839E-01  0.11803812638E+01  0.00000000000E+00 0.  1.
         11    1    3    3    0    0  0.22220451880E+02  0.16325933362E+02 -0.94814734556E+01  0.29157896375E+02  0.51100000000E-03 0. -1.
        -11    1    3    3    0    0  0.10486569148E+02  0.10335174954E+02 -0.71748001296E+01  0.16378697475E+02  0.51100000000E-03 0.  1.
        -12    1    3    3    0    0 -0.32330430558E+02 -0.25544815084E+02  0.16729546814E+02  0.44471024886E+02  0.00000000000E+00 0.  1.
</event>
<event>
 7    1  0.2349719E-015  0.9000783E+02  0.7816164E-02  0.1186339E+00
        -11   -1    0    0    0    0  0.00000000000E+00  0.00000000000E+00  0.45593999997E+02  0.45594000000E+02  0.51100000000E-03 0. -1.
         11   -1    0    0    0    0 -0.00000000000E+00 -0.00000000000E+00 -0.45593999997E+02  0.45594000000E+02  0.51100000000E-03 0.  1.
    9900012    2    1    2    0    0 -0.37333488809E+00 -0.26694290350E+00  0.10872699198E+01  0.90007833346E+02  0.90000095946E+02 0.  0.
        -12    1    1    2    0    0  0.37333488809E+00  0.26694290350E+00 -0.10872699198E+01  0.11801666539E+01  0.00000000000E+00 0.  1.
         11    1    3    3    0    0  0.14569689924E+02 -0.13075125669E+02  0.32895486941E+02  0.38279862031E+02  0.51100000000E-03 0. -1.
        -11    1    3    3    0    0  0.17602702646E+01 -0.10206459586E+02 -0.20331372296E+01  0.10554810086E+02  0.51100000000E-03 0.  1.
        -12    1    3    3    0    0 -0.16703295077E+02  0.23014642351E+02 -0.29775079792E+02  0.41173161229E+02  0.00000000000E+00 0.  1.
</event>
<event>
 7    1  0.2349719E-015  0.9000779E+02  0.7816164E-02  0.1186339E+00
        -11   -1    0    0    0    0  0.00000000000E+00  0.00000000000E+00  0.45593999997E+02  0.45594000000E+02  0.51100000000E-03 0. -1.
         11   -1    0    0    0    0 -0.00000000000E+00 -0.00000000000E+00 -0.45593999997E+02  0.45594000000E+02  0.51100000000E-03 0.  1.
    9900012    2    1    2    0    0  0.97549036546E+00 -0.21432256498E+00  0.62879075948E+00  0.90007790936E+02  0.90000052977E+02 0.  0.
        -12    1    1    2    0    0 -0.97549036546E+00  0.21432256498E+00 -0.62879075948E+00  0.11802090638E+01  0.00000000000E+00 0.  1.
         11    1    3    3    0    0  0.13045595567E+02 -0.32327424895E+02 -0.19511372883E+02  0.39949263274E+02  0.51100000000E-03 0. -1.
        -11    1    3    3    0    0  0.76776396882E+01  0.77245148774E+01 -0.27298706733E+01  0.11227932821E+02  0.51100000000E-03 0.  1.
        -12    1    3    3    0    0 -0.19747744889E+02  0.24388587453E+02  0.22870034316E+02  0.38830594842E+02  0.00000000000E+00 0.  1.
</event>
<event>
 7    1  0.2349719E-015  0.9000766E+02  0.7816164E-02  0.1186339E+00
        -11   -1    0    0    0    0  0.00000000000E+00  0.00000000000E+00  0.45593999997E+02  0.45594000000E+02  0.51100000000E-03 0.  1.
         11   -1    0    0    0    0 -0.00000000000E+00 -0.00000000000E+00 -0.45593999997E+02  0.45594000000E+02  0.51100000000E-03 0. -1.
    9900012    2    1    2    0    0 -0.68266858984E+00  0.13979999523E+00 -0.95269125152E+00  0.90007660615E+02  0.89999920935E+02 0.  0.
        -12    1    1    2    0    0  0.68266858984E+00 -0.13979999523E+00  0.95269125152E+00  0.11803393846E+01  0.00000000000E+00 0.  1.
         11    1    3    3    0    0 -0.31215342090E+01  0.92860476177E+01 -0.23263560710E+01  0.10069090774E+02  0.51100000000E-03 0. -1.
        -11    1    3    3    0    0 -0.32337844446E+02  0.16250590731E+02  0.57827171208E+01  0.36650480216E+02  0.51100000000E-03 0.  1.
         12    1    3    3    0    0  0.34776710065E+02 -0.25396838353E+02 -0.44090523013E+01  0.43288089626E+02  0.00000000000E+00 0. -1.
</event>
<event>
 7    1  0.2349719E-015  0.9000772E+02  0.7816164E-02  0.1186339E+00
        -11   -1    0    0    0    0  0.00000000000E+00  0.00000000000E+00  0.45593999997E+02  0.45594000000E+02  0.51100000000E-03 0.  1.
         11   -1    0    0    0    0 -0.00000000000E+00 -0.00000000000E+00 -0.45593999997E+02  0.45594000000E+02  0.51100000000E-03 0. -1.
    9900012    2    1    2    0    0 -0.14932010932E+00 -0.82332457286E+00 -0.83240606780E+00  0.90007720495E+02  0.89999981606E+02 0.  0.
        -12    1    1    2    0    0  0.14932010932E+00  0.82332457286E+00  0.83240606780E+00  0.11802795046E+01  0.00000000000E+00 0.  1.
         11    1    3    3    0    0 -0.23009926391E+02 -0.12018531264E+02 -0.29521771162E+02  0.39312043690E+02  0.51100000000E-03 0. -1.
        -11    1    3    3    0    0 -0.21138385757E+01 -0.90416652759E+01  0.37622147901E+01  0.10018696765E+02  0.51100000000E-03 0.  1.
        -12    1    3    3    0    0  0.24974444858E+02  0.20236871967E+02  0.24927150304E+02  0.40676980041E+02  0.00000000000E+00 0.  1.
</event>
<event>
 7    1  0.2349719E-015  0.9000782E+02  0.7816164E-02  0.1186339E+00
        -11   -1    0    0    0    0  0.00000000000E+00  0.00000000000E+00  0.45593999997E+02  0.45594000000E+02  0.51100000000E-03 0.  1.
         11   -1    0    0    0    0 -0.00000000000E+00 -0.00000000000E+00 -0.45593999997E+02  0.45594000000E+02  0.51100000000E-03 0. -1.
    9900012    2    1    2    0    0  0.37635965131E-01  0.11303285926E+01  0.33728366068E+00  0.90007822276E+02  0.90000084730E+02 0.  0.
        -12    1    1    2    0    0 -0.37635965131E-01 -0.11303285926E+01 -0.33728366068E+00  0.11801777243E+01  0.00000000000E+00 0.  1.
         11    1    3    3    0    0 -0.61039205084E+01 -0.22253828516E+02 -0.20191945682E+02  0.30662768953E+02  0.51100000000E-03 0. -1.
        -11    1    3    3    0    0 -0.94714369964E+01 -0.10643853526E+02 -0.37370876322E+01  0.14729750877E+02  0.51100000000E-03 0.  1.
        -12    1    3    3    0    0  0.15612993470E+02  0.34028010635E+02  0.24266316974E+02  0.44615302446E+02  0.00000000000E+00 0.  1.
</event>
<event>
 7    1  0.2349719E-015  0.9000773E+02  0.7816164E-02  0.1186339E+00
        -11   -1    0    0    0    0  0.00000000000E+00  0.00000000000E+00  0.45593999997E+02  0.45594000000E+02  0.51100000000E-03 0.  1.
         11   -1    0    0    0    0 -0.00000000000E+00 -0.00000000000E+00 -0.45593999997E+02  0.45594000000E+02  0.51100000000E-03 0. -1.
    9900012    2    1    2    0    0  0.10871710731E+01  0.29791464185E+00 -0.34976720541E+00  0.90007732584E+02  0.89999993854E+02 0.  0.
        -12    1    1    2    0    0 -0.10871710731E+01 -0.29791464185E+00  0.34976720541E+00  0.11802674163E+01  0.00000000000E+00 0.  1.
         11    1    3    3    0    0 -0.32808047578E+02 -0.71803991484E+01  0.12423253482E+02  0.35808704879E+02  0.51100000000E-03 0. -1.
        -11    1    3    3    0    0 -0.70685978413E+01 -0.62319721039E+01 -0.13750122744E+01  0.95232983132E+01  0.51100000000E-03 0.  1.
        -12    1    3    3    0    0  0.40963816492E+02  0.13710285894E+02 -0.11398008413E+02  0.44675729391E+02  0.00000000000E+00 0.  1.
</event>
<event>
 7    1  0.2349719E-015  0.9000771E+02  0.7816164E-02  0.1186339E+00
        -11   -1    0    0    0    0  0.00000000000E+00  0.00000000000E+00  0.45593999997E+02  0.45594000000E+02  0.51100000000E-03 0.  1.
         11   -1    0    0    0    0 -0.00000000000E+00 -0.00000000000E+00 -0.45593999997E+02  0.45594000000E+02  0.51100000000E-03 0. -1.
    9900012    2    1    2    0    0  0.75721240828E+00  0.74449211992E+00 -0.51522136439E+00  0.90007706730E+02  0.89999967659E+02 0.  0.
        -12    1    1    2    0    0 -0.75721240828E+00 -0.74449211992E+00  0.51522136439E+00  0.11802932696E+01  0.00000000000E+00 0.  1.
         11    1    3    3    0    0  0.25385225385E+01 -0.22919986868E+01  0.98343277889E+01  0.10412077505E+02  0.51100000000E-03 0. -1.
        -11    1    3    3    0    0  0.28690116003E+02 -0.19870806006E+02  0.10105298906E+02  0.36333025663E+02  0.51100000000E-03 0.  1.
         12    1    3    3    0    0 -0.30471426133E+02  0.22907296812E+02 -0.20454848059E+02  0.43262603562E+02  0.00000000000E+00 0. -1.
</event>
<event>
 7    1  0.2349719E-015  0.9000776E+02  0.7816164E-02  0.1186339E+00
        -11   -1    0    0    0    0  0.00000000000E+00  0.00000000000E+00  0.45593999997E+02  0.45594000000E+02  0.51100000000E-03 0.  1.
         11   -1    0    0    0    0 -0.00000000000E+00 -0.00000000000E+00 -0.45593999997E+02  0.45594000000E+02  0.51100000000E-03 0. -1.
    9900012    2    1    2    0    0 -0.63856364133E+00  0.97645017114E+00 -0.17817044673E+00  0.90007761393E+02  0.90000023044E+02 0.  0.
        -12    1    1    2    0    0  0.63856364133E+00 -0.97645017114E+00  0.17817044673E+00  0.11802386067E+01  0.00000000000E+00 0.  1.
         11    1    3    3    0    0 -0.75752868823E+01 -0.68148024531E+01 -0.23399068775E+01  0.10454743817E+02  0.51100000000E-03 0. -1.
        -11    1    3    3    0    0 -0.33989223706E+02 -0.83447046362E+01 -0.36085336257E+01  0.35184129076E+02  0.51100000000E-03 0.  1.
         12    1    3    3    0    0  0.40925946947E+02  0.16135957260E+02  0.57702700564E+01  0.44368888501E+02  0.00000000000E+00 0. -1.
</event>
<event>
 7    1  0.2349719E-015  0.9000776E+02  0.7816164E-02  0.1186339E+00
        -11   -1    0    0    0    0  0.00000000000E+00  0.00000000000E+00  0.45593999997E+02  0.45594000000E+02  0.51100000000E-03 0.  1.
         11   -1    0    0    0    0 -0.00000000000E+00 -0.00000000000E+00 -0.45593999997E+02  0.45594000000E+02  0.51100000000E-03 0. -1.
    9900012    2    1    2    0    0 -0.27267065234E+00  0.10520881127E+01 -0.46013014488E+00  0.90007763400E+02  0.90000025077E+02 0.  0.
        -12    1    1    2    0    0  0.27267065234E+00 -0.10520881127E+01  0.46013014488E+00  0.11802365999E+01  0.00000000000E+00 0.  1.
         11    1    3    3    0    0  0.12192212071E+02 -0.85683615740E+01 -0.37683377325E+02  0.40522879737E+02  0.51100000000E-03 0. -1.
        -11    1    3    3    0    0  0.91594651361E+01  0.26132088597E+01  0.78477831834E+01  0.12341489508E+02  0.51100000000E-03 0.  1.
        -12    1    3    3    0    0 -0.21624347860E+02  0.70072408270E+01  0.29375463997E+02  0.37143394156E+02  0.00000000000E+00 0.  1.
</event>
<event>
 7    1  0.2349719E-015  0.9000794E+02  0.7816164E-02  0.1186339E+00
        -11   -1    0    0    0    0  0.00000000000E+00  0.00000000000E+00  0.45593999997E+02  0.45594000000E+02  0.51100000000E-03 0.  1.
         11   -1    0    0    0    0 -0.00000000000E+00 -0.00000000000E+00 -0.45593999997E+02  0.45594000000E+02  0.51100000000E-03 0. -1.
    9900012    2    1    2    0    0 -0.87056876610E+00 -0.44133296222E+00 -0.66322581357E+00  0.90007943544E+02  0.90000207598E+02 0.  0.
        -12    1    1    2    0    0  0.87056876610E+00  0.44133296222E+00  0.66322581357E+00  0.11800564562E+01  0.00000000000E+00 0.  1.
         11    1    3    3    0    0 -0.35556353866E+02 -0.15701519988E+00 -0.17807199874E+02  0.39766510051E+02  0.51100000000E-03 0. -1.
        -11    1    3    3    0    0  0.49271798743E+00 -0.86339355127E+01 -0.36204755660E+01  0.93752577052E+01  0.51100000000E-03 0.  1.
        -12    1    3    3    0    0  0.34193067113E+02  0.83496177504E+01  0.20764449627E+02  0.40866175787E+02  0.00000000000E+00 0.  1.
</event>
<event>
 7    1  0.2349719E-015  0.9000775E+02  0.7816164E-02  0.1186339E+00
        -11   -1    0    0    0    0  0.00000000000E+00  0.00000000000E+00  0.45593999997E+02  0.45594000000E+02  0.51100000000E-03 0. -1.
         11   -1    0    0    0    0 -0.00000000000E+00 -0.00000000000E+00 -0.45593999997E+02  0.45594000000E+02  0.51100000000E-03 0.  1.
    9900012    2    1    2    0    0 -0.11498921128E+01 -0.20039427202E+00  0.17487558193E+00  0.90007749516E+02  0.90000011010E+02 0.  0.
        -12    1    1    2    0    0  0.11498921128E+01  0.20039427202E+00 -0.17487558193E+00  0.11802504838E+01  0.00000000000E+00 0.  1.
         11    1    3    3    0    0  0.93413529040E+01 -0.17063387334E+02  0.32505236649E+02  0.37881532061E+02  0.51100000000E-03 0. -1.
        -11    1    3    3    0    0  0.65244636328E+01 -0.79045254536E+01 -0.45904908138E+01  0.11230438750E+02  0.51100000000E-03 0.  1.
        -12    1    3    3    0    0 -0.17015708650E+02  0.24767518516E+02 -0.27739870253E+02  0.40895778706E+02  0.00000000000E+00 0.  1.
</event>
<event>
 7    1  0.2349719E-015  0.9000772E+02  0.7816164E-02  0.1186339E+00
        -11   -1    0    0    0    0  0.00000000000E+00  0.00000000000E+00  0.45593999997E+02  0.45594000000E+02  0.51100000000E-03 0.  1.
         11   -1    0    0    0    0 -0.00000000000E+00 -0.00000000000E+00 -0.45593999997E+02  0.45594000000E+02  0.51100000000E-03 0. -1.
    9900012    2    1    2    0    0 -0.18908293222E+00 -0.84370447933E+00 -0.80341142613E+00  0.90007720574E+02  0.89999981686E+02 0.  0.
        -12    1    1    2    0    0  0.18908293222E+00  0.84370447933E+00  0.80341142613E+00  0.11802794260E+01  0.00000000000E+00 0.  1.
         11    1    3    3    0    0  0.22184774211E+02  0.31364787130E+02  0.60629915259E+01  0.38893109222E+02  0.51100000000E-03 0. -1.
        -11    1    3    3    0    0 -0.47780556003E+01  0.38292887729E+01  0.64153110631E+01  0.88684544383E+01  0.51100000000E-03 0.  1.
        -12    1    3    3    0    0 -0.17595801543E+02 -0.36037780382E+02 -0.13281714015E+02  0.42246156914E+02  0.00000000000E+00 0.  1.
</event>
<event>
 7    1  0.2349719E-015  0.9000775E+02  0.7816164E-02  0.1186339E+00
        -11   -1    0    0    0    0  0.00000000000E+00  0.00000000000E+00  0.45593999997E+02  0.45594000000E+02  0.51100000000E-03 0.  1.
         11   -1    0    0    0    0 -0.00000000000E+00 -0.00000000000E+00 -0.45593999997E+02  0.45594000000E+02  0.51100000000E-03 0. -1.
    9900012    2    1    2    0    0 -0.46186961312E+00 -0.86252542544E+00  0.66008496490E+00  0.90007751802E+02  0.90000013325E+02 0.  0.
        -12    1    1    2    0    0  0.46186961312E+00  0.86252542544E+00 -0.66008496490E+00  0.11802481985E+01  0.00000000000E+00 0.  1.
         11    1    3    3    0    0 -0.10981290960E+02  0.30376868601E+02 -0.26272224852E+02  0.41636194544E+02  0.51100000000E-03 0. -1.
        -11    1    3    3    0    0 -0.60012415405E+01 -0.30103872253E+01  0.84852973686E+01  0.10820240430E+02  0.51100000000E-03 0.  1.
        -12    1    3    3    0    0  0.16520662888E+02 -0.28229006801E+02  0.18447012448E+02  0.37551316828E+02  0.00000000000E+00 0.  1.
</event>
<event>
 7    1  0.2349719E-015  0.9000769E+02  0.7816164E-02  0.1186339E+00
        -11   -1    0    0    0    0  0.00000000000E+00  0.00000000000E+00  0.45593999997E+02  0.45594000000E+02  0.51100000000E-03 0. -1.
         11   -1    0    0    0    0 -0.00000000000E+00 -0.00000000000E+00 -0.45593999997E+02  0.45594000000E+02  0.51100000000E-03 0.  1.
    9900012    2    1    2    0    0 -0.11378453504E+01 -0.23956949618E+00 -0.20261555831E+00  0.90007687055E+02  0.89999947724E+02 0.  0.
        -12    1    1    2    0    0  0.11378453504E+01  0.23956949618E+00  0.20261555831E+00  0.11803129455E+01  0.00000000000E+00 0.  1.
         11    1    3    3    0    0 -0.65377853247E+00  0.97810242303E+01 -0.59881932180E+00  0.98211224514E+01  0.51100000000E-03 0. -1.
        -11    1    3    3    0    0  0.15476009217E+01 -0.25735715936E+02 -0.33792170143E+02  0.42504504545E+02  0.51100000000E-03 0.  1.
         12    1    3    3    0    0 -0.20316677396E+01  0.15715122210E+02  0.34188373906E+02  0.37682060058E+02  0.00000000000E+00 0. -1.
</event>
<event>
 7    1  0.2349719E-015  0.9000763E+02  0.7816164E-02  0.1186339E+00
        -11   -1    0    0    0    0  0.00000000000E+00  0.00000000000E+00  0.45593999997E+02  0.45594000000E+02  0.51100000000E-03 0. -1.
         11   -1    0    0    0    0 -0.00000000000E+00 -0.00000000000E+00 -0.45593999997E+02  0.45594000000E+02  0.51100000000E-03 0.  1.
    9900012    2    1    2    0    0 -0.37500057985E+00 -0.10546242067E+01  0.37470634138E+00  0.90007634593E+02  0.89999894569E+02 0.  0.
        -12    1    1    2    0    0  0.37500057985E+00  0.10546242067E+01 -0.37470634138E+00  0.11803654072E+01  0.00000000000E+00 0.  1.
         11    1    3    3    0    0 -0.28545630705E+01 -0.12423221360E+01 -0.91189397310E+01  0.96357125680E+01  0.51100000000E-03 0. -1.
        -11    1    3    3    0    0  0.23432754206E+02 -0.31681030272E+02 -0.46826857256E+01  0.39682605694E+02  0.51100000000E-03 0.  1.
         12    1    3    3    0    0 -0.20953191716E+02  0.31868728201E+02  0.14176331798E+02  0.40689316331E+02  0.00000000000E+00 0. -1.
</event>
<event>
 7    1  0.2349719E-015  0.9000774E+02  0.7816164E-02  0.1186339E+00
        -11   -1    0    0    0    0  0.00000000000E+00  0.00000000000E+00  0.45593999997E+02  0.45594000000E+02  0.51100000000E-03 0.  1.
         11   -1    0    0    0    0 -0.00000000000E+00 -0.00000000000E+00 -0.45593999997E+02  0.45594000000E+02  0.51100000000E-03 0. -1.
    9900012    2    1    2    0    0  0.26154615488E+00 -0.56276925951E+00 -0.10039408789E+01  0.90007740317E+02  0.90000001689E+02 0.  0.
        -12    1    1    2    0    0 -0.26154615488E+00  0.56276925951E+00  0.10039408789E+01  0.11802596828E+01  0.00000000000E+00 0.  1.
         11    1    3    3    0    0  0.10400619267E+02 -0.23052478591E+01  0.34579688569E+01  0.11200205253E+02  0.51100000000E-03 0. -1.
        -11    1    3    3    0    0 -0.78651312976E+01  0.26426465747E+02  0.27109766929E+02  0.38667270985E+02  0.51100000000E-03 0.  1.
         12    1    3    3    0    0 -0.22739418147E+01 -0.24683987148E+02 -0.31571676665E+02  0.40140264079E+02  0.00000000000E+00 0. -1.
</event>
<event>
 7    1  0.2349719E-015  0.9000778E+02  0.7816164E-02  0.1186339E+00
        -11   -1    0    0    0    0  0.00000000000E+00  0.00000000000E+00  0.45593999997E+02  0.45594000000E+02  0.51100000000E-03 0.  1.
         11   -1    0    0    0    0 -0.00000000000E+00 -0.00000000000E+00 -0.45593999997E+02  0.45594000000E+02  0.51100000000E-03 0. -1.
    9900012    2    1    2    0    0  0.11156148766E+01  0.44164290023E-02  0.38509364362E+00  0.90007782574E+02  0.90000044504E+02 0.  0.
        -12    1    1    2    0    0 -0.11156148766E+01 -0.44164290023E-02 -0.38509364362E+00  0.11802174258E+01  0.00000000000E+00 0.  1.
         11    1    3    3    0    0 -0.24700491128E+02  0.31047437334E+01  0.24574707281E+02  0.34980993894E+02  0.51100000000E-03 0. -1.
        -11    1    3    3    0    0 -0.64843770825E+01  0.24736941398E+00  0.73176439713E+01  0.97804013888E+01  0.51100000000E-03 0.  1.
        -12    1    3    3    0    0  0.32300483087E+02 -0.33476967184E+01 -0.31507257608E+02  0.45246387292E+02  0.00000000000E+00 0.  1.
</event>
<event>
 7    1  0.2349719E-015  0.9000775E+02  0.7816164E-02  0.1186339E+00
        -11   -1    0    0    0    0  0.00000000000E+00  0.00000000000E+00  0.45593999997E+02  0.45594000000E+02  0.51100000000E-03 0.  1.
         11   -1    0    0    0    0 -0.00000000000E+00 -0.00000000000E+00 -0.45593999997E+02  0.45594000000E+02  0.51100000000E-03 0. -1.
    9900012    2    1    2    0    0 -0.89855911767E+00  0.76092993898E+00 -0.81049980380E-01  0.90007749196E+02  0.90000010686E+02 0.  0.
        -12    1    1    2    0    0  0.89855911767E+00 -0.76092993898E+00  0.81049980380E-01  0.11802508036E+01  0.00000000000E+00 0.  1.
         11    1    3    3    0    0 -0.33999858465E+01  0.96974752641E+01  0.63072904026E+01  0.12057480779E+02  0.51100000000E-03 0. -1.
        -11    1    3    3    0    0  0.36318359916E+02  0.35825741632E+01  0.10721746270E+02  0.38037007611E+02  0.51100000000E-03 0.  1.
         12    1    3    3    0    0 -0.33816933187E+02 -0.12519119488E+02 -0.17110086653E+02  0.39913260807E+02  0.00000000000E+00 0. -1.
</event>
<event>
 7    1  0.2349719E-015  0.9000780E+02  0.7816164E-02  0.1186339E+00
        -11   -1    0    0    0    0  0.00000000000E+00  0.00000000000E+00  0.45593999997E+02  0.45594000000E+02  0.51100000000E-03 0. -1.
         11   -1    0    0    0    0 -0.00000000000E+00 -0.00000000000E+00 -0.45593999997E+02  0.45594000000E+02  0.51100000000E-03 0.  1.
    9900012    2    1    2    0    0 -0.91592286749E+00  0.44087464212E+00  0.59965195904E+00  0.90007801872E+02  0.90000064057E+02 0.  0.
        -12    1    1    2    0    0  0.91592286749E+00 -0.44087464212E+00 -0.59965195904E+00  0.11801981280E+01  0.00000000000E+00 0.  1.
         11    1    3    3    0    0  0.70694500494E+01  0.44494302918E+01 -0.13123734432E+01  0.84555826670E+01  0.51100000000E-03 0. -1.
        -11    1    3    3    0    0  0.12069675709E+02 -0.25939063142E+02 -0.27540970880E+02  0.39711675181E+02  0.51100000000E-03 0.  1.
         12    1    3    3    0    0 -0.20055048626E+02  0.21930507492E+02  0.29452996282E+02  0.41840544024E+02  0.00000000000E+00 0. -1.
</event>
<event>
 7    1  0.2349719E-015  0.9000769E+02  0.7816164E-02  0.1186339E+00
        -11   -1    0    0    0    0  0.00000000000E+00  0.00000000000E+00  0.45593999997E+02  0.45594000000E+02  0.51100000000E-03 0.  1.
         11   -1    0    0    0    0 -0.00000000000E+00 -0.00000000000E+00 -0.45593999997E+02  0.45594000000E+02  0.51100000000E-03 0. -1.
    9900012    2    1    2    0    0 -0.16450364585E+00  0.44638901811E+00 -0.10801912205E+01  0.90007687466E+02  0.89999948141E+02 0.  0.
        -12    1    1    2    0    0  0.16450364585E+00 -0.44638901811E+00  0.10801912205E+01  0.11803125340E+01  0.00000000000E+00 0.  1.
         11    1    3    3    0    0  0.35384936183E+02 -0.82571210338E+01  0.20618981692E+02  0.41778178068E+02  0.51100000000E-03 0. -1.
        -11    1    3    3    0    0 -0.39275818708E+00 -0.51582696388E+00 -0.10038432216E+02  0.10059346801E+02  0.51100000000E-03 0.  1.
        -12    1    3    3    0    0 -0.35156681642E+02  0.92193370158E+01 -0.11660740697E+02  0.38170162597E+02  0.00000000000E+00 0.  1.
</event>
<event>
 7    1  0.2349719E-015  0.9000772E+02  0.7816164E-02  0.1186339E+00
        -11   -1    0    0    0    0  0.00000000000E+00  0.00000000000E+00  0.45593999997E+02  0.45594000000E+02  0.51100000000E-03 0.  1.
         11   -1    0    0    0    0 -0.00000000000E+00 -0.00000000000E+00 -0.45593999997E+02  0.45594000000E+02  0.51100000000E-03 0. -1.
    9900012    2    1    2    0    0 -0.49738614539E+00  0.92349161278E+00 -0.54114406321E+00  0.90007717562E+02  0.89999978634E+02 0.  0.
        -12    1    1    2    0    0  0.49738614539E+00 -0.92349161278E+00  0.54114406321E+00  0.11802824381E+01  0.00000000000E+00 0.  1.
         11    1    3    3    0    0  0.29921474852E+02  0.18242211838E+02  0.66898121742E+01  0.35676694596E+02  0.51100000000E-03 0. -1.
        -11    1    3    3    0    0  0.87557810362E+01 -0.10757669882E+01 -0.80096019108E+01  0.11915313642E+02  0.51100000000E-03 0.  1.
        -12    1    3    3    0    0 -0.39174642034E+02 -0.16242953237E+02  0.77864567343E+00  0.42415709324E+02  0.00000000000E+00 0.  1.
</event>
<event>
 7    1  0.2349719E-015  0.9000775E+02  0.7816164E-02  0.1186339E+00
        -11   -1    0    0    0    0  0.00000000000E+00  0.00000000000E+00  0.45593999997E+02  0.45594000000E+02  0.51100000000E-03 0.  1.
         11   -1    0    0    0    0 -0.00000000000E+00 -0.00000000000E+00 -0.45593999997E+02  0.45594000000E+02  0.51100000000E-03 0. -1.
    9900012    2    1    2    0    0 -0.14137829747E+00  0.35324576603E+00 -0.11172401332E+01  0.90007747523E+02  0.90000008990E+02 0.  0.
        -12    1    1    2    0    0  0.14137829747E+00 -0.35324576603E+00  0.11172401332E+01  0.11802524770E+01  0.00000000000E+00 0.  1.
         11    1    3    3    0    0  0.67314073713E+01  0.52778086365E+01  0.41442848486E+01  0.95048517279E+01  0.51100000000E-03 0. -1.
        -11    1    3    3    0    0  0.13836392344E+02  0.30259566720E+02  0.13072481704E+02  0.35748802908E+02  0.51100000000E-03 0.  1.
         12    1    3    3    0    0 -0.20709178013E+02 -0.35184129591E+02 -0.18334006686E+02  0.44754092887E+02  0.00000000000E+00 0. -1.
</event>
<event>
 7    1  0.2349719E-015  0.9000777E+02  0.7816164E-02  0.1186339E+00
        -11   -1    0    0    0    0  0.00000000000E+00  0.00000000000E+00  0.45593999997E+02  0.45594000000E+02  0.51100000000E-03 0.  1.
         11   -1    0    0    0    0 -0.00000000000E+00 -0.00000000000E+00 -0.45593999997E+02  0.45594000000E+02  0.51100000000E-03 0. -1.
    9900012    2    1    2    0    0  0.56074400072E+00 -0.12516050240E+00 -0.10309389119E+01  0.90007773740E+02  0.90000035553E+02 0.  0.
        -12    1    1    2    0    0 -0.56074400072E+00  0.12516050240E+00  0.10309389119E+01  0.11802262604E+01  0.00000000000E+00 0.  1.
         11    1    3    3    0    0  0.30232502693E+02 -0.11969989204E+02 -0.18985824690E+02  0.37652973323E+02  0.51100000000E-03 0. -1.
        -11    1    3    3    0    0  0.74712178483E+01 -0.42861528573E+01  0.20894941677E+01  0.88631929118E+01  0.51100000000E-03 0.  1.
        -12    1    3    3    0    0 -0.37142976541E+02  0.16130981559E+02  0.15865391611E+02  0.43491607505E+02  0.00000000000E+00 0.  1.
</event>
<event>
 7    1  0.2349719E-015  0.9000808E+02  0.7816164E-02  0.1186338E+00
        -11   -1    0    0    0    0  0.00000000000E+00  0.00000000000E+00  0.45593999997E+02  0.45594000000E+02  0.51100000000E-03 0.  1.
         11   -1    0    0    0    0 -0.00000000000E+00 -0.00000000000E+00 -0.45593999997E+02  0.45594000000E+02  0.51100000000E-03 0. -1.
    9900012    2    1    2    0    0 -0.11927677622E+00  0.11353989833E+01 -0.29808831960E+00  0.90008078627E+02  0.90000344464E+02 0.  0.
        -12    1    1    2    0    0  0.11927677622E+00 -0.11353989833E+01  0.29808831960E+00  0.11799213732E+01  0.00000000000E+00 0.  1.
         11    1    3    3    0    0  0.32287902050E+02 -0.18459521793E+02 -0.90755092137E+01  0.38283513832E+02  0.51100000000E-03 0. -1.
        -11    1    3    3    0    0  0.10208266545E+01 -0.66207413651E+01  0.62595684357E+01  0.91683423008E+01  0.51100000000E-03 0.  1.
        -12    1    3    3    0    0 -0.33428005481E+02  0.26215662141E+02  0.25178524585E+01  0.42556222494E+02  0.00000000000E+00 0.  1.
</event>
<event>
 7    1  0.2349719E-015  0.9000775E+02  0.7816164E-02  0.1186339E+00
        -11   -1    0    0    0    0  0.00000000000E+00  0.00000000000E+00  0.45593999997E+02  0.45594000000E+02  0.51100000000E-03 0. -1.
         11   -1    0    0    0    0 -0.00000000000E+00 -0.00000000000E+00 -0.45593999997E+02  0.45594000000E+02  0.51100000000E-03 0.  1.
    9900012    2    1    2    0    0 -0.64107015464E+00 -0.90823901647E+00  0.39639775094E+00  0.90007745692E+02  0.90000007135E+02 0.  0.
        -12    1    1    2    0    0  0.64107015464E+00  0.90823901647E+00 -0.39639775094E+00  0.11802543078E+01  0.00000000000E+00 0.  1.
         11    1    3    3    0    0  0.38856740443E+02  0.65492901952E+01 -0.19208015217E+02  0.43837054289E+02  0.51100000000E-03 0. -1.
        -11    1    3    3    0    0 -0.81672397372E+01  0.29172334448E+01  0.55683966280E+01  0.10306361975E+02  0.51100000000E-03 0.  1.
        -12    1    3    3    0    0 -0.31330570860E+02 -0.10374762656E+02  0.14036016340E+02  0.35864329428E+02  0.00000000000E+00 0.  1.
</event>
<event>
 7    1  0.2349719E-015  0.9000786E+02  0.7816164E-02  0.1186339E+00
        -11   -1    0    0    0    0  0.00000000000E+00  0.00000000000E+00  0.45593999997E+02  0.45594000000E+02  0.51100000000E-03 0.  1.
         11   -1    0    0    0    0 -0.00000000000E+00 -0.00000000000E+00 -0.45593999997E+02  0.45594000000E+02  0.51100000000E-03 0. -1.
    9900012    2    1    2    0    0  0.32997018335E+00 -0.40439994095E+00 -0.10584485330E+01  0.90007858936E+02  0.90000121874E+02 0.  0.
        -12    1    1    2    0    0 -0.32997018335E+00  0.40439994095E+00  0.10584485330E+01  0.11801410641E+01  0.00000000000E+00 0.  1.
         11    1    3    3    0    0 -0.32650781363E+02  0.12476565292E+02  0.24745069472E+01  0.35040853157E+02  0.51100000000E-03 0. -1.
        -11    1    3    3    0    0 -0.96750995589E+01  0.10990201964E+01 -0.25596624069E+01  0.10068131344E+02  0.51100000000E-03 0.  1.
        -12    1    3    3    0    0  0.42655851105E+02 -0.13979985429E+02 -0.97329307332E+00  0.44898874435E+02  0.00000000000E+00 0.  1.
</event>
<event>
 7    1  0.2349719E-015  0.9000770E+02  0.7816164E-02  0.1186339E+00
        -11   -1    0    0    0    0  0.00000000000E+00  0.00000000000E+00  0.45593999997E+02  0.45594000000E+02  0.51100000000E-03 0.  1.
         11   -1    0    0    0    0 -0.00000000000E+00 -0.00000000000E+00 -0.45593999997E+02  0.45594000000E+02  0.51100000000E-03 0. -1.
    9900012    2    1    2    0    0  0.48771385111E+00 -0.24052133183E-01 -0.10745548194E+01  0.90007698612E+02  0.89999959434E+02 0.  0.
        -12    1    1    2    0    0 -0.48771385111E+00  0.24052133183E-01  0.10745548194E+01  0.11803013876E+01  0.00000000000E+00 0.  1.
         11    1    3    3    0    0 -0.21484332448E+02  0.83508834588E+01 -0.26626188847E+02  0.35217435001E+02  0.51100000000E-03 0. -1.
        -11    1    3    3    0    0 -0.42787653362E+01  0.47320257764E+01 -0.79912451904E+01  0.10225453570E+02  0.51100000000E-03 0.  1.
        -12    1    3    3    0    0  0.26250811635E+02 -0.13106961368E+02  0.33542879218E+02  0.44564810042E+02  0.00000000000E+00 0.  1.
</event>
<event>
 7    1  0.2349719E-015  0.9000769E+02  0.7816164E-02  0.1186339E+00
        -11   -1    0    0    0    0  0.00000000000E+00  0.00000000000E+00  0.45593999997E+02  0.45594000000E+02  0.51100000000E-03 0. -1.
         11   -1    0    0    0    0 -0.00000000000E+00 -0.00000000000E+00 -0.45593999997E+02  0.45594000000E+02  0.51100000000E-03 0.  1.
    9900012    2    1    2    0    0  0.99690050344E+00  0.60982351522E+00 -0.16565134620E+00  0.90007688303E+02  0.89999948989E+02 0.  0.
        -12    1    1    2    0    0 -0.99690050344E+00 -0.60982351522E+00  0.16565134620E+00  0.11803116970E+01  0.00000000000E+00 0.  1.
         11    1    3    3    0    0  0.97193920557E+01 -0.77453943117E+01  0.14226961435E+01  0.12509267746E+02  0.51100000000E-03 0. -1.
        -11    1    3    3    0    0  0.31228845643E+02  0.14058140980E+02  0.96975008431E+01  0.35593730499E+02  0.51100000000E-03 0.  1.
         12    1    3    3    0    0 -0.39951337195E+02 -0.57029231527E+01 -0.11285848333E+02  0.41904690057E+02  0.00000000000E+00 0. -1.
</event>
<event>
 7    1  0.2349719E-015  0.9000775E+02  0.7816164E-02  0.1186339E+00
        -11   -1    0    0    0    0  0.00000000000E+00  0.00000000000E+00  0.45593999997E+02  0.45594000000E+02  0.51100000000E-03 0.  1.
         11   -1    0    0    0    0 -0.00000000000E+00 -0.00000000000E+00 -0.45593999997E+02  0.45594000000E+02  0.51100000000E-03 0. -1.
    9900012    2    1    2    0    0  0.88619979265E+00  0.76226305154E+00  0.16309017754E+00  0.90007748570E+02  0.90000010051E+02 0.  0.
        -12    1    1    2    0    0 -0.88619979265E+00 -0.76226305154E+00 -0.16309017754E+00  0.11802514301E+01  0.00000000000E+00 0.  1.
         11    1    3    3    0    0  0.14273390488E+01  0.87355905277E+01  0.44591501505E+01  0.99111986638E+01  0.51100000000E-03 0. -1.
        -11    1    3    3    0    0 -0.30620853452E+02  0.47213740813E+01 -0.26370337976E+02  0.40685657971E+02  0.51100000000E-03 0.  1.
         12    1    3    3    0    0  0.30079714196E+02 -0.12694701557E+02  0.22074278003E+02  0.39410891935E+02  0.00000000000E+00 0. -1.
</event>
<event>
 7    1  0.2349719E-015  0.9000777E+02  0.7816164E-02  0.1186339E+00
        -11   -1    0    0    0    0  0.00000000000E+00  0.00000000000E+00  0.45593999997E+02  0.45594000000E+02  0.51100000000E-03 0. -1.
         11   -1    0    0    0    0 -0.00000000000E+00 -0.00000000000E+00 -0.45593999997E+02  0.45594000000E+02  0.51100000000E-03 0.  1.
    9900012    2    1    2    0    0  0.86413208227E-01  0.70566812623E+00  0.94207649181E+00  0.90007769996E+02  0.90000031760E+02 0.  0.
        -12    1    1    2    0    0 -0.86413208227E-01 -0.70566812623E+00 -0.94207649181E+00  0.11802300044E+01  0.00000000000E+00 0.  1.
         11    1    3    3    0    0 -0.13625831467E+01 -0.26223107918E+02  0.26706928482E+02  0.37453545238E+02  0.51100000000E-03 0. -1.
        -11    1    3    3    0    0  0.15656225343E+02  0.13574000552E+02 -0.61405068176E+00  0.20730362792E+02  0.51100000000E-03 0.  1.
        -12    1    3    3    0    0 -0.14207228988E+02  0.13354775492E+02 -0.25150801308E+02  0.31823861966E+02  0.00000000000E+00 0.  1.
</event>
<event>
 7    1  0.2349719E-015  0.9000768E+02  0.7816164E-02  0.1186339E+00
        -11   -1    0    0    0    0  0.00000000000E+00  0.00000000000E+00  0.45593999997E+02  0.45594000000E+02  0.51100000000E-03 0.  1.
         11   -1    0    0    0    0 -0.00000000000E+00 -0.00000000000E+00 -0.45593999997E+02  0.45594000000E+02  0.51100000000E-03 0. -1.
    9900012    2    1    2    0    0  0.20513930310E-01  0.77782514025E+00 -0.88754245724E+00  0.90007676153E+02  0.89999936678E+02 0.  0.
        -12    1    1    2    0    0 -0.20513930310E-01 -0.77782514025E+00  0.88754245724E+00  0.11803238469E+01  0.00000000000E+00 0.  1.
         11    1    3    3    0    0 -0.17339663097E+02  0.25491312528E+02 -0.13904370257E+02  0.33820148480E+02  0.51100000000E-03 0. -1.
        -11    1    3    3    0    0 -0.13258820257E+02 -0.51018446892E+01  0.13816936857E+02  0.19817489200E+02  0.51100000000E-03 0.  1.
        -12    1    3    3    0    0  0.30618997284E+02 -0.19611642698E+02 -0.80010905765E+00  0.36370038473E+02  0.00000000000E+00 0.  1.
</event>
<event>
 7    1  0.2349719E-015  0.9000762E+02  0.7816164E-02  0.1186339E+00
        -11   -1    0    0    0    0  0.00000000000E+00  0.00000000000E+00  0.45593999997E+02  0.45594000000E+02  0.51100000000E-03 0. -1.
         11   -1    0    0    0    0 -0.00000000000E+00 -0.00000000000E+00 -0.45593999997E+02  0.45594000000E+02  0.51100000000E-03 0.  1.
    9900012    2    1    2    0    0  0.24014458740E+00  0.10712502635E+01  0.43365670232E+00  0.90007616721E+02  0.89999876462E+02 0.  0.
        -12    1    1    2    0    0 -0.24014458740E+00 -0.10712502635E+01 -0.43365670232E+00  0.11803832790E+01  0.00000000000E+00 0.  1.
         11    1    3    3    0    0  0.26591104106E+01 -0.11300749302E+02  0.42559941826E+02  0.44114923228E+02  0.51100000000E-03 0. -1.
        -11    1    3    3    0    0  0.23861162283E+01  0.58989697512E+01 -0.55657837086E+01  0.84539543016E+01  0.51100000000E-03 0.  1.
        -12    1    3    3    0    0 -0.48050820516E+01  0.64730298141E+01 -0.36560501415E+02  0.37438739191E+02  0.00000000000E+00 0.  1.
</event>
<event>
 7    1  0.2349719E-015  0.9000794E+02  0.7816164E-02  0.1186339E+00
        -11   -1    0    0    0    0  0.00000000000E+00  0.00000000000E+00  0.45593999997E+02  0.45594000000E+02  0.51100000000E-03 0.  1.
         11   -1    0    0    0    0 -0.00000000000E+00 -0.00000000000E+00 -0.45593999997E+02  0.45594000000E+02  0.51100000000E-03 0. -1.
    9900012    2    1    2    0    0  0.93989105542E+00 -0.35431446033E+00  0.61935195500E+00  0.90007944587E+02  0.90000208656E+02 0.  0.
        -12    1    1    2    0    0 -0.93989105542E+00  0.35431446033E+00 -0.61935195500E+00  0.11800554127E+01  0.00000000000E+00 0.  1.
         11    1    3    3    0    0 -0.26775144749E+02 -0.29706266538E+02 -0.56277204330E+01  0.40386159578E+02  0.51100000000E-03 0. -1.
        -11    1    3    3    0    0 -0.42273523023E+01  0.52558874850E+01  0.68391960361E+01  0.96056995281E+01  0.51100000000E-03 0.  1.
        -12    1    3    3    0    0  0.31942388106E+02  0.24096064593E+02 -0.59212364810E+00  0.40016085481E+02  0.00000000000E+00 0.  1.
</event>
<event>
 7    1  0.2349719E-015  0.9000772E+02  0.7816164E-02  0.1186339E+00
        -11   -1    0    0    0    0  0.00000000000E+00  0.00000000000E+00  0.45593999997E+02  0.45594000000E+02  0.51100000000E-03 0.  1.
         11   -1    0    0    0    0 -0.00000000000E+00 -0.00000000000E+00 -0.45593999997E+02  0.45594000000E+02  0.51100000000E-03 0. -1.
    9900012    2    1    2    0    0 -0.96696703302E+00  0.67364808257E+00  0.65063418754E-01  0.90007720274E+02  0.89999981382E+02 0.  0.
        -12    1    1    2    0    0  0.96696703302E+00 -0.67364808257E+00 -0.65063418754E-01  0.11802797256E+01  0.00000000000E+00 0.  1.
         11    1    3    3    0    0  0.71010888449E+00 -0.11016357041E+02 -0.35052909142E+01  0.11582376343E+02  0.51100000000E-03 0. -1.
        -11    1    3    3    0    0 -0.15933887433E+02 -0.30132326059E+02  0.32289931191E+01  0.34238461403E+02  0.51100000000E-03 0.  1.
         12    1    3    3    0    0  0.14256811515E+02  0.41822331182E+02  0.34136121384E+00  0.44186882529E+02  0.00000000000E+00 0. -1.
</event>
<event>
 7    1  0.2349719E-015  0.9000771E+02  0.7816164E-02  0.1186339E+00
        -11   -1    0    0    0    0  0.00000000000E+00  0.00000000000E+00  0.45593999997E+02  0.45594000000E+02  0.51100000000E-03 0.  1.
         11   -1    0    0    0    0 -0.00000000000E+00 -0.00000000000E+00 -0.45593999997E+02  0.45594000000E+02  0.51100000000E-03 0. -1.
    9900012    2    1    2    0    0 -0.55905560060E-01  0.44545046255E+00 -0.10915724091E+01  0.90007711107E+02  0.89999972094E+02 0.  0.
        -12    1    1    2    0    0  0.55905560060E-01 -0.44545046255E+00  0.10915724091E+01  0.11802888928E+01  0.00000000000E+00 0.  1.
         11    1    3    3    0    0 -0.29445747725E+01  0.85434042387E+01  0.23564726737E+01  0.93388029372E+01  0.51100000000E-03 0. -1.
        -11    1    3    3    0    0 -0.10918242784E+02  0.13846734238E+02  0.32127312835E+02  0.36648387479E+02  0.51100000000E-03 0.  1.
         12    1    3    3    0    0  0.13806911996E+02 -0.21944688015E+02 -0.35575357918E+02  0.44020520691E+02  0.00000000000E+00 0. -1.
</event>
<event>
 7    1  0.2349719E-015  0.9000778E+02  0.7816164E-02  0.1186339E+00
        -11   -1    0    0    0    0  0.00000000000E+00  0.00000000000E+00  0.45593999997E+02  0.45594000000E+02  0.51100000000E-03 0.  1.
         11   -1    0    0    0    0 -0.00000000000E+00 -0.00000000000E+00 -0.45593999997E+02  0.45594000000E+02  0.51100000000E-03 0. -1.
    9900012    2    1    2    0    0 -0.19198753093E+00  0.48892964693E+00 -0.10568910772E+01  0.90007775377E+02  0.90000037212E+02 0.  0.
        -12    1    1    2    0    0  0.19198753093E+00 -0.48892964693E+00  0.10568910772E+01  0.11802246230E+01  0.00000000000E+00 0.  1.
         11    1    3    3    0    0  0.16180027364E+02  0.11904920637E+02 -0.32666511422E+02  0.38348681719E+02  0.51100000000E-03 0. -1.
        -11    1    3    3    0    0 -0.55150268823E+01  0.41241580150E+01 -0.62619568492E+01  0.93078625198E+01  0.51100000000E-03 0.  1.
        -12    1    3    3    0    0 -0.10856988012E+02 -0.15540149005E+02  0.37871577194E+02  0.42351231138E+02  0.00000000000E+00 0.  1.
</event>
<event>
 7    1  0.2349719E-015  0.9000783E+02  0.7816164E-02  0.1186339E+00
        -11   -1    0    0    0    0  0.00000000000E+00  0.00000000000E+00  0.45593999997E+02  0.45594000000E+02  0.51100000000E-03 0.  1.
         11   -1    0    0    0    0 -0.00000000000E+00 -0.00000000000E+00 -0.45593999997E+02  0.45594000000E+02  0.51100000000E-03 0. -1.
    9900012    2    1    2    0    0 -0.16237097348E+00 -0.25156735134E+00 -0.11415518930E+01  0.90007834253E+02  0.90000096865E+02 0.  0.
        -12    1    1    2    0    0  0.16237097348E+00  0.25156735134E+00  0.11415518930E+01  0.11801657467E+01  0.00000000000E+00 0.  1.
         11    1    3    3    0    0 -0.21209244630E+02  0.33939563191E+02  0.22562085471E+01  0.40085115499E+02  0.51100000000E-03 0. -1.
        -11    1    3    3    0    0 -0.57733777325E+01 -0.45894259997E+01  0.52494047624E+01  0.90526776188E+01  0.51100000000E-03 0.  1.
        -12    1    3    3    0    0  0.26820251389E+02 -0.29601704542E+02 -0.86471652025E+01  0.40870041135E+02  0.00000000000E+00 0.  1.
</event>
<event>
 7    1  0.2349719E-015  0.9000730E+02  0.7816164E-02  0.1186340E+00
        -11   -1    0    0    0    0  0.00000000000E+00  0.00000000000E+00  0.45593999997E+02  0.45594000000E+02  0.51100000000E-03 0. -1.
         11   -1    0    0    0    0 -0.00000000000E+00 -0.00000000000E+00 -0.45593999997E+02  0.45594000000E+02  0.51100000000E-03 0.  1.
    9900012    2    1    2    0    0 -0.10246232550E+01  0.50204531884E+00  0.30355481744E+00  0.90007301967E+02  0.89999557552E+02 0.  0.
        -12    1    1    2    0    0  0.10246232550E+01 -0.50204531884E+00 -0.30355481744E+00  0.11806980326E+01  0.00000000000E+00 0.  1.
         11    1    3    3    0    0 -0.16257980118E+02 -0.29839882645E+02 -0.13969899577E+02  0.36740966349E+02  0.51100000000E-03 0. -1.
        -11    1    3    3    0    0 -0.40006324392E+01 -0.58207173360E+01 -0.43250613731E+01  0.82820267062E+01  0.51100000000E-03 0.  1.
        -12    1    3    3    0    0  0.19233989302E+02  0.36162645300E+02  0.18598515768E+02  0.44984308912E+02  0.00000000000E+00 0.  1.
</event>
<event>
 7    1  0.2349719E-015  0.9000764E+02  0.7816164E-02  0.1186339E+00
        -11   -1    0    0    0    0  0.00000000000E+00  0.00000000000E+00  0.45593999997E+02  0.45594000000E+02  0.51100000000E-03 0.  1.
         11   -1    0    0    0    0 -0.00000000000E+00 -0.00000000000E+00 -0.45593999997E+02  0.45594000000E+02  0.51100000000E-03 0. -1.
    9900012    2    1    2    0    0 -0.24611254857E+00  0.88309752794E+00  0.74351727013E+00  0.90007639648E+02  0.89999899691E+02 0.  0.
        -12    1    1    2    0    0  0.24611254857E+00 -0.88309752794E+00 -0.74351727013E+00  0.11803603523E+01  0.00000000000E+00 0.  1.
         11    1    3    3    0    0 -0.65793927627E+01  0.35584268059E+01 -0.59030031574E+01  0.95287069950E+01  0.51100000000E-03 0. -1.
        -11    1    3    3    0    0 -0.35870299279E+02  0.62503649174E+01  0.81652368214E+01  0.37315097810E+02  0.51100000000E-03 0.  1.
         12    1    3    3    0    0  0.42203579493E+02 -0.89256941954E+01 -0.15187163939E+01  0.43163834843E+02  0.00000000000E+00 0. -1.
</event>
<event>
 7    1  0.2349719E-015  0.9000751E+02  0.7816164E-02  0.1186340E+00
        -11   -1    0    0    0    0  0.00000000000E+00  0.00000000000E+00  0.45593999997E+02  0.45594000000E+02  0.51100000000E-03 0.  1.
         11   -1    0    0    0    0 -0.00000000000E+00 -0.00000000000E+00 -0.45593999997E+02  0.45594000000E+02  0.51100000000E-03 0. -1.
    9900012    2    1    2    0    0  0.93938788689E+00 -0.18385399887E+00 -0.69087474356E+00  0.90007508659E+02  0.89999766973E+02 0.  0.
        -12    1    1    2    0    0 -0.93938788689E+00  0.18385399887E+00  0.69087474356E+00  0.11804913410E+01  0.00000000000E+00 0.  1.
         11    1    3    3    0    0 -0.31672648502E+01  0.69774879290E+01  0.39074950892E+01  0.86014779291E+01  0.51100000000E-03 0. -1.
        -11    1    3    3    0    0 -0.13352871619E+02  0.22173747605E+02  0.25175950876E+02  0.36108209123E+02  0.51100000000E-03 0.  1.
         12    1    3    3    0    0  0.17459524356E+02 -0.29335089533E+02 -0.29774320709E+02  0.45297821607E+02  0.00000000000E+00 0. -1.
</event>
<event>
 7    1  0.2349719E-015  0.9000733E+02  0.7816164E-02  0.1186340E+00
        -11   -1    0    0    0    0  0.00000000000E+00  0.00000000000E+00  0.45593999997E+02  0.45594000000E+02  0.51100000000E-03 0.  1.
         11   -1    0    0    0    0 -0.00000000000E+00 -0.00000000000E+00 -0.45593999997E+02  0.45594000000E+02  0.51100000000E-03 0. -1.
    9900012    2    1    2    0    0 -0.94721699899E-01 -0.14279163043E+00 -0.11681726394E+01  0.90007326902E+02  0.89999582816E+02 0.  0.
        -12    1    1    2    0    0  0.94721699899E-01  0.14279163043E+00  0.11681726394E+01  0.11806730985E+01  0.00000000000E+00 0.  1.
         11    1    3    3    0    0  0.18715207647E+02 -0.21145315980E+02 -0.15527392896E+02  0.32225507220E+02  0.51100000000E-03 0. -1.
        -11    1    3    3    0    0  0.11509302006E+02 -0.62460962138E+01 -0.30661675759E+01  0.13449131363E+02  0.51100000000E-03 0.  1.
        -12    1    3    3    0    0 -0.30319231353E+02  0.27248620563E+02  0.17425387832E+02  0.44332688318E+02  0.00000000000E+00 0.  1.
</event>
<event>
 7    1  0.2349719E-015  0.9000788E+02  0.7816164E-02  0.1186339E+00
        -11   -1    0    0    0    0  0.00000000000E+00  0.00000000000E+00  0.45593999997E+02  0.45594000000E+02  0.51100000000E-03 0.  1.
         11   -1    0    0    0    0 -0.00000000000E+00 -0.00000000000E+00 -0.45593999997E+02  0.45594000000E+02  0.51100000000E-03 0. -1.
    9900012    2    1    2    0    0 -0.57177807627E+00  0.10247969355E+01 -0.12465564131E+00  0.90007882228E+02  0.90000145473E+02 0.  0.
        -12    1    1    2    0    0  0.57177807627E+00 -0.10247969355E+01  0.12465564131E+00  0.11801177723E+01  0.00000000000E+00 0.  1.
         11    1    3    3    0    0 -0.36870626026E+02  0.12067480937E+02 -0.95854135108E+01  0.39961823183E+02  0.51100000000E-03 0. -1.
        -11    1    3    3    0    0  0.15101814684E+02  0.94415051030E+01 -0.29674192024E+01  0.18055813533E+02  0.51100000000E-03 0.  1.
        -12    1    3    3    0    0  0.21197033265E+02 -0.20484189105E+02  0.12428177072E+02  0.31990245511E+02  0.00000000000E+00 0.  1.
</event>
<event>
 7    1  0.2349719E-015  0.9000782E+02  0.7816164E-02  0.1186339E+00
        -11   -1    0    0    0    0  0.00000000000E+00  0.00000000000E+00  0.45593999997E+02  0.45594000000E+02  0.51100000000E-03 0.  1.
         11   -1    0    0    0    0 -0.00000000000E+00 -0.00000000000E+00 -0.45593999997E+02  0.45594000000E+02  0.51100000000E-03 0. -1.
    9900012    2    1    2    0    0  0.91562366794E+00  0.37187011634E+00 -0.64511482472E+00  0.90007818988E+02  0.90000081398E+02 0.  0.
        -12    1    1    2    0    0 -0.91562366794E+00 -0.37187011634E+00  0.64511482472E+00  0.11801810123E+01  0.00000000000E+00 0.  1.
         11    1    3    3    0    0  0.35755712744E+02  0.93695321994E+01 -0.19548216296E+02  0.41813776295E+02  0.51100000000E-03 0. -1.
        -11    1    3    3    0    0 -0.65794410557E+01  0.57240551331E+01 -0.33344179591E+01  0.93366051196E+01  0.51100000000E-03 0.  1.
        -12    1    3    3    0    0 -0.28260648020E+02 -0.14721717216E+02  0.22237519431E+02  0.38857437573E+02  0.00000000000E+00 0.  1.
</event>
<event>
 7    1  0.2349719E-015  0.9000771E+02  0.7816164E-02  0.1186339E+00
        -11   -1    0    0    0    0  0.00000000000E+00  0.00000000000E+00  0.45593999997E+02  0.45594000000E+02  0.51100000000E-03 0. -1.
         11   -1    0    0    0    0 -0.00000000000E+00 -0.00000000000E+00 -0.45593999997E+02  0.45594000000E+02  0.51100000000E-03 0.  1.
    9900012    2    1    2    0    0 -0.26380927248E+00  0.32074949516E+00  0.11048158924E+01  0.90007706085E+02  0.89999967005E+02 0.  0.
        -12    1    1    2    0    0  0.26380927248E+00 -0.32074949516E+00 -0.11048158924E+01  0.11802939155E+01  0.00000000000E+00 0.  1.
         11    1    3    3    0    0  0.22055219943E+01 -0.74058650572E+01 -0.52928246853E+01  0.93661709318E+01  0.51100000000E-03 0. -1.
        -11    1    3    3    0    0 -0.27054263816E+02 -0.17322633296E+02 -0.18995479616E+02  0.37320705527E+02  0.51100000000E-03 0.  1.
         12    1    3    3    0    0  0.24584932549E+02  0.25049247849E+02  0.25393120194E+02  0.43320829625E+02  0.00000000000E+00 0. -1.
</event>
<event>
 7    1  0.2349719E-015  0.9000769E+02  0.7816164E-02  0.1186339E+00
        -11   -1    0    0    0    0  0.00000000000E+00  0.00000000000E+00  0.45593999997E+02  0.45594000000E+02  0.51100000000E-03 0. -1.
         11   -1    0    0    0    0 -0.00000000000E+00 -0.00000000000E+00 -0.45593999997E+02  0.45594000000E+02  0.51100000000E-03 0.  1.
    9900012    2    1    2    0    0  0.65075623845E+00  0.83738233868E+00  0.51811298420E+00  0.90007689055E+02  0.89999949750E+02 0.  0.
        -12    1    1    2    0    0 -0.65075623845E+00 -0.83738233868E+00 -0.51811298420E+00  0.11803109452E+01  0.00000000000E+00 0.  1.
         11    1    3    3    0    0 -0.15634448593E+02 -0.38650986999E+02 -0.92618962540E+01  0.42709688611E+02  0.51100000000E-03 0. -1.
        -11    1    3    3    0    0  0.89978980970E+01  0.45449667251E+01 -0.67500862861E+00  0.10103194030E+02  0.51100000000E-03 0.  1.
        -12    1    3    3    0    0  0.72873067347E+01  0.34943402612E+02  0.10455017867E+02  0.37194806414E+02  0.00000000000E+00 0.  1.
</event>
<event>
 7    1  0.2349719E-015  0.9000775E+02  0.7816164E-02  0.1186339E+00
        -11   -1    0    0    0    0  0.00000000000E+00  0.00000000000E+00  0.45593999997E+02  0.45594000000E+02  0.51100000000E-03 0.  1.
         11   -1    0    0    0    0 -0.00000000000E+00 -0.00000000000E+00 -0.45593999997E+02  0.45594000000E+02  0.51100000000E-03 0. -1.
    9900012    2    1    2    0    0 -0.68542081060E+00  0.94657196360E+00  0.16488141266E+00  0.90007751700E+02  0.90000013222E+02 0.  0.
        -12    1    1    2    0    0  0.68542081060E+00 -0.94657196360E+00 -0.16488141266E+00  0.11802483002E+01  0.00000000000E+00 0.  1.
         11    1    3    3    0    0  0.36243675110E+01  0.30687970360E+01 -0.92185350316E+01  0.10369905665E+02  0.51100000000E-03 0. -1.
        -11    1    3    3    0    0 -0.22273544827E+02  0.31680156068E+02  0.13784127262E+02  0.41106511069E+02  0.51100000000E-03 0.  1.
         12    1    3    3    0    0  0.17963756506E+02 -0.33802381140E+02 -0.44007108174E+01  0.38531334966E+02  0.00000000000E+00 0. -1.
</event>
<event>
 7    1  0.2349719E-015  0.9000775E+02  0.7816164E-02  0.1186339E+00
        -11   -1    0    0    0    0  0.00000000000E+00  0.00000000000E+00  0.45593999997E+02  0.45594000000E+02  0.51100000000E-03 0. -1.
         11   -1    0    0    0    0 -0.00000000000E+00 -0.00000000000E+00 -0.45593999997E+02  0.45594000000E+02  0.51100000000E-03 0.  1.
    9900012    2    1    2    0    0 -0.82502381152E+00 -0.83651108940E+00  0.11212255579E+00  0.90007751484E+02  0.90000013003E+02 0.  0.
        -12    1    1    2    0    0  0.82502381152E+00  0.83651108940E+00 -0.11212255579E+00  0.11802485161E+01  0.00000000000E+00 0.  1.
         11    1    3    3    0    0 -0.24210242142E+02 -0.26133616401E+02  0.64932466534E+01  0.36211379194E+02  0.51100000000E-03 0. -1.
        -11    1    3    3    0    0 -0.57076090774E+01 -0.22701688959E+01  0.89752500187E+01  0.10875917495E+02  0.51100000000E-03 0.  1.
        -12    1    3    3    0    0  0.29092827408E+02  0.27567274208E+02 -0.15356374116E+02  0.42920454795E+02  0.00000000000E+00 0.  1.
</event>
<event>
 7    1  0.2349719E-015  0.9000772E+02  0.7816164E-02  0.1186339E+00
        -11   -1    0    0    0    0  0.00000000000E+00  0.00000000000E+00  0.45593999997E+02  0.45594000000E+02  0.51100000000E-03 0. -1.
         11   -1    0    0    0    0 -0.00000000000E+00 -0.00000000000E+00 -0.45593999997E+02  0.45594000000E+02  0.51100000000E-03 0.  1.
    9900012    2    1    2    0    0 -0.11644483625E+01  0.18947815236E+00 -0.34962608098E-01  0.90007718532E+02  0.89999979617E+02 0.  0.
        -12    1    1    2    0    0  0.11644483625E+01 -0.18947815236E+00  0.34962608098E-01  0.11802814677E+01  0.00000000000E+00 0.  1.
         11    1    3    3    0    0  0.67562662560E+01  0.78040971299E+01  0.18347718773E+01  0.10484152509E+02  0.51100000000E-03 0. -1.
        -11    1    3    3    0    0 -0.37654764132E+02  0.14604083509E+02  0.78727400134E+01  0.41147789158E+02  0.51100000000E-03 0.  1.
         12    1    3    3    0    0  0.29734049514E+02 -0.22218702486E+02 -0.97424744988E+01  0.38375776865E+02  0.00000000000E+00 0. -1.
</event>
<event>
 7    1  0.2349719E-015  0.9000774E+02  0.7816164E-02  0.1186339E+00
        -11   -1    0    0    0    0  0.00000000000E+00  0.00000000000E+00  0.45593999997E+02  0.45594000000E+02  0.51100000000E-03 0.  1.
         11   -1    0    0    0    0 -0.00000000000E+00 -0.00000000000E+00 -0.45593999997E+02  0.45594000000E+02  0.51100000000E-03 0. -1.
    9900012    2    1    2    0    0  0.10548780307E+01 -0.49734297779E+00  0.18135867682E+00  0.90007742118E+02  0.90000003514E+02 0.  0.
        -12    1    1    2    0    0 -0.10548780307E+01  0.49734297779E+00 -0.18135867682E+00  0.11802578815E+01  0.00000000000E+00 0.  1.
         11    1    3    3    0    0  0.33501428751E+01  0.17952385946E+02  0.37733279926E+01  0.18648046087E+02  0.51100000000E-03 0. -1.
        -11    1    3    3    0    0  0.12616429456E+02 -0.20723713632E+02  0.27578219988E+02  0.36731523476E+02  0.51100000000E-03 0.  1.
         12    1    3    3    0    0 -0.14911694300E+02  0.22739847080E+01 -0.31170189304E+02  0.34628172556E+02  0.00000000000E+00 0. -1.
</event>
<event>
 7    1  0.2349719E-015  0.9000775E+02  0.7816164E-02  0.1186339E+00
        -11   -1    0    0    0    0  0.00000000000E+00  0.00000000000E+00  0.45593999997E+02  0.45594000000E+02  0.51100000000E-03 0.  1.
         11   -1    0    0    0    0 -0.00000000000E+00 -0.00000000000E+00 -0.45593999997E+02  0.45594000000E+02  0.51100000000E-03 0. -1.
    9900012    2    1    2    0    0  0.46647832937E+00 -0.10797029567E+01 -0.98071860190E-01  0.90007754858E+02  0.90000016422E+02 0.  0.
        -12    1    1    2    0    0 -0.46647832937E+00  0.10797029567E+01  0.98071860190E-01  0.11802451425E+01  0.00000000000E+00 0.  1.
         11    1    3    3    0    0  0.79853983687E+01 -0.36622809749E+01  0.56397843313E+01  0.10439638720E+02  0.51100000000E-03 0. -1.
        -11    1    3    3    0    0 -0.33807464865E+02 -0.22903139507E+02 -0.11684942431E+02  0.42473949189E+02  0.51100000000E-03 0.  1.
         12    1    3    3    0    0  0.26288544825E+02  0.25485717525E+02  0.59470862391E+01  0.37094166948E+02  0.00000000000E+00 0. -1.
</event>
<event>
 7    1  0.2349719E-015  0.9000766E+02  0.7816164E-02  0.1186339E+00
        -11   -1    0    0    0    0  0.00000000000E+00  0.00000000000E+00  0.45593999997E+02  0.45594000000E+02  0.51100000000E-03 0. -1.
         11   -1    0    0    0    0 -0.00000000000E+00 -0.00000000000E+00 -0.45593999997E+02  0.45594000000E+02  0.51100000000E-03 0.  1.
    9900012    2    1    2    0    0  0.58447924252E+00 -0.97631085728E+00  0.31369488333E+00  0.90007659645E+02  0.89999919952E+02 0.  0.
        -12    1    1    2    0    0 -0.58447924252E+00  0.97631085728E+00 -0.31369488333E+00  0.11803403555E+01  0.00000000000E+00 0.  1.
         11    1    3    3    0    0  0.67893357878E+01 -0.25731785896E+02  0.25360267044E+02  0.36760889960E+02  0.51100000000E-03 0. -1.
        -11    1    3    3    0    0  0.51253731376E+00 -0.36511929653E+01  0.82081300865E+01  0.89981833914E+01  0.51100000000E-03 0.  1.
        -12    1    3    3    0    0 -0.67173938590E+01  0.28406668004E+02 -0.33254702247E+02  0.44248586293E+02  0.00000000000E+00 0.  1.
</event>
<event>
 7    1  0.2349719E-015  0.9000775E+02  0.7816164E-02  0.1186339E+00
        -11   -1    0    0    0    0  0.00000000000E+00  0.00000000000E+00  0.45593999997E+02  0.45594000000E+02  0.51100000000E-03 0.  1.
         11   -1    0    0    0    0 -0.00000000000E+00 -0.00000000000E+00 -0.45593999997E+02  0.45594000000E+02  0.51100000000E-03 0. -1.
    9900012    2    1    2    0    0  0.98392469410E+00 -0.34199605225E+00  0.55490080236E+00  0.90007752567E+02  0.90000014101E+02 0.  0.
        -12    1    1    2    0    0 -0.98392469410E+00  0.34199605225E+00 -0.55490080236E+00  0.11802474333E+01  0.00000000000E+00 0.  1.
         11    1    3    3    0    0 -0.72484699184E+01  0.36450243708E+01  0.31722121221E+01  0.87114550352E+01  0.51100000000E-03 0. -1.
        -11    1    3    3    0    0 -0.17959665214E+02  0.24674486435E+02  0.19880297419E+02  0.36422603987E+02  0.51100000000E-03 0.  1.
         12    1    3    3    0    0  0.26192059827E+02 -0.28661506858E+02 -0.22497608739E+02  0.44873693545E+02  0.00000000000E+00 0. -1.
</event>
<event>
 7    1  0.2349719E-015  0.9000774E+02  0.7816164E-02  0.1186339E+00
        -11   -1    0    0    0    0  0.00000000000E+00  0.00000000000E+00  0.45593999997E+02  0.45594000000E+02  0.51100000000E-03 0.  1.
         11   -1    0    0    0    0 -0.00000000000E+00 -0.00000000000E+00 -0.45593999997E+02  0.45594000000E+02  0.51100000000E-03 0. -1.
    9900012    2    1    2    0    0 -0.58141369994E+00 -0.10057584547E+00 -0.10221807229E+01  0.90007741206E+02  0.90000002590E+02 0.  0.
        -12    1    1    2    0    0  0.58141369994E+00  0.10057584547E+00  0.10221807229E+01  0.11802587943E+01  0.00000000000E+00 0.  1.
         11    1    3    3    0    0 -0.48106966709E+01  0.11599762568E+02 -0.17661849858E+02  0.21671138290E+02  0.51100000000E-03 0. -1.
        -11    1    3    3    0    0 -0.21864558093E+02  0.16847841935E+02  0.70486379598E+01  0.28488453377E+02  0.51100000000E-03 0.  1.
         12    1    3    3    0    0  0.26093841064E+02 -0.28548180348E+02  0.95910311755E+01  0.39848149539E+02  0.00000000000E+00 0. -1.
</event>
<event>
 7    1  0.2349719E-015  0.9000773E+02  0.7816164E-02  0.1186339E+00
        -11   -1    0    0    0    0  0.00000000000E+00  0.00000000000E+00  0.45593999997E+02  0.45594000000E+02  0.51100000000E-03 0.  1.
         11   -1    0    0    0    0 -0.00000000000E+00 -0.00000000000E+00 -0.45593999997E+02  0.45594000000E+02  0.51100000000E-03 0. -1.
    9900012    2    1    2    0    0 -0.18069228580E+00 -0.11211260891E+01 -0.32165268273E+00  0.90007731447E+02  0.89999992702E+02 0.  0.
        -12    1    1    2    0    0  0.18069228580E+00  0.11211260891E+01  0.32165268273E+00  0.11802685534E+01  0.00000000000E+00 0.  1.
         11    1    3    3    0    0  0.15692241596E+02 -0.33139693858E+02  0.10221403390E+01  0.36681473886E+02  0.51100000000E-03 0. -1.
        -11    1    3    3    0    0  0.43331380568E+01 -0.45805736684E+01 -0.88346419004E+01  0.10853968782E+02  0.51100000000E-03 0.  1.
        -12    1    3    3    0    0 -0.20206071939E+02  0.36599141437E+02  0.74908488787E+01  0.42472288778E+02  0.00000000000E+00 0.  1.
</event>
<event>
 7    1  0.2349719E-015  0.9000787E+02  0.7816164E-02  0.1186339E+00
        -11   -1    0    0    0    0  0.00000000000E+00  0.00000000000E+00  0.45593999997E+02  0.45594000000E+02  0.51100000000E-03 0. -1.
         11   -1    0    0    0    0 -0.00000000000E+00 -0.00000000000E+00 -0.45593999997E+02  0.45594000000E+02  0.51100000000E-03 0.  1.
    9900012    2    1    2    0    0  0.10742159247E+01  0.47835784581E+00 -0.99744995045E-01  0.90007866471E+02  0.90000129509E+02 0.  0.
        -12    1    1    2    0    0 -0.10742159247E+01 -0.47835784581E+00  0.99744995045E-01  0.11801335287E+01  0.00000000000E+00 0.  1.
         11    1    3    3    0    0 -0.25347864311E+02 -0.22263111925E+02  0.25427494184E+02  0.42245920969E+02  0.51100000000E-03 0. -1.
        -11    1    3    3    0    0 -0.20439100522E+01  0.80629290045E+01 -0.46299684807E+01  0.95197164258E+01  0.51100000000E-03 0.  1.
        -12    1    3    3    0    0  0.28465990288E+02  0.14678540767E+02 -0.20897270698E+02  0.38242229077E+02  0.00000000000E+00 0.  1.
</event>
<event>
 7    1  0.2349719E-015  0.9000767E+02  0.7816164E-02  0.1186339E+00
        -11   -1    0    0    0    0  0.00000000000E+00  0.00000000000E+00  0.45593999997E+02  0.45594000000E+02  0.51100000000E-03 0. -1.
         11   -1    0    0    0    0 -0.00000000000E+00 -0.00000000000E+00 -0.45593999997E+02  0.45594000000E+02  0.51100000000E-03 0.  1.
    9900012    2    1    2    0    0 -0.30859706327E+00 -0.11313737714E+01  0.13395743732E+00  0.90007668117E+02  0.89999928537E+02 0.  0.
        -12    1    1    2    0    0  0.30859706327E+00  0.11313737714E+01 -0.13395743732E+00  0.11803318826E+01  0.00000000000E+00 0.  1.
         11    1    3    3    0    0  0.14190179093E+02  0.35103982136E+02 -0.40209792619E+01  0.38076489058E+02  0.51100000000E-03 0. -1.
        -11    1    3    3    0    0  0.83420257606E+01  0.45559446579E+00  0.23293360499E+01  0.86731059490E+01  0.51100000000E-03 0.  1.
        -12    1    3    3    0    0 -0.22840801917E+02 -0.36690950373E+02  0.18256006493E+01  0.43258073110E+02  0.00000000000E+00 0.  1.
</event>
<event>
 7    1  0.2349719E-015  0.9000775E+02  0.7816164E-02  0.1186339E+00
        -11   -1    0    0    0    0  0.00000000000E+00  0.00000000000E+00  0.45593999997E+02  0.45594000000E+02  0.51100000000E-03 0. -1.
         11   -1    0    0    0    0 -0.00000000000E+00 -0.00000000000E+00 -0.45593999997E+02  0.45594000000E+02  0.51100000000E-03 0.  1.
    9900012    2    1    2    0    0  0.32469022370E+00 -0.11204659601E+01 -0.17925284322E+00  0.90007746090E+02  0.90000007539E+02 0.  0.
        -12    1    1    2    0    0 -0.32469022370E+00  0.11204659601E+01  0.17925284322E+00  0.11802539095E+01  0.00000000000E+00 0.  1.
         11    1    3    3    0    0  0.59928327142E+01  0.19879537394E+02  0.31161956684E+02  0.37445661906E+02  0.51100000000E-03 0. -1.
        -11    1    3    3    0    0 -0.26716237330E+01 -0.59813879895E-01  0.77043171838E+01  0.81546094082E+01  0.51100000000E-03 0.  1.
        -12    1    3    3    0    0 -0.29965187575E+01 -0.20940189475E+02 -0.39045526711E+02  0.44407474776E+02  0.00000000000E+00 0.  1.
</event>
<event>
 7    1  0.2349719E-015  0.9000671E+02  0.7816164E-02  0.1186341E+00
        -11   -1    0    0    0    0  0.00000000000E+00  0.00000000000E+00  0.45593999997E+02  0.45594000000E+02  0.51100000000E-03 0.  1.
         11   -1    0    0    0    0 -0.00000000000E+00 -0.00000000000E+00 -0.45593999997E+02  0.45594000000E+02  0.51100000000E-03 0. -1.
    9900012    2    1    2    0    0 -0.11161646258E+00  0.11313045880E+01 -0.32114045302E+00  0.90006712780E+02  0.89998960583E+02 0.  0.
        -12    1    1    2    0    0  0.11161646258E+00 -0.11313045880E+01  0.32114045302E+00  0.11812872200E+01  0.00000000000E+00 0.  1.
         11    1    3    3    0    0 -0.36750226098E+02  0.15115048111E+02 -0.12688019447E+01  0.39757435233E+02  0.51100000000E-03 0. -1.
        -11    1    3    3    0    0  0.31877579191E+01  0.90573911734E+01 -0.37577132144E+00  0.96093360731E+01  0.51100000000E-03 0.  1.
        -12    1    3    3    0    0  0.33450851716E+02 -0.23041134696E+02  0.13234328131E+01  0.40639941474E+02  0.00000000000E+00 0.  1.
</event>
<event>
 7    1  0.2349719E-015  0.9000778E+02  0.7816164E-02  0.1186339E+00
        -11   -1    0    0    0    0  0.00000000000E+00  0.00000000000E+00  0.45593999997E+02  0.45594000000E+02  0.51100000000E-03 0.  1.
         11   -1    0    0    0    0 -0.00000000000E+00 -0.00000000000E+00 -0.45593999997E+02  0.45594000000E+02  0.51100000000E-03 0. -1.
    9900012    2    1    2    0    0  0.19449739253E+00  0.55371052154E+00  0.10239606511E+01  0.90007779685E+02  0.90000041577E+02 0.  0.
        -12    1    1    2    0    0 -0.19449739253E+00 -0.55371052154E+00 -0.10239606511E+01  0.11802203151E+01  0.00000000000E+00 0.  1.
         11    1    3    3    0    0 -0.13340526212E+02 -0.20675531551E+01  0.17678071341E+02  0.22243170239E+02  0.51100000000E-03 0. -1.
        -11    1    3    3    0    0  0.20631302128E+02 -0.27686170165E+02 -0.98014457685E+01  0.35892101991E+02  0.51100000000E-03 0.  1.
         12    1    3    3    0    0 -0.70962785242E+01  0.30307433842E+02 -0.68526649219E+01  0.31872507455E+02  0.00000000000E+00 0. -1.
</event>
<event>
 7    1  0.2349719E-015  0.9000823E+02  0.7816164E-02  0.1186338E+00
        -11   -1    0    0    0    0  0.00000000000E+00  0.00000000000E+00  0.45593999997E+02  0.45594000000E+02  0.51100000000E-03 0. -1.
         11   -1    0    0    0    0 -0.00000000000E+00 -0.00000000000E+00 -0.45593999997E+02  0.45594000000E+02  0.51100000000E-03 0.  1.
    9900012    2    1    2    0    0  0.83413471935E+00 -0.37878804811E+00  0.74336934284E+00  0.90008229219E+02  0.90000497043E+02 0.  0.
        -12    1    1    2    0    0 -0.83413471935E+00  0.37878804811E+00 -0.74336934284E+00  0.11797707808E+01  0.00000000000E+00 0.  1.
         11    1    3    3    0    0  0.60851172366E+01  0.72798874043E+01 -0.37650776008E+01  0.10207899980E+02  0.51100000000E-03 0. -1.
        -11    1    3    3    0    0  0.73313067828E+01 -0.92849221378E-01 -0.35986609133E+02  0.36725913430E+02  0.51100000000E-03 0.  1.
         12    1    3    3    0    0 -0.12582289300E+02 -0.75658262310E+01  0.40495056077E+02  0.43074415809E+02  0.00000000000E+00 0. -1.
</event>
<event>
 7    1  0.2349719E-015  0.9000769E+02  0.7816164E-02  0.1186339E+00
        -11   -1    0    0    0    0  0.00000000000E+00  0.00000000000E+00  0.45593999997E+02  0.45594000000E+02  0.51100000000E-03 0.  1.
         11   -1    0    0    0    0 -0.00000000000E+00 -0.00000000000E+00 -0.45593999997E+02  0.45594000000E+02  0.51100000000E-03 0. -1.
    9900012    2    1    2    0    0 -0.73361293900E+00 -0.83934059805E+00 -0.38788305609E+00  0.90007689088E+02  0.89999949784E+02 0.  0.
        -12    1    1    2    0    0  0.73361293900E+00  0.83934059805E+00  0.38788305609E+00  0.11803109120E+01  0.00000000000E+00 0.  1.
         11    1    3    3    0    0 -0.33193299659E+02  0.14060086407E+02 -0.23626574808E+02  0.43101000098E+02  0.51100000000E-03 0. -1.
        -11    1    3    3    0    0  0.21857274000E+01 -0.57804298902E+01 -0.19521458108E+01  0.64808678053E+01  0.51100000000E-03 0.  1.
        -12    1    3    3    0    0  0.30273959320E+02 -0.91189971154E+01  0.25190837563E+02  0.40425821184E+02  0.00000000000E+00 0.  1.
</event>
<event>
 7    1  0.2349719E-015  0.9000776E+02  0.7816164E-02  0.1186339E+00
        -11   -1    0    0    0    0  0.00000000000E+00  0.00000000000E+00  0.45593999997E+02  0.45594000000E+02  0.51100000000E-03 0. -1.
         11   -1    0    0    0    0 -0.00000000000E+00 -0.00000000000E+00 -0.45593999997E+02  0.45594000000E+02  0.51100000000E-03 0.  1.
    9900012    2    1    2    0    0 -0.31189093378E+00 -0.56856149436E+00 -0.98611811013E+00  0.90007759747E+02  0.90000021376E+02 0.  0.
        -12    1    1    2    0    0  0.31189093378E+00  0.56856149436E+00  0.98611811013E+00  0.11802402529E+01  0.00000000000E+00 0.  1.
         11    1    3    3    0    0  0.24637188224E+02  0.30810759495E+01  0.31058143388E+02  0.39762951897E+02  0.51100000000E-03 0. -1.
        -11    1    3    3    0    0  0.42902284852E+01  0.64279357116E+01 -0.73959710050E+01  0.10696953087E+02  0.51100000000E-03 0.  1.
        -12    1    3    3    0    0 -0.29239307643E+02 -0.10077573155E+02 -0.24648290493E+02  0.39547854763E+02  0.00000000000E+00 0.  1.
</event>
<event>
 7    1  0.2349719E-015  0.9000776E+02  0.7816164E-02  0.1186339E+00
        -11   -1    0    0    0    0  0.00000000000E+00  0.00000000000E+00  0.45593999997E+02  0.45594000000E+02  0.51100000000E-03 0.  1.
         11   -1    0    0    0    0 -0.00000000000E+00 -0.00000000000E+00 -0.45593999997E+02  0.45594000000E+02  0.51100000000E-03 0. -1.
    9900012    2    1    2    0    0  0.14417700368E+00 -0.14278643333E+00 -0.11626624916E+01  0.90007763141E+02  0.90000024814E+02 0.  0.
        -12    1    1    2    0    0 -0.14417700368E+00  0.14278643333E+00  0.11626624916E+01  0.11802368590E+01  0.00000000000E+00 0.  1.
         11    1    3    3    0    0  0.76757897330E+01 -0.29121973462E+02 -0.21476906132E+02  0.36990060606E+02  0.51100000000E-03 0. -1.
        -11    1    3    3    0    0 -0.14415993102E+01 -0.14618028988E+01 -0.96532773455E+01  0.98691863928E+01  0.51100000000E-03 0.  1.
        -12    1    3    3    0    0 -0.60900134191E+01  0.30440989928E+02  0.29967520986E+02  0.43148516142E+02  0.00000000000E+00 0.  1.
</event>
<event>
 7    1  0.2349719E-015  0.9000771E+02  0.7816164E-02  0.1186339E+00
        -11   -1    0    0    0    0  0.00000000000E+00  0.00000000000E+00  0.45593999997E+02  0.45594000000E+02  0.51100000000E-03 0. -1.
         11   -1    0    0    0    0 -0.00000000000E+00 -0.00000000000E+00 -0.45593999997E+02  0.45594000000E+02  0.51100000000E-03 0.  1.
    9900012    2    1    2    0    0 -0.14345645513E+00 -0.85872591143E-01  0.11683930163E+01  0.90007705081E+02  0.89999965988E+02 0.  0.
        -12    1    1    2    0    0  0.14345645513E+00  0.85872591143E-01 -0.11683930163E+01  0.11802949194E+01  0.00000000000E+00 0.  1.
         11    1    3    3    0    0  0.37047092807E+01 -0.48086611155E+01  0.27662679769E+02  0.28320874719E+02  0.51100000000E-03 0. -1.
        -11    1    3    3    0    0 -0.11963111523E+02  0.25315324185E+02 -0.11292180655E+01  0.28022434041E+02  0.51100000000E-03 0.  1.
        -12    1    3    3    0    0  0.81149457874E+01 -0.20592535661E+02 -0.25365068688E+02  0.33664396320E+02  0.00000000000E+00 0.  1.
</event>
<event>
 7    1  0.2349719E-015  0.9000772E+02  0.7816164E-02  0.1186339E+00
        -11   -1    0    0    0    0  0.00000000000E+00  0.00000000000E+00  0.45593999997E+02  0.45594000000E+02  0.51100000000E-03 0.  1.
         11   -1    0    0    0    0 -0.00000000000E+00 -0.00000000000E+00 -0.45593999997E+02  0.45594000000E+02  0.51100000000E-03 0. -1.
    9900012    2    1    2    0    0 -0.35321848830E+00  0.14220339426E+00 -0.11171762448E+01  0.90007717039E+02  0.89999978104E+02 0.  0.
        -12    1    1    2    0    0  0.35321848830E+00 -0.14220339426E+00  0.11171762448E+01  0.11802829609E+01  0.00000000000E+00 0.  1.
         11    1    3    3    0    0 -0.18918089766E+02  0.27307615925E+02 -0.15761850878E+02  0.36770041491E+02  0.51100000000E-03 0. -1.
        -11    1    3    3    0    0  0.27433733734E+01  0.41667821902E+01 -0.94343251777E+01  0.10672144260E+02  0.51100000000E-03 0.  1.
        -12    1    3    3    0    0  0.15821497905E+02 -0.31332194721E+02  0.24078999810E+02  0.42565531288E+02  0.00000000000E+00 0.  1.
</event>
<event>
 7    1  0.2349719E-015  0.9000763E+02  0.7816164E-02  0.1186339E+00
        -11   -1    0    0    0    0  0.00000000000E+00  0.00000000000E+00  0.45593999997E+02  0.45594000000E+02  0.51100000000E-03 0. -1.
         11   -1    0    0    0    0 -0.00000000000E+00 -0.00000000000E+00 -0.45593999997E+02  0.45594000000E+02  0.51100000000E-03 0.  1.
    9900012    2    1    2    0    0 -0.17922217606E+00 -0.82162826610E+00  0.82829265657E+00  0.90007634666E+02  0.89999894644E+02 0.  0.
        -12    1    1    2    0    0  0.17922217606E+00  0.82162826610E+00 -0.82829265657E+00  0.11803653337E+01  0.00000000000E+00 0.  1.
         11    1    3    3    0    0 -0.39298289019E+01  0.90736832783E+01 -0.71205299189E-02  0.98881410991E+01  0.51100000000E-03 0. -1.
        -11    1    3    3    0    0 -0.26665459148E+02  0.15174044296E+02  0.19659940407E+02  0.36439149125E+02  0.51100000000E-03 0.  1.
         12    1    3    3    0    0  0.30416065874E+02 -0.25069355840E+02 -0.18824527221E+02  0.43680344442E+02  0.00000000000E+00 0. -1.
</event>
<event>
 7    1  0.2349719E-015  0.9000773E+02  0.7816164E-02  0.1186339E+00
        -11   -1    0    0    0    0  0.00000000000E+00  0.00000000000E+00  0.45593999997E+02  0.45594000000E+02  0.51100000000E-03 0.  1.
         11   -1    0    0    0    0 -0.00000000000E+00 -0.00000000000E+00 -0.45593999997E+02  0.45594000000E+02  0.51100000000E-03 0. -1.
    9900012    2    1    2    0    0  0.25494765613E+00 -0.74395599506E+00 -0.88010121350E+00  0.90007725889E+02  0.89999987071E+02 0.  0.
        -12    1    1    2    0    0 -0.25494765613E+00  0.74395599506E+00  0.88010121350E+00  0.11802741105E+01  0.00000000000E+00 0.  1.
         11    1    3    3    0    0 -0.28991507996E+01 -0.22073562958E+02 -0.27481598161E+02  0.35367859629E+02  0.51100000000E-03 0. -1.
        -11    1    3    3    0    0 -0.53010166836E+00 -0.35059882375E+01 -0.97986684649E+01  0.10420502159E+02  0.51100000000E-03 0.  1.
        -12    1    3    3    0    0  0.36842001241E+01  0.24835595200E+02  0.36400165412E+02  0.44219364101E+02  0.00000000000E+00 0.  1.
</event>
<event>
 7    1  0.2349719E-015  0.9000783E+02  0.7816164E-02  0.1186339E+00
        -11   -1    0    0    0    0  0.00000000000E+00  0.00000000000E+00  0.45593999997E+02  0.45594000000E+02  0.51100000000E-03 0.  1.
         11   -1    0    0    0    0 -0.00000000000E+00 -0.00000000000E+00 -0.45593999997E+02  0.45594000000E+02  0.51100000000E-03 0. -1.
    9900012    2    1    2    0    0 -0.10659232611E+01 -0.68082748953E-01 -0.50197681195E+00  0.90007826971E+02  0.90000089487E+02 0.  0.
        -12    1    1    2    0    0  0.10659232611E+01  0.68082748953E-01  0.50197681195E+00  0.11801730292E+01  0.00000000000E+00 0.  1.
         11    1    3    3    0    0 -0.19039859071E+02  0.71166244015E+01 -0.69387699675E+01  0.21478107580E+02  0.51100000000E-03 0.  1.
        -11    1    3    3    0    0 -0.24898142992E+01 -0.26946069531E+02  0.23083952743E+02  0.35569069610E+02  0.51100000000E-03 0. -1.
         12    1    3    3    0    0  0.20463750109E+02  0.19761362380E+02 -0.16647159588E+02  0.32960649781E+02  0.00000000000E+00 0. -1.
</event>
<event>
 7    1  0.2349719E-015  0.9000782E+02  0.7816164E-02  0.1186339E+00
        -11   -1    0    0    0    0  0.00000000000E+00  0.00000000000E+00  0.45593999997E+02  0.45594000000E+02  0.51100000000E-03 0.  1.
         11   -1    0    0    0    0 -0.00000000000E+00 -0.00000000000E+00 -0.45593999997E+02  0.45594000000E+02  0.51100000000E-03 0. -1.
    9900012    2    1    2    0    0  0.68805981181E+00  0.75770833986E+00 -0.58759440059E+00  0.90007823991E+02  0.90000086468E+02 0.  0.
        -12    1    1    2    0    0 -0.68805981181E+00 -0.75770833986E+00  0.58759440059E+00  0.11801760091E+01  0.00000000000E+00 0.  1.
         11    1    3    3    0    0 -0.34852651193E+02  0.13045021883E+02  0.17648548332E+02  0.41186783676E+02  0.51100000000E-03 0. -1.
        -11    1    3    3    0    0  0.19278417482E+01  0.52458579846E+01 -0.76235406932E+01  0.94527230343E+01  0.51100000000E-03 0.  1.
        -12    1    3    3    0    0  0.33612869256E+02 -0.17533171528E+02 -0.10612602039E+02  0.39368317281E+02  0.00000000000E+00 0.  1.
</event>
<event>
 7    1  0.2349719E-015  0.9000774E+02  0.7816164E-02  0.1186339E+00
        -11   -1    0    0    0    0  0.00000000000E+00  0.00000000000E+00  0.45593999997E+02  0.45594000000E+02  0.51100000000E-03 0.  1.
         11   -1    0    0    0    0 -0.00000000000E+00 -0.00000000000E+00 -0.45593999997E+02  0.45594000000E+02  0.51100000000E-03 0. -1.
    9900012    2    1    2    0    0  0.10949140958E+01 -0.40554787412E+00 -0.17239312884E+00  0.90007735053E+02  0.89999996355E+02 0.  0.
        -12    1    1    2    0    0 -0.10949140958E+01  0.40554787412E+00  0.17239312884E+00  0.11802649475E+01  0.00000000000E+00 0.  1.
         11    1    3    3    0    0  0.17478456080E+01  0.94841836874E+01 -0.11345310949E+00  0.96445620095E+01  0.51100000000E-03 0. -1.
        -11    1    3    3    0    0  0.13427800091E+02  0.25056629721E+02  0.22671349368E+02  0.36361113716E+02  0.51100000000E-03 0.  1.
         12    1    3    3    0    0 -0.14080731604E+02 -0.34946361282E+02 -0.22730289387E+02  0.44002059327E+02  0.00000000000E+00 0. -1.
</event>
<event>
 7    1  0.2349719E-015  0.9000691E+02  0.7816164E-02  0.1186341E+00
        -11   -1    0    0    0    0  0.00000000000E+00  0.00000000000E+00  0.45593999997E+02  0.45594000000E+02  0.51100000000E-03 0.  1.
         11   -1    0    0    0    0 -0.00000000000E+00 -0.00000000000E+00 -0.45593999997E+02  0.45594000000E+02  0.51100000000E-03 0. -1.
    9900012    2    1    2    0    0 -0.50665924027E+00  0.17799176769E+00 -0.10519407269E+01  0.90006914081E+02  0.89999164543E+02 0.  0.
        -12    1    1    2    0    0  0.50665924027E+00 -0.17799176769E+00  0.10519407269E+01  0.11810859190E+01  0.00000000000E+00 0.  1.
         11    1    3    3    0    0  0.22763951267E+01 -0.40222959699E+01  0.90615441290E+01  0.10172139495E+02  0.51100000000E-03 0. -1.
        -11    1    3    3    0    0 -0.10126985937E+02 -0.16512450236E+02  0.29056381278E+02  0.34921199152E+02  0.51100000000E-03 0.  1.
         12    1    3    3    0    0  0.73439315702E+01  0.20712737974E+02 -0.39169866134E+02  0.44913575434E+02  0.00000000000E+00 0. -1.
</event>
<event>
 7    1  0.2349719E-015  0.9000766E+02  0.7816164E-02  0.1186339E+00
        -11   -1    0    0    0    0  0.00000000000E+00  0.00000000000E+00  0.45593999997E+02  0.45594000000E+02  0.51100000000E-03 0. -1.
         11   -1    0    0    0    0 -0.00000000000E+00 -0.00000000000E+00 -0.45593999997E+02  0.45594000000E+02  0.51100000000E-03 0.  1.
    9900012    2    1    2    0    0 -0.87811541966E+00  0.29472688529E-01 -0.78818938031E+00  0.90007661985E+02  0.89999922324E+02 0.  0.
        -12    1    1    2    0    0  0.87811541966E+00 -0.29472688529E-01  0.78818938031E+00  0.11803380147E+01  0.00000000000E+00 0.  1.
         11    1    3    3    0    0 -0.16747678248E+02 -0.23657014360E+01 -0.17513136965E+02  0.24347304503E+02  0.51100000000E-03 0. -1.
        -11    1    3    3    0    0  0.70800682969E+01  0.17940868954E+02 -0.18146500780E+02  0.26482024785E+02  0.51100000000E-03 0.  1.
         12    1    3    3    0    0  0.87894945313E+01 -0.15545694830E+02  0.34871448364E+02  0.39178332696E+02  0.00000000000E+00 0. -1.
</event>
<event>
 7    1  0.2349719E-015  0.9000772E+02  0.7816164E-02  0.1186339E+00
        -11   -1    0    0    0    0  0.00000000000E+00  0.00000000000E+00  0.45593999997E+02  0.45594000000E+02  0.51100000000E-03 0.  1.
         11   -1    0    0    0    0 -0.00000000000E+00 -0.00000000000E+00 -0.45593999997E+02  0.45594000000E+02  0.51100000000E-03 0. -1.
    9900012    2    1    2    0    0  0.98831244147E+00  0.60021857492E+00  0.23671179044E+00  0.90007721943E+02  0.89999983073E+02 0.  0.
        -12    1    1    2    0    0 -0.98831244147E+00 -0.60021857492E+00 -0.23671179044E+00  0.11802780568E+01  0.00000000000E+00 0.  1.
         11    1    3    3    0    0 -0.32029888483E+02 -0.37887345839E+01 -0.27041842553E+02  0.42089541634E+02  0.51100000000E-03 0. -1.
        -11    1    3    3    0    0 -0.47833833754E+00 -0.19905157669E+01  0.89990257270E+01  0.92289449494E+01  0.51100000000E-03 0.  1.
        -12    1    3    3    0    0  0.33496539262E+02  0.63794689258E+01  0.18279528616E+02  0.38689235360E+02  0.00000000000E+00 0.  1.
</event>
<event>
 7    1  0.2349719E-015  0.9000769E+02  0.7816164E-02  0.1186339E+00
        -11   -1    0    0    0    0  0.00000000000E+00  0.00000000000E+00  0.45593999997E+02  0.45594000000E+02  0.51100000000E-03 0.  1.
         11   -1    0    0    0    0 -0.00000000000E+00 -0.00000000000E+00 -0.45593999997E+02  0.45594000000E+02  0.51100000000E-03 0. -1.
    9900012    2    1    2    0    0  0.36415334200E+00  0.96987055472E+00  0.56557548413E+00  0.90007689796E+02  0.89999950501E+02 0.  0.
        -12    1    1    2    0    0 -0.36415334200E+00 -0.96987055472E+00 -0.56557548413E+00  0.11803102040E+01  0.00000000000E+00 0.  1.
         11    1    3    3    0    0  0.28469414085E+01  0.56726746495E+01 -0.73251892489E+01  0.96924048025E+01  0.51100000000E-03 0. -1.
        -11    1    3    3    0    0  0.13005079344E+02  0.26438880169E+02  0.27571548668E+02  0.40352655050E+02  0.51100000000E-03 0.  1.
         12    1    3    3    0    0 -0.15487867411E+02 -0.31141684264E+02 -0.19680783935E+02  0.39962629944E+02  0.00000000000E+00 0. -1.
</event>
<event>
 7    1  0.2349719E-015  0.9000777E+02  0.7816164E-02  0.1186339E+00
        -11   -1    0    0    0    0  0.00000000000E+00  0.00000000000E+00  0.45593999997E+02  0.45594000000E+02  0.51100000000E-03 0.  1.
         11   -1    0    0    0    0 -0.00000000000E+00 -0.00000000000E+00 -0.45593999997E+02  0.45594000000E+02  0.51100000000E-03 0. -1.
    9900012    2    1    2    0    0 -0.30324257269E+00  0.29452972407E+00 -0.11019230428E+01  0.90007771968E+02  0.90000033758E+02 0.  0.
        -12    1    1    2    0    0  0.30324257269E+00 -0.29452972407E+00  0.11019230428E+01  0.11802280324E+01  0.00000000000E+00 0.  1.
         11    1    3    3    0    0  0.20741832707E+01 -0.76345457290E+01  0.52064923866E+01  0.94708018647E+01  0.51100000000E-03 0. -1.
        -11    1    3    3    0    0 -0.30405242943E+02 -0.17228495901E+02  0.14118954087E+02  0.37691441127E+02  0.51100000000E-03 0.  1.
         12    1    3    3    0    0  0.28027817100E+02  0.25157571354E+02 -0.20427369517E+02  0.42845528976E+02  0.00000000000E+00 0. -1.
</event>
<event>
 7    1  0.2349719E-015  0.9000762E+02  0.7816164E-02  0.1186339E+00
        -11   -1    0    0    0    0  0.00000000000E+00  0.00000000000E+00  0.45593999997E+02  0.45594000000E+02  0.51100000000E-03 0. -1.
         11   -1    0    0    0    0 -0.00000000000E+00 -0.00000000000E+00 -0.45593999997E+02  0.45594000000E+02  0.51100000000E-03 0.  1.
    9900012    2    1    2    0    0  0.10030447623E+01 -0.36566104769E-01 -0.62118456423E+00  0.90007616106E+02  0.89999875838E+02 0.  0.
        -12    1    1    2    0    0 -0.10030447623E+01  0.36566104769E-01  0.62118456423E+00  0.11803838944E+01  0.00000000000E+00 0.  1.
         11    1    3    3    0    0  0.10725609498E+02  0.22378869822E+01 -0.57176530193E+01  0.12358737539E+02  0.51100000000E-03 0. -1.
        -11    1    3    3    0    0 -0.25791092460E+02  0.30422004486E+01 -0.29397889935E+02  0.39225901733E+02  0.51100000000E-03 0.  1.
         12    1    3    3    0    0  0.16068527725E+02 -0.53166535356E+01  0.34494358390E+02  0.38422976834E+02  0.00000000000E+00 0. -1.
</event>
<event>
 7    1  0.2349719E-015  0.9000773E+02  0.7816164E-02  0.1186339E+00
        -11   -1    0    0    0    0  0.00000000000E+00  0.00000000000E+00  0.45593999997E+02  0.45594000000E+02  0.51100000000E-03 0.  1.
         11   -1    0    0    0    0 -0.00000000000E+00 -0.00000000000E+00 -0.45593999997E+02  0.45594000000E+02  0.51100000000E-03 0. -1.
    9900012    2    1    2    0    0 -0.62935375817E+00 -0.55971784863E-01 -0.99690899169E+00  0.90007726078E+02  0.89999987262E+02 0.  0.
        -12    1    1    2    0    0  0.62935375817E+00  0.55971784863E-01  0.99690899169E+00  0.11802739222E+01  0.00000000000E+00 0.  1.
         11    1    3    3    0    0  0.97622962694E+01  0.37585857650E+02  0.28515705448E+01  0.38937521474E+02  0.51100000000E-03 0. -1.
        -11    1    3    3    0    0  0.23562589738E+01  0.22908434455E+01  0.70328632789E+01  0.77628014405E+01  0.51100000000E-03 0.  1.
        -12    1    3    3    0    0 -0.12747909001E+02 -0.39932672880E+02 -0.10881342815E+02  0.43307403163E+02  0.00000000000E+00 0.  1.
</event>
<event>
 7    1  0.2349719E-015  0.9000774E+02  0.7816164E-02  0.1186339E+00
        -11   -1    0    0    0    0  0.00000000000E+00  0.00000000000E+00  0.45593999997E+02  0.45594000000E+02  0.51100000000E-03 0.  1.
         11   -1    0    0    0    0 -0.00000000000E+00 -0.00000000000E+00 -0.45593999997E+02  0.45594000000E+02  0.51100000000E-03 0. -1.
    9900012    2    1    2    0    0  0.28487082379E+00  0.66953684026E+00 -0.92928605015E+00  0.90007744295E+02  0.90000005719E+02 0.  0.
        -12    1    1    2    0    0 -0.28487082379E+00 -0.66953684026E+00  0.92928605015E+00  0.11802557052E+01  0.00000000000E+00 0.  1.
         11    1    3    3    0    0 -0.40530567457E+02 -0.11414070579E+02 -0.18336497882E+01  0.42147006743E+02  0.51100000000E-03 0. -1.
        -11    1    3    3    0    0  0.54527296767E+01 -0.38589420194E+01  0.56918289049E+01  0.87761387285E+01  0.51100000000E-03 0.  1.
        -12    1    3    3    0    0  0.35362708604E+02  0.15942549439E+02 -0.47874651668E+01  0.39084598823E+02  0.00000000000E+00 0.  1.
</event>
<event>
 7    1  0.2349719E-015  0.9000782E+02  0.7816164E-02  0.1186339E+00
        -11   -1    0    0    0    0  0.00000000000E+00  0.00000000000E+00  0.45593999997E+02  0.45594000000E+02  0.51100000000E-03 0.  1.
         11   -1    0    0    0    0 -0.00000000000E+00 -0.00000000000E+00 -0.45593999997E+02  0.45594000000E+02  0.51100000000E-03 0. -1.
    9900012    2    1    2    0    0  0.32725081244E+00 -0.58712554296E+00  0.97006550088E+00  0.90007815026E+02  0.90000077384E+02 0.  0.
        -12    1    1    2    0    0 -0.32725081244E+00  0.58712554296E+00 -0.97006550088E+00  0.11801849742E+01  0.00000000000E+00 0.  1.
         11    1    3    3    0    0 -0.87700497068E+01  0.10424924974E+01  0.17649173484E+01  0.90064141574E+01  0.51100000000E-03 0. -1.
        -11    1    3    3    0    0  0.12600241389E+02  0.22792866717E+02 -0.31975750774E+02  0.41239901722E+02  0.51100000000E-03 0.  1.
         12    1    3    3    0    0 -0.35029408701E+01 -0.24422484757E+02  0.31180898926E+02  0.39761499146E+02  0.00000000000E+00 0. -1.
</event>
<event>
 7    1  0.2349719E-015  0.9000825E+02  0.7816164E-02  0.1186338E+00
        -11   -1    0    0    0    0  0.00000000000E+00  0.00000000000E+00  0.45593999997E+02  0.45594000000E+02  0.51100000000E-03 0. -1.
         11   -1    0    0    0    0 -0.00000000000E+00 -0.00000000000E+00 -0.45593999997E+02  0.45594000000E+02  0.51100000000E-03 0.  1.
    9900012    2    1    2    0    0 -0.99620325401E+00  0.61964767462E+00  0.12418202763E+00  0.90008252002E+02  0.90000520126E+02 0.  0.
        -12    1    1    2    0    0  0.99620325401E+00 -0.61964767462E+00 -0.12418202763E+00  0.11797479985E+01  0.00000000000E+00 0.  1.
         11    1    3    3    0    0 -0.98432026604E+00 -0.40783332398E+02  0.32006543890E+01  0.40920572780E+02  0.51100000000E-03 0. -1.
        -11    1    3    3    0    0  0.60235189847E+01  0.33724856725E+01 -0.76573031913E+01  0.10309739715E+02  0.51100000000E-03 0.  1.
        -12    1    3    3    0    0 -0.60354019727E+01  0.38030494400E+02  0.45808308300E+01  0.38777939506E+02  0.00000000000E+00 0.  1.
</event>
<event>
 7    1  0.2349719E-015  0.9000782E+02  0.7816164E-02  0.1186339E+00
        -11   -1    0    0    0    0  0.00000000000E+00  0.00000000000E+00  0.45593999997E+02  0.45594000000E+02  0.51100000000E-03 0.  1.
         11   -1    0    0    0    0 -0.00000000000E+00 -0.00000000000E+00 -0.45593999997E+02  0.45594000000E+02  0.51100000000E-03 0. -1.
    9900012    2    1    2    0    0 -0.90760876086E+00 -0.73434657605E+00 -0.17262243226E+00  0.90007823293E+02  0.90000085760E+02 0.  0.
        -12    1    1    2    0    0  0.90760876086E+00  0.73434657605E+00  0.17262243226E+00  0.11801767074E+01  0.00000000000E+00 0.  1.
         11    1    3    3    0    0  0.83742684099E+00 -0.26443413357E+02  0.23875728701E+02  0.35637140948E+02  0.51100000000E-03 0. -1.
        -11    1    3    3    0    0  0.25530876283E+01 -0.74251612320E+01  0.56455927620E+01  0.96707804057E+01  0.51100000000E-03 0.  1.
        -12    1    3    3    0    0 -0.42981232301E+01  0.33134228013E+02 -0.29693943895E+02  0.44699901939E+02  0.00000000000E+00 0.  1.
</event>
<event>
 7    1  0.2349719E-015  0.9000776E+02  0.7816164E-02  0.1186339E+00
        -11   -1    0    0    0    0  0.00000000000E+00  0.00000000000E+00  0.45593999997E+02  0.45594000000E+02  0.51100000000E-03 0. -1.
         11   -1    0    0    0    0 -0.00000000000E+00 -0.00000000000E+00 -0.45593999997E+02  0.45594000000E+02  0.51100000000E-03 0.  1.
    9900012    2    1    2    0    0  0.69594371398E+00 -0.34059747314E+00  0.89028927516E+00  0.90007763039E+02  0.90000024711E+02 0.  0.
        -12    1    1    2    0    0 -0.69594371398E+00  0.34059747314E+00 -0.89028927516E+00  0.11802369615E+01  0.00000000000E+00 0.  1.
         11    1    3    3    0    0  0.46495080774E+01 -0.42789001863E+01 -0.72974741011E+01  0.96529809222E+01  0.51100000000E-03 0. -1.
        -11    1    3    3    0    0  0.54291101025E+01  0.28720500052E+01 -0.35311837571E+02  0.35842011392E+02  0.51100000000E-03 0.  1.
         12    1    3    3    0    0 -0.93826744660E+01  0.10662527080E+01  0.43499600947E+02  0.44512770724E+02  0.00000000000E+00 0. -1.
</event>
<event>
 7    1  0.2349719E-015  0.9000766E+02  0.7816164E-02  0.1186339E+00
        -11   -1    0    0    0    0  0.00000000000E+00  0.00000000000E+00  0.45593999997E+02  0.45594000000E+02  0.51100000000E-03 0. -1.
         11   -1    0    0    0    0 -0.00000000000E+00 -0.00000000000E+00 -0.45593999997E+02  0.45594000000E+02  0.51100000000E-03 0.  1.
    9900012    2    1    2    0    0  0.71214065980E+00  0.76161424079E+00 -0.55317528790E+00  0.90007659596E+02  0.89999919902E+02 0.  0.
        -12    1    1    2    0    0 -0.71214065980E+00 -0.76161424079E+00  0.55317528790E+00  0.11803404044E+01  0.00000000000E+00 0.  1.
         11    1    3    3    0    0  0.50220411544E+01 -0.28010357623E+01  0.72220622627E+01  0.92317323556E+01  0.51100000000E-03 0. -1.
        -11    1    3    3    0    0  0.33740820786E+02  0.19656521880E+02 -0.50125946770E+01  0.39369378270E+02  0.51100000000E-03 0.  1.
         12    1    3    3    0    0 -0.38050721281E+02 -0.16093871877E+02 -0.27626428736E+01  0.41406548970E+02  0.00000000000E+00 0. -1.
</event>
<event>
 7    1  0.2349719E-015  0.9000775E+02  0.7816164E-02  0.1186339E+00
        -11   -1    0    0    0    0  0.00000000000E+00  0.00000000000E+00  0.45593999997E+02  0.45594000000E+02  0.51100000000E-03 0.  1.
         11   -1    0    0    0    0 -0.00000000000E+00 -0.00000000000E+00 -0.45593999997E+02  0.45594000000E+02  0.51100000000E-03 0. -1.
    9900012    2    1    2    0    0 -0.11449468799E+01 -0.22425146483E+00 -0.17834628965E+00  0.90007746012E+02  0.90000007459E+02 0.  0.
        -12    1    1    2    0    0  0.11449468799E+01  0.22425146483E+00  0.17834628965E+00  0.11802539880E+01  0.00000000000E+00 0.  1.
         11    1    3    3    0    0 -0.30068452874E+02  0.15810780168E+02 -0.15518627814E+02  0.37348633673E+02  0.51100000000E-03 0. -1.
        -11    1    3    3    0    0 -0.91761014629E+01 -0.17168560176E+01  0.54164991097E+00  0.93510329659E+01  0.51100000000E-03 0.  1.
        -12    1    3    3    0    0  0.38099607457E+02 -0.14318175616E+02  0.14798631614E+02  0.43308079373E+02  0.00000000000E+00 0.  1.
</event>
<event>
 7    1  0.2349719E-015  0.9000770E+02  0.7816164E-02  0.1186339E+00
        -11   -1    0    0    0    0  0.00000000000E+00  0.00000000000E+00  0.45593999997E+02  0.45594000000E+02  0.51100000000E-03 0.  1.
         11   -1    0    0    0    0 -0.00000000000E+00 -0.00000000000E+00 -0.45593999997E+02  0.45594000000E+02  0.51100000000E-03 0. -1.
    9900012    2    1    2    0    0  0.62983104210E+00 -0.75406568259E+00  0.65406657465E+00  0.90007701191E+02  0.89999962046E+02 0.  0.
        -12    1    1    2    0    0 -0.62983104210E+00  0.75406568259E+00 -0.65406657465E+00  0.11802988093E+01  0.00000000000E+00 0.  1.
         11    1    3    3    0    0  0.22952137607E+01 -0.98382214675E+01  0.41280959682E+01  0.10913284768E+02  0.51100000000E-03 0. -1.
        -11    1    3    3    0    0 -0.36220261813E+02 -0.55371644445E+01  0.11930287164E+02  0.38534391236E+02  0.51100000000E-03 0.  1.
         12    1    3    3    0    0  0.34554879094E+02  0.14621320229E+02 -0.15404316558E+02  0.40560025186E+02  0.00000000000E+00 0. -1.
</event>
<event>
 7    1  0.2349719E-015  0.9000781E+02  0.7816164E-02  0.1186339E+00
        -11   -1    0    0    0    0  0.00000000000E+00  0.00000000000E+00  0.45593999997E+02  0.45594000000E+02  0.51100000000E-03 0. -1.
         11   -1    0    0    0    0 -0.00000000000E+00 -0.00000000000E+00 -0.45593999997E+02  0.45594000000E+02  0.51100000000E-03 0.  1.
    9900012    2    1    2    0    0 -0.14395092891E+00 -0.12385557380E+00  0.11648157559E+01  0.90007806025E+02  0.90000068265E+02 0.  0.
        -12    1    1    2    0    0  0.14395092891E+00  0.12385557380E+00 -0.11648157559E+01  0.11801939748E+01  0.00000000000E+00 0.  1.
         11    1    3    3    0    0 -0.80915157576E+01  0.29413535221E+02  0.64546753236E+01  0.31181589363E+02  0.51100000000E-03 0. -1.
        -11    1    3    3    0    0 -0.13786768946E+02  0.34740393055E+01 -0.12161414422E+02  0.18709461459E+02  0.51100000000E-03 0.  1.
        -12    1    3    3    0    0  0.21734333775E+02 -0.33011430100E+02  0.68715548548E+01  0.40116755203E+02  0.00000000000E+00 0.  1.
</event>
<event>
 7    1  0.2349719E-015  0.9000773E+02  0.7816164E-02  0.1186339E+00
        -11   -1    0    0    0    0  0.00000000000E+00  0.00000000000E+00  0.45593999997E+02  0.45594000000E+02  0.51100000000E-03 0.  1.
         11   -1    0    0    0    0 -0.00000000000E+00 -0.00000000000E+00 -0.45593999997E+02  0.45594000000E+02  0.51100000000E-03 0. -1.
    9900012    2    1    2    0    0 -0.18739687123E+00  0.26162838671E+00 -0.11355463466E+01  0.90007732020E+02  0.89999993282E+02 0.  0.
        -12    1    1    2    0    0  0.18739687123E+00 -0.26162838671E+00  0.11355463466E+01  0.11802679803E+01  0.00000000000E+00 0.  1.
         11    1    3    3    0    0  0.14407899843E+02  0.23466629187E+02 -0.16922194752E+02  0.32320750900E+02  0.51100000000E-03 0. -1.
        -11    1    3    3    0    0  0.90342334976E+01  0.93084838672E+01 -0.30092535162E+01  0.13316187659E+02  0.51100000000E-03 0.  1.
        -12    1    3    3    0    0 -0.23629530212E+02 -0.32513484667E+02  0.18795901922E+02  0.44370793460E+02  0.00000000000E+00 0.  1.
</event>
<event>
 7    1  0.2349719E-015  0.9000778E+02  0.7816164E-02  0.1186339E+00
        -11   -1    0    0    0    0  0.00000000000E+00  0.00000000000E+00  0.45593999997E+02  0.45594000000E+02  0.51100000000E-03 0.  1.
         11   -1    0    0    0    0 -0.00000000000E+00 -0.00000000000E+00 -0.45593999997E+02  0.45594000000E+02  0.51100000000E-03 0. -1.
    9900012    2    1    2    0    0  0.42106323912E+00 -0.10935328692E+01 -0.14075713586E+00  0.90007779275E+02  0.90000041162E+02 0.  0.
        -12    1    1    2    0    0 -0.42106323912E+00  0.10935328692E+01  0.14075713586E+00  0.11802207246E+01  0.00000000000E+00 0.  1.
         11    1    3    3    0    0 -0.84411531235E+01  0.60415008664E+01  0.15945266846E+02  0.19026411481E+02  0.51100000000E-03 0. -1.
        -11    1    3    3    0    0  0.58194992839E+01  0.23777093228E+02  0.13610371663E+02  0.28008194361E+02  0.51100000000E-03 0.  1.
         12    1    3    3    0    0  0.30427170787E+01 -0.30912126963E+02 -0.29696395646E+02  0.42973173434E+02  0.00000000000E+00 0. -1.
</event>
<event>
 7    1  0.2349719E-015  0.9000814E+02  0.7816164E-02  0.1186338E+00
        -11   -1    0    0    0    0  0.00000000000E+00  0.00000000000E+00  0.45593999997E+02  0.45594000000E+02  0.51100000000E-03 0. -1.
         11   -1    0    0    0    0 -0.00000000000E+00 -0.00000000000E+00 -0.45593999997E+02  0.45594000000E+02  0.51100000000E-03 0.  1.
    9900012    2    1    2    0    0  0.48231271531E+00 -0.10395699811E+01  0.28059833601E+00  0.90008141226E+02  0.90000407889E+02 0.  0.
        -12    1    1    2    0    0 -0.48231271531E+00  0.10395699811E+01 -0.28059833601E+00  0.11798587742E+01  0.00000000000E+00 0.  1.
         11    1    3    3    0    0 -0.36560250013E+02 -0.85735765567E+01  0.50296798397E+01  0.37887409195E+02  0.51100000000E-03 0. -1.
        -11    1    3    3    0    0 -0.68011193007E+01 -0.83928469292E+00 -0.29151208789E+01  0.74469827808E+01  0.51100000000E-03 0.  1.
        -12    1    3    3    0    0  0.43843682029E+02  0.83732912686E+01 -0.18339606248E+01  0.44673749250E+02  0.00000000000E+00 0.  1.
</event>
<event>
 7    1  0.2349719E-015  0.9000775E+02  0.7816164E-02  0.1186339E+00
        -11   -1    0    0    0    0  0.00000000000E+00  0.00000000000E+00  0.45593999997E+02  0.45594000000E+02  0.51100000000E-03 0.  1.
         11   -1    0    0    0    0 -0.00000000000E+00 -0.00000000000E+00 -0.45593999997E+02  0.45594000000E+02  0.51100000000E-03 0. -1.
    9900012    2    1    2    0    0 -0.28468175847E+00  0.36369107831E-01 -0.11448251267E+01  0.90007749609E+02  0.90000011104E+02 0.  0.
        -12    1    1    2    0    0  0.28468175847E+00 -0.36369107831E-01  0.11448251267E+01  0.11802503913E+01  0.00000000000E+00 0.  1.
         11    1    3    3    0    0  0.16467101333E+01 -0.10753554512E+02  0.13962797906E+01  0.10968144165E+02  0.51100000000E-03 0. -1.
        -11    1    3    3    0    0  0.10459018685E+02 -0.15180832796E+02  0.30242850695E+02  0.35418621862E+02  0.51100000000E-03 0.  1.
         12    1    3    3    0    0 -0.12390410577E+02  0.25970756415E+02 -0.32783955612E+02  0.43620983582E+02  0.00000000000E+00 0. -1.
</event>
<event>
 7    1  0.2349719E-015  0.9000756E+02  0.7816164E-02  0.1186339E+00
        -11   -1    0    0    0    0  0.00000000000E+00  0.00000000000E+00  0.45593999997E+02  0.45594000000E+02  0.51100000000E-03 0. -1.
         11   -1    0    0    0    0 -0.00000000000E+00 -0.00000000000E+00 -0.45593999997E+02  0.45594000000E+02  0.51100000000E-03 0.  1.
    9900012    2    1    2    0    0  0.89758935074E+00  0.28527296179E+00  0.71160718544E+00  0.90007562754E+02  0.89999821782E+02 0.  0.
        -12    1    1    2    0    0 -0.89758935074E+00 -0.28527296179E+00 -0.71160718544E+00  0.11804372460E+01  0.00000000000E+00 0.  1.
         11    1    3    3    0    0  0.73839820262E+01 -0.32987200018E+01 -0.71388405818E+01  0.10787390293E+02  0.51100000000E-03 0. -1.
        -11    1    3    3    0    0  0.13604426082E+02 -0.13475711552E+02 -0.28490530436E+02  0.34327620593E+02  0.51100000000E-03 0.  1.
         12    1    3    3    0    0 -0.20090818757E+02  0.17059704515E+02  0.36340978203E+02  0.44892551868E+02  0.00000000000E+00 0. -1.
</event>
<event>
 7    1  0.2349719E-015  0.9000775E+02  0.7816164E-02  0.1186339E+00
        -11   -1    0    0    0    0  0.00000000000E+00  0.00000000000E+00  0.45593999997E+02  0.45594000000E+02  0.51100000000E-03 0.  1.
         11   -1    0    0    0    0 -0.00000000000E+00 -0.00000000000E+00 -0.45593999997E+02  0.45594000000E+02  0.51100000000E-03 0. -1.
    9900012    2    1    2    0    0  0.79859406882E+00 -0.84547462671E+00 -0.20101147682E+00  0.90007751956E+02  0.90000013482E+02 0.  0.
        -12    1    1    2    0    0 -0.79859406882E+00  0.84547462671E+00  0.20101147682E+00  0.11802480438E+01  0.00000000000E+00 0.  1.
         11    1    3    3    0    0 -0.23476792190E+01 -0.12022036653E+01 -0.10414111332E+02  0.10742932861E+02  0.51100000000E-03 0. -1.
        -11    1    3    3    0    0  0.40476552658E+02  0.34607190820E+01  0.75997813876E+00  0.40631335920E+02  0.51100000000E-03 0.  1.
         12    1    3    3    0    0 -0.37330279370E+02 -0.31039900433E+01  0.94531217163E+01  0.38633483175E+02  0.00000000000E+00 0. -1.
</event>
<event>
 7    1  0.2349719E-015  0.9000776E+02  0.7816164E-02  0.1186339E+00
        -11   -1    0    0    0    0  0.00000000000E+00  0.00000000000E+00  0.45593999997E+02  0.45594000000E+02  0.51100000000E-03 0. -1.
         11   -1    0    0    0    0 -0.00000000000E+00 -0.00000000000E+00 -0.45593999997E+02  0.45594000000E+02  0.51100000000E-03 0.  1.
    9900012    2    1    2    0    0  0.76705157024E+00  0.80924601380E+00  0.38692322814E+00  0.90007764089E+02  0.90000025774E+02 0.  0.
        -12    1    1    2    0    0 -0.76705157024E+00 -0.80924601380E+00 -0.38692322814E+00  0.11802359115E+01  0.00000000000E+00 0.  1.
         11    1    3    3    0    0  0.23973729619E+02  0.27969518126E+02  0.20721415940E+02  0.42265952431E+02  0.51100000000E-03 0. -1.
        -11    1    3    3    0    0 -0.69977365421E+01 -0.52370134214E+01  0.53803431855E+01  0.10263660134E+02  0.51100000000E-03 0.  1.
        -12    1    3    3    0    0 -0.16208941507E+02 -0.21923258691E+02 -0.25714835897E+02  0.37478151524E+02  0.00000000000E+00 0.  1.
</event>
<event>
 7    1  0.2349719E-015  0.9000778E+02  0.7816164E-02  0.1186339E+00
        -11   -1    0    0    0    0  0.00000000000E+00  0.00000000000E+00  0.45593999997E+02  0.45594000000E+02  0.51100000000E-03 0. -1.
         11   -1    0    0    0    0 -0.00000000000E+00 -0.00000000000E+00 -0.45593999997E+02  0.45594000000E+02  0.51100000000E-03 0.  1.
    9900012    2    1    2    0    0  0.11584758881E+00 -0.98527873302E+00  0.63931504921E+00  0.90007780284E+02  0.90000042184E+02 0.  0.
        -12    1    1    2    0    0 -0.11584758881E+00  0.98527873302E+00 -0.63931504921E+00  0.11802197159E+01  0.00000000000E+00 0.  1.
         11    1    3    3    0    0 -0.49238150827E+01 -0.38632671456E+02  0.91016002751E+01  0.39994579465E+02  0.51100000000E-03 0. -1.
        -11    1    3    3    0    0 -0.70822619047E+00  0.80437027355E+00  0.88407817915E+01  0.89055049728E+01  0.51100000000E-03 0.  1.
        -12    1    3    3    0    0  0.57478888620E+01  0.36843022449E+02 -0.17303067017E+02  0.41107695846E+02  0.00000000000E+00 0.  1.
</event>
<event>
 7    1  0.2349719E-015  0.9000779E+02  0.7816164E-02  0.1186339E+00
        -11   -1    0    0    0    0  0.00000000000E+00  0.00000000000E+00  0.45593999997E+02  0.45594000000E+02  0.51100000000E-03 0.  1.
         11   -1    0    0    0    0 -0.00000000000E+00 -0.00000000000E+00 -0.45593999997E+02  0.45594000000E+02  0.51100000000E-03 0. -1.
    9900012    2    1    2    0    0  0.53486947602E+00 -0.92562055457E+00  0.50002981030E+00  0.90007792993E+02  0.90000055061E+02 0.  0.
        -12    1    1    2    0    0 -0.53486947602E+00  0.92562055457E+00 -0.50002981030E+00  0.11802070067E+01  0.00000000000E+00 0.  1.
         11    1    3    3    0    0  0.48277315008E+01  0.17636703796E+01 -0.38461373148E+02  0.38803282714E+02  0.51100000000E-03 0. -1.
        -11    1    3    3    0    0  0.39515590517E+01  0.12533001050E+02  0.70820320464E+01  0.14928031097E+02  0.51100000000E-03 0.  1.
        -12    1    3    3    0    0 -0.82444210765E+01 -0.15222291984E+02  0.31879370912E+02  0.36276479183E+02  0.00000000000E+00 0.  1.
</event>
<event>
 7    1  0.2349719E-015  0.9000783E+02  0.7816164E-02  0.1186339E+00
        -11   -1    0    0    0    0  0.00000000000E+00  0.00000000000E+00  0.45593999997E+02  0.45594000000E+02  0.51100000000E-03 0.  1.
         11   -1    0    0    0    0 -0.00000000000E+00 -0.00000000000E+00 -0.45593999997E+02  0.45594000000E+02  0.51100000000E-03 0. -1.
    9900012    2    1    2    0    0  0.92086357860E+00  0.22618739491E+00 -0.70261044808E+00  0.90007825475E+02  0.90000087971E+02 0.  0.
        -12    1    1    2    0    0 -0.92086357860E+00 -0.22618739491E+00  0.70261044808E+00  0.11801745251E+01  0.00000000000E+00 0.  1.
         11    1    3    3    0    0  0.28318629725E+02 -0.12219268964E+02  0.10677854475E+02  0.32638503336E+02  0.51100000000E-03 0. -1.
        -11    1    3    3    0    0  0.36028769105E+01  0.21182467404E+02 -0.13012360817E+02  0.25119697085E+02  0.51100000000E-03 0.  1.
        -12    1    3    3    0    0 -0.31000643057E+02 -0.87370110446E+01  0.16318958939E+01  0.32249625054E+02  0.00000000000E+00 0.  1.
</event>
<event>
 7    1  0.2349719E-015  0.9000770E+02  0.7816164E-02  0.1186339E+00
        -11   -1    0    0    0    0  0.00000000000E+00  0.00000000000E+00  0.45593999997E+02  0.45594000000E+02  0.51100000000E-03 0. -1.
         11   -1    0    0    0    0 -0.00000000000E+00 -0.00000000000E+00 -0.45593999997E+02  0.45594000000E+02  0.51100000000E-03 0.  1.
    9900012    2    1    2    0    0 -0.61959255994E+00  0.89845675336E+00 -0.44942302160E+00  0.90007703202E+02  0.89999964085E+02 0.  0.
        -12    1    1    2    0    0  0.61959255994E+00 -0.89845675336E+00  0.44942302160E+00  0.11802967976E+01  0.00000000000E+00 0.  1.
         11    1    3    3    0    0 -0.54505114404E+01  0.88850004526E+01  0.11506641893E+00  0.10424228919E+02  0.51100000000E-03 0. -1.
        -11    1    3    3    0    0 -0.28821790612E+02  0.19852830293E+02 -0.62116789342E+01  0.35544555704E+02  0.51100000000E-03 0.  1.
         12    1    3    3    0    0  0.33652709493E+02 -0.27839373993E+02  0.56471894936E+01  0.44038918580E+02  0.00000000000E+00 0. -1.
</event>
<event>
 7    1  0.2349719E-015  0.9000778E+02  0.7816164E-02  0.1186339E+00
        -11   -1    0    0    0    0  0.00000000000E+00  0.00000000000E+00  0.45593999997E+02  0.45594000000E+02  0.51100000000E-03 0.  1.
         11   -1    0    0    0    0 -0.00000000000E+00 -0.00000000000E+00 -0.45593999997E+02  0.45594000000E+02  0.51100000000E-03 0. -1.
    9900012    2    1    2    0    0  0.22633791572E+00 -0.61761866092E+00 -0.97991961002E+00  0.90007777943E+02  0.90000039812E+02 0.  0.
        -12    1    1    2    0    0 -0.22633791572E+00  0.61761866092E+00  0.97991961002E+00  0.11802220573E+01  0.00000000000E+00 0.  1.
         11    1    3    3    0    0 -0.35674247957E+01 -0.25906413218E+01 -0.87384700091E+01  0.97876861664E+01  0.51100000000E-03 0. -1.
        -11    1    3    3    0    0 -0.35196821635E+02  0.14345801255E+02 -0.23575907656E+01  0.38081183035E+02  0.51100000000E-03 0.  1.
         12    1    3    3    0    0  0.38990584347E+02 -0.12372778594E+02  0.10116141165E+02  0.42138908741E+02  0.00000000000E+00 0. -1.
</event>
<event>
 7    1  0.2349719E-015  0.9000697E+02  0.7816164E-02  0.1186341E+00
        -11   -1    0    0    0    0  0.00000000000E+00  0.00000000000E+00  0.45593999997E+02  0.45594000000E+02  0.51100000000E-03 0.  1.
         11   -1    0    0    0    0 -0.00000000000E+00 -0.00000000000E+00 -0.45593999997E+02  0.45594000000E+02  0.51100000000E-03 0. -1.
    9900012    2    1    2    0    0 -0.43628504888E+00  0.27636303242E+00 -0.10621203997E+01  0.90006974635E+02  0.89999225897E+02 0.  0.
        -12    1    1    2    0    0  0.43628504888E+00 -0.27636303242E+00  0.10621203997E+01  0.11810253651E+01  0.00000000000E+00 0.  1.
         11    1    3    3    0    0 -0.25067695373E+01 -0.25814141243E+01  0.11446250017E+02  0.11998509578E+02  0.51100000000E-03 0. -1.
        -11    1    3    3    0    0  0.23618878990E+01 -0.29959993477E+02  0.16432039113E+02  0.34251885105E+02  0.51100000000E-03 0.  1.
         12    1    3    3    0    0 -0.29140341061E+00  0.32817770634E+02 -0.28940409529E+02  0.43756579951E+02  0.00000000000E+00 0. -1.
</event>
<event>
 7    1  0.2349719E-015  0.9000782E+02  0.7816164E-02  0.1186339E+00
        -11   -1    0    0    0    0  0.00000000000E+00  0.00000000000E+00  0.45593999997E+02  0.45594000000E+02  0.51100000000E-03 0. -1.
         11   -1    0    0    0    0 -0.00000000000E+00 -0.00000000000E+00 -0.45593999997E+02  0.45594000000E+02  0.51100000000E-03 0.  1.
    9900012    2    1    2    0    0  0.10887134241E+01 -0.39658724460E+00  0.22415620145E+00  0.90007820198E+02  0.90000082625E+02 0.  0.
        -12    1    1    2    0    0 -0.10887134241E+01  0.39658724460E+00 -0.22415620145E+00  0.11801798020E+01  0.00000000000E+00 0.  1.
         11    1    3    3    0    0 -0.28702394527E+02  0.56300614292E+01  0.26295341843E+02  0.39331540094E+02  0.51100000000E-03 0. -1.
        -11    1    3    3    0    0  0.29334130250E+01  0.10828423620E+00  0.70254236707E+01  0.76140144119E+01  0.51100000000E-03 0.  1.
        -12    1    3    3    0    0  0.26857694926E+02 -0.61349329100E+01 -0.33096609313E+02  0.43062265692E+02  0.00000000000E+00 0.  1.
</event>
<event>
 7    1  0.2349719E-015  0.9000776E+02  0.7816164E-02  0.1186339E+00
        -11   -1    0    0    0    0  0.00000000000E+00  0.00000000000E+00  0.45593999997E+02  0.45594000000E+02  0.51100000000E-03 0.  1.
         11   -1    0    0    0    0 -0.00000000000E+00 -0.00000000000E+00 -0.45593999997E+02  0.45594000000E+02  0.51100000000E-03 0. -1.
    9900012    2    1    2    0    0 -0.80335368260E+00  0.83275609667E+00  0.23262395641E+00  0.90007756906E+02  0.90000018497E+02 0.  0.
        -12    1    1    2    0    0  0.80335368260E+00 -0.83275609667E+00 -0.23262395641E+00  0.11802430940E+01  0.00000000000E+00 0.  1.
         11    1    3    3    0    0  0.92615223106E+01  0.10381452914E+02 -0.27924478425E+02  0.31198186737E+02  0.51100000000E-03 0. -1.
        -11    1    3    3    0    0 -0.16269297329E+00 -0.20501339926E+01 -0.14364484037E+02  0.14510958628E+02  0.51100000000E-03 0.  1.
        -12    1    3    3    0    0 -0.99021830199E+01 -0.74985628244E+01  0.42521586418E+02  0.44298611541E+02  0.00000000000E+00 0.  1.
</event>
<event>
 7    1  0.2349719E-015  0.9000773E+02  0.7816164E-02  0.1186339E+00
        -11   -1    0    0    0    0  0.00000000000E+00  0.00000000000E+00  0.45593999997E+02  0.45594000000E+02  0.51100000000E-03 0.  1.
         11   -1    0    0    0    0 -0.00000000000E+00 -0.00000000000E+00 -0.45593999997E+02  0.45594000000E+02  0.51100000000E-03 0. -1.
    9900012    2    1    2    0    0 -0.52572505113E+00  0.80016848261E+00  0.69019868492E+00  0.90007732804E+02  0.89999994077E+02 0.  0.
        -12    1    1    2    0    0  0.52572505113E+00 -0.80016848261E+00 -0.69019868492E+00  0.11802671963E+01  0.00000000000E+00 0.  1.
         11    1    3    3    0    0 -0.23342144499E+02  0.11412422510E+01 -0.25345377824E+02  0.34475300158E+02  0.51100000000E-03 0. -1.
        -11    1    3    3    0    0 -0.57736220291E+01 -0.16677300727E+01 -0.86690694987E+01  0.10548402778E+02  0.51100000000E-03 0.  1.
        -12    1    3    3    0    0  0.28590041477E+02  0.13266563044E+01  0.34704646008E+02  0.44984029868E+02  0.00000000000E+00 0.  1.
</event>
<event>
 7    1  0.2349719E-015  0.9000776E+02  0.7816164E-02  0.1186339E+00
        -11   -1    0    0    0    0  0.00000000000E+00  0.00000000000E+00  0.45593999997E+02  0.45594000000E+02  0.51100000000E-03 0. -1.
         11   -1    0    0    0    0 -0.00000000000E+00 -0.00000000000E+00 -0.45593999997E+02  0.45594000000E+02  0.51100000000E-03 0.  1.
    9900012    2    1    2    0    0  0.68571470719E+00  0.92451211423E+00  0.26082827587E+00  0.90007763287E+02  0.90000024962E+02 0.  0.
        -12    1    1    2    0    0 -0.68571470719E+00 -0.92451211423E+00 -0.26082827587E+00  0.11802367129E+01  0.00000000000E+00 0.  1.
         11    1    3    3    0    0  0.40096133611E+01 -0.22606129192E+01 -0.76364557010E+01  0.89164357235E+01  0.51100000000E-03 0. -1.
        -11    1    3    3    0    0  0.16394941809E+02 -0.26297195569E+01 -0.32088546305E+02  0.36130103046E+02  0.51100000000E-03 0.  1.
         12    1    3    3    0    0 -0.19718840463E+02  0.58148445903E+01  0.39985830282E+02  0.44961224518E+02  0.00000000000E+00 0. -1.
</event>
<event>
 7    1  0.2349719E-015  0.9000779E+02  0.7816164E-02  0.1186339E+00
        -11   -1    0    0    0    0  0.00000000000E+00  0.00000000000E+00  0.45593999997E+02  0.45594000000E+02  0.51100000000E-03 0.  1.
         11   -1    0    0    0    0 -0.00000000000E+00 -0.00000000000E+00 -0.45593999997E+02  0.45594000000E+02  0.51100000000E-03 0. -1.
    9900012    2    1    2    0    0 -0.77124087161E-01  0.10607568214E+01 -0.51159834460E+00  0.90007794075E+02  0.90000056157E+02 0.  0.
        -12    1    1    2    0    0  0.77124087161E-01 -0.10607568214E+01  0.51159834460E+00  0.11802059249E+01  0.00000000000E+00 0.  1.
         11    1    3    3    0    0 -0.27335173099E+02 -0.67986857687E+01 -0.23598316502E+02  0.36746623771E+02  0.51100000000E-03 0. -1.
        -11    1    3    3    0    0 -0.52596579566E+01  0.12627346679E+01 -0.67423938530E+01  0.86439791642E+01  0.51100000000E-03 0.  1.
        -12    1    3    3    0    0  0.32517706969E+02  0.65967079222E+01  0.29829112010E+02  0.44617191140E+02  0.00000000000E+00 0.  1.
</event>
<event>
 7    1  0.2349719E-015  0.9000844E+02  0.7816164E-02  0.1186338E+00
        -11   -1    0    0    0    0  0.00000000000E+00  0.00000000000E+00  0.45593999997E+02  0.45594000000E+02  0.51100000000E-03 0.  1.
         11   -1    0    0    0    0 -0.00000000000E+00 -0.00000000000E+00 -0.45593999997E+02  0.45594000000E+02  0.51100000000E-03 0. -1.
    9900012    2    1    2    0    0  0.10983029209E+01  0.26785432053E-01  0.42938662928E+00  0.90008440912E+02  0.90000711529E+02 0.  0.
        -12    1    1    2    0    0 -0.10983029209E+01 -0.26785432053E-01 -0.42938662928E+00  0.11795590883E+01  0.00000000000E+00 0.  1.
         11    1    3    3    0    0 -0.14301077087E+02  0.75010558975E+01 -0.31526897643E+02  0.35422195311E+02  0.51100000000E-03 0. -1.
        -11    1    3    3    0    0 -0.19664496398E+01  0.41459528744E+01 -0.81558603277E+01  0.93580931481E+01  0.51100000000E-03 0.  1.
        -12    1    3    3    0    0  0.17365829648E+02 -0.11620223340E+02  0.40112144600E+02  0.45228152452E+02  0.00000000000E+00 0.  1.
</event>
<event>
 7    1  0.2349719E-015  0.9000778E+02  0.7816164E-02  0.1186339E+00
        -11   -1    0    0    0    0  0.00000000000E+00  0.00000000000E+00  0.45593999997E+02  0.45594000000E+02  0.51100000000E-03 0.  1.
         11   -1    0    0    0    0 -0.00000000000E+00 -0.00000000000E+00 -0.45593999997E+02  0.45594000000E+02  0.51100000000E-03 0. -1.
    9900012    2    1    2    0    0 -0.84561389386E+00  0.79562996899E+00  0.21174131321E+00  0.90007777865E+02  0.90000039732E+02 0.  0.
        -12    1    1    2    0    0  0.84561389386E+00 -0.79562996899E+00 -0.21174131321E+00  0.11802221353E+01  0.00000000000E+00 0.  1.
         11    1    3    3    0    0  0.26789788860E+02  0.24877845517E+02  0.18292165287E+01  0.36605273092E+02  0.51100000000E-03 0. -1.
        -11    1    3    3    0    0 -0.36891621447E+01  0.10186614179E+02  0.32566073939E+01  0.11312935858E+02  0.51100000000E-03 0.  1.
        -12    1    3    3    0    0 -0.23946240609E+02 -0.34268829727E+02 -0.48740826093E+01  0.42089568915E+02  0.00000000000E+00 0.  1.
</event>
<event>
 7    1  0.2349719E-015  0.9000780E+02  0.7816164E-02  0.1186339E+00
        -11   -1    0    0    0    0  0.00000000000E+00  0.00000000000E+00  0.45593999997E+02  0.45594000000E+02  0.51100000000E-03 0.  1.
         11   -1    0    0    0    0 -0.00000000000E+00 -0.00000000000E+00 -0.45593999997E+02  0.45594000000E+02  0.51100000000E-03 0. -1.
    9900012    2    1    2    0    0 -0.34750146132E+00  0.97406509850E+00 -0.56861209944E+00  0.90007796712E+02  0.90000058828E+02 0.  0.
        -12    1    1    2    0    0  0.34750146132E+00 -0.97406509850E+00  0.56861209944E+00  0.11802032881E+01  0.00000000000E+00 0.  1.
         11    1    3    3    0    0 -0.50182879448E+01  0.29960449853E+01 -0.68029811675E+01  0.89688378554E+01  0.51100000000E-03 0. -1.
        -11    1    3    3    0    0 -0.25747481895E+02 -0.81686157165E+01  0.31157691926E+02  0.41236644785E+02  0.51100000000E-03 0.  1.
         12    1    3    3    0    0  0.30418268378E+02  0.61466358297E+01 -0.24923322858E+02  0.39802314072E+02  0.00000000000E+00 0. -1.
</event>
<event>
 7    1  0.2349719E-015  0.9000766E+02  0.7816164E-02  0.1186339E+00
        -11   -1    0    0    0    0  0.00000000000E+00  0.00000000000E+00  0.45593999997E+02  0.45594000000E+02  0.51100000000E-03 0.  1.
         11   -1    0    0    0    0 -0.00000000000E+00 -0.00000000000E+00 -0.45593999997E+02  0.45594000000E+02  0.51100000000E-03 0. -1.
    9900012    2    1    2    0    0 -0.33529238694E+00 -0.24782613083E+00 -0.11042443437E+01  0.90007663461E+02  0.89999923818E+02 0.  0.
        -12    1    1    2    0    0  0.33529238694E+00  0.24782613083E+00  0.11042443437E+01  0.11803365395E+01  0.00000000000E+00 0.  1.
         11    1    3    3    0    0 -0.10305165320E+02  0.12502703989E+01 -0.16527971041E+01  0.10511486425E+02  0.51100000000E-03 0. -1.
        -11    1    3    3    0    0  0.14336933984E+02  0.34637289561E+02  0.14941948596E+02  0.40355313557E+02  0.51100000000E-03 0.  1.
         12    1    3    3    0    0 -0.43670610507E+01 -0.36135386091E+02 -0.14393395835E+02  0.39140863478E+02  0.00000000000E+00 0. -1.
</event>
<event>
 7    1  0.2349719E-015  0.9000761E+02  0.7816164E-02  0.1186339E+00
        -11   -1    0    0    0    0  0.00000000000E+00  0.00000000000E+00  0.45593999997E+02  0.45594000000E+02  0.51100000000E-03 0.  1.
         11   -1    0    0    0    0 -0.00000000000E+00 -0.00000000000E+00 -0.45593999997E+02  0.45594000000E+02  0.51100000000E-03 0. -1.
    9900012    2    1    2    0    0 -0.38421590740E+00 -0.81984536040E+00 -0.75733603349E+00  0.90007607630E+02  0.89999867251E+02 0.  0.
        -12    1    1    2    0    0  0.38421590740E+00  0.81984536040E+00  0.75733603349E+00  0.11803923695E+01  0.00000000000E+00 0.  1.
         11    1    3    3    0    0  0.83354718653E+01 -0.77279887279E+01 -0.42251243595E+02  0.43753508278E+02  0.51100000000E-03 0. -1.
        -11    1    3    3    0    0  0.30090746883E+01 -0.35067675961E+01  0.73860516902E+01  0.87123882652E+01  0.51100000000E-03 0.  1.
        -12    1    3    3    0    0 -0.11728762461E+02  0.10414910964E+02  0.34107855871E+02  0.37541711088E+02  0.00000000000E+00 0.  1.
</event>
<event>
 7    1  0.2349719E-015  0.9000777E+02  0.7816164E-02  0.1186339E+00
        -11   -1    0    0    0    0  0.00000000000E+00  0.00000000000E+00  0.45593999997E+02  0.45594000000E+02  0.51100000000E-03 0.  1.
         11   -1    0    0    0    0 -0.00000000000E+00 -0.00000000000E+00 -0.45593999997E+02  0.45594000000E+02  0.51100000000E-03 0. -1.
    9900012    2    1    2    0    0 -0.33054516134E+00  0.82964514503E+00 -0.77159781862E+00  0.90007773596E+02  0.90000035408E+02 0.  0.
        -12    1    1    2    0    0  0.33054516134E+00 -0.82964514503E+00  0.77159781862E+00  0.11802264037E+01  0.00000000000E+00 0.  1.
         11    1    3    3    0    0  0.12458626351E+02  0.19716897778E+00  0.58482742590E+01  0.13764394583E+02  0.51100000000E-03 0. -1.
        -11    1    3    3    0    0 -0.25185009943E+02  0.23011245275E+02  0.19818999844E+02  0.39453705657E+02  0.51100000000E-03 0.  1.
         12    1    3    3    0    0  0.12395838431E+02 -0.22378769108E+02 -0.26438871922E+02  0.36789673357E+02  0.00000000000E+00 0. -1.
</event>
<event>
 7    1  0.2349719E-015  0.9000793E+02  0.7816164E-02  0.1186339E+00
        -11   -1    0    0    0    0  0.00000000000E+00  0.00000000000E+00  0.45593999997E+02  0.45594000000E+02  0.51100000000E-03 0.  1.
         11   -1    0    0    0    0 -0.00000000000E+00 -0.00000000000E+00 -0.45593999997E+02  0.45594000000E+02  0.51100000000E-03 0. -1.
    9900012    2    1    2    0    0  0.63119245432E+00  0.42243820822E+00 -0.90316370465E+00  0.90007931090E+02  0.90000194981E+02 0.  0.
        -12    1    1    2    0    0 -0.63119245432E+00 -0.42243820822E+00  0.90316370465E+00  0.11800689097E+01  0.00000000000E+00 0.  1.
         11    1    3    3    0    0 -0.76998685084E+01  0.11177796662E+02 -0.65632696231E+01  0.15076724501E+02  0.51100000000E-03 0. -1.
        -11    1    3    3    0    0  0.39083158893E+02  0.53090884378E+00  0.13312265832E+02  0.41291543869E+02  0.51100000000E-03 0.  1.
         12    1    3    3    0    0 -0.30752097930E+02 -0.11286267298E+02 -0.76521599131E+01  0.33639662721E+02  0.00000000000E+00 0. -1.
</event>
<event>
 7    1  0.2349719E-015  0.9000782E+02  0.7816164E-02  0.1186339E+00
        -11   -1    0    0    0    0  0.00000000000E+00  0.00000000000E+00  0.45593999997E+02  0.45594000000E+02  0.51100000000E-03 0. -1.
         11   -1    0    0    0    0 -0.00000000000E+00 -0.00000000000E+00 -0.45593999997E+02  0.45594000000E+02  0.51100000000E-03 0.  1.
    9900012    2    1    2    0    0 -0.67857801278E-01 -0.87709935992E+00  0.78670700909E+00  0.90007823790E+02  0.90000086264E+02 0.  0.
        -12    1    1    2    0    0  0.67857801278E-01  0.87709935992E+00 -0.78670700909E+00  0.11801762099E+01  0.00000000000E+00 0.  1.
         11    1    3    3    0    0  0.86932069611E+01 -0.18352862617E+02  0.95156292673E+01  0.22426471281E+02  0.51100000000E-03 0. -1.
        -11    1    3    3    0    0  0.21557698249E+02  0.24545976003E+02 -0.14796619343E+02  0.35863341116E+02  0.51100000000E-03 0.  1.
         12    1    3    3    0    0 -0.30318763011E+02 -0.70702127459E+01  0.60676970850E+01  0.31718011393E+02  0.00000000000E+00 0. -1.
</event>
<event>
 7    1  0.2349719E-015  0.9000768E+02  0.7816164E-02  0.1186339E+00
        -11   -1    0    0    0    0  0.00000000000E+00  0.00000000000E+00  0.45593999997E+02  0.45594000000E+02  0.51100000000E-03 0. -1.
         11   -1    0    0    0    0 -0.00000000000E+00 -0.00000000000E+00 -0.45593999997E+02  0.45594000000E+02  0.51100000000E-03 0.  1.
    9900012    2    1    2    0    0 -0.92733772940E+00 -0.13071676716E+00  0.71840649992E+00  0.90007682231E+02  0.89999942836E+02 0.  0.
        -12    1    1    2    0    0  0.92733772940E+00  0.13071676716E+00 -0.71840649992E+00  0.11803177694E+01  0.00000000000E+00 0.  1.
         11    1    3    3    0    0  0.20207391647E+02 -0.11240235367E-01  0.33600530457E+02  0.39208856789E+02  0.51100000000E-03 0. -1.
        -11    1    3    3    0    0  0.49945420845E+01 -0.89769628836E+01 -0.44951064858E+01  0.11213264281E+02  0.51100000000E-03 0.  1.
        -12    1    3    3    0    0 -0.26129271460E+02  0.88574863518E+01 -0.28387017471E+02  0.39585561161E+02  0.00000000000E+00 0.  1.
</event>
<event>
 7    1  0.2349719E-015  0.9000787E+02  0.7816164E-02  0.1186339E+00
        -11   -1    0    0    0    0  0.00000000000E+00  0.00000000000E+00  0.45593999997E+02  0.45594000000E+02  0.51100000000E-03 0. -1.
         11   -1    0    0    0    0 -0.00000000000E+00 -0.00000000000E+00 -0.45593999997E+02  0.45594000000E+02  0.51100000000E-03 0.  1.
    9900012    2    1    2    0    0  0.81337310003E+00 -0.58613957422E+00  0.62255971886E+00  0.90007866108E+02  0.90000129140E+02 0.  0.
        -12    1    1    2    0    0 -0.81337310003E+00  0.58613957422E+00 -0.62255971886E+00  0.11801338923E+01  0.00000000000E+00 0.  1.
         11    1    3    3    0    0  0.22320485678E+02  0.33121192187E+02  0.21458573902E+01  0.39997776901E+02  0.51100000000E-03 0. -1.
        -11    1    3    3    0    0  0.43201621496E+01 -0.50983436126E+01  0.78850701830E+01  0.10335919922E+02  0.51100000000E-03 0.  1.
        -12    1    3    3    0    0 -0.25827274728E+02 -0.28608988148E+02 -0.94083678544E+01  0.39674169285E+02  0.00000000000E+00 0.  1.
</event>
<event>
 7    1  0.2349719E-015  0.9000859E+02  0.7816164E-02  0.1186337E+00
        -11   -1    0    0    0    0  0.00000000000E+00  0.00000000000E+00  0.45593999997E+02  0.45594000000E+02  0.51100000000E-03 0.  1.
         11   -1    0    0    0    0 -0.00000000000E+00 -0.00000000000E+00 -0.45593999997E+02  0.45594000000E+02  0.51100000000E-03 0. -1.
    9900012    2    1    2    0    0 -0.56862071592E+00 -0.99381416551E+00 -0.28288370077E+00  0.90008585186E+02  0.90000857707E+02 0.  0.
        -12    1    1    2    0    0  0.56862071592E+00  0.99381416551E+00  0.28288370077E+00  0.11794148135E+01  0.00000000000E+00 0.  1.
         11    1    3    3    0    0  0.38228052384E+02  0.34138109989E+01 -0.15771236266E+02  0.41494216323E+02  0.51100000000E-03 0. -1.
        -11    1    3    3    0    0 -0.58221188524E+01 -0.28895375997E+01 -0.62280835550E+01  0.90019731448E+01  0.51100000000E-03 0.  1.
        -12    1    3    3    0    0 -0.32974554248E+02 -0.15180875647E+01  0.21716436120E+02  0.39512395719E+02  0.00000000000E+00 0.  1.
</event>
<event>
 7    1  0.2349719E-015  0.9000769E+02  0.7816164E-02  0.1186339E+00
        -11   -1    0    0    0    0  0.00000000000E+00  0.00000000000E+00  0.45593999997E+02  0.45594000000E+02  0.51100000000E-03 0.  1.
         11   -1    0    0    0    0 -0.00000000000E+00 -0.00000000000E+00 -0.45593999997E+02  0.45594000000E+02  0.51100000000E-03 0. -1.
    9900012    2    1    2    0    0  0.90810822456E+00 -0.66056778200E+00 -0.36348014236E+00  0.90007691500E+02  0.89999952227E+02 0.  0.
        -12    1    1    2    0    0 -0.90810822456E+00  0.66056778200E+00  0.36348014236E+00  0.11803085004E+01  0.00000000000E+00 0.  1.
         11    1    3    3    0    0  0.53595584606E+01 -0.78904512764E+01 -0.37958654891E+01  0.10266093868E+02  0.51100000000E-03 0. -1.
        -11    1    3    3    0    0  0.97855423017E+01 -0.14465209490E+02  0.34857275127E+02  0.38987546130E+02  0.51100000000E-03 0.  1.
         12    1    3    3    0    0 -0.14236992538E+02  0.21695092984E+02 -0.31424889780E+02  0.40754051502E+02  0.00000000000E+00 0. -1.
</event>
<event>
 7    1  0.2349719E-015  0.9000768E+02  0.7816164E-02  0.1186339E+00
        -11   -1    0    0    0    0  0.00000000000E+00  0.00000000000E+00  0.45593999997E+02  0.45594000000E+02  0.51100000000E-03 0. -1.
         11   -1    0    0    0    0 -0.00000000000E+00 -0.00000000000E+00 -0.45593999997E+02  0.45594000000E+02  0.51100000000E-03 0.  1.
    9900012    2    1    2    0    0 -0.46597588438E+00  0.26127553458E-01  0.10841322692E+01  0.90007678454E+02  0.89999939010E+02 0.  0.
        -12    1    1    2    0    0  0.46597588438E+00 -0.26127553458E-01 -0.10841322692E+01  0.11803215456E+01  0.00000000000E+00 0.  1.
         11    1    3    3    0    0 -0.96372234286E+01 -0.22816800679E+01 -0.16139413153E+01  0.10034288524E+02  0.51100000000E-03 0. -1.
        -11    1    3    3    0    0 -0.38000541417E+01  0.16537704700E+02 -0.34298335763E+02  0.38266328863E+02  0.51100000000E-03 0.  1.
         12    1    3    3    0    0  0.12971301686E+02 -0.14229897079E+02  0.36996409348E+02  0.41707061068E+02  0.00000000000E+00 0. -1.
</event>
<event>
 7    1  0.2349719E-015  0.9000774E+02  0.7816164E-02  0.1186339E+00
        -11   -1    0    0    0    0  0.00000000000E+00  0.00000000000E+00  0.45593999997E+02  0.45594000000E+02  0.51100000000E-03 0. -1.
         11   -1    0    0    0    0 -0.00000000000E+00 -0.00000000000E+00 -0.45593999997E+02  0.45594000000E+02  0.51100000000E-03 0.  1.
    9900012    2    1    2    0    0 -0.63868672963E+00 -0.98553730197E+00  0.11748999941E+00  0.90007742226E+02  0.90000003624E+02 0.  0.
        -12    1    1    2    0    0  0.63868672963E+00  0.98553730197E+00 -0.11748999941E+00  0.11802577736E+01  0.00000000000E+00 0.  1.
         11    1    3    3    0    0 -0.29498140409E+02  0.14691729919E+02 -0.75350167706E+01  0.33804788027E+02  0.51100000000E-03 0. -1.
        -11    1    3    3    0    0 -0.11075219484E+02  0.24696576170E+01 -0.13405025210E+01  0.11426138571E+02  0.51100000000E-03 0.  1.
        -12    1    3    3    0    0  0.39934673163E+02 -0.18146924838E+02  0.89930092910E+01  0.44776815628E+02  0.00000000000E+00 0.  1.
</event>
<event>
 7    1  0.2349719E-015  0.9000681E+02  0.7816164E-02  0.1186341E+00
        -11   -1    0    0    0    0  0.00000000000E+00  0.00000000000E+00  0.45593999997E+02  0.45594000000E+02  0.51100000000E-03 0. -1.
         11   -1    0    0    0    0 -0.00000000000E+00 -0.00000000000E+00 -0.45593999997E+02  0.45594000000E+02  0.51100000000E-03 0.  1.
    9900012    2    1    2    0    0 -0.76959209555E+00  0.57605258213E+00 -0.68636315128E+00  0.90006812908E+02  0.89999062033E+02 0.  0.
        -12    1    1    2    0    0  0.76959209555E+00 -0.57605258213E+00  0.68636315128E+00  0.11811870920E+01  0.00000000000E+00 0.  1.
         11    1    3    3    0    0  0.35494768878E+02  0.13610650448E+02 -0.14314783644E+02  0.40620702288E+02  0.51100000000E-03 0. -1.
        -11    1    3    3    0    0 -0.20230960353E+00 -0.36753501519E+00  0.11070613741E+02  0.11078560377E+02  0.51100000000E-03 0.  1.
        -12    1    3    3    0    0 -0.36062051370E+02 -0.12667062851E+02  0.25578067517E+01  0.38307550243E+02  0.00000000000E+00 0.  1.
</event>
<event>
 7    1  0.2349719E-015  0.9000766E+02  0.7816164E-02  0.1186339E+00
        -11   -1    0    0    0    0  0.00000000000E+00  0.00000000000E+00  0.45593999997E+02  0.45594000000E+02  0.51100000000E-03 0. -1.
         11   -1    0    0    0    0 -0.00000000000E+00 -0.00000000000E+00 -0.45593999997E+02  0.45594000000E+02  0.51100000000E-03 0.  1.
    9900012    2    1    2    0    0 -0.11041546478E+01  0.63623014803E-01  0.41231127677E+00  0.90007658540E+02  0.89999918832E+02 0.  0.
        -12    1    1    2    0    0  0.11041546478E+01 -0.63623014803E-01 -0.41231127677E+00  0.11803414604E+01  0.00000000000E+00 0.  1.
         11    1    3    3    0    0 -0.46857326621E+01 -0.84360925877E+01  0.19472718888E+01  0.98445729618E+01  0.51100000000E-03 0. -1.
        -11    1    3    3    0    0 -0.37844149935E+02  0.23377927345E+00  0.83778087714E+00  0.37854143949E+02  0.51100000000E-03 0.  1.
         12    1    3    3    0    0  0.41425727950E+02  0.82659363291E+01 -0.23727414891E+01  0.42308941629E+02  0.00000000000E+00 0. -1.
</event>
<event>
 7    1  0.2349719E-015  0.9000773E+02  0.7816164E-02  0.1186339E+00
        -11   -1    0    0    0    0  0.00000000000E+00  0.00000000000E+00  0.45593999997E+02  0.45594000000E+02  0.51100000000E-03 0.  1.
         11   -1    0    0    0    0 -0.00000000000E+00 -0.00000000000E+00 -0.45593999997E+02  0.45594000000E+02  0.51100000000E-03 0. -1.
    9900012    2    1    2    0    0  0.15158215771E+00  0.10499601780E+01 -0.51733740098E+00  0.90007732440E+02  0.89999993709E+02 0.  0.
        -12    1    1    2    0    0 -0.15158215771E+00 -0.10499601780E+01  0.51733740098E+00  0.11802675596E+01  0.00000000000E+00 0.  1.
         11    1    3    3    0    0 -0.20701229951E+02 -0.99927826575E+01 -0.34621043747E+02  0.41557349496E+02  0.51100000000E-03 0. -1.
        -11    1    3    3    0    0  0.21451013280E+01 -0.69981586349E+01  0.29812824574E+01  0.79033998594E+01  0.51100000000E-03 0.  1.
        -12    1    3    3    0    0  0.18707710781E+02  0.18040901470E+02  0.31122423889E+02  0.40546983085E+02  0.00000000000E+00 0.  1.
</event>
<event>
 7    1  0.2349719E-015  0.9000777E+02  0.7816164E-02  0.1186339E+00
        -11   -1    0    0    0    0  0.00000000000E+00  0.00000000000E+00  0.45593999997E+02  0.45594000000E+02  0.51100000000E-03 0. -1.
         11   -1    0    0    0    0 -0.00000000000E+00 -0.00000000000E+00 -0.45593999997E+02  0.45594000000E+02  0.51100000000E-03 0.  1.
    9900012    2    1    2    0    0 -0.53192605105E+00 -0.44501831751E+00 -0.95497004730E+00  0.90007765101E+02  0.90000026800E+02 0.  0.
        -12    1    1    2    0    0  0.53192605105E+00  0.44501831751E+00  0.95497004730E+00  0.11802348995E+01  0.00000000000E+00 0.  1.
         11    1    3    3    0    0  0.37892203293E+01 -0.50409094336E+01 -0.56453168720E+01  0.84639566084E+01  0.51100000000E-03 0. -1.
        -11    1    3    3    0    0 -0.31814560507E+02 -0.12178354874E+02 -0.21284084499E+02  0.40168281529E+02  0.51100000000E-03 0.  1.
         12    1    3    3    0    0  0.27493414127E+02  0.16774245990E+02  0.25974431324E+02  0.41375526964E+02  0.00000000000E+00 0. -1.
</event>
<event>
 7    1  0.2349719E-015  0.9000827E+02  0.7816164E-02  0.1186338E+00
        -11   -1    0    0    0    0  0.00000000000E+00  0.00000000000E+00  0.45593999997E+02  0.45594000000E+02  0.51100000000E-03 0. -1.
         11   -1    0    0    0    0 -0.00000000000E+00 -0.00000000000E+00 -0.45593999997E+02  0.45594000000E+02  0.51100000000E-03 0.  1.
    9900012    2    1    2    0    0 -0.78708273861E+00  0.87579896387E+00  0.72433857079E-01  0.90008267095E+02  0.90000535419E+02 0.  0.
        -12    1    1    2    0    0  0.78708273861E+00 -0.87579896387E+00 -0.72433857079E-01  0.11797329046E+01  0.00000000000E+00 0.  1.
         11    1    3    3    0    0  0.35607098242E+02  0.14724845509E+02 -0.17846839711E+01  0.38572938929E+02  0.51100000000E-03 0. -1.
        -11    1    3    3    0    0 -0.13840469336E+01  0.90125758238E+01  0.30211370122E+01  0.96056950817E+01  0.51100000000E-03 0.  1.
        -12    1    3    3    0    0 -0.35010134047E+02 -0.22861622369E+02 -0.11640191840E+01  0.41829633085E+02  0.00000000000E+00 0.  1.
</event>
<event>
 7    1  0.2349719E-015  0.9000771E+02  0.7816164E-02  0.1186339E+00
        -11   -1    0    0    0    0  0.00000000000E+00  0.00000000000E+00  0.45593999997E+02  0.45594000000E+02  0.51100000000E-03 0. -1.
         11   -1    0    0    0    0 -0.00000000000E+00 -0.00000000000E+00 -0.45593999997E+02  0.45594000000E+02  0.51100000000E-03 0.  1.
    9900012    2    1    2    0    0  0.26629682338E+00  0.89333794945E+00  0.72395883256E+00  0.90007710594E+02  0.89999971574E+02 0.  0.
        -12    1    1    2    0    0 -0.26629682338E+00 -0.89333794945E+00 -0.72395883256E+00  0.11802894057E+01  0.00000000000E+00 0.  1.
         11    1    3    3    0    0  0.37850495427E+02 -0.67560557156E+01 -0.86712086280E+01  0.39414390166E+02  0.51100000000E-03 0. -1.
        -11    1    3    3    0    0  0.38125483815E+01  0.17921166585E+01  0.76674796423E+01  0.87485685461E+01  0.51100000000E-03 0.  1.
        -12    1    3    3    0    0 -0.41396746985E+02  0.58572770066E+01  0.17276878182E+01  0.41844751882E+02  0.00000000000E+00 0.  1.
</event>
<event>
 7    1  0.2349719E-015  0.9000765E+02  0.7816164E-02  0.1186339E+00
        -11   -1    0    0    0    0  0.00000000000E+00  0.00000000000E+00  0.45593999997E+02  0.45594000000E+02  0.51100000000E-03 0.  1.
         11   -1    0    0    0    0 -0.00000000000E+00 -0.00000000000E+00 -0.45593999997E+02  0.45594000000E+02  0.51100000000E-03 0. -1.
    9900012    2    1    2    0    0  0.99664832947E+00 -0.62785605822E+00 -0.75660413704E-01  0.90007645977E+02  0.89999906103E+02 0.  0.
        -12    1    1    2    0    0 -0.99664832947E+00  0.62785605822E+00  0.75660413704E-01  0.11803540235E+01  0.00000000000E+00 0.  1.
         11    1    3    3    0    0  0.28294290597E+02  0.16038406596E+02 -0.78732565754E+01  0.33463196737E+02  0.51100000000E-03 0. -1.
        -11    1    3    3    0    0  0.69054039779E+01  0.96720109600E+01 -0.25456936056E+01  0.12153721912E+02  0.51100000000E-03 0.  1.
        -12    1    3    3    0    0 -0.34203046245E+02 -0.26338273615E+02  0.10343289767E+02  0.44390727327E+02  0.00000000000E+00 0.  1.
</event>
<event>
 7    1  0.2349719E-015  0.9000776E+02  0.7816164E-02  0.1186339E+00
        -11   -1    0    0    0    0  0.00000000000E+00  0.00000000000E+00  0.45593999997E+02  0.45594000000E+02  0.51100000000E-03 0.  1.
         11   -1    0    0    0    0 -0.00000000000E+00 -0.00000000000E+00 -0.45593999997E+02  0.45594000000E+02  0.51100000000E-03 0. -1.
    9900012    2    1    2    0    0  0.10109456327E+01 -0.38029051307E+00  0.47575695659E+00  0.90007755691E+02  0.90000017266E+02 0.  0.
        -12    1    1    2    0    0 -0.10109456327E+01  0.38029051307E+00 -0.47575695659E+00  0.11802443088E+01  0.00000000000E+00 0.  1.
         11    1    3    3    0    0 -0.37711573570E+02  0.24666115714E+01  0.27089951787E+01  0.37889122567E+02  0.51100000000E-03 0. -1.
        -11    1    3    3    0    0 -0.12125943008E+01 -0.48314915291E+01  0.92603264515E+01  0.10515100645E+02  0.51100000000E-03 0.  1.
        -12    1    3    3    0    0  0.39935113503E+02  0.19845894446E+01 -0.11493564674E+02  0.41603532479E+02  0.00000000000E+00 0.  1.
</event>
<event>
 7    1  0.2349719E-015  0.9000761E+02  0.7816164E-02  0.1186339E+00
        -11   -1    0    0    0    0  0.00000000000E+00  0.00000000000E+00  0.45593999997E+02  0.45594000000E+02  0.51100000000E-03 0. -1.
         11   -1    0    0    0    0 -0.00000000000E+00 -0.00000000000E+00 -0.45593999997E+02  0.45594000000E+02  0.51100000000E-03 0.  1.
    9900012    2    1    2    0    0 -0.10065394820E+01  0.41926287740E+00  0.45213803024E+00  0.90007605198E+02  0.89999864787E+02 0.  0.
        -12    1    1    2    0    0  0.10065394820E+01 -0.41926287740E+00 -0.45213803024E+00  0.11803948016E+01  0.00000000000E+00 0.  1.
         11    1    3    3    0    0 -0.20566210589E+02 -0.45395444549E+01  0.25298648817E+02  0.32918051493E+02  0.51100000000E-03 0. -1.
        -11    1    3    3    0    0 -0.15111257641E+02 -0.37058817817E+01 -0.92157266677E+01  0.18083508663E+02  0.51100000000E-03 0.  1.
        -12    1    3    3    0    0  0.34670928749E+02  0.86646891140E+01 -0.15630784119E+02  0.39006045043E+02  0.00000000000E+00 0.  1.
</event>
<event>
 7    1  0.2349719E-015  0.9000781E+02  0.7816164E-02  0.1186339E+00
        -11   -1    0    0    0    0  0.00000000000E+00  0.00000000000E+00  0.45593999997E+02  0.45594000000E+02  0.51100000000E-03 0. -1.
         11   -1    0    0    0    0 -0.00000000000E+00 -0.00000000000E+00 -0.45593999997E+02  0.45594000000E+02  0.51100000000E-03 0.  1.
    9900012    2    1    2    0    0 -0.83084629347E+00 -0.20391647137E+00 -0.81299068192E+00  0.90007813007E+02  0.90000075338E+02 0.  0.
        -12    1    1    2    0    0  0.83084629347E+00  0.20391647137E+00  0.81299068192E+00  0.11801869935E+01  0.00000000000E+00 0.  1.
         11    1    3    3    0    0 -0.44363594981E+02 -0.63443567006E+01 -0.61702561798E+00  0.44819193907E+02  0.51100000000E-03 0. -1.
        -11    1    3    3    0    0  0.99623378019E+01 -0.46421274639E+00  0.39448837293E+01  0.10725007033E+02  0.51100000000E-03 0.  1.
        -12    1    3    3    0    0  0.33570410886E+02  0.66046529756E+01 -0.41408487932E+01  0.34463612067E+02  0.00000000000E+00 0.  1.
</event>
<event>
 7    1  0.2349719E-015  0.9000754E+02  0.7816164E-02  0.1186339E+00
        -11   -1    0    0    0    0  0.00000000000E+00  0.00000000000E+00  0.45593999997E+02  0.45594000000E+02  0.51100000000E-03 0.  1.
         11   -1    0    0    0    0 -0.00000000000E+00 -0.00000000000E+00 -0.45593999997E+02  0.45594000000E+02  0.51100000000E-03 0. -1.
    9900012    2    1    2    0    0  0.25375434290E+00 -0.10840203070E+01 -0.39242600916E+00  0.90007538453E+02  0.89999797160E+02 0.  0.
        -12    1    1    2    0    0 -0.25375434290E+00  0.10840203070E+01  0.39242600916E+00  0.11804615475E+01  0.00000000000E+00 0.  1.
         11    1    3    3    0    0  0.14662878728E+01  0.23277887058E+01 -0.40479181842E+01  0.48943071289E+01  0.51100000000E-03 0. -1.
        -11    1    3    3    0    0  0.14655801028E+02  0.26654196734E+01  0.41249811528E+02  0.43857085142E+02  0.51100000000E-03 0.  1.
         12    1    3    3    0    0 -0.15868334558E+02 -0.60772286861E+01 -0.37594319353E+02  0.41256146182E+02  0.00000000000E+00 0. -1.
</event>
<event>
 7    1  0.2349719E-015  0.9000798E+02  0.7816164E-02  0.1186339E+00
        -11   -1    0    0    0    0  0.00000000000E+00  0.00000000000E+00  0.45593999997E+02  0.45594000000E+02  0.51100000000E-03 0. -1.
         11   -1    0    0    0    0 -0.00000000000E+00 -0.00000000000E+00 -0.45593999997E+02  0.45594000000E+02  0.51100000000E-03 0.  1.
    9900012    2    1    2    0    0 -0.79497899744E+00 -0.74421831341E+00  0.45452054814E+00  0.90007982444E+02  0.90000247012E+02 0.  0.
        -12    1    1    2    0    0  0.79497899744E+00  0.74421831341E+00 -0.45452054814E+00  0.11800175563E+01  0.00000000000E+00 0.  1.
         11    1    3    3    0    0 -0.78914522311E+01  0.15635707249E+00 -0.68747856399E+01  0.10467193688E+02  0.51100000000E-03 0. -1.
        -11    1    3    3    0    0 -0.24768324132E+02 -0.92367207065E+01 -0.22794765279E+02  0.34905418120E+02  0.51100000000E-03 0.  1.
         12    1    3    3    0    0  0.31864797366E+02  0.83361453206E+01  0.30124071467E+02  0.44635370635E+02  0.00000000000E+00 0. -1.
</event>
<event>
 7    1  0.2349719E-015  0.9000765E+02  0.7816164E-02  0.1186339E+00
        -11   -1    0    0    0    0  0.00000000000E+00  0.00000000000E+00  0.45593999997E+02  0.45594000000E+02  0.51100000000E-03 0.  1.
         11   -1    0    0    0    0 -0.00000000000E+00 -0.00000000000E+00 -0.45593999997E+02  0.45594000000E+02  0.51100000000E-03 0. -1.
    9900012    2    1    2    0    0 -0.59708248774E+00 -0.91282644917E-01 -0.10140880866E+01  0.90007654853E+02  0.89999915097E+02 0.  0.
        -12    1    1    2    0    0  0.59708248774E+00  0.91282644917E-01  0.10140880866E+01  0.11803451469E+01  0.00000000000E+00 0.  1.
         11    1    3    3    0    0 -0.81035871424E+01 -0.76847835837E+01  0.85476099880E+01  0.14063628979E+02  0.51100000000E-03 0. -1.
        -11    1    3    3    0    0 -0.11909620753E+02 -0.12230627974E+02  0.25835970791E+02  0.30966509556E+02  0.51100000000E-03 0.  1.
         12    1    3    3    0    0  0.19416125408E+02  0.19824128913E+02 -0.35397668865E+02  0.44977516318E+02  0.00000000000E+00 0. -1.
</event>
<event>
 7    1  0.2349719E-015  0.9000768E+02  0.7816164E-02  0.1186339E+00
        -11   -1    0    0    0    0  0.00000000000E+00  0.00000000000E+00  0.45593999997E+02  0.45594000000E+02  0.51100000000E-03 0. -1.
         11   -1    0    0    0    0 -0.00000000000E+00 -0.00000000000E+00 -0.45593999997E+02  0.45594000000E+02  0.51100000000E-03 0.  1.
    9900012    2    1    2    0    0  0.37747038975E+00  0.13993538216E+00  0.11095439035E+01  0.90007680772E+02  0.89999941358E+02 0.  0.
        -12    1    1    2    0    0 -0.37747038975E+00 -0.13993538216E+00 -0.11095439035E+01  0.11803192281E+01  0.00000000000E+00 0.  1.
         11    1    3    3    0    0  0.31650449432E+01 -0.35795774059E+01 -0.72871874545E+01  0.87140108535E+01  0.51100000000E-03 0. -1.
        -11    1    3    3    0    0 -0.21891746384E+02 -0.54384592255E+01 -0.29943651335E+02  0.37489300527E+02  0.51100000000E-03 0.  1.
         12    1    3    3    0    0  0.19104171830E+02  0.91579720136E+01  0.38340382693E+02  0.43804369391E+02  0.00000000000E+00 0. -1.
</event>
<event>
 7    1  0.2349719E-015  0.9000831E+02  0.7816164E-02  0.1186338E+00
        -11   -1    0    0    0    0  0.00000000000E+00  0.00000000000E+00  0.45593999997E+02  0.45594000000E+02  0.51100000000E-03 0. -1.
         11   -1    0    0    0    0 -0.00000000000E+00 -0.00000000000E+00 -0.45593999997E+02  0.45594000000E+02  0.51100000000E-03 0.  1.
    9900012    2    1    2    0    0  0.91986404021E+00  0.50310440238E+00  0.54073962383E+00  0.90008312231E+02  0.90000581150E+02 0.  0.
        -12    1    1    2    0    0 -0.91986404021E+00 -0.50310440238E+00 -0.54073962383E+00  0.11796877693E+01  0.00000000000E+00 0.  1.
         11    1    3    3    0    0 -0.76665871560E+01  0.81143910462E+01 -0.16058173911E+01  0.11278233480E+02  0.51100000000E-03 0. -1.
        -11    1    3    3    0    0 -0.18537338647E+02 -0.22088094085E+01 -0.30613674878E+02  0.35856782523E+02  0.51100000000E-03 0.  1.
         12    1    3    3    0    0  0.27123789843E+02 -0.54024772353E+01  0.32760231893E+02  0.42873296228E+02  0.00000000000E+00 0. -1.
</event>
<event>
 7    1  0.2349719E-015  0.9000769E+02  0.7816164E-02  0.1186339E+00
        -11   -1    0    0    0    0  0.00000000000E+00  0.00000000000E+00  0.45593999997E+02  0.45594000000E+02  0.51100000000E-03 0.  1.
         11   -1    0    0    0    0 -0.00000000000E+00 -0.00000000000E+00 -0.45593999997E+02  0.45594000000E+02  0.51100000000E-03 0. -1.
    9900012    2    1    2    0    0 -0.85890642624E+00  0.61553503693E-01 -0.80723807433E+00  0.90007685469E+02  0.89999946117E+02 0.  0.
        -12    1    1    2    0    0  0.85890642624E+00 -0.61553503693E-01  0.80723807433E+00  0.11803145307E+01  0.00000000000E+00 0.  1.
         11    1    3    3    0    0 -0.28089599491E+01 -0.86653161287E+01  0.10517132728E+02  0.13913591941E+02  0.51100000000E-03 0. -1.
        -11    1    3    3    0    0 -0.31892844080E+02  0.54636564180E+01  0.12381917986E+02  0.34645590458E+02  0.51100000000E-03 0.  1.
         12    1    3    3    0    0  0.33842897603E+02  0.32632132144E+01 -0.23706288788E+02  0.41448503070E+02  0.00000000000E+00 0. -1.
</event>
<event>
 7    1  0.2349719E-015  0.9000774E+02  0.7816164E-02  0.1186339E+00
        -11   -1    0    0    0    0  0.00000000000E+00  0.00000000000E+00  0.45593999997E+02  0.45594000000E+02  0.51100000000E-03 0. -1.
         11   -1    0    0    0    0 -0.00000000000E+00 -0.00000000000E+00 -0.45593999997E+02  0.45594000000E+02  0.51100000000E-03 0.  1.
    9900012    2    1    2    0    0 -0.48683947913E+00  0.10659261057E+01  0.14068895538E+00  0.90007743874E+02  0.90000005293E+02 0.  0.
        -12    1    1    2    0    0  0.48683947913E+00 -0.10659261057E+01 -0.14068895538E+00  0.11802561262E+01  0.00000000000E+00 0.  1.
         11    1    3    3    0    0 -0.14234792501E+02  0.37116386661E+01  0.33441508643E+02  0.36534094757E+02  0.51100000000E-03 0. -1.
        -11    1    3    3    0    0  0.41024164889E+01  0.57022362961E+01  0.77657331870E+01  0.10471481844E+02  0.51100000000E-03 0.  1.
        -12    1    3    3    0    0  0.96455365326E+01 -0.83479488564E+01 -0.41066552875E+02  0.43002167272E+02  0.00000000000E+00 0.  1.
</event>
<event>
 7    1  0.2349719E-015  0.9000778E+02  0.7816164E-02  0.1186339E+00
        -11   -1    0    0    0    0  0.00000000000E+00  0.00000000000E+00  0.45593999997E+02  0.45594000000E+02  0.51100000000E-03 0.  1.
         11   -1    0    0    0    0 -0.00000000000E+00 -0.00000000000E+00 -0.45593999997E+02  0.45594000000E+02  0.51100000000E-03 0. -1.
    9900012    2    1    2    0    0 -0.10529236669E+01 -0.11393660514E-01 -0.53305598566E+00  0.90007776823E+02  0.90000038677E+02 0.  0.
        -12    1    1    2    0    0  0.10529236669E+01  0.11393660514E-01  0.53305598566E+00  0.11802231771E+01  0.00000000000E+00 0.  1.
         11    1    3    3    0    0  0.61455626108E+01 -0.40566684769E+01  0.10640612115E+02  0.12940136219E+02  0.51100000000E-03 0. -1.
        -11    1    3    3    0    0 -0.11665675793E+02 -0.26374823653E+02  0.18560116866E+02  0.34295732282E+02  0.51100000000E-03 0.  1.
         12    1    3    3    0    0  0.44671895152E+01  0.30420098469E+02 -0.29733784966E+02  0.42771908322E+02  0.00000000000E+00 0. -1.
</event>
<event>
 7    1  0.2349719E-015  0.9000781E+02  0.7816164E-02  0.1186339E+00
        -11   -1    0    0    0    0  0.00000000000E+00  0.00000000000E+00  0.45593999997E+02  0.45594000000E+02  0.51100000000E-03 0. -1.
         11   -1    0    0    0    0 -0.00000000000E+00 -0.00000000000E+00 -0.45593999997E+02  0.45594000000E+02  0.51100000000E-03 0.  1.
    9900012    2    1    2    0    0  0.63473672608E+00 -0.52496134972E+00  0.84520042678E+00  0.90007814044E+02  0.90000076389E+02 0.  0.
        -12    1    1    2    0    0 -0.63473672608E+00  0.52496134972E+00 -0.84520042678E+00  0.11801859563E+01  0.00000000000E+00 0.  1.
         11    1    3    3    0    0  0.51000968860E+01 -0.62893829106E+01  0.36589662066E+01  0.88856828441E+01  0.51100000000E-03 0. -1.
        -11    1    3    3    0    0  0.73436794910E+01 -0.80142863664E+01 -0.39082981946E+02  0.40566462657E+02  0.51100000000E-03 0.  1.
         12    1    3    3    0    0 -0.11809039651E+02  0.13778707927E+02  0.36269216166E+02  0.40555668543E+02  0.00000000000E+00 0. -1.
</event>
<event>
 7    1  0.2353102E-015  0.9000775E+02  0.7816164E-02  0.1186339E+00
        -11   -1    0    0    0    0  0.00000000000E+00  0.00000000000E+00  0.45593999997E+02  0.45594000000E+02  0.51100000000E-03 0.  1.
         11   -1    0    0    0    0 -0.00000000000E+00 -0.00000000000E+00 -0.45593999997E+02  0.45594000000E+02  0.51100000000E-03 0. -1.
    9900012    2    1    2    0    0  0.31263125738E+00 -0.70187433447E-01 -0.11359206336E+01  0.90007754151E+02  0.90000015705E+02 0.  0.
        -12    1    1    2    0    0 -0.31263125738E+00  0.70187433447E-01  0.11359206336E+01  0.11802458493E+01  0.00000000000E+00 0.  1.
         11    1    3    3    0    0 -0.57918998511E+01 -0.10395892671E+02 -0.36057661612E+02  0.37970720950E+02  0.51100000000E-03 0. -1.
        -11    1    3    3    0    0  0.29403994390E+01  0.67418736566E+01 -0.68151572402E+01  0.10027221835E+02  0.51100000000E-03 0.  1.
        -12    1    3    3    0    0  0.31641316694E+01  0.35838315814E+01  0.41736898218E+02  0.42009811365E+02  0.00000000000E+00 0.  1.
</event>
<event>
 7    1  0.2349719E-015  0.9000772E+02  0.7816164E-02  0.1186339E+00
        -11   -1    0    0    0    0  0.00000000000E+00  0.00000000000E+00  0.45593999997E+02  0.45594000000E+02  0.51100000000E-03 0.  1.
         11   -1    0    0    0    0 -0.00000000000E+00 -0.00000000000E+00 -0.45593999997E+02  0.45594000000E+02  0.51100000000E-03 0. -1.
    9900012    2    1    2    0    0 -0.11371226577E+01 -0.26535147005E+00  0.17203612391E+00  0.90007722164E+02  0.89999983297E+02 0.  0.
        -12    1    1    2    0    0  0.11371226577E+01  0.26535147005E+00 -0.17203612391E+00  0.11802778357E+01  0.00000000000E+00 0.  1.
         11    1    3    3    0    0  0.55502104856E+01  0.66126363428E+01  0.40549619944E+01  0.95380560322E+01  0.51100000000E-03 0. -1.
        -11    1    3    3    0    0 -0.39068784447E+02 -0.14459527698E+02 -0.16627140987E+02  0.44854316148E+02  0.51100000000E-03 0.  1.
         12    1    3    3    0    0  0.32381451304E+02  0.75815398851E+01  0.12744215116E+02  0.35615349984E+02  0.00000000000E+00 0. -1.
</event>
<event>
 7    1  0.2349719E-015  0.9000777E+02  0.7816164E-02  0.1186339E+00
        -11   -1    0    0    0    0  0.00000000000E+00  0.00000000000E+00  0.45593999997E+02  0.45594000000E+02  0.51100000000E-03 0.  1.
         11   -1    0    0    0    0 -0.00000000000E+00 -0.00000000000E+00 -0.45593999997E+02  0.45594000000E+02  0.51100000000E-03 0. -1.
    9900012    2    1    2    0    0  0.51762872276E+00  0.50737181169E+00 -0.93143493290E+00  0.90007772613E+02  0.90000034412E+02 0.  0.
        -12    1    1    2    0    0 -0.51762872276E+00 -0.50737181169E+00  0.93143493290E+00  0.11802273866E+01  0.00000000000E+00 0.  1.
         11    1    3    3    0    0 -0.73040066265E+01 -0.40100368588E+00 -0.71341385336E+01  0.10217888707E+02  0.51100000000E-03 0. -1.
        -11    1    3    3    0    0 -0.30926851608E+02 -0.15135932019E+02  0.13933586413E+02  0.37144466870E+02  0.51100000000E-03 0.  1.
         12    1    3    3    0    0  0.38748486957E+02  0.16044307516E+02 -0.77308828124E+01  0.42645417036E+02  0.00000000000E+00 0. -1.
</event>
<event>
 7    1  0.2349719E-015  0.9000768E+02  0.7816164E-02  0.1186339E+00
        -11   -1    0    0    0    0  0.00000000000E+00  0.00000000000E+00  0.45593999997E+02  0.45594000000E+02  0.51100000000E-03 0. -1.
         11   -1    0    0    0    0 -0.00000000000E+00 -0.00000000000E+00 -0.45593999997E+02  0.45594000000E+02  0.51100000000E-03 0.  1.
    9900012    2    1    2    0    0  0.90140093786E+00  0.72903053828E+00  0.22170821445E+00  0.90007676439E+02  0.89999936968E+02 0.  0.
        -12    1    1    2    0    0 -0.90140093786E+00 -0.72903053828E+00 -0.22170821445E+00  0.11803235611E+01  0.00000000000E+00 0.  1.
         11    1    3    3    0    0  0.22380718344E+00 -0.15093083244E+02  0.42895386445E+00  0.15100836173E+02  0.51100000000E-03 0. -1.
        -11    1    3    3    0    0 -0.18434477067E+02 -0.23548865586E+02 -0.67428041755E+01  0.30656882156E+02  0.51100000000E-03 0.  1.
         12    1    3    3    0    0  0.19112070822E+02  0.39370979368E+02  0.65355585255E+01  0.44249958110E+02  0.00000000000E+00 0. -1.
</event>
<event>
 7    1  0.2349719E-015  0.9000760E+02  0.7816164E-02  0.1186339E+00
        -11   -1    0    0    0    0  0.00000000000E+00  0.00000000000E+00  0.45593999997E+02  0.45594000000E+02  0.51100000000E-03 0.  1.
         11   -1    0    0    0    0 -0.00000000000E+00 -0.00000000000E+00 -0.45593999997E+02  0.45594000000E+02  0.51100000000E-03 0. -1.
    9900012    2    1    2    0    0  0.41203230481E+00 -0.10935516284E+01 -0.16648159929E+00  0.90007600954E+02  0.89999860487E+02 0.  0.
        -12    1    1    2    0    0 -0.41203230481E+00  0.10935516284E+01  0.16648159929E+00  0.11803990457E+01  0.00000000000E+00 0.  1.
         11    1    3    3    0    0 -0.32668374212E+01  0.40557448521E+01 -0.67508254565E+01  0.85261326313E+01  0.51100000000E-03 0. -1.
        -11    1    3    3    0    0 -0.84132243611E+01 -0.36264083648E+02  0.23534802974E+02  0.44042627740E+02  0.51100000000E-03 0.  1.
         12    1    3    3    0    0  0.12092094087E+02  0.31114787167E+02 -0.16950459117E+02  0.37438840583E+02  0.00000000000E+00 0. -1.
</event>
<event>
 7    1  0.2349719E-015  0.9000774E+02  0.7816164E-02  0.1186339E+00
        -11   -1    0    0    0    0  0.00000000000E+00  0.00000000000E+00  0.45593999997E+02  0.45594000000E+02  0.51100000000E-03 0. -1.
         11   -1    0    0    0    0 -0.00000000000E+00 -0.00000000000E+00 -0.45593999997E+02  0.45594000000E+02  0.51100000000E-03 0.  1.
    9900012    2    1    2    0    0 -0.87459962886E+00  0.55144532354E+00  0.56920934947E+00  0.90007739122E+02  0.90000000479E+02 0.  0.
        -12    1    1    2    0    0  0.87459962886E+00 -0.55144532354E+00 -0.56920934947E+00  0.11802608776E+01  0.00000000000E+00 0.  1.
         11    1    3    3    0    0  0.35638953087E+02 -0.74753144581E+01  0.11921901898E+02  0.38316407041E+02  0.51100000000E-03 0. -1.
        -11    1    3    3    0    0 -0.36616128506E+00 -0.78603395405E+01  0.45898646808E+01  0.91096580522E+01  0.51100000000E-03 0.  1.
        -12    1    3    3    0    0 -0.36147391431E+02  0.15887099322E+02 -0.15942557229E+02  0.42581674029E+02  0.00000000000E+00 0.  1.
</event>
<event>
 7    1  0.2349719E-015  0.9000776E+02  0.7816164E-02  0.1186339E+00
        -11   -1    0    0    0    0  0.00000000000E+00  0.00000000000E+00  0.45593999997E+02  0.45594000000E+02  0.51100000000E-03 0. -1.
         11   -1    0    0    0    0 -0.00000000000E+00 -0.00000000000E+00 -0.45593999997E+02  0.45594000000E+02  0.51100000000E-03 0.  1.
    9900012    2    1    2    0    0 -0.81782784926E+00  0.50925019640E-01  0.84942994887E+00  0.90007759776E+02  0.90000021405E+02 0.  0.
        -12    1    1    2    0    0  0.81782784926E+00 -0.50925019640E-01 -0.84942994887E+00  0.11802402241E+01  0.00000000000E+00 0.  1.
         11    1    3    3    0    0  0.33278856975E+00  0.89064487201E+01 -0.10009501985E+02  0.13402451540E+02  0.51100000000E-03 0. -1.
        -11    1    3    3    0    0  0.25108566690E+02 -0.11187775701E+02 -0.21477874169E+02  0.34884172993E+02  0.51100000000E-03 0.  1.
         12    1    3    3    0    0 -0.26259183109E+02  0.23322520002E+01  0.32336806103E+02  0.41721135242E+02  0.00000000000E+00 0. -1.
</event>
<event>
 7    1  0.2349719E-015  0.9000758E+02  0.7816164E-02  0.1186339E+00
        -11   -1    0    0    0    0  0.00000000000E+00  0.00000000000E+00  0.45593999997E+02  0.45594000000E+02  0.51100000000E-03 0.  1.
         11   -1    0    0    0    0 -0.00000000000E+00 -0.00000000000E+00 -0.45593999997E+02  0.45594000000E+02  0.51100000000E-03 0. -1.
    9900012    2    1    2    0    0  0.14762286800E+00  0.98691028907E+00 -0.63055976324E+00  0.90007580564E+02  0.89999839827E+02 0.  0.
        -12    1    1    2    0    0 -0.14762286800E+00 -0.98691028907E+00  0.63055976324E+00  0.11804194360E+01  0.00000000000E+00 0.  1.
         11    1    3    3    0    0 -0.27063980808E+02 -0.11416024734E+02 -0.23748745816E+02  0.37772842176E+02  0.51100000000E-03 0. -1.
        -11    1    3    3    0    0 -0.87260699103E+01  0.49542495184E+01  0.35597430135E+01  0.10647096081E+02  0.51100000000E-03 0.  1.
        -12    1    3    3    0    0  0.35937673587E+02  0.74486855047E+01  0.19558443040E+02  0.41587642308E+02  0.00000000000E+00 0.  1.
</event>
<event>
 7    1  0.2349719E-015  0.9000774E+02  0.7816164E-02  0.1186339E+00
        -11   -1    0    0    0    0  0.00000000000E+00  0.00000000000E+00  0.45593999997E+02  0.45594000000E+02  0.51100000000E-03 0. -1.
         11   -1    0    0    0    0 -0.00000000000E+00 -0.00000000000E+00 -0.45593999997E+02  0.45594000000E+02  0.51100000000E-03 0.  1.
    9900012    2    1    2    0    0 -0.71151220219E+00 -0.93810338889E+00 -0.82050136888E-01  0.90007737399E+02  0.89999998733E+02 0.  0.
        -12    1    1    2    0    0  0.71151220219E+00  0.93810338889E+00  0.82050136888E-01  0.11802626009E+01  0.00000000000E+00 0.  1.
         11    1    3    3    0    0 -0.53331954838E+01  0.14710598515E+01 -0.84615616890E+01  0.10109649729E+02  0.51100000000E-03 0. -1.
        -11    1    3    3    0    0  0.48446330496E+01 -0.13368809366E+02 -0.33613743398E+02  0.36497661278E+02  0.51100000000E-03 0.  1.
         12    1    3    3    0    0 -0.22294976803E+00  0.10959646126E+02  0.41993254950E+02  0.43400426393E+02  0.00000000000E+00 0. -1.
</event>
<event>
 7    1  0.4709234E-015  0.9000761E+02  0.7816164E-02  0.1186339E+00
        -11   -1    0    0    0    0  0.00000000000E+00  0.00000000000E+00  0.45593999997E+02  0.45594000000E+02  0.51100000000E-03 0. -1.
         11   -1    0    0    0    0 -0.00000000000E+00 -0.00000000000E+00 -0.45593999997E+02  0.45594000000E+02  0.51100000000E-03 0.  1.
    9900012    2    1    2    0    0 -0.32282412559E+00 -0.13035287746E+00  0.11278755833E+01  0.90007614207E+02  0.89999873915E+02 0.  0.
        -12    1    1    2    0    0  0.32282412559E+00  0.13035287746E+00 -0.11278755833E+01  0.11803857929E+01  0.00000000000E+00 0.  1.
         11    1    3    3    0    0 -0.90052807709E+01  0.47144073793E+01  0.35513695243E+02  0.36939724806E+02  0.51100000000E-03 0. -1.
        -11    1    3    3    0    0 -0.37385566442E+01 -0.29981556492E+01  0.77437298891E+01  0.91066511921E+01  0.51100000000E-03 0.  1.
        -12    1    3    3    0    0  0.12421013290E+02 -0.18466046075E+01 -0.42129549548E+02  0.43961238209E+02  0.00000000000E+00 0.  1.
</event>
<event>
 7    1  0.2349719E-015  0.9000767E+02  0.7816164E-02  0.1186339E+00
        -11   -1    0    0    0    0  0.00000000000E+00  0.00000000000E+00  0.45593999997E+02  0.45594000000E+02  0.51100000000E-03 0. -1.
         11   -1    0    0    0    0 -0.00000000000E+00 -0.00000000000E+00 -0.45593999997E+02  0.45594000000E+02  0.51100000000E-03 0.  1.
    9900012    2    1    2    0    0 -0.52279881197E+00 -0.29773909683E+00  0.10154854618E+01  0.90007670431E+02  0.89999930881E+02 0.  0.
        -12    1    1    2    0    0  0.52279881197E+00  0.29773909683E+00 -0.10154854618E+01  0.11803295687E+01  0.00000000000E+00 0.  1.
         11    1    3    3    0    0 -0.84952919439E+01  0.28873477022E+01 -0.23174821657E+01  0.92670106191E+01  0.51100000000E-03 0. -1.
        -11    1    3    3    0    0 -0.26105396192E+02  0.87135523490E+01 -0.23157300046E+02  0.35967739025E+02  0.51100000000E-03 0.  1.
         12    1    3    3    0    0  0.34077889324E+02 -0.11898639148E+02  0.26490267674E+02  0.44772920787E+02  0.00000000000E+00 0. -1.
</event>
<event>
 7    1  0.2349719E-015  0.9000771E+02  0.7816164E-02  0.1186339E+00
        -11   -1    0    0    0    0  0.00000000000E+00  0.00000000000E+00  0.45593999997E+02  0.45594000000E+02  0.51100000000E-03 0.  1.
         11   -1    0    0    0    0 -0.00000000000E+00 -0.00000000000E+00 -0.45593999997E+02  0.45594000000E+02  0.51100000000E-03 0. -1.
    9900012    2    1    2    0    0  0.77938171623E+00 -0.49023616752E+00 -0.73844814657E+00  0.90007714854E+02  0.89999975891E+02 0.  0.
        -12    1    1    2    0    0 -0.77938171623E+00  0.49023616752E+00  0.73844814657E+00  0.11802851455E+01  0.00000000000E+00 0.  1.
         11    1    3    3    0    0  0.13163600766E+02 -0.89298507094E+01 -0.36647315494E+02  0.39950573863E+02  0.51100000000E-03 0. -1.
        -11    1    3    3    0    0 -0.32960993382E+01 -0.91463245079E+01  0.80357130634E+00  0.97552678055E+01  0.51100000000E-03 0.  1.
        -12    1    3    3    0    0 -0.90881197114E+01  0.17585939050E+02  0.35105296041E+02  0.40301873186E+02  0.00000000000E+00 0.  1.
</event>
<event>
 7    1  0.2349719E-015  0.9000776E+02  0.7816164E-02  0.1186339E+00
        -11   -1    0    0    0    0  0.00000000000E+00  0.00000000000E+00  0.45593999997E+02  0.45594000000E+02  0.51100000000E-03 0.  1.
         11   -1    0    0    0    0 -0.00000000000E+00 -0.00000000000E+00 -0.45593999997E+02  0.45594000000E+02  0.51100000000E-03 0. -1.
    9900012    2    1    2    0    0 -0.12321122313E+00 -0.11625066515E+01  0.16238292482E+00  0.90007758103E+02  0.90000019710E+02 0.  0.
        -12    1    1    2    0    0  0.12321122313E+00  0.11625066515E+01 -0.16238292482E+00  0.11802418966E+01  0.00000000000E+00 0.  1.
         11    1    3    3    0    0  0.31963096162E+01  0.25333780335E+01  0.98634832663E+01  0.10673457820E+02  0.51100000000E-03 0. -1.
        -11    1    3    3    0    0  0.28883474330E+02 -0.65572553424E+01  0.19751456027E+02  0.35600178404E+02  0.51100000000E-03 0.  1.
         12    1    3    3    0    0 -0.32202995169E+02  0.28613706574E+01 -0.29452556369E+02  0.43734121879E+02  0.00000000000E+00 0. -1.
</event>
<event>
 7    1  0.2349719E-015  0.9000774E+02  0.7816164E-02  0.1186339E+00
        -11   -1    0    0    0    0  0.00000000000E+00  0.00000000000E+00  0.45593999997E+02  0.45594000000E+02  0.51100000000E-03 0.  1.
         11   -1    0    0    0    0 -0.00000000000E+00 -0.00000000000E+00 -0.45593999997E+02  0.45594000000E+02  0.51100000000E-03 0. -1.
    9900012    2    1    2    0    0 -0.58564668885E+00  0.69477237686E+00 -0.75320078719E+00  0.90007744890E+02  0.90000006322E+02 0.  0.
        -12    1    1    2    0    0  0.58564668885E+00 -0.69477237686E+00  0.75320078719E+00  0.11802551104E+01  0.00000000000E+00 0.  1.
         11    1    3    3    0    0 -0.18044213703E+01 -0.77617321891E+01  0.59693566167E+01  0.99565878560E+01  0.51100000000E-03 0. -1.
        -11    1    3    3    0    0  0.10346498458E+01 -0.34763728981E+02  0.53212438295E+01  0.35183845570E+02  0.51100000000E-03 0.  1.
         12    1    3    3    0    0  0.18412483566E+00  0.43220233547E+02 -0.12043801233E+02  0.44867311463E+02  0.00000000000E+00 0. -1.
</event>
<event>
 7    1  0.2349719E-015  0.9000772E+02  0.7816164E-02  0.1186339E+00
        -11   -1    0    0    0    0  0.00000000000E+00  0.00000000000E+00  0.45593999997E+02  0.45594000000E+02  0.51100000000E-03 0. -1.
         11   -1    0    0    0    0 -0.00000000000E+00 -0.00000000000E+00 -0.45593999997E+02  0.45594000000E+02  0.51100000000E-03 0.  1.
    9900012    2    1    2    0    0  0.54910713011E+00 -0.91871996740E+00  0.49749010951E+00  0.90007719767E+02  0.89999980868E+02 0.  0.
        -12    1    1    2    0    0 -0.54910713011E+00  0.91871996740E+00 -0.49749010951E+00  0.11802802328E+01  0.00000000000E+00 0.  1.
         11    1    3    3    0    0 -0.24776322117E+02 -0.25988238654E+02 -0.50694076058E+01  0.36262288672E+02  0.51100000000E-03 0. -1.
        -11    1    3    3    0    0 -0.28859720582E+01 -0.76222803077E+01  0.66975670585E+01  0.10549189380E+02  0.51100000000E-03 0.  1.
        -12    1    3    3    0    0  0.28211401306E+02  0.32691798995E+02 -0.11306693431E+01  0.43196241715E+02  0.00000000000E+00 0.  1.
</event>
<event>
 7    1  0.2349719E-015  0.9000770E+02  0.7816164E-02  0.1186339E+00
        -11   -1    0    0    0    0  0.00000000000E+00  0.00000000000E+00  0.45593999997E+02  0.45594000000E+02  0.51100000000E-03 0.  1.
         11   -1    0    0    0    0 -0.00000000000E+00 -0.00000000000E+00 -0.45593999997E+02  0.45594000000E+02  0.51100000000E-03 0. -1.
    9900012    2    1    2    0    0  0.47484153930E+00  0.78166543310E+00 -0.74607861056E+00  0.90007699771E+02  0.89999960608E+02 0.  0.
        -12    1    1    2    0    0 -0.47484153930E+00 -0.78166543310E+00  0.74607861056E+00  0.11803002287E+01  0.00000000000E+00 0.  1.
         11    1    3    3    0    0 -0.74410231200E+00 -0.93043764064E+01  0.90070430274E+00  0.93774397926E+01  0.51100000000E-03 0. -1.
        -11    1    3    3    0    0 -0.88847067992E+01 -0.31333266625E+02  0.13680235840E+02  0.35325068510E+02  0.51100000000E-03 0.  1.
         12    1    3    3    0    0  0.10103650651E+02  0.41419308465E+02 -0.15327018753E+02  0.45305191469E+02  0.00000000000E+00 0. -1.
</event>
<event>
 7    1  0.2349719E-015  0.9000770E+02  0.7816164E-02  0.1186339E+00
        -11   -1    0    0    0    0  0.00000000000E+00  0.00000000000E+00  0.45593999997E+02  0.45594000000E+02  0.51100000000E-03 0. -1.
         11   -1    0    0    0    0 -0.00000000000E+00 -0.00000000000E+00 -0.45593999997E+02  0.45594000000E+02  0.51100000000E-03 0.  1.
    9900012    2    1    2    0    0 -0.52520293285E+00 -0.26793698226E+00  0.10224874709E+01  0.90007699625E+02  0.89999960460E+02 0.  0.
        -12    1    1    2    0    0  0.52520293285E+00  0.26793698226E+00 -0.10224874709E+01  0.11803003750E+01  0.00000000000E+00 0.  1.
         11    1    3    3    0    0 -0.66519208551E+01 -0.45552947494E+01  0.34510168178E+01  0.87697365214E+01  0.51100000000E-03 0. -1.
        -11    1    3    3    0    0 -0.23715350456E+02  0.24376796710E+02 -0.21783425957E+02  0.40387667818E+02  0.51100000000E-03 0.  1.
         12    1    3    3    0    0  0.29842068378E+02 -0.20089438943E+02  0.19354896610E+02  0.40850295286E+02  0.00000000000E+00 0. -1.
</event>
<event>
 7    1  0.2349719E-015  0.9000782E+02  0.7816164E-02  0.1186339E+00
        -11   -1    0    0    0    0  0.00000000000E+00  0.00000000000E+00  0.45593999997E+02  0.45594000000E+02  0.51100000000E-03 0.  1.
         11   -1    0    0    0    0 -0.00000000000E+00 -0.00000000000E+00 -0.45593999997E+02  0.45594000000E+02  0.51100000000E-03 0. -1.
    9900012    2    1    2    0    0 -0.10246563685E+01  0.45999068009E+00 -0.36237716409E+00  0.90007818104E+02  0.90000080503E+02 0.  0.
        -12    1    1    2    0    0  0.10246563685E+01 -0.45999068009E+00  0.36237716409E+00  0.11801818963E+01  0.00000000000E+00 0.  1.
         11    1    3    3    0    0  0.26301841842E+02  0.27746702004E+02  0.72702300748E+01  0.38916867834E+02  0.51100000000E-03 0. -1.
        -11    1    3    3    0    0 -0.18506662170E+01  0.57914541613E+01 -0.70847262323E+01  0.93359119960E+01  0.51100000000E-03 0.  1.
        -12    1    3    3    0    0 -0.25475831994E+02 -0.33078165485E+02 -0.54788100655E+00  0.41755038274E+02  0.00000000000E+00 0.  1.
</event>
<event>
 7    1  0.2349719E-015  0.9000774E+02  0.7816164E-02  0.1186339E+00
        -11   -1    0    0    0    0  0.00000000000E+00  0.00000000000E+00  0.45593999997E+02  0.45594000000E+02  0.51100000000E-03 0. -1.
         11   -1    0    0    0    0 -0.00000000000E+00 -0.00000000000E+00 -0.45593999997E+02  0.45594000000E+02  0.51100000000E-03 0.  1.
    9900012    2    1    2    0    0  0.79965213848E+00  0.21726885146E+00  0.84045466527E+00  0.90007740138E+02  0.90000001508E+02 0.  0.
        -12    1    1    2    0    0 -0.79965213848E+00 -0.21726885146E+00 -0.84045466527E+00  0.11802598615E+01  0.00000000000E+00 0.  1.
         11    1    3    3    0    0  0.25794810873E+00  0.10312308677E+02 -0.39246676070E+01  0.11036904619E+02  0.51100000000E-03 0. -1.
        -11    1    3    3    0    0 -0.23167846436E+02 -0.26698425652E+01 -0.28896461842E+02  0.37133309508E+02  0.51100000000E-03 0.  1.
         12    1    3    3    0    0  0.23709550465E+02 -0.74251972607E+01  0.33661584114E+02  0.41837526011E+02  0.00000000000E+00 0. -1.
</event>
<event>
 7    1  0.2349719E-015  0.9000774E+02  0.7816164E-02  0.1186339E+00
        -11   -1    0    0    0    0  0.00000000000E+00  0.00000000000E+00  0.45593999997E+02  0.45594000000E+02  0.51100000000E-03 0.  1.
         11   -1    0    0    0    0 -0.00000000000E+00 -0.00000000000E+00 -0.45593999997E+02  0.45594000000E+02  0.51100000000E-03 0. -1.
    9900012    2    1    2    0    0 -0.10191073036E+01  0.32492790245E+00 -0.49885145500E+00  0.90007741294E+02  0.90000002679E+02 0.  0.
        -12    1    1    2    0    0  0.10191073036E+01 -0.32492790245E+00  0.49885145500E+00  0.11802587056E+01  0.00000000000E+00 0.  1.
         11    1    3    3    0    0 -0.91121628494E+01  0.28888069203E+02  0.13575197418E+02  0.33193945823E+02  0.51100000000E-03 0. -1.
        -11    1    3    3    0    0  0.17956296800E+02  0.47794580453E+01 -0.11708180219E+02  0.21962543074E+02  0.51100000000E-03 0.  1.
        -12    1    3    3    0    0 -0.98632412542E+01 -0.33342599346E+02 -0.23658686540E+01  0.34851252397E+02  0.00000000000E+00 0.  1.
</event>
<event>
 7    1  0.2349719E-015  0.9000771E+02  0.7816164E-02  0.1186339E+00
        -11   -1    0    0    0    0  0.00000000000E+00  0.00000000000E+00  0.45593999997E+02  0.45594000000E+02  0.51100000000E-03 0. -1.
         11   -1    0    0    0    0 -0.00000000000E+00 -0.00000000000E+00 -0.45593999997E+02  0.45594000000E+02  0.51100000000E-03 0.  1.
    9900012    2    1    2    0    0  0.80217580620E+00 -0.76905904458E+00 -0.39768794568E+00  0.90007706164E+02  0.89999967085E+02 0.  0.
        -12    1    1    2    0    0 -0.80217580620E+00  0.76905904458E+00  0.39768794568E+00  0.11802938364E+01  0.00000000000E+00 0.  1.
         11    1    3    3    0    0 -0.10395348104E+02  0.13589125080E-01 -0.21508527466E+01  0.10615536475E+02  0.51100000000E-03 0. -1.
        -11    1    3    3    0    0  0.28524890107E+02 -0.31290759857E+02 -0.77452685334E+01  0.43043817128E+02  0.51100000000E-03 0.  1.
         12    1    3    3    0    0 -0.17327366197E+02  0.30508111687E+02  0.94984333343E+01  0.36348352560E+02  0.00000000000E+00 0. -1.
</event>
<event>
 7    1  0.2349719E-015  0.9000731E+02  0.7816164E-02  0.1186340E+00
        -11   -1    0    0    0    0  0.00000000000E+00  0.00000000000E+00  0.45593999997E+02  0.45594000000E+02  0.51100000000E-03 0. -1.
         11   -1    0    0    0    0 -0.00000000000E+00 -0.00000000000E+00 -0.45593999997E+02  0.45594000000E+02  0.51100000000E-03 0.  1.
    9900012    2    1    2    0    0  0.35035809322E+00  0.11067029225E+01 -0.21562530849E+00  0.90007306803E+02  0.89999562452E+02 0.  0.
        -12    1    1    2    0    0 -0.35035809322E+00 -0.11067029225E+01  0.21562530849E+00  0.11806931971E+01  0.00000000000E+00 0.  1.
         11    1    3    3    0    0  0.43797768004E+01 -0.86613066718E+01 -0.17203713679E+01  0.98569952820E+01  0.51100000000E-03 0. -1.
        -11    1    3    3    0    0 -0.53240190960E+01 -0.30256712330E+02 -0.18000868045E+02  0.35606812143E+02  0.51100000000E-03 0.  1.
         12    1    3    3    0    0  0.12946003888E+01  0.40024721924E+02  0.19505614105E+02  0.44543499378E+02  0.00000000000E+00 0. -1.
</event>
<event>
 7    1  0.2349719E-015  0.9000778E+02  0.7816164E-02  0.1186339E+00
        -11   -1    0    0    0    0  0.00000000000E+00  0.00000000000E+00  0.45593999997E+02  0.45594000000E+02  0.51100000000E-03 0. -1.
         11   -1    0    0    0    0 -0.00000000000E+00 -0.00000000000E+00 -0.45593999997E+02  0.45594000000E+02  0.51100000000E-03 0.  1.
    9900012    2    1    2    0    0  0.69928600555E-01  0.16452212731E+00  0.11665989777E+01  0.90007783615E+02  0.90000045559E+02 0.  0.
        -12    1    1    2    0    0 -0.69928600555E-01 -0.16452212731E+00 -0.11665989777E+01  0.11802163846E+01  0.00000000000E+00 0.  1.
         11    1    3    3    0    0 -0.53184673691E+01 -0.25896094547E+00 -0.73026265343E+01  0.90377823877E+01  0.51100000000E-03 0. -1.
        -11    1    3    3    0    0 -0.15192905678E+02 -0.10681752185E+01 -0.32057872897E+02  0.35491866620E+02  0.51100000000E-03 0.  1.
         12    1    3    3    0    0  0.20581301648E+02  0.14916582913E+01  0.40527098409E+02  0.45478134608E+02  0.00000000000E+00 0. -1.
</event>
<event>
 7    1  0.2349719E-015  0.9000772E+02  0.7816164E-02  0.1186339E+00
        -11   -1    0    0    0    0  0.00000000000E+00  0.00000000000E+00  0.45593999997E+02  0.45594000000E+02  0.51100000000E-03 0. -1.
         11   -1    0    0    0    0 -0.00000000000E+00 -0.00000000000E+00 -0.45593999997E+02  0.45594000000E+02  0.51100000000E-03 0.  1.
    9900012    2    1    2    0    0 -0.62195163197E+00 -0.69431571180E+00  0.72398421243E+00  0.90007724066E+02  0.89999985224E+02 0.  0.
        -12    1    1    2    0    0  0.62195163197E+00  0.69431571180E+00 -0.72398421243E+00  0.11802759338E+01  0.00000000000E+00 0.  1.
         11    1    3    3    0    0 -0.90317971061E+01  0.35304965654E+02  0.14211542306E+02  0.39114982983E+02  0.51100000000E-03 0. -1.
        -11    1    3    3    0    0  0.10314591072E+02  0.21310040703E+01 -0.55242303255E+01  0.11893237081E+02  0.51100000000E-03 0.  1.
        -12    1    3    3    0    0 -0.19047455976E+01 -0.38130285436E+02 -0.79633277677E+01  0.38999504002E+02  0.00000000000E+00 0.  1.
</event>
<event>
 7    1  0.2349719E-015  0.9000772E+02  0.7816164E-02  0.1186339E+00
        -11   -1    0    0    0    0  0.00000000000E+00  0.00000000000E+00  0.45593999997E+02  0.45594000000E+02  0.51100000000E-03 0.  1.
         11   -1    0    0    0    0 -0.00000000000E+00 -0.00000000000E+00 -0.45593999997E+02  0.45594000000E+02  0.51100000000E-03 0. -1.
    9900012    2    1    2    0    0  0.32759744940E+00 -0.10922210230E+01  0.30462282229E+00  0.90007719561E+02  0.89999980659E+02 0.  0.
        -12    1    1    2    0    0 -0.32759744940E+00  0.10922210230E+01 -0.30462282229E+00  0.11802804394E+01  0.00000000000E+00 0.  1.
         11    1    3    3    0    0  0.82567442732E+01  0.15527486868E+02 -0.52078364370E+01  0.18341162315E+02  0.51100000000E-03 0. -1.
        -11    1    3    3    0    0 -0.10092708421E+02  0.13655563505E+02 -0.23954970327E+02  0.29362863987E+02  0.51100000000E-03 0.  1.
        -12    1    3    3    0    0  0.21635615968E+01 -0.30275271397E+02  0.29467429586E+02  0.42303693259E+02  0.00000000000E+00 0.  1.
</event>
<event>
 7    1  0.2349719E-015  0.9000781E+02  0.7816164E-02  0.1186339E+00
        -11   -1    0    0    0    0  0.00000000000E+00  0.00000000000E+00  0.45593999997E+02  0.45594000000E+02  0.51100000000E-03 0.  1.
         11   -1    0    0    0    0 -0.00000000000E+00 -0.00000000000E+00 -0.45593999997E+02  0.45594000000E+02  0.51100000000E-03 0. -1.
    9900012    2    1    2    0    0  0.46715773765E+00  0.10775649946E+01  0.11599580300E+00  0.90007814550E+02  0.90000076902E+02 0.  0.
        -12    1    1    2    0    0 -0.46715773765E+00 -0.10775649946E+01 -0.11599580300E+00  0.11801854497E+01  0.00000000000E+00 0.  1.
         11    1    3    3    0    0  0.30331645861E+02  0.25066322786E+02 -0.40351601910E+01  0.39555174082E+02  0.51100000000E-03 0. -1.
        -11    1    3    3    0    0 -0.28397007142E+01  0.81822453463E+00 -0.10532250059E+02  0.10938998268E+02  0.51100000000E-03 0.  1.
        -12    1    3    3    0    0 -0.27024787409E+02 -0.24806982326E+02  0.14683406053E+02  0.39513642200E+02  0.00000000000E+00 0.  1.
</event>
<event>
 7    1  0.2349719E-015  0.9000772E+02  0.7816164E-02  0.1186339E+00
        -11   -1    0    0    0    0  0.00000000000E+00  0.00000000000E+00  0.45593999997E+02  0.45594000000E+02  0.51100000000E-03 0. -1.
         11   -1    0    0    0    0 -0.00000000000E+00 -0.00000000000E+00 -0.45593999997E+02  0.45594000000E+02  0.51100000000E-03 0.  1.
    9900012    2    1    2    0    0  0.11586383177E+01 -0.22465785844E+00 -0.11944625082E-01  0.90007721822E+02  0.89999982950E+02 0.  0.
        -12    1    1    2    0    0 -0.11586383177E+01  0.22465785844E+00  0.11944625082E-01  0.11802781785E+01  0.00000000000E+00 0.  1.
         11    1    3    3    0    0 -0.20677445726E+01  0.48314387049E+01 -0.86085901921E+01  0.10085940359E+02  0.51100000000E-03 0. -1.
        -11    1    3    3    0    0  0.15951336850E+02 -0.10900767847E+02 -0.31776627155E+02  0.37189056462E+02  0.51100000000E-03 0.  1.
         12    1    3    3    0    0 -0.12724953959E+02  0.58446712837E+01  0.40373272722E+02  0.42732725000E+02  0.00000000000E+00 0. -1.
</event>
<event>
 7    1  0.2349719E-015  0.9000774E+02  0.7816164E-02  0.1186339E+00
        -11   -1    0    0    0    0  0.00000000000E+00  0.00000000000E+00  0.45593999997E+02  0.45594000000E+02  0.51100000000E-03 0. -1.
         11   -1    0    0    0    0 -0.00000000000E+00 -0.00000000000E+00 -0.45593999997E+02  0.45594000000E+02  0.51100000000E-03 0.  1.
    9900012    2    1    2    0    0 -0.87590671671E+00  0.74631225225E+00 -0.26233561455E+00  0.90007739635E+02  0.90000000998E+02 0.  0.
        -12    1    1    2    0    0  0.87590671671E+00 -0.74631225225E+00  0.26233561455E+00  0.11802603649E+01  0.00000000000E+00 0.  1.
         11    1    3    3    0    0 -0.20502288970E+02 -0.24025330178E+02  0.11252296144E+02  0.33528711755E+02  0.51100000000E-03 0. -1.
        -11    1    3    3    0    0 -0.50144780854E+01 -0.99641791600E+01 -0.80381313825E+01  0.13749233185E+02  0.51100000000E-03 0.  1.
        -12    1    3    3    0    0  0.24640860339E+02  0.34735821590E+02 -0.34765003756E+01  0.42729794695E+02  0.00000000000E+00 0.  1.
</event>
<event>
 7    1  0.2349719E-015  0.9000753E+02  0.7816164E-02  0.1186339E+00
        -11   -1    0    0    0    0  0.00000000000E+00  0.00000000000E+00  0.45593999997E+02  0.45594000000E+02  0.51100000000E-03 0.  1.
         11   -1    0    0    0    0 -0.00000000000E+00 -0.00000000000E+00 -0.45593999997E+02  0.45594000000E+02  0.51100000000E-03 0. -1.
    9900012    2    1    2    0    0  0.10091548596E+01  0.57591737910E+00 -0.20838870561E+00  0.90007533901E+02  0.89999792548E+02 0.  0.
        -12    1    1    2    0    0 -0.10091548596E+01 -0.57591737910E+00  0.20838870561E+00  0.11804660990E+01  0.00000000000E+00 0.  1.
         11    1    3    3    0    0 -0.21825533772E+01 -0.63049868606E+01 -0.37247748666E+02  0.37840602261E+02  0.51100000000E-03 0. -1.
        -11    1    3    3    0    0 -0.27042433656E+01 -0.94759381090E+01 -0.14236913955E+01  0.99565673140E+01  0.51100000000E-03 0.  1.
        -12    1    3    3    0    0  0.58959516024E+01  0.16356842349E+02  0.38463051356E+02  0.42210364326E+02  0.00000000000E+00 0.  1.
</event>
<event>
 7    1  0.2349719E-015  0.9000770E+02  0.7816164E-02  0.1186339E+00
        -11   -1    0    0    0    0  0.00000000000E+00  0.00000000000E+00  0.45593999997E+02  0.45594000000E+02  0.51100000000E-03 0. -1.
         11   -1    0    0    0    0 -0.00000000000E+00 -0.00000000000E+00 -0.45593999997E+02  0.45594000000E+02  0.51100000000E-03 0.  1.
    9900012    2    1    2    0    0  0.63791082182E+00 -0.36733002855E+00  0.92263261991E+00  0.90007698124E+02  0.89999958940E+02 0.  0.
        -12    1    1    2    0    0 -0.63791082182E+00  0.36733002855E+00 -0.92263261991E+00  0.11803018757E+01  0.00000000000E+00 0.  1.
         11    1    3    3    0    0 -0.80854291582E+00  0.66275362911E+01 -0.60921681386E+01  0.90383898912E+01  0.51100000000E-03 0. -1.
        -11    1    3    3    0    0  0.20464729305E+02  0.31054418476E+02 -0.28588665090E+01  0.37300873588E+02  0.51100000000E-03 0.  1.
         12    1    3    3    0    0 -0.19018275568E+02 -0.38049284796E+02  0.98736672675E+01  0.43668434645E+02  0.00000000000E+00 0. -1.
</event>
<event>
 7    1  0.2349719E-015  0.9000782E+02  0.7816164E-02  0.1186339E+00
        -11   -1    0    0    0    0  0.00000000000E+00  0.00000000000E+00  0.45593999997E+02  0.45594000000E+02  0.51100000000E-03 0.  1.
         11   -1    0    0    0    0 -0.00000000000E+00 -0.00000000000E+00 -0.45593999997E+02  0.45594000000E+02  0.51100000000E-03 0. -1.
    9900012    2    1    2    0    0  0.91388982863E+00 -0.48484848982E+00 -0.56794603603E+00  0.90007815533E+02  0.90000077898E+02 0.  0.
        -12    1    1    2    0    0 -0.91388982863E+00  0.48484848982E+00  0.56794603603E+00  0.11801844673E+01  0.00000000000E+00 0.  1.
         11    1    3    3    0    0  0.57176879075E+01 -0.57377834518E+01  0.50341219239E+01  0.95371116043E+01  0.51100000000E-03 0. -1.
        -11    1    3    3    0    0  0.12856570299E+02 -0.21586985272E+02  0.25468117436E+02  0.35775890471E+02  0.51100000000E-03 0.  1.
         12    1    3    3    0    0 -0.17660368378E+02  0.26839920234E+02 -0.31070185396E+02  0.44694813457E+02  0.00000000000E+00 0. -1.
</event>
<event>
 7    1  0.2349719E-015  0.9000777E+02  0.7816164E-02  0.1186339E+00
        -11   -1    0    0    0    0  0.00000000000E+00  0.00000000000E+00  0.45593999997E+02  0.45594000000E+02  0.51100000000E-03 0.  1.
         11   -1    0    0    0    0 -0.00000000000E+00 -0.00000000000E+00 -0.45593999997E+02  0.45594000000E+02  0.51100000000E-03 0. -1.
    9900012    2    1    2    0    0  0.74158554436E-01  0.31311879567E+00 -0.11355146963E+01  0.90007772693E+02  0.90000034492E+02 0.  0.
        -12    1    1    2    0    0 -0.74158554436E-01 -0.31311879567E+00  0.11355146963E+01  0.11802273073E+01  0.00000000000E+00 0.  1.
         11    1    3    3    0    0 -0.51009835738E+01  0.64446142618E+01 -0.11932061501E+02  0.14488863942E+02  0.51100000000E-03 0. -1.
        -11    1    3    3    0    0 -0.34241919256E+02  0.21828547510E+01  0.26056224431E+01  0.34410218799E+02  0.51100000000E-03 0.  1.
         12    1    3    3    0    0  0.39417061384E+02 -0.83143502171E+01  0.81909243617E+01  0.41108689952E+02  0.00000000000E+00 0. -1.
</event>
<event>
 7    1  0.2349719E-015  0.9000772E+02  0.7816164E-02  0.1186339E+00
        -11   -1    0    0    0    0  0.00000000000E+00  0.00000000000E+00  0.45593999997E+02  0.45594000000E+02  0.51100000000E-03 0. -1.
         11   -1    0    0    0    0 -0.00000000000E+00 -0.00000000000E+00 -0.45593999997E+02  0.45594000000E+02  0.51100000000E-03 0.  1.
    9900012    2    1    2    0    0 -0.52439389224E-01 -0.32138980723E+00  0.11344652188E+01  0.90007723494E+02  0.89999984644E+02 0.  0.
        -12    1    1    2    0    0  0.52439389224E-01  0.32138980723E+00 -0.11344652188E+01  0.11802765059E+01  0.00000000000E+00 0.  1.
         11    1    3    3    0    0  0.27662785054E+02 -0.25925907930E+02  0.52283672288E+01  0.38271637058E+02  0.51100000000E-03 0. -1.
        -11    1    3    3    0    0  0.74789343770E+01  0.21080989008E+01  0.38631403720E+01  0.86776952116E+01  0.51100000000E-03 0.  1.
        -12    1    3    3    0    0 -0.35194158821E+02  0.23496419222E+02 -0.79570423820E+01  0.43058391224E+02  0.00000000000E+00 0.  1.
</event>
<event>
 7    1  0.2349719E-015  0.9000782E+02  0.7816164E-02  0.1186339E+00
        -11   -1    0    0    0    0  0.00000000000E+00  0.00000000000E+00  0.45593999997E+02  0.45594000000E+02  0.51100000000E-03 0. -1.
         11   -1    0    0    0    0 -0.00000000000E+00 -0.00000000000E+00 -0.45593999997E+02  0.45594000000E+02  0.51100000000E-03 0.  1.
    9900012    2    1    2    0    0 -0.16122611984E+00 -0.33463230806E+00  0.11201986592E+01  0.90007823031E+02  0.90000085494E+02 0.  0.
        -12    1    1    2    0    0  0.16122611984E+00  0.33463230806E+00 -0.11201986592E+01  0.11801769695E+01  0.00000000000E+00 0.  1.
         11    1    3    3    0    0 -0.30272407265E+02 -0.18476625798E+02  0.17724581115E+02  0.39648015315E+02  0.51100000000E-03 0. -1.
        -11    1    3    3    0    0 -0.23586167137E+01 -0.64013586131E+01 -0.28945604101E+01  0.74107317536E+01  0.51100000000E-03 0.  1.
        -12    1    3    3    0    0  0.32469797859E+02  0.24543352103E+02 -0.13709822045E+02  0.42949075962E+02  0.00000000000E+00 0.  1.
</event>
<event>
 7    1  0.2349719E-015  0.9000756E+02  0.7816164E-02  0.1186339E+00
        -11   -1    0    0    0    0  0.00000000000E+00  0.00000000000E+00  0.45593999997E+02  0.45594000000E+02  0.51100000000E-03 0.  1.
         11   -1    0    0    0    0 -0.00000000000E+00 -0.00000000000E+00 -0.45593999997E+02  0.45594000000E+02  0.51100000000E-03 0. -1.
    9900012    2    1    2    0    0  0.43147931854E+00 -0.10196459813E+01 -0.40936386277E+00  0.90007563173E+02  0.89999822207E+02 0.  0.
        -12    1    1    2    0    0 -0.43147931854E+00  0.10196459813E+01  0.40936386277E+00  0.11804368266E+01  0.00000000000E+00 0.  1.
         11    1    3    3    0    0  0.87206346463E+01  0.51416661834E+01  0.16205124346E+00  0.10124843734E+02  0.51100000000E-03 0. -1.
        -11    1    3    3    0    0  0.64082179880E+01  0.62289297426E+01  0.36793290304E+02  0.37863056336E+02  0.51100000000E-03 0.  1.
         12    1    3    3    0    0 -0.14697373316E+02 -0.12390241907E+02 -0.37364705410E+02  0.42019663103E+02  0.00000000000E+00 0. -1.
</event>
<event>
 7    1  0.2349719E-015  0.9000723E+02  0.7816164E-02  0.1186340E+00
        -11   -1    0    0    0    0  0.00000000000E+00  0.00000000000E+00  0.45593999997E+02  0.45594000000E+02  0.51100000000E-03 0. -1.
         11   -1    0    0    0    0 -0.00000000000E+00 -0.00000000000E+00 -0.45593999997E+02  0.45594000000E+02  0.51100000000E-03 0.  1.
    9900012    2    1    2    0    0  0.87086096206E-01 -0.10930185679E+01 -0.43811379017E+00  0.90007230221E+02  0.89999484858E+02 0.  0.
        -12    1    1    2    0    0 -0.87086096206E-01  0.10930185679E+01  0.43811379017E+00  0.11807697790E+01  0.00000000000E+00 0.  1.
         11    1    3    3    0    0 -0.52514475936E+01 -0.96267589887E+01 -0.54660504984E+01  0.12252750661E+02  0.51100000000E-03 0. -1.
        -11    1    3    3    0    0  0.31459577960E+02 -0.15989817163E+02 -0.13046961722E+02  0.37624493469E+02  0.51100000000E-03 0.  1.
         12    1    3    3    0    0 -0.26121044271E+02  0.24523557584E+02  0.18074898430E+02  0.40129986091E+02  0.00000000000E+00 0. -1.
</event>
<event>
 7    1  0.2349719E-015  0.9000809E+02  0.7816164E-02  0.1186338E+00
        -11   -1    0    0    0    0  0.00000000000E+00  0.00000000000E+00  0.45593999997E+02  0.45594000000E+02  0.51100000000E-03 0. -1.
         11   -1    0    0    0    0 -0.00000000000E+00 -0.00000000000E+00 -0.45593999997E+02  0.45594000000E+02  0.51100000000E-03 0.  1.
    9900012    2    1    2    0    0 -0.64962116601E+00 -0.95025300388E+00 -0.25922589803E+00  0.90008090471E+02  0.90000356464E+02 0.  0.
        -12    1    1    2    0    0  0.64962116601E+00  0.95025300388E+00  0.25922589803E+00  0.11799095291E+01  0.00000000000E+00 0.  1.
         11    1    3    3    0    0 -0.59643120664E+01 -0.78528850702E+01 -0.32257902602E+01  0.10375285317E+02  0.51100000000E-03 0. -1.
        -11    1    3    3    0    0  0.65726593034E-01 -0.22010612868E+02 -0.28872485107E+02  0.36305533949E+02  0.51100000000E-03 0.  1.
         12    1    3    3    0    0  0.52489643074E+01  0.28913244934E+02  0.31839049469E+02  0.43327271205E+02  0.00000000000E+00 0. -1.
</event>
<event>
 7    1  0.2349719E-015  0.9000774E+02  0.7816164E-02  0.1186339E+00
        -11   -1    0    0    0    0  0.00000000000E+00  0.00000000000E+00  0.45593999997E+02  0.45594000000E+02  0.51100000000E-03 0.  1.
         11   -1    0    0    0    0 -0.00000000000E+00 -0.00000000000E+00 -0.45593999997E+02  0.45594000000E+02  0.51100000000E-03 0. -1.
    9900012    2    1    2    0    0  0.39102190048E+00  0.37108538837E+00 -0.10499628103E+01  0.90007735455E+02  0.89999996763E+02 0.  0.
        -12    1    1    2    0    0 -0.39102190048E+00 -0.37108538837E+00  0.10499628103E+01  0.11802645446E+01  0.00000000000E+00 0.  1.
         11    1    3    3    0    0 -0.30399875139E+02 -0.17045235198E+02 -0.26700262461E+02  0.43904401455E+02  0.51100000000E-03 0. -1.
        -11    1    3    3    0    0  0.24003923853E+01  0.38932836555E+01  0.99592801285E+01  0.10959324895E+02  0.51100000000E-03 0.  1.
        -12    1    3    3    0    0  0.28390504654E+02  0.13523036931E+02  0.15691019522E+02  0.35144009105E+02  0.00000000000E+00 0.  1.
</event>
<event>
 7    1  0.2349719E-015  0.9000772E+02  0.7816164E-02  0.1186339E+00
        -11   -1    0    0    0    0  0.00000000000E+00  0.00000000000E+00  0.45593999997E+02  0.45594000000E+02  0.51100000000E-03 0.  1.
         11   -1    0    0    0    0 -0.00000000000E+00 -0.00000000000E+00 -0.45593999997E+02  0.45594000000E+02  0.51100000000E-03 0. -1.
    9900012    2    1    2    0    0  0.33370815482E+00  0.98231670977E+00 -0.56281495124E+00  0.90007717017E+02  0.89999978082E+02 0.  0.
        -12    1    1    2    0    0 -0.33370815482E+00 -0.98231670977E+00  0.56281495124E+00  0.11802829831E+01  0.00000000000E+00 0.  1.
         11    1    3    3    0    0  0.35746404505E+02 -0.99153740953E+01 -0.17576889773E+02  0.41049569216E+02  0.51100000000E-03 0. -1.
        -11    1    3    3    0    0 -0.78994653174E+01 -0.96037120414E+00 -0.69717212865E+01  0.10579639082E+02  0.51100000000E-03 0.  1.
        -12    1    3    3    0    0 -0.27513231033E+02  0.11858062009E+02  0.23985796109E+02  0.38378508718E+02  0.00000000000E+00 0.  1.
</event>
<event>
 7    1  0.2569050E-015  0.9000771E+02  0.7816164E-02  0.1186339E+00
        -11   -1    0    0    0    0  0.00000000000E+00  0.00000000000E+00  0.45593999997E+02  0.45594000000E+02  0.51100000000E-03 0. -1.
         11   -1    0    0    0    0 -0.00000000000E+00 -0.00000000000E+00 -0.45593999997E+02  0.45594000000E+02  0.51100000000E-03 0.  1.
    9900012    2    1    2    0    0  0.10369860242E+01  0.53856223211E+00 -0.16639238710E+00  0.90007713713E+02  0.89999974734E+02 0.  0.
        -12    1    1    2    0    0 -0.10369860242E+01 -0.53856223211E+00  0.16639238710E+00  0.11802862868E+01  0.00000000000E+00 0.  1.
         11    1    3    3    0    0  0.21319857826E+02  0.26281392822E+02  0.25025163576E+02  0.42089271301E+02  0.51100000000E-03 0. -1.
        -11    1    3    3    0    0 -0.96991738501E+01  0.11830164583E+01 -0.33667828818E+00  0.97768529623E+01  0.51100000000E-03 0.  1.
        -12    1    3    3    0    0 -0.10583697952E+02 -0.26925847048E+02 -0.24854877675E+02  0.38141589450E+02  0.00000000000E+00 0.  1.
</event>
<event>
 7    1  0.2349719E-015  0.9000776E+02  0.7816164E-02  0.1186339E+00
        -11   -1    0    0    0    0  0.00000000000E+00  0.00000000000E+00  0.45593999997E+02  0.45594000000E+02  0.51100000000E-03 0. -1.
         11   -1    0    0    0    0 -0.00000000000E+00 -0.00000000000E+00 -0.45593999997E+02  0.45594000000E+02  0.51100000000E-03 0.  1.
    9900012    2    1    2    0    0  0.68736747250E+00 -0.72547687213E+00  0.62783941726E+00  0.90007757200E+02  0.90000018795E+02 0.  0.
        -12    1    1    2    0    0 -0.68736747250E+00  0.72547687213E+00 -0.62783941726E+00  0.11802428005E+01  0.00000000000E+00 0.  1.
         11    1    3    3    0    0 -0.17530264556E+02  0.13302538663E+02  0.23086984534E+02  0.31894773324E+02  0.51100000000E-03 0. -1.
        -11    1    3    3    0    0 -0.27877413503E+01  0.44032039680E+01  0.12390986640E+02  0.13442330795E+02  0.51100000000E-03 0.  1.
        -12    1    3    3    0    0  0.21005373379E+02 -0.18431219503E+02 -0.34850131757E+02  0.44670653080E+02  0.00000000000E+00 0.  1.
</event>
<event>
 7    1  0.2349719E-015  0.9000775E+02  0.7816164E-02  0.1186339E+00
        -11   -1    0    0    0    0  0.00000000000E+00  0.00000000000E+00  0.45593999997E+02  0.45594000000E+02  0.51100000000E-03 0. -1.
         11   -1    0    0    0    0 -0.00000000000E+00 -0.00000000000E+00 -0.45593999997E+02  0.45594000000E+02  0.51100000000E-03 0.  1.
    9900012    2    1    2    0    0 -0.16282812805E+00 -0.10500868236E+01  0.51360893012E+00  0.90007750251E+02  0.90000011755E+02 0.  0.
        -12    1    1    2    0    0  0.16282812805E+00  0.10500868236E+01 -0.51360893012E+00  0.11802497488E+01  0.00000000000E+00 0.  1.
         11    1    3    3    0    0  0.36185651604E+01 -0.70499211358E+01  0.66630737156E+01  0.10353354695E+02  0.51100000000E-03 0. -1.
        -11    1    3    3    0    0 -0.63463199537E+01 -0.25209890116E+02  0.24582494870E+02  0.35778672292E+02  0.51100000000E-03 0.  1.
         12    1    3    3    0    0  0.25649266652E+01  0.31209724429E+02 -0.30731959656E+02  0.43875723265E+02  0.00000000000E+00 0. -1.
</event>
<event>
 7    1  0.2349719E-015  0.9000772E+02  0.7816164E-02  0.1186339E+00
        -11   -1    0    0    0    0  0.00000000000E+00  0.00000000000E+00  0.45593999997E+02  0.45594000000E+02  0.51100000000E-03 0. -1.
         11   -1    0    0    0    0 -0.00000000000E+00 -0.00000000000E+00 -0.45593999997E+02  0.45594000000E+02  0.51100000000E-03 0.  1.
    9900012    2    1    2    0    0 -0.51268431577E+00 -0.27812775849E+00  0.10260891060E+01  0.90007720749E+02  0.89999981863E+02 0.  0.
        -12    1    1    2    0    0  0.51268431577E+00  0.27812775849E+00 -0.10260891060E+01  0.11802792514E+01  0.00000000000E+00 0.  1.
         11    1    3    3    0    0  0.95136414719E+01 -0.25771096380E+01 -0.77863981431E+00  0.98872214683E+01  0.51100000000E-03 0. -1.
        -11    1    3    3    0    0  0.24724148332E+02  0.22433290995E+02 -0.14980902790E+02  0.36591850243E+02  0.51100000000E-03 0.  1.
         12    1    3    3    0    0 -0.34750474119E+02 -0.20134309115E+02  0.16785631710E+02  0.43528649037E+02  0.00000000000E+00 0. -1.
</event>
<event>
 7    1  0.2349719E-015  0.9000723E+02  0.7816164E-02  0.1186340E+00
        -11   -1    0    0    0    0  0.00000000000E+00  0.00000000000E+00  0.45593999997E+02  0.45594000000E+02  0.51100000000E-03 0. -1.
         11   -1    0    0    0    0 -0.00000000000E+00 -0.00000000000E+00 -0.45593999997E+02  0.45594000000E+02  0.51100000000E-03 0.  1.
    9900012    2    1    2    0    0 -0.54688768128E+00  0.94451528038E+00 -0.45059101615E+00  0.90007225883E+02  0.89999480463E+02 0.  0.
        -12    1    1    2    0    0  0.54688768128E+00 -0.94451528038E+00  0.45059101615E+00  0.11807741167E+01  0.00000000000E+00 0.  1.
         11    1    3    3    0    0 -0.28265287391E+02  0.21801568875E+02  0.15966924095E+02  0.39104699744E+02  0.51100000000E-03 0. -1.
        -11    1    3    3    0    0  0.49030131241E+01  0.87245606725E+01  0.21298841352E+00  0.10010137909E+02  0.51100000000E-03 0.  1.
        -12    1    3    3    0    0  0.22815386586E+02 -0.29581614267E+02 -0.16630503525E+02  0.40892388231E+02  0.00000000000E+00 0.  1.
</event>
<event>
 7    1  0.2349719E-015  0.9000777E+02  0.7816164E-02  0.1186339E+00
        -11   -1    0    0    0    0  0.00000000000E+00  0.00000000000E+00  0.45593999997E+02  0.45594000000E+02  0.51100000000E-03 0. -1.
         11   -1    0    0    0    0 -0.00000000000E+00 -0.00000000000E+00 -0.45593999997E+02  0.45594000000E+02  0.51100000000E-03 0.  1.
    9900012    2    1    2    0    0 -0.35721526714E+00  0.92362173253E+00 -0.64208472667E+00  0.90007765850E+02  0.90000027560E+02 0.  0.
        -12    1    1    2    0    0  0.35721526714E+00 -0.92362173253E+00  0.64208472667E+00  0.11802341497E+01  0.00000000000E+00 0.  1.
         11    1    3    3    0    0  0.35608124149E+02  0.14319594398E+02 -0.11426775391E+02  0.40044481333E+02  0.51100000000E-03 0. -1.
        -11    1    3    3    0    0  0.20077408514E+01 -0.64876471039E+01 -0.48240761762E+01  0.83302040483E+01  0.51100000000E-03 0.  1.
        -12    1    3    3    0    0 -0.37973080267E+02 -0.69083255617E+01  0.15608766840E+02  0.41633080469E+02  0.00000000000E+00 0.  1.
</event>
<event>
 7    1  0.2349719E-015  0.9000772E+02  0.7816164E-02  0.1186339E+00
        -11   -1    0    0    0    0  0.00000000000E+00  0.00000000000E+00  0.45593999997E+02  0.45594000000E+02  0.51100000000E-03 0.  1.
         11   -1    0    0    0    0 -0.00000000000E+00 -0.00000000000E+00 -0.45593999997E+02  0.45594000000E+02  0.51100000000E-03 0. -1.
    9900012    2    1    2    0    0 -0.10197807550E+00 -0.10390240268E+01  0.55053296319E+00  0.90007721643E+02  0.89999982769E+02 0.  0.
        -12    1    1    2    0    0  0.10197807550E+00  0.10390240268E+01 -0.55053296319E+00  0.11802783569E+01  0.00000000000E+00 0.  1.
         11    1    3    3    0    0 -0.30613610768E+02  0.18983813417E+02  0.11258704260E+02  0.37740386299E+02  0.51100000000E-03 0. -1.
        -11    1    3    3    0    0 -0.38100620320E+01  0.66096093087E+01 -0.26994270871E+01  0.80926148284E+01  0.51100000000E-03 0.  1.
        -12    1    3    3    0    0  0.34321694725E+02 -0.26632446753E+02 -0.80087442096E+01  0.44174720516E+02  0.00000000000E+00 0.  1.
</event>
<event>
 7    1  0.2349719E-015  0.9000776E+02  0.7816164E-02  0.1186339E+00
        -11   -1    0    0    0    0  0.00000000000E+00  0.00000000000E+00  0.45593999997E+02  0.45594000000E+02  0.51100000000E-03 0. -1.
         11   -1    0    0    0    0 -0.00000000000E+00 -0.00000000000E+00 -0.45593999997E+02  0.45594000000E+02  0.51100000000E-03 0.  1.
    9900012    2    1    2    0    0  0.19570260504E+00  0.58733790999E+00  0.10048404278E+01  0.90007758662E+02  0.90000020277E+02 0.  0.
        -12    1    1    2    0    0 -0.19570260504E+00 -0.58733790999E+00 -0.10048404278E+01  0.11802413378E+01  0.00000000000E+00 0.  1.
         11    1    3    3    0    0 -0.79202075470E+01  0.51634086398E+01 -0.96118077511E+01  0.13482482148E+02  0.51100000000E-03 0. -1.
        -11    1    3    3    0    0 -0.50830249584E+00 -0.14186062316E+02 -0.30385634076E+02  0.33537881476E+02  0.51100000000E-03 0.  1.
         12    1    3    3    0    0  0.86242126479E+01  0.96099915859E+01  0.41002282255E+02  0.42987395038E+02  0.00000000000E+00 0. -1.
</event>
<event>
 7    1  0.2349719E-015  0.9000780E+02  0.7816164E-02  0.1186339E+00
        -11   -1    0    0    0    0  0.00000000000E+00  0.00000000000E+00  0.45593999997E+02  0.45594000000E+02  0.51100000000E-03 0.  1.
         11   -1    0    0    0    0 -0.00000000000E+00 -0.00000000000E+00 -0.45593999997E+02  0.45594000000E+02  0.51100000000E-03 0. -1.
    9900012    2    1    2    0    0  0.10130656380E+01  0.20116978845E+00  0.57105891800E+00  0.90007796815E+02  0.90000058933E+02 0.  0.
        -12    1    1    2    0    0 -0.10130656380E+01 -0.20116978845E+00 -0.57105891800E+00  0.11802031853E+01  0.00000000000E+00 0.  1.
         11    1    3    3    0    0  0.96635751762E+01 -0.22519849069E+02 -0.30141560118E+02  0.38846388942E+02  0.51100000000E-03 0. -1.
        -11    1    3    3    0    0  0.10462323812E+02  0.84247413432E+01  0.16188111765E+01  0.13529857211E+02  0.51100000000E-03 0.  1.
        -12    1    3    3    0    0 -0.19112833351E+02  0.14296277514E+02  0.29093807859E+02  0.37631550662E+02  0.00000000000E+00 0.  1.
</event>
<event>
 7    1  0.2349719E-015  0.9000774E+02  0.7816164E-02  0.1186339E+00
        -11   -1    0    0    0    0  0.00000000000E+00  0.00000000000E+00  0.45593999997E+02  0.45594000000E+02  0.51100000000E-03 0.  1.
         11   -1    0    0    0    0 -0.00000000000E+00 -0.00000000000E+00 -0.45593999997E+02  0.45594000000E+02  0.51100000000E-03 0. -1.
    9900012    2    1    2    0    0  0.75597635657E+00  0.83026133280E+00 -0.36356621808E+00  0.90007739636E+02  0.90000000999E+02 0.  0.
        -12    1    1    2    0    0 -0.75597635657E+00 -0.83026133280E+00  0.36356621808E+00  0.11802603642E+01  0.00000000000E+00 0.  1.
         11    1    3    3    0    0 -0.52141705392E+01  0.56223758752E+01 -0.62989072030E+01  0.99234528823E+01  0.51100000000E-03 0. -1.
        -11    1    3    3    0    0  0.37452478582E+02  0.13669537232E+02 -0.86241427440E+01  0.40791178438E+02  0.51100000000E-03 0.  1.
         12    1    3    3    0    0 -0.31482331686E+02 -0.18461651774E+02  0.14559483729E+02  0.39293108315E+02  0.00000000000E+00 0. -1.
</event>
<event>
 7    1  0.2349719E-015  0.9000771E+02  0.7816164E-02  0.1186339E+00
        -11   -1    0    0    0    0  0.00000000000E+00  0.00000000000E+00  0.45593999997E+02  0.45594000000E+02  0.51100000000E-03 0. -1.
         11   -1    0    0    0    0 -0.00000000000E+00 -0.00000000000E+00 -0.45593999997E+02  0.45594000000E+02  0.51100000000E-03 0.  1.
    9900012    2    1    2    0    0  0.96458153678E+00 -0.48753440002E+00  0.47432684668E+00  0.90007706270E+02  0.89999967192E+02 0.  0.
        -12    1    1    2    0    0 -0.96458153678E+00  0.48753440002E+00 -0.47432684668E+00  0.11802937303E+01  0.00000000000E+00 0.  1.
         11    1    3    3    0    0  0.40059025651E+01 -0.91959392932E+01 -0.97839359625E+00  0.10078184814E+02  0.51100000000E-03 0. -1.
        -11    1    3    3    0    0 -0.27985702917E+02 -0.12232248352E+02  0.25221260961E+02  0.39609840598E+02  0.51100000000E-03 0.  1.
         12    1    3    3    0    0  0.24944381888E+02  0.20940653245E+02 -0.23768540518E+02  0.40319680858E+02  0.00000000000E+00 0. -1.
</event>
<event>
 7    1  0.2349719E-015  0.9000780E+02  0.7816164E-02  0.1186339E+00
        -11   -1    0    0    0    0  0.00000000000E+00  0.00000000000E+00  0.45593999997E+02  0.45594000000E+02  0.51100000000E-03 0.  1.
         11   -1    0    0    0    0 -0.00000000000E+00 -0.00000000000E+00 -0.45593999997E+02  0.45594000000E+02  0.51100000000E-03 0. -1.
    9900012    2    1    2    0    0  0.59747588793E-01  0.65178662372E+00 -0.98208040066E+00  0.90007797691E+02  0.90000059820E+02 0.  0.
        -12    1    1    2    0    0 -0.59747588793E-01 -0.65178662372E+00  0.98208040066E+00  0.11802023092E+01  0.00000000000E+00 0.  1.
         11    1    3    3    0    0  0.23194519109E+02  0.52335841475E+01  0.27459488303E+02  0.36323540822E+02  0.51100000000E-03 0. -1.
        -11    1    3    3    0    0  0.47189832754E+01  0.77480606053E+01  0.33353872874E+01  0.96657154373E+01  0.51100000000E-03 0.  1.
        -12    1    3    3    0    0 -0.27853754796E+02 -0.12329858129E+02 -0.31776955991E+02  0.44018541431E+02  0.00000000000E+00 0.  1.
</event>
<event>
 7    1  0.2349719E-015  0.9000776E+02  0.7816164E-02  0.1186339E+00
        -11   -1    0    0    0    0  0.00000000000E+00  0.00000000000E+00  0.45593999997E+02  0.45594000000E+02  0.51100000000E-03 0. -1.
         11   -1    0    0    0    0 -0.00000000000E+00 -0.00000000000E+00 -0.45593999997E+02  0.45594000000E+02  0.51100000000E-03 0.  1.
    9900012    2    1    2    0    0  0.69985598057E+00 -0.92511120890E+00 -0.21754877370E+00  0.90007764171E+02  0.90000025858E+02 0.  0.
        -12    1    1    2    0    0 -0.69985598057E+00  0.92511120890E+00  0.21754877370E+00  0.11802358287E+01  0.00000000000E+00 0.  1.
         11    1    3    3    0    0  0.13504339872E+02  0.21657383570E+02  0.30051602163E+01  0.25699035909E+02  0.51100000000E-03 0. -1.
        -11    1    3    3    0    0 -0.20668732734E+02  0.73242695343E+01 -0.19516394884E+02  0.29355256881E+02  0.51100000000E-03 0.  1.
         12    1    3    3    0    0  0.78642488435E+01 -0.29906764313E+02  0.16293685894E+02  0.34953471381E+02  0.00000000000E+00 0. -1.
</event>
<event>
 7    1  0.2349719E-015  0.9000773E+02  0.7816164E-02  0.1186339E+00
        -11   -1    0    0    0    0  0.00000000000E+00  0.00000000000E+00  0.45593999997E+02  0.45594000000E+02  0.51100000000E-03 0.  1.
         11   -1    0    0    0    0 -0.00000000000E+00 -0.00000000000E+00 -0.45593999997E+02  0.45594000000E+02  0.51100000000E-03 0. -1.
    9900012    2    1    2    0    0 -0.86804883813E+00  0.78102244489E+00 -0.17184123031E+00  0.90007731279E+02  0.89999992532E+02 0.  0.
        -12    1    1    2    0    0  0.86804883813E+00 -0.78102244489E+00  0.17184123031E+00  0.11802687208E+01  0.00000000000E+00 0.  1.
         11    1    3    3    0    0 -0.81521718272E+01  0.12045593257E+01  0.44072195919E+01  0.93451834365E+01  0.51100000000E-03 0. -1.
        -11    1    3    3    0    0  0.34872001838E+02 -0.55712847334E+01  0.22330201516E+02  0.41781977284E+02  0.51100000000E-03 0.  1.
         12    1    3    3    0    0 -0.27587878849E+02  0.51477478526E+01 -0.26909262338E+02  0.38880570558E+02  0.00000000000E+00 0. -1.
</event>
<event>
 7    1  0.2349719E-015  0.9000779E+02  0.7816164E-02  0.1186339E+00
        -11   -1    0    0    0    0  0.00000000000E+00  0.00000000000E+00  0.45593999997E+02  0.45594000000E+02  0.51100000000E-03 0. -1.
         11   -1    0    0    0    0 -0.00000000000E+00 -0.00000000000E+00 -0.45593999997E+02  0.45594000000E+02  0.51100000000E-03 0.  1.
    9900012    2    1    2    0    0 -0.36529462033E+00  0.11175407811E+01  0.10278316856E+00  0.90007787334E+02  0.90000049327E+02 0.  0.
        -12    1    1    2    0    0  0.36529462033E+00 -0.11175407811E+01 -0.10278316856E+00  0.11802126659E+01  0.00000000000E+00 0.  1.
         11    1    3    3    0    0 -0.27727736629E+02 -0.21796550750E+01  0.28841513563E+02  0.40067582654E+02  0.51100000000E-03 0. -1.
        -11    1    3    3    0    0 -0.51192199157E+01  0.53154520213E+01 -0.15675156017E+01  0.75443719526E+01  0.51100000000E-03 0.  1.
        -12    1    3    3    0    0  0.32481661925E+02 -0.20182561652E+01 -0.27171214793E+02  0.42395832728E+02  0.00000000000E+00 0.  1.
</event>
<event>
 7    1  0.2637232E-015  0.9000709E+02  0.7816164E-02  0.1186340E+00
        -11   -1    0    0    0    0  0.00000000000E+00  0.00000000000E+00  0.45593999997E+02  0.45594000000E+02  0.51100000000E-03 0. -1.
         11   -1    0    0    0    0 -0.00000000000E+00 -0.00000000000E+00 -0.45593999997E+02  0.45594000000E+02  0.51100000000E-03 0.  1.
    9900012    2    1    2    0    0  0.72512391585E+00  0.11528449102E+00  0.92490537571E+00  0.90007091383E+02  0.89999344187E+02 0.  0.
        -12    1    1    2    0    0 -0.72512391585E+00 -0.11528449102E+00 -0.92490537571E+00  0.11809086168E+01  0.00000000000E+00 0.  1.
         11    1    3    3    0    0  0.28375328512E+02 -0.25875288252E+02 -0.20969993683E+01  0.38458902960E+02  0.51100000000E-03 0. -1.
        -11    1    3    3    0    0  0.22322141455E+01 -0.74356606483E+00 -0.93069369925E+01  0.95997263986E+01  0.51100000000E-03 0.  1.
        -12    1    3    3    0    0 -0.29882418742E+02  0.26734138807E+02  0.12328841737E+02  0.41948462024E+02  0.00000000000E+00 0.  1.
</event>
<event>
 7    1  0.2349719E-015  0.9000775E+02  0.7816164E-02  0.1186339E+00
        -11   -1    0    0    0    0  0.00000000000E+00  0.00000000000E+00  0.45593999997E+02  0.45594000000E+02  0.51100000000E-03 0.  1.
         11   -1    0    0    0    0 -0.00000000000E+00 -0.00000000000E+00 -0.45593999997E+02  0.45594000000E+02  0.51100000000E-03 0. -1.
    9900012    2    1    2    0    0 -0.90588694992E+00 -0.41834986733E+00 -0.63035514437E+00  0.90007747745E+02  0.90000009215E+02 0.  0.
        -12    1    1    2    0    0  0.90588694992E+00  0.41834986733E+00  0.63035514437E+00  0.11802522551E+01  0.00000000000E+00 0.  1.
         11    1    3    3    0    0 -0.15971398775E+02 -0.14628643054E+02  0.35788488176E+02  0.41831790096E+02  0.51100000000E-03 0. -1.
        -11    1    3    3    0    0  0.10585643499E+01 -0.49320697900E+01 -0.41560169403E+00  0.50614815939E+01  0.51100000000E-03 0.  1.
        -12    1    3    3    0    0  0.14006947476E+02  0.19142362977E+02 -0.36003241626E+02  0.43114476055E+02  0.00000000000E+00 0.  1.
</event>
<event>
 7    1  0.2349719E-015  0.9000771E+02  0.7816164E-02  0.1186339E+00
        -11   -1    0    0    0    0  0.00000000000E+00  0.00000000000E+00  0.45593999997E+02  0.45594000000E+02  0.51100000000E-03 0.  1.
         11   -1    0    0    0    0 -0.00000000000E+00 -0.00000000000E+00 -0.45593999997E+02  0.45594000000E+02  0.51100000000E-03 0. -1.
    9900012    2    1    2    0    0 -0.63504141709E-01 -0.91037591321E-01 -0.11750548982E+01  0.90007714173E+02  0.89999975200E+02 0.  0.
        -12    1    1    2    0    0  0.63504141709E-01  0.91037591321E-01  0.11750548982E+01  0.11802858267E+01  0.00000000000E+00 0.  1.
         11    1    3    3    0    0  0.21079968421E+01 -0.53225562384E+01  0.72827752057E+01  0.92634804774E+01  0.51100000000E-03 0. -1.
        -11    1    3    3    0    0  0.15855611872E+02 -0.88126226343E+01  0.30553346798E+02  0.35532657462E+02  0.51100000000E-03 0.  1.
         12    1    3    3    0    0 -0.18027112856E+02  0.14044141281E+02 -0.39011176902E+02  0.45211576233E+02  0.00000000000E+00 0. -1.
</event>
<event>
 7    1  0.2349719E-015  0.9000773E+02  0.7816164E-02  0.1186339E+00
        -11   -1    0    0    0    0  0.00000000000E+00  0.00000000000E+00  0.45593999997E+02  0.45594000000E+02  0.51100000000E-03 0.  1.
         11   -1    0    0    0    0 -0.00000000000E+00 -0.00000000000E+00 -0.45593999997E+02  0.45594000000E+02  0.51100000000E-03 0. -1.
    9900012    2    1    2    0    0 -0.11070567275E+01 -0.14135430320E+00 -0.38402187953E+00  0.90007733741E+02  0.89999995027E+02 0.  0.
        -12    1    1    2    0    0  0.11070567275E+01  0.14135430320E+00  0.38402187953E+00  0.11802662585E+01  0.00000000000E+00 0.  1.
         11    1    3    3    0    0  0.17926630915E+02  0.92782421815E+01  0.34194683406E+02  0.39708012384E+02  0.51100000000E-03 0. -1.
        -11    1    3    3    0    0 -0.80249314719E+01 -0.29239200005E+01  0.41646314441E+01  0.95022622898E+01  0.51100000000E-03 0.  1.
        -12    1    3    3    0    0 -0.11008756171E+02 -0.64956764841E+01 -0.38743336730E+02  0.40797459068E+02  0.00000000000E+00 0.  1.
</event>
<event>
 7    1  0.2349719E-015  0.9000771E+02  0.7816164E-02  0.1186339E+00
        -11   -1    0    0    0    0  0.00000000000E+00  0.00000000000E+00  0.45593999997E+02  0.45594000000E+02  0.51100000000E-03 0. -1.
         11   -1    0    0    0    0 -0.00000000000E+00 -0.00000000000E+00 -0.45593999997E+02  0.45594000000E+02  0.51100000000E-03 0.  1.
    9900012    2    1    2    0    0  0.67306815140E-04 -0.45625566074E+00  0.10885357159E+01  0.90007712223E+02  0.89999973224E+02 0.  0.
        -12    1    1    2    0    0 -0.67306815131E-04  0.45625566074E+00 -0.10885357159E+01  0.11802877773E+01  0.00000000000E+00 0.  1.
         11    1    3    3    0    0  0.20518544781E+01 -0.12132849659E+01 -0.83030007561E+01  0.86384019949E+01  0.51100000000E-03 0. -1.
        -11    1    3    3    0    0  0.38326877979E+02 -0.40588317199E+01 -0.35258437759E+01  0.38702135149E+02  0.51100000000E-03 0.  1.
         12    1    3    3    0    0 -0.40378665150E+02  0.48158610250E+01  0.12917380248E+02  0.42667175078E+02  0.00000000000E+00 0. -1.
</event>
<event>
 7    1  0.2349719E-015  0.9000774E+02  0.7816164E-02  0.1186339E+00
        -11   -1    0    0    0    0  0.00000000000E+00  0.00000000000E+00  0.45593999997E+02  0.45594000000E+02  0.51100000000E-03 0.  1.
         11   -1    0    0    0    0 -0.00000000000E+00 -0.00000000000E+00 -0.45593999997E+02  0.45594000000E+02  0.51100000000E-03 0. -1.
    9900012    2    1    2    0    0 -0.55593528985E+00 -0.10381374557E+01  0.78940392431E-01  0.90007735195E+02  0.89999996500E+02 0.  0.
        -12    1    1    2    0    0  0.55593528985E+00  0.10381374557E+01 -0.78940392431E-01  0.11802648046E+01  0.00000000000E+00 0.  1.
         11    1    3    3    0    0 -0.80526145136E+01  0.38279581276E+01  0.40769116772E+00  0.89254734486E+01  0.51100000000E-03 0. -1.
        -11    1    3    3    0    0  0.31243963699E+02  0.43378820978E+01  0.28572522464E+02  0.42560445591E+02  0.51100000000E-03 0.  1.
         12    1    3    3    0    0 -0.23747284475E+02 -0.92039776811E+01 -0.28901273239E+02  0.38521816156E+02  0.00000000000E+00 0. -1.
</event>
<event>
 7    1  0.2349719E-015  0.9000774E+02  0.7816164E-02  0.1186339E+00
        -11   -1    0    0    0    0  0.00000000000E+00  0.00000000000E+00  0.45593999997E+02  0.45594000000E+02  0.51100000000E-03 0.  1.
         11   -1    0    0    0    0 -0.00000000000E+00 -0.00000000000E+00 -0.45593999997E+02  0.45594000000E+02  0.51100000000E-03 0. -1.
    9900012    2    1    2    0    0 -0.71029746469E+00 -0.31747198209E+00 -0.88752351158E+00  0.90007742006E+02  0.90000003401E+02 0.  0.
        -12    1    1    2    0    0  0.71029746469E+00  0.31747198209E+00  0.88752351158E+00  0.11802579936E+01  0.00000000000E+00 0.  1.
         11    1    3    3    0    0  0.64873023149E+01 -0.22791593849E+02 -0.36714753635E+02  0.43697997395E+02  0.51100000000E-03 0. -1.
        -11    1    3    3    0    0 -0.75394059145E+01  0.28027911436E+01  0.42300859520E+01  0.90880089767E+01  0.51100000000E-03 0.  1.
        -12    1    3    3    0    0  0.34180613485E+00  0.19671330724E+02  0.31597144172E+02  0.37221735635E+02  0.00000000000E+00 0.  1.
</event>
<event>
 7    1  0.2349719E-015  0.9000773E+02  0.7816164E-02  0.1186339E+00
        -11   -1    0    0    0    0  0.00000000000E+00  0.00000000000E+00  0.45593999997E+02  0.45594000000E+02  0.51100000000E-03 0. -1.
         11   -1    0    0    0    0 -0.00000000000E+00 -0.00000000000E+00 -0.45593999997E+02  0.45594000000E+02  0.51100000000E-03 0.  1.
    9900012    2    1    2    0    0 -0.75953902977E+00  0.90077096229E+00  0.68947181161E-01  0.90007728176E+02  0.89999989388E+02 0.  0.
        -12    1    1    2    0    0  0.75953902977E+00 -0.90077096229E+00 -0.68947181161E-01  0.11802718238E+01  0.00000000000E+00 0.  1.
         11    1    3    3    0    0 -0.17495633054E+01 -0.28107059921E+01 -0.85477684972E+01  0.91665362311E+01  0.51100000000E-03 0. -1.
        -11    1    3    3    0    0  0.14887135581E+02 -0.34421084938E+02 -0.54291550441E+01  0.37893450870E+02  0.51100000000E-03 0.  1.
         12    1    3    3    0    0 -0.13897111305E+02  0.38132561892E+02  0.14045870722E+02  0.42947741075E+02  0.00000000000E+00 0. -1.
</event>
<event>
 7    1  0.2349719E-015  0.9000769E+02  0.7816164E-02  0.1186339E+00
        -11   -1    0    0    0    0  0.00000000000E+00  0.00000000000E+00  0.45593999997E+02  0.45594000000E+02  0.51100000000E-03 0. -1.
         11   -1    0    0    0    0 -0.00000000000E+00 -0.00000000000E+00 -0.45593999997E+02  0.45594000000E+02  0.51100000000E-03 0.  1.
    9900012    2    1    2    0    0 -0.47335242074E+00  0.14273486613E+00  0.10717766873E+01  0.90007686049E+02  0.89999946705E+02 0.  0.
        -12    1    1    2    0    0  0.47335242074E+00 -0.14273486613E+00 -0.10717766873E+01  0.11803139513E+01  0.00000000000E+00 0.  1.
         11    1    3    3    0    0 -0.97313061285E-01 -0.76625640073E+01 -0.39910004877E+01  0.86401644748E+01  0.51100000000E-03 0. -1.
        -11    1    3    3    0    0 -0.15885851304E+02 -0.24529899722E+02 -0.21883463314E+02  0.36509755120E+02  0.51100000000E-03 0.  1.
         12    1    3    3    0    0  0.15509811945E+02  0.32335198595E+02  0.26946240489E+02  0.44857766454E+02  0.00000000000E+00 0. -1.
</event>
<event>
 7    1  0.2349719E-015  0.9000778E+02  0.7816164E-02  0.1186339E+00
        -11   -1    0    0    0    0  0.00000000000E+00  0.00000000000E+00  0.45593999997E+02  0.45594000000E+02  0.51100000000E-03 0.  1.
         11   -1    0    0    0    0 -0.00000000000E+00 -0.00000000000E+00 -0.45593999997E+02  0.45594000000E+02  0.51100000000E-03 0. -1.
    9900012    2    1    2    0    0 -0.71991279533E+00  0.65183034299E+00 -0.67064109665E+00  0.90007781076E+02  0.90000042986E+02 0.  0.
        -12    1    1    2    0    0  0.71991279533E+00 -0.65183034299E+00  0.67064109665E+00  0.11802189244E+01  0.00000000000E+00 0.  1.
         11    1    3    3    0    0 -0.33253995214E+01  0.97817191314E+01  0.51277668716E+00  0.10344237591E+02  0.51100000000E-03 0. -1.
        -11    1    3    3    0    0  0.17527138340E+02  0.83726061768E+01  0.33100766007E+02  0.38379184763E+02  0.51100000000E-03 0.  1.
         12    1    3    3    0    0 -0.14921651613E+02 -0.17502494965E+02 -0.34284183791E+02  0.41284358722E+02  0.00000000000E+00 0. -1.
</event>
<event>
 7    1  0.2349719E-015  0.9000772E+02  0.7816164E-02  0.1186339E+00
        -11   -1    0    0    0    0  0.00000000000E+00  0.00000000000E+00  0.45593999997E+02  0.45594000000E+02  0.51100000000E-03 0.  1.
         11   -1    0    0    0    0 -0.00000000000E+00 -0.00000000000E+00 -0.45593999997E+02  0.45594000000E+02  0.51100000000E-03 0. -1.
    9900012    2    1    2    0    0  0.10126455857E+01 -0.60614223107E+00  0.13873535980E-01  0.90007723777E+02  0.89999984931E+02 0.  0.
        -12    1    1    2    0    0 -0.10126455857E+01  0.60614223107E+00 -0.13873535980E-01  0.11802762225E+01  0.00000000000E+00 0.  1.
         11    1    3    3    0    0 -0.19331162879E+02  0.14183822060E+01 -0.28786312389E+02  0.34703853497E+02  0.51100000000E-03 0. -1.
        -11    1    3    3    0    0 -0.54322336568E+01  0.89230059345E+00 -0.83451040194E+01  0.99973058474E+01  0.51100000000E-03 0.  1.
        -12    1    3    3    0    0  0.25776042121E+02 -0.29168250305E+01  0.37145289944E+02  0.45306564433E+02  0.00000000000E+00 0.  1.
</event>
<event>
 7    1  0.2349719E-015  0.9000779E+02  0.7816164E-02  0.1186339E+00
        -11   -1    0    0    0    0  0.00000000000E+00  0.00000000000E+00  0.45593999997E+02  0.45594000000E+02  0.51100000000E-03 0. -1.
         11   -1    0    0    0    0 -0.00000000000E+00 -0.00000000000E+00 -0.45593999997E+02  0.45594000000E+02  0.51100000000E-03 0.  1.
    9900012    2    1    2    0    0  0.17937950021E+00  0.56635346445E+00  0.10197851184E+01  0.90007790299E+02  0.90000052330E+02 0.  0.
        -12    1    1    2    0    0 -0.17937950021E+00 -0.56635346445E+00 -0.10197851184E+01  0.11802097015E+01  0.00000000000E+00 0.  1.
         11    1    3    3    0    0  0.47237088231E+00 -0.44020023537E+01  0.66774860579E+01  0.80118399439E+01  0.51100000000E-03 0. -1.
        -11    1    3    3    0    0  0.35574010404E+02 -0.10675940101E+02  0.12047442263E+02  0.39046469476E+02  0.51100000000E-03 0.  1.
         12    1    3    3    0    0 -0.35867001786E+02  0.15644295920E+02 -0.17705143202E+02  0.42949480878E+02  0.00000000000E+00 0. -1.
</event>
<event>
 7    1  0.2349719E-015  0.9000772E+02  0.7816164E-02  0.1186339E+00
        -11   -1    0    0    0    0  0.00000000000E+00  0.00000000000E+00  0.45593999997E+02  0.45594000000E+02  0.51100000000E-03 0. -1.
         11   -1    0    0    0    0 -0.00000000000E+00 -0.00000000000E+00 -0.45593999997E+02  0.45594000000E+02  0.51100000000E-03 0.  1.
    9900012    2    1    2    0    0  0.49609629009E+00 -0.10491656708E+01 -0.21494998420E+00  0.90007718835E+02  0.89999979923E+02 0.  0.
        -12    1    1    2    0    0 -0.49609629009E+00  0.10491656708E+01  0.21494998420E+00  0.11802811655E+01  0.00000000000E+00 0.  1.
         11    1    3    3    0    0  0.19905980606E+01 -0.85034936042E+01 -0.22030299238E+01  0.90069542700E+01  0.51100000000E-03 0. -1.
        -11    1    3    3    0    0 -0.38972551182E+02 -0.45531601509E+01 -0.87626555155E+01  0.40204168253E+02  0.51100000000E-03 0.  1.
         12    1    3    3    0    0  0.37478049411E+02  0.12007488084E+02  0.10750735455E+02  0.40796596311E+02  0.00000000000E+00 0. -1.
</event>
<event>
 7    1  0.2349719E-015  0.9000793E+02  0.7816164E-02  0.1186339E+00
        -11   -1    0    0    0    0  0.00000000000E+00  0.00000000000E+00  0.45593999997E+02  0.45594000000E+02  0.51100000000E-03 0.  1.
         11   -1    0    0    0    0 -0.00000000000E+00 -0.00000000000E+00 -0.45593999997E+02  0.45594000000E+02  0.51100000000E-03 0. -1.
    9900012    2    1    2    0    0 -0.96482713415E+00 -0.44638803717E+00  0.51227003080E+00  0.90007926162E+02  0.90000189987E+02 0.  0.
        -12    1    1    2    0    0  0.96482713415E+00  0.44638803717E+00 -0.51227003080E+00  0.11800738379E+01  0.00000000000E+00 0.  1.
         11    1    3    3    0    0 -0.31585217706E+01  0.13704642529E+02 -0.93990007146E+00  0.14095279317E+02  0.51100000000E-03 0. -1.
        -11    1    3    3    0    0 -0.15050500959E+01  0.18203890649E+02  0.28316243807E+02  0.33696535047E+02  0.51100000000E-03 0.  1.
         12    1    3    3    0    0  0.36987447324E+01 -0.32354921214E+02 -0.26864073705E+02  0.42216111799E+02  0.00000000000E+00 0. -1.
</event>
<event>
 7    1  0.2349719E-015  0.9000773E+02  0.7816164E-02  0.1186339E+00
        -11   -1    0    0    0    0  0.00000000000E+00  0.00000000000E+00  0.45593999997E+02  0.45594000000E+02  0.51100000000E-03 0.  1.
         11   -1    0    0    0    0 -0.00000000000E+00 -0.00000000000E+00 -0.45593999997E+02  0.45594000000E+02  0.51100000000E-03 0. -1.
    9900012    2    1    2    0    0  0.10255381347E+01  0.27761338505E+00 -0.51403212252E+00  0.90007734487E+02  0.89999995783E+02 0.  0.
        -12    1    1    2    0    0 -0.10255381347E+01 -0.27761338505E+00  0.51403212252E+00  0.11802655126E+01  0.00000000000E+00 0.  1.
         11    1    3    3    0    0 -0.43576617919E+01 -0.15793098141E+02  0.49811946515E+01  0.17123769024E+02  0.51100000000E-03 0. -1.
        -11    1    3    3    0    0 -0.24734631470E+02  0.29185930636E+01 -0.24486347302E+02  0.34927086680E+02  0.51100000000E-03 0.  1.
         12    1    3    3    0    0  0.30117831397E+02  0.13152118462E+02  0.18991120528E+02  0.37956878784E+02  0.00000000000E+00 0. -1.
</event>
<event>
 7    1  0.2349719E-015  0.9000772E+02  0.7816164E-02  0.1186339E+00
        -11   -1    0    0    0    0  0.00000000000E+00  0.00000000000E+00  0.45593999997E+02  0.45594000000E+02  0.51100000000E-03 0.  1.
         11   -1    0    0    0    0 -0.00000000000E+00 -0.00000000000E+00 -0.45593999997E+02  0.45594000000E+02  0.51100000000E-03 0. -1.
    9900012    2    1    2    0    0 -0.75043475897E+00 -0.62025231148E+00 -0.66723777227E+00  0.90007715500E+02  0.89999976544E+02 0.  0.
        -12    1    1    2    0    0  0.75043475897E+00  0.62025231148E+00  0.66723777227E+00  0.11802845005E+01  0.00000000000E+00 0.  1.
         11    1    3    3    0    0  0.88262835631E+01 -0.24796618267E+01  0.80657692909E+00  0.92033999650E+01  0.51100000000E-03 0. -1.
        -11    1    3    3    0    0  0.40601486928E+01 -0.62534281046E+01  0.37756943088E+02  0.38486061400E+02  0.51100000000E-03 0.  1.
         12    1    3    3    0    0 -0.13636867015E+02  0.81128376198E+01 -0.39230757790E+02  0.42318254134E+02  0.00000000000E+00 0. -1.
</event>
<event>
 7    1  0.2349719E-015  0.9000767E+02  0.7816164E-02  0.1186339E+00
        -11   -1    0    0    0    0  0.00000000000E+00  0.00000000000E+00  0.45593999997E+02  0.45594000000E+02  0.51100000000E-03 0. -1.
         11   -1    0    0    0    0 -0.00000000000E+00 -0.00000000000E+00 -0.45593999997E+02  0.45594000000E+02  0.51100000000E-03 0.  1.
    9900012    2    1    2    0    0  0.48234546865E+00 -0.10327526655E+01 -0.30651728675E+00  0.90007666121E+02  0.89999926514E+02 0.  0.
        -12    1    1    2    0    0 -0.48234546865E+00  0.10327526655E+01  0.30651728675E+00  0.11803338792E+01  0.00000000000E+00 0.  1.
         11    1    3    3    0    0 -0.30597604885E+02  0.96942196915E+01  0.24202571542E+02  0.40198952593E+02  0.51100000000E-03 0. -1.
        -11    1    3    3    0    0  0.82109871129E+01  0.12469317332E+01  0.56997602703E+01  0.10072855380E+02  0.51100000000E-03 0.  1.
        -12    1    3    3    0    0  0.22868963240E+02 -0.11973904090E+02 -0.30208849099E+02  0.39735858147E+02  0.00000000000E+00 0.  1.
</event>
<event>
 7    1  0.2349719E-015  0.9000773E+02  0.7816164E-02  0.1186339E+00
        -11   -1    0    0    0    0  0.00000000000E+00  0.00000000000E+00  0.45593999997E+02  0.45594000000E+02  0.51100000000E-03 0.  1.
         11   -1    0    0    0    0 -0.00000000000E+00 -0.00000000000E+00 -0.45593999997E+02  0.45594000000E+02  0.51100000000E-03 0. -1.
    9900012    2    1    2    0    0  0.32116264039E+00  0.15017770274E+00  0.11257587497E+01  0.90007732426E+02  0.89999993694E+02 0.  0.
        -12    1    1    2    0    0 -0.32116264039E+00 -0.15017770274E+00 -0.11257587497E+01  0.11802675741E+01  0.00000000000E+00 0.  1.
         11    1    3    3    0    0 -0.19688804846E+02 -0.25331149871E+02 -0.44197749172E+01  0.32385963019E+02  0.51100000000E-03 0. -1.
        -11    1    3    3    0    0 -0.15268145748E+02  0.11088847621E+02 -0.12831821107E+01  0.18913629285E+02  0.51100000000E-03 0.  1.
         12    1    3    3    0    0  0.35278113234E+02  0.14392479953E+02  0.68287157776E+01  0.38708140122E+02  0.00000000000E+00 0. -1.
</event>
<event>
 7    1  0.2349719E-015  0.9000769E+02  0.7816164E-02  0.1186339E+00
        -11   -1    0    0    0    0  0.00000000000E+00  0.00000000000E+00  0.45593999997E+02  0.45594000000E+02  0.51100000000E-03 0.  1.
         11   -1    0    0    0    0 -0.00000000000E+00 -0.00000000000E+00 -0.45593999997E+02  0.45594000000E+02  0.51100000000E-03 0. -1.
    9900012    2    1    2    0    0  0.39084937391E+00 -0.95278120774E+00 -0.57668755261E+00  0.90007693347E+02  0.89999954099E+02 0.  0.
        -12    1    1    2    0    0 -0.39084937391E+00  0.95278120774E+00  0.57668755261E+00  0.11803066535E+01  0.00000000000E+00 0.  1.
         11    1    3    3    0    0 -0.15352660201E+02  0.74208413895E+01  0.30629558166E+02  0.35056281832E+02  0.51100000000E-03 0. -1.
        -11    1    3    3    0    0  0.55972102849E+01 -0.58511803821E+01  0.97545204690E+01  0.12677371363E+02  0.51100000000E-03 0.  1.
        -12    1    3    3    0    0  0.10146299290E+02 -0.25224422151E+01 -0.40960766188E+02  0.42274040151E+02  0.00000000000E+00 0.  1.
</event>
<event>
 7    1  0.2349719E-015  0.9000776E+02  0.7816164E-02  0.1186339E+00
        -11   -1    0    0    0    0  0.00000000000E+00  0.00000000000E+00  0.45593999997E+02  0.45594000000E+02  0.51100000000E-03 0.  1.
         11   -1    0    0    0    0 -0.00000000000E+00 -0.00000000000E+00 -0.45593999997E+02  0.45594000000E+02  0.51100000000E-03 0. -1.
    9900012    2    1    2    0    0 -0.63286928768E+00 -0.92884258237E+00  0.36014070034E+00  0.90007757058E+02  0.90000018651E+02 0.  0.
        -12    1    1    2    0    0  0.63286928768E+00  0.92884258237E+00 -0.36014070034E+00  0.11802429420E+01  0.00000000000E+00 0.  1.
         11    1    3    3    0    0 -0.47535590246E+01  0.83037260280E+00  0.63898315278E+01  0.80072335594E+01  0.51100000000E-03 0. -1.
        -11    1    3    3    0    0 -0.28136600463E+02 -0.13544683220E+02  0.21561032632E+02  0.37947395926E+02  0.51100000000E-03 0.  1.
         12    1    3    3    0    0  0.32257290200E+02  0.11785468035E+02 -0.27590723460E+02  0.44053127572E+02  0.00000000000E+00 0. -1.
</event>
<event>
 7    1  0.2349719E-015  0.9000775E+02  0.7816164E-02  0.1186339E+00
        -11   -1    0    0    0    0  0.00000000000E+00  0.00000000000E+00  0.45593999997E+02  0.45594000000E+02  0.51100000000E-03 0. -1.
         11   -1    0    0    0    0 -0.00000000000E+00 -0.00000000000E+00 -0.45593999997E+02  0.45594000000E+02  0.51100000000E-03 0.  1.
    9900012    2    1    2    0    0  0.30908926275E+00 -0.79926225971E+00  0.81155951134E+00  0.90007752072E+02  0.90000013599E+02 0.  0.
        -12    1    1    2    0    0 -0.30908926275E+00  0.79926225971E+00 -0.81155951134E+00  0.11802479284E+01  0.00000000000E+00 0.  1.
         11    1    3    3    0    0 -0.21258691048E+02 -0.56128864807E+01  0.33589176996E+02  0.40145600646E+02  0.51100000000E-03 0. -1.
        -11    1    3    3    0    0  0.99571049732E+01 -0.11271972967E+01  0.40386973472E+01  0.10803961760E+02  0.51100000000E-03 0.  1.
        -12    1    3    3    0    0  0.11610675337E+02  0.59408215177E+01 -0.36816314832E+02  0.39058189665E+02  0.00000000000E+00 0.  1.
</event>
<event>
 7    1  0.2349719E-015  0.9000775E+02  0.7816164E-02  0.1186339E+00
        -11   -1    0    0    0    0  0.00000000000E+00  0.00000000000E+00  0.45593999997E+02  0.45594000000E+02  0.51100000000E-03 0.  1.
         11   -1    0    0    0    0 -0.00000000000E+00 -0.00000000000E+00 -0.45593999997E+02  0.45594000000E+02  0.51100000000E-03 0. -1.
    9900012    2    1    2    0    0  0.95100950015E+00 -0.46551073986E+00 -0.52141622705E+00  0.90007748247E+02  0.90000009724E+02 0.  0.
        -12    1    1    2    0    0 -0.95100950015E+00  0.46551073986E+00  0.52141622705E+00  0.11802517529E+01  0.00000000000E+00 0.  1.
         11    1    3    3    0    0 -0.51582100413E+01 -0.17793136935E+02 -0.31009938457E+02  0.36122280330E+02  0.51100000000E-03 0. -1.
        -11    1    3    3    0    0 -0.86440127913E+00  0.38119158515E+01 -0.99453572893E+01  0.10685879650E+02  0.51100000000E-03 0.  1.
        -12    1    3    3    0    0  0.69736208206E+01  0.13515710343E+02  0.40433879520E+02  0.43199588267E+02  0.00000000000E+00 0.  1.
</event>
<event>
 7    1  0.2349719E-015  0.9000770E+02  0.7816164E-02  0.1186339E+00
        -11   -1    0    0    0    0  0.00000000000E+00  0.00000000000E+00  0.45593999997E+02  0.45594000000E+02  0.51100000000E-03 0. -1.
         11   -1    0    0    0    0 -0.00000000000E+00 -0.00000000000E+00 -0.45593999997E+02  0.45594000000E+02  0.51100000000E-03 0.  1.
    9900012    2    1    2    0    0 -0.49576659286E+00  0.85183197797E+00  0.64939491673E+00  0.90007696653E+02  0.89999957449E+02 0.  0.
        -12    1    1    2    0    0  0.49576659286E+00 -0.85183197797E+00 -0.64939491673E+00  0.11803033471E+01  0.00000000000E+00 0.  1.
         11    1    3    3    0    0  0.19274407082E+01  0.36507451440E+02 -0.93826150770E+01  0.37743112011E+02  0.51100000000E-03 0. -1.
        -11    1    3    3    0    0  0.10654645792E+01  0.57910601878E+01 -0.53130667298E+01  0.79309691214E+01  0.51100000000E-03 0.  1.
        -12    1    3    3    0    0 -0.34886718803E+01 -0.41446679650E+02  0.15345076724E+02  0.44333615521E+02  0.00000000000E+00 0.  1.
</event>
<event>
 7    1  0.2349719E-015  0.9000774E+02  0.7816164E-02  0.1186339E+00
        -11   -1    0    0    0    0  0.00000000000E+00  0.00000000000E+00  0.45593999997E+02  0.45594000000E+02  0.51100000000E-03 0.  1.
         11   -1    0    0    0    0 -0.00000000000E+00 -0.00000000000E+00 -0.45593999997E+02  0.45594000000E+02  0.51100000000E-03 0. -1.
    9900012    2    1    2    0    0  0.60831065963E+00 -0.85030747818E+00  0.54767927085E+00  0.90007738482E+02  0.89999999830E+02 0.  0.
        -12    1    1    2    0    0 -0.60831065963E+00  0.85030747818E+00 -0.54767927085E+00  0.11802615175E+01  0.00000000000E+00 0.  1.
         11    1    3    3    0    0 -0.92195306842E+01 -0.27903096250E+01  0.25857640243E+01  0.99735525111E+01  0.51100000000E-03 0. -1.
        -11    1    3    3    0    0  0.89908103029E+01 -0.44238837340E+01  0.38095134510E+02  0.39390921426E+02  0.51100000000E-03 0.  1.
         12    1    3    3    0    0  0.83703104094E+00  0.63638858808E+01 -0.40133219263E+02  0.40643264545E+02  0.00000000000E+00 0. -1.
</event>
<event>
 7    1  0.2349719E-015  0.9000774E+02  0.7816164E-02  0.1186339E+00
        -11   -1    0    0    0    0  0.00000000000E+00  0.00000000000E+00  0.45593999997E+02  0.45594000000E+02  0.51100000000E-03 0. -1.
         11   -1    0    0    0    0 -0.00000000000E+00 -0.00000000000E+00 -0.45593999997E+02  0.45594000000E+02  0.51100000000E-03 0.  1.
    9900012    2    1    2    0    0 -0.11354713886E+01 -0.37329832854E-01 -0.31988228622E+00  0.90007740085E+02  0.90000001454E+02 0.  0.
        -12    1    1    2    0    0  0.11354713886E+01  0.37329832854E-01  0.31988228622E+00  0.11802599153E+01  0.00000000000E+00 0.  1.
         11    1    3    3    0    0 -0.55116052687E+01 -0.42955332422E+01 -0.49737249782E+01  0.85771404847E+01  0.51100000000E-03 0. -1.
        -11    1    3    3    0    0  0.30829491801E+02 -0.17231976318E+02 -0.18845812640E+02  0.40032027514E+02  0.51100000000E-03 0.  1.
         12    1    3    3    0    0 -0.26453357921E+02  0.21490179728E+02  0.23499655332E+02  0.41398572086E+02  0.00000000000E+00 0. -1.
</event>
<event>
 7    1  0.2349719E-015  0.9000735E+02  0.7816164E-02  0.1186340E+00
        -11   -1    0    0    0    0  0.00000000000E+00  0.00000000000E+00  0.45593999997E+02  0.45594000000E+02  0.51100000000E-03 0. -1.
         11   -1    0    0    0    0 -0.00000000000E+00 -0.00000000000E+00 -0.45593999997E+02  0.45594000000E+02  0.51100000000E-03 0.  1.
    9900012    2    1    2    0    0  0.67995700185E+00  0.65012743609E+00  0.71338688887E+00  0.90007352694E+02  0.89999608949E+02 0.  0.
        -12    1    1    2    0    0 -0.67995700185E+00 -0.65012743609E+00 -0.71338688887E+00  0.11806473058E+01  0.00000000000E+00 0.  1.
         11    1    3    3    0    0 -0.10133443862E+02  0.27615191653E+02 -0.27799929629E+02  0.40473714706E+02  0.51100000000E-03 0. -1.
        -11    1    3    3    0    0  0.74681846156E+01  0.81948377290E+00 -0.23497586387E+01  0.78718931032E+01  0.51100000000E-03 0.  1.
        -12    1    3    3    0    0  0.33452162479E+01 -0.27784547990E+02  0.30863075156E+02  0.41661744885E+02  0.00000000000E+00 0.  1.
</event>
<event>
 7    1  0.2349719E-015  0.9000773E+02  0.7816164E-02  0.1186339E+00
        -11   -1    0    0    0    0  0.00000000000E+00  0.00000000000E+00  0.45593999997E+02  0.45594000000E+02  0.51100000000E-03 0. -1.
         11   -1    0    0    0    0 -0.00000000000E+00 -0.00000000000E+00 -0.45593999997E+02  0.45594000000E+02  0.51100000000E-03 0.  1.
    9900012    2    1    2    0    0  0.95418245180E+00 -0.63658605848E+00  0.27806466202E+00  0.90007734811E+02  0.89999996110E+02 0.  0.
        -12    1    1    2    0    0 -0.95418245180E+00  0.63658605848E+00 -0.27806466202E+00  0.11802651895E+01  0.00000000000E+00 0.  1.
         11    1    3    3    0    0 -0.79710462299E+01  0.21533250762E+02  0.33614188094E+02  0.40707887539E+02  0.51100000000E-03 0. -1.
        -11    1    3    3    0    0 -0.54483776827E+01  0.33266947264E+01 -0.10012344657E+02  0.11874289999E+02  0.51100000000E-03 0.  1.
        -12    1    3    3    0    0  0.14373606364E+02 -0.25496531547E+02 -0.23323778775E+02  0.37425557273E+02  0.00000000000E+00 0.  1.
</event>
<event>
 7    1  0.2349719E-015  0.9000769E+02  0.7816164E-02  0.1186339E+00
        -11   -1    0    0    0    0  0.00000000000E+00  0.00000000000E+00  0.45593999997E+02  0.45594000000E+02  0.51100000000E-03 0. -1.
         11   -1    0    0    0    0 -0.00000000000E+00 -0.00000000000E+00 -0.45593999997E+02  0.45594000000E+02  0.51100000000E-03 0.  1.
    9900012    2    1    2    0    0  0.28285508812E+00  0.10870949156E+01  0.36241570280E+00  0.90007691778E+02  0.89999952510E+02 0.  0.
        -12    1    1    2    0    0 -0.28285508812E+00 -0.10870949156E+01 -0.36241570280E+00  0.11803082216E+01  0.00000000000E+00 0.  1.
         11    1    3    3    0    0  0.40796347543E+02  0.99399242690E+01  0.35411580147E+01  0.42138864100E+02  0.51100000000E-03 0. -1.
        -11    1    3    3    0    0 -0.76860453612E+01  0.67241606752E+01 -0.52333277715E+01  0.11475075159E+02  0.51100000000E-03 0.  1.
        -12    1    3    3    0    0 -0.32827447093E+02 -0.15576990029E+02  0.20545854596E+01  0.36393752519E+02  0.00000000000E+00 0.  1.
</event>
<event>
 7    1  0.2349719E-015  0.9000775E+02  0.7816164E-02  0.1186339E+00
        -11   -1    0    0    0    0  0.00000000000E+00  0.00000000000E+00  0.45593999997E+02  0.45594000000E+02  0.51100000000E-03 0.  1.
         11   -1    0    0    0    0 -0.00000000000E+00 -0.00000000000E+00 -0.45593999997E+02  0.45594000000E+02  0.51100000000E-03 0. -1.
    9900012    2    1    2    0    0 -0.18792019197E+00  0.10718490080E+01 -0.45697301016E+00  0.90007746372E+02  0.90000007824E+02 0.  0.
        -12    1    1    2    0    0  0.18792019197E+00 -0.10718490080E+01  0.45697301016E+00  0.11802536281E+01  0.00000000000E+00 0.  1.
         11    1    3    3    0    0  0.20616993016E+02  0.32946143335E+02  0.19483930165E+02  0.43475651767E+02  0.51100000000E-03 0. -1.
        -11    1    3    3    0    0  0.31280853566E+00  0.16343766530E+00 -0.55337871792E+01  0.55450303747E+01  0.51100000000E-03 0.  1.
        -12    1    3    3    0    0 -0.21117721744E+02 -0.32037731992E+02 -0.14407115996E+02  0.40987064230E+02  0.00000000000E+00 0.  1.
</event>
<event>
 7    1  0.2349719E-015  0.9000769E+02  0.7816164E-02  0.1186339E+00
        -11   -1    0    0    0    0  0.00000000000E+00  0.00000000000E+00  0.45593999997E+02  0.45594000000E+02  0.51100000000E-03 0. -1.
         11   -1    0    0    0    0 -0.00000000000E+00 -0.00000000000E+00 -0.45593999997E+02  0.45594000000E+02  0.51100000000E-03 0.  1.
    9900012    2    1    2    0    0 -0.16933253084E+00  0.11578726505E+01  0.15424259522E+00  0.90007689296E+02  0.89999949994E+02 0.  0.
        -12    1    1    2    0    0  0.16933253084E+00 -0.11578726505E+01 -0.15424259522E+00  0.11803107044E+01  0.00000000000E+00 0.  1.
         11    1    3    3    0    0  0.57470701280E+01  0.81797203203E+01  0.37140794670E+01  0.10664474958E+02  0.51100000000E-03 0. -1.
        -11    1    3    3    0    0 -0.31098048826E+02 -0.21788485396E+02  0.18990756803E+02  0.42455571847E+02  0.51100000000E-03 0.  1.
         12    1    3    3    0    0  0.25181646167E+02  0.14766637727E+02 -0.22550593675E+02  0.36887642491E+02  0.00000000000E+00 0. -1.
</event>
<event>
 7    1  0.2349719E-015  0.9000773E+02  0.7816164E-02  0.1186339E+00
        -11   -1    0    0    0    0  0.00000000000E+00  0.00000000000E+00  0.45593999997E+02  0.45594000000E+02  0.51100000000E-03 0.  1.
         11   -1    0    0    0    0 -0.00000000000E+00 -0.00000000000E+00 -0.45593999997E+02  0.45594000000E+02  0.51100000000E-03 0. -1.
    9900012    2    1    2    0    0  0.30639998573E+00  0.84698268550E+00  0.76273756652E+00  0.90007733413E+02  0.89999994694E+02 0.  0.
        -12    1    1    2    0    0 -0.30639998573E+00 -0.84698268550E+00 -0.76273756652E+00  0.11802665869E+01  0.00000000000E+00 0.  1.
         11    1    3    3    0    0  0.71120923333E+01 -0.64224016703E+01  0.14186409149E+00  0.95838001990E+01  0.51100000000E-03 0. -1.
        -11    1    3    3    0    0  0.17553220102E+02  0.22610581197E+02 -0.27848938055E+02  0.39936415325E+02  0.51100000000E-03 0.  1.
         12    1    3    3    0    0 -0.24358912450E+02 -0.15341196841E+02  0.28469811530E+02  0.40487517889E+02  0.00000000000E+00 0. -1.
</event>
<event>
 7    1  0.2349719E-015  0.9000759E+02  0.7816164E-02  0.1186339E+00
        -11   -1    0    0    0    0  0.00000000000E+00  0.00000000000E+00  0.45593999997E+02  0.45594000000E+02  0.51100000000E-03 0.  1.
         11   -1    0    0    0    0 -0.00000000000E+00 -0.00000000000E+00 -0.45593999997E+02  0.45594000000E+02  0.51100000000E-03 0. -1.
    9900012    2    1    2    0    0  0.11057889759E+01  0.20677121420E+00  0.35755985821E+00  0.90007587934E+02  0.89999847294E+02 0.  0.
        -12    1    1    2    0    0 -0.11057889759E+01 -0.20677121420E+00 -0.35755985821E+00  0.11804120664E+01  0.00000000000E+00 0.  1.
         11    1    3    3    0    0 -0.50660400099E+01  0.46421362570E+01 -0.60447702769E+01  0.91516904653E+01  0.51100000000E-03 0. -1.
        -11    1    3    3    0    0 -0.26020571141E+02  0.15499885594E+02  0.24435987320E+02  0.38915730142E+02  0.51100000000E-03 0.  1.
         12    1    3    3    0    0  0.32192400127E+02 -0.19935250637E+02 -0.18033657185E+02  0.41940167326E+02  0.00000000000E+00 0. -1.
</event>
<event>
 7    1  0.2349719E-015  0.9000753E+02  0.7816164E-02  0.1186339E+00
        -11   -1    0    0    0    0  0.00000000000E+00  0.00000000000E+00  0.45593999997E+02  0.45594000000E+02  0.51100000000E-03 0. -1.
         11   -1    0    0    0    0 -0.00000000000E+00 -0.00000000000E+00 -0.45593999997E+02  0.45594000000E+02  0.51100000000E-03 0.  1.
    9900012    2    1    2    0    0 -0.11766234011E-01 -0.66559619428E+00  0.97486200530E+00  0.90007528625E+02  0.89999787202E+02 0.  0.
        -12    1    1    2    0    0  0.11766234011E-01  0.66559619428E+00 -0.97486200530E+00  0.11804713751E+01  0.00000000000E+00 0.  1.
         11    1    3    3    0    0  0.22513325704E+00  0.17106062375E+01 -0.10098185788E+02  0.10244521226E+02  0.51100000000E-03 0. -1.
        -11    1    3    3    0    0 -0.38433588719E+01 -0.32590094152E+02 -0.18212579264E+02  0.37531102940E+02  0.51100000000E-03 0.  1.
         12    1    3    3    0    0  0.36064593809E+01  0.30213891720E+02  0.29285627057E+02  0.42231904459E+02  0.00000000000E+00 0. -1.
</event>
<event>
 7    1  0.2349719E-015  0.9000774E+02  0.7816164E-02  0.1186339E+00
        -11   -1    0    0    0    0  0.00000000000E+00  0.00000000000E+00  0.45593999997E+02  0.45594000000E+02  0.51100000000E-03 0. -1.
         11   -1    0    0    0    0 -0.00000000000E+00 -0.00000000000E+00 -0.45593999997E+02  0.45594000000E+02  0.51100000000E-03 0.  1.
    9900012    2    1    2    0    0 -0.12467069586E+00 -0.11462234477E+01 -0.25229277458E+00  0.90007736208E+02  0.89999997526E+02 0.  0.
        -12    1    1    2    0    0  0.12467069586E+00  0.11462234477E+01  0.25229277458E+00  0.11802637920E+01  0.00000000000E+00 0.  1.
         11    1    3    3    0    0 -0.79182288868E+01  0.33786763145E+02  0.32319143202E+01  0.34852388483E+02  0.51100000000E-03 0. -1.
        -11    1    3    3    0    0 -0.41375498435E+01  0.85695315711E+01 -0.32183055438E+01  0.10045580167E+02  0.51100000000E-03 0.  1.
        -12    1    3    3    0    0  0.11931108034E+02 -0.43502518164E+02 -0.26590155103E+00  0.45109767558E+02  0.00000000000E+00 0.  1.
</event>
<event>
 7    1  0.2349719E-015  0.9000778E+02  0.7816164E-02  0.1186339E+00
        -11   -1    0    0    0    0  0.00000000000E+00  0.00000000000E+00  0.45593999997E+02  0.45594000000E+02  0.51100000000E-03 0.  1.
         11   -1    0    0    0    0 -0.00000000000E+00 -0.00000000000E+00 -0.45593999997E+02  0.45594000000E+02  0.51100000000E-03 0. -1.
    9900012    2    1    2    0    0 -0.10320506941E+01 -0.52717471461E+00  0.22332984219E+00  0.90007780515E+02  0.90000042418E+02 0.  0.
        -12    1    1    2    0    0  0.10320506941E+01  0.52717471461E+00 -0.22332984219E+00  0.11802194852E+01  0.00000000000E+00 0.  1.
         11    1    3    3    0    0 -0.95500233758E+01 -0.50675505713E+01  0.39538066946E+01  0.11511542160E+02  0.51100000000E-03 0. -1.
        -11    1    3    3    0    0  0.17291847092E+02  0.37361038280E+02  0.91326630250E+01  0.42169428398E+02  0.51100000000E-03 0.  1.
         12    1    3    3    0    0 -0.87738744101E+01 -0.32820662424E+02 -0.12863139877E+02  0.36326809956E+02  0.00000000000E+00 0. -1.
</event>
<event>
 7    1  0.2349719E-015  0.9000769E+02  0.7816164E-02  0.1186339E+00
        -11   -1    0    0    0    0  0.00000000000E+00  0.00000000000E+00  0.45593999997E+02  0.45594000000E+02  0.51100000000E-03 0.  1.
         11   -1    0    0    0    0 -0.00000000000E+00 -0.00000000000E+00 -0.45593999997E+02  0.45594000000E+02  0.51100000000E-03 0. -1.
    9900012    2    1    2    0    0 -0.64754812271E+00  0.49469448741E+00 -0.85386128947E+00  0.90007694824E+02  0.89999955596E+02 0.  0.
        -12    1    1    2    0    0  0.64754812271E+00 -0.49469448741E+00  0.85386128947E+00  0.11803051761E+01  0.00000000000E+00 0.  1.
         11    1    3    3    0    0  0.33292064236E+01  0.91923857898E+01  0.12753519568E+01  0.98595179798E+01  0.51100000000E-03 0. -1.
        -11    1    3    3    0    0  0.35031814642E+02  0.10312381476E+02  0.18990525394E+01  0.36567467093E+02  0.51100000000E-03 0.  1.
         12    1    3    3    0    0 -0.39008569188E+02 -0.19010072778E+02 -0.40282657857E+01  0.43580709751E+02  0.00000000000E+00 0. -1.
</event>
<event>
 7    1  0.2462520E-015  0.9000776E+02  0.7816164E-02  0.1186339E+00
        -11   -1    0    0    0    0  0.00000000000E+00  0.00000000000E+00  0.45593999997E+02  0.45594000000E+02  0.51100000000E-03 0. -1.
         11   -1    0    0    0    0 -0.00000000000E+00 -0.00000000000E+00 -0.45593999997E+02  0.45594000000E+02  0.51100000000E-03 0.  1.
    9900012    2    1    2    0    0  0.25547299656E+00  0.11410543067E+01  0.16028354991E+00  0.90007761804E+02  0.90000023460E+02 0.  0.
        -12    1    1    2    0    0 -0.25547299656E+00 -0.11410543067E+01 -0.16028354991E+00  0.11802381959E+01  0.00000000000E+00 0.  1.
         11    1    3    3    0    0 -0.50107418587E+01  0.65112966026E+01  0.37915088652E+02  0.38795083002E+02  0.51100000000E-03 0. -1.
        -11    1    3    3    0    0 -0.89918256829E+01 -0.32024840036E+01  0.12504125687E+01  0.96266486774E+01  0.51100000000E-03 0.  1.
        -12    1    3    3    0    0  0.14258040538E+02 -0.21677582923E+01 -0.39005217670E+02  0.41586030125E+02  0.00000000000E+00 0.  1.
</event>
<event>
 7    1  0.2349719E-015  0.9000781E+02  0.7816164E-02  0.1186339E+00
        -11   -1    0    0    0    0  0.00000000000E+00  0.00000000000E+00  0.45593999997E+02  0.45594000000E+02  0.51100000000E-03 0. -1.
         11   -1    0    0    0    0 -0.00000000000E+00 -0.00000000000E+00 -0.45593999997E+02  0.45594000000E+02  0.51100000000E-03 0.  1.
    9900012    2    1    2    0    0  0.39520584724E+00  0.29979010039E+00  0.10708805497E+01  0.90007810643E+02  0.90000072944E+02 0.  0.
        -12    1    1    2    0    0 -0.39520584724E+00 -0.29979010039E+00 -0.10708805497E+01  0.11801893568E+01  0.00000000000E+00 0.  1.
         11    1    3    3    0    0 -0.30448077808E+02  0.22259427644E+02  0.29431194720E+01  0.37831594121E+02  0.51100000000E-03 0. -1.
        -11    1    3    3    0    0  0.16117242434E+01  0.73366845871E+01 -0.72537666864E+01  0.10442304687E+02  0.51100000000E-03 0.  1.
        -12    1    3    3    0    0  0.29231559411E+02 -0.29296322131E+02  0.53815277641E+01  0.41733911836E+02  0.00000000000E+00 0.  1.
</event>
<event>
 7    1  0.2349719E-015  0.9000772E+02  0.7816164E-02  0.1186339E+00
        -11   -1    0    0    0    0  0.00000000000E+00  0.00000000000E+00  0.45593999997E+02  0.45594000000E+02  0.51100000000E-03 0.  1.
         11   -1    0    0    0    0 -0.00000000000E+00 -0.00000000000E+00 -0.45593999997E+02  0.45594000000E+02  0.51100000000E-03 0. -1.
    9900012    2    1    2    0    0  0.95452135477E+00  0.51609741297E+00 -0.46432301505E+00  0.90007718924E+02  0.89999980014E+02 0.  0.
        -12    1    1    2    0    0 -0.95452135477E+00 -0.51609741297E+00  0.46432301505E+00  0.11802810761E+01  0.00000000000E+00 0.  1.
         11    1    3    3    0    0  0.30170012388E+02 -0.11612998869E+02 -0.18980837554E+02  0.37488179267E+02  0.51100000000E-03 0. -1.
        -11    1    3    3    0    0  0.19667900119E+01  0.77033671194E+01 -0.80515487477E+01  0.11315368550E+02  0.51100000000E-03 0.  1.
        -12    1    3    3    0    0 -0.31182281046E+02  0.44257291623E+01  0.26568063286E+02  0.41204171107E+02  0.00000000000E+00 0.  1.
</event>
<event>
 7    1  0.2349719E-015  0.9000772E+02  0.7816164E-02  0.1186339E+00
        -11   -1    0    0    0    0  0.00000000000E+00  0.00000000000E+00  0.45593999997E+02  0.45594000000E+02  0.51100000000E-03 0. -1.
         11   -1    0    0    0    0 -0.00000000000E+00 -0.00000000000E+00 -0.45593999997E+02  0.45594000000E+02  0.51100000000E-03 0.  1.
    9900012    2    1    2    0    0 -0.11529640763E+01 -0.15755563735E+00 -0.19726401357E+00  0.90007719088E+02  0.89999980180E+02 0.  0.
        -12    1    1    2    0    0  0.11529640763E+01  0.15755563735E+00  0.19726401357E+00  0.11802809120E+01  0.00000000000E+00 0.  1.
         11    1    3    3    0    0  0.17928973380E+02 -0.85275308565E+01 -0.13385883047E+02  0.23944701589E+02  0.51100000000E-03 0. -1.
        -11    1    3    3    0    0  0.86187147868E+01 -0.19853354289E+02  0.15229222179E+02  0.26464450297E+02  0.51100000000E-03 0.  1.
        -12    1    3    3    0    0 -0.27700652243E+02  0.28223329508E+02 -0.20406031458E+01  0.39598567202E+02  0.00000000000E+00 0.  1.
</event>
<event>
 7    1  0.2349719E-015  0.9000777E+02  0.7816164E-02  0.1186339E+00
        -11   -1    0    0    0    0  0.00000000000E+00  0.00000000000E+00  0.45593999997E+02  0.45594000000E+02  0.51100000000E-03 0. -1.
         11   -1    0    0    0    0 -0.00000000000E+00 -0.00000000000E+00 -0.45593999997E+02  0.45594000000E+02  0.51100000000E-03 0.  1.
    9900012    2    1    2    0    0  0.94844674075E+00 -0.25439529675E+00  0.65472520866E+00  0.90007774053E+02  0.90000035871E+02 0.  0.
        -12    1    1    2    0    0 -0.94844674075E+00  0.25439529675E+00 -0.65472520866E+00  0.11802259470E+01  0.00000000000E+00 0.  1.
         11    1    3    3    0    0  0.95203270345E+01 -0.46392995465E+00 -0.16458548748E+02  0.19019350278E+02  0.51100000000E-03 0. -1.
        -11    1    3    3    0    0  0.11907830736E+00  0.23478243029E+02 -0.16858819220E+02  0.28904357130E+02  0.51100000000E-03 0.  1.
         12    1    3    3    0    0 -0.86909586011E+01 -0.23268708371E+02  0.33972093176E+02  0.42084066645E+02  0.00000000000E+00 0. -1.
</event>
<event>
 7    1  0.2349719E-015  0.9000783E+02  0.7816164E-02  0.1186339E+00
        -11   -1    0    0    0    0  0.00000000000E+00  0.00000000000E+00  0.45593999997E+02  0.45594000000E+02  0.51100000000E-03 0. -1.
         11   -1    0    0    0    0 -0.00000000000E+00 -0.00000000000E+00 -0.45593999997E+02  0.45594000000E+02  0.51100000000E-03 0.  1.
    9900012    2    1    2    0    0 -0.33097683375E+00 -0.10657936879E+01  0.38384778552E+00  0.90007830109E+02  0.90000092666E+02 0.  0.
        -12    1    1    2    0    0  0.33097683375E+00  0.10657936879E+01 -0.38384778552E+00  0.11801698912E+01  0.00000000000E+00 0.  1.
         11    1    3    3    0    0 -0.46026347143E+01 -0.62916300520E+01  0.38570870815E+01  0.86974695194E+01  0.51100000000E-03 0. -1.
        -11    1    3    3    0    0 -0.25253220522E+02 -0.26393038669E+02  0.60184983331E+01  0.37020804413E+02  0.51100000000E-03 0.  1.
         12    1    3    3    0    0  0.29524878403E+02  0.31618875033E+02 -0.94917376290E+01  0.44289556176E+02  0.00000000000E+00 0. -1.
</event>
<event>
 7    1  0.2349719E-015  0.9000796E+02  0.7816164E-02  0.1186339E+00
        -11   -1    0    0    0    0  0.00000000000E+00  0.00000000000E+00  0.45593999997E+02  0.45594000000E+02  0.51100000000E-03 0.  1.
         11   -1    0    0    0    0 -0.00000000000E+00 -0.00000000000E+00 -0.45593999997E+02  0.45594000000E+02  0.51100000000E-03 0. -1.
    9900012    2    1    2    0    0 -0.63537081414E+00  0.63807184809E+00 -0.76266848242E+00  0.90007959760E+02  0.90000224028E+02 0.  0.
        -12    1    1    2    0    0  0.63537081414E+00 -0.63807184809E+00  0.76266848242E+00  0.11800402404E+01  0.00000000000E+00 0.  1.
         11    1    3    3    0    0  0.11355419484E+02 -0.15827069692E+02 -0.31882666937E+02  0.37362362585E+02  0.51100000000E-03 0. -1.
        -11    1    3    3    0    0 -0.25766588005E+01 -0.89136546132E+01 -0.23774506614E+01  0.95783443792E+01  0.51100000000E-03 0.  1.
        -12    1    3    3    0    0 -0.94141314974E+01  0.25378796153E+02  0.33497449116E+02  0.43067252795E+02  0.00000000000E+00 0.  1.
</event>
<event>
 7    1  0.2349719E-015  0.9000771E+02  0.7816164E-02  0.1186339E+00
        -11   -1    0    0    0    0  0.00000000000E+00  0.00000000000E+00  0.45593999997E+02  0.45594000000E+02  0.51100000000E-03 0.  1.
         11   -1    0    0    0    0 -0.00000000000E+00 -0.00000000000E+00 -0.45593999997E+02  0.45594000000E+02  0.51100000000E-03 0. -1.
    9900012    2    1    2    0    0  0.63594761894E+00 -0.13349384592E+00 -0.98530808004E+00  0.90007711055E+02  0.89999972041E+02 0.  0.
        -12    1    1    2    0    0 -0.63594761894E+00  0.13349384592E+00  0.98530808004E+00  0.11802889449E+01  0.00000000000E+00 0.  1.
         11    1    3    3    0    0 -0.30208889277E+01  0.17809716923E+02  0.30465080047E+02  0.35417974099E+02  0.51100000000E-03 0. -1.
        -11    1    3    3    0    0  0.10912234198E+02  0.68309262824E+01  0.12424536971E+01  0.12933758175E+02  0.51100000000E-03 0.  1.
        -12    1    3    3    0    0 -0.72553976515E+01 -0.24774137051E+02 -0.32692841824E+02  0.41655978781E+02  0.00000000000E+00 0.  1.
</event>
<event>
 7    1  0.2349719E-015  0.9000778E+02  0.7816164E-02  0.1186339E+00
        -11   -1    0    0    0    0  0.00000000000E+00  0.00000000000E+00  0.45593999997E+02  0.45594000000E+02  0.51100000000E-03 0.  1.
         11   -1    0    0    0    0 -0.00000000000E+00 -0.00000000000E+00 -0.45593999997E+02  0.45594000000E+02  0.51100000000E-03 0. -1.
    9900012    2    1    2    0    0  0.68840426485E+00  0.88934804361E+00  0.35788400917E+00  0.90007779115E+02  0.90000040999E+02 0.  0.
        -12    1    1    2    0    0 -0.68840426485E+00 -0.88934804361E+00 -0.35788400917E+00  0.11802208855E+01  0.00000000000E+00 0.  1.
         11    1    3    3    0    0 -0.16460284597E+01 -0.69574385336E+01 -0.13537411946E+01  0.72765359974E+01  0.51100000000E-03 0. -1.
        -11    1    3    3    0    0 -0.34370179572E+02 -0.10338209819E+02 -0.14456527850E+02  0.38693397677E+02  0.51100000000E-03 0.  1.
         12    1    3    3    0    0  0.36704612297E+02  0.18184996396E+02  0.16168153054E+02  0.44037845440E+02  0.00000000000E+00 0. -1.
</event>
<event>
 7    1  0.2349719E-015  0.9000834E+02  0.7816164E-02  0.1186338E+00
        -11   -1    0    0    0    0  0.00000000000E+00  0.00000000000E+00  0.45593999997E+02  0.45594000000E+02  0.51100000000E-03 0. -1.
         11   -1    0    0    0    0 -0.00000000000E+00 -0.00000000000E+00 -0.45593999997E+02  0.45594000000E+02  0.51100000000E-03 0.  1.
    9900012    2    1    2    0    0 -0.67224103237E+00  0.59513162814E+00  0.76518061861E+00  0.90008342830E+02  0.90000612153E+02 0.  0.
        -12    1    1    2    0    0  0.67224103237E+00 -0.59513162814E+00 -0.76518061861E+00  0.11796571703E+01  0.00000000000E+00 0.  1.
         11    1    3    3    0    0  0.38743682822E+01  0.14833456380E+02  0.25242718449E+02  0.29533658641E+02  0.51100000000E-03 0. -1.
        -11    1    3    3    0    0 -0.19462595816E+02  0.13455219118E+02 -0.80818345384E+01  0.25003031960E+02  0.51100000000E-03 0.  1.
        -12    1    3    3    0    0  0.14915986502E+02 -0.27693543870E+02 -0.16395703292E+02  0.35471652229E+02  0.00000000000E+00 0.  1.
</event>
<event>
 7    1  0.2349719E-015  0.9000766E+02  0.7816164E-02  0.1186339E+00
        -11   -1    0    0    0    0  0.00000000000E+00  0.00000000000E+00  0.45593999997E+02  0.45594000000E+02  0.51100000000E-03 0.  1.
         11   -1    0    0    0    0 -0.00000000000E+00 -0.00000000000E+00 -0.45593999997E+02  0.45594000000E+02  0.51100000000E-03 0. -1.
    9900012    2    1    2    0    0 -0.88102485784E+00  0.84082855486E-01 -0.78097616751E+00  0.90007661701E+02  0.89999922035E+02 0.  0.
        -12    1    1    2    0    0  0.88102485784E+00 -0.84082855486E-01  0.78097616751E+00  0.11803382994E+01  0.00000000000E+00 0.  1.
         11    1    3    3    0    0  0.11518731884E+02 -0.30697115630E+02  0.19133943003E+02  0.37961847522E+02  0.51100000000E-03 0. -1.
        -11    1    3    3    0    0  0.10025685014E+02  0.24992625102E+01  0.91447994365E+00  0.10372894819E+02  0.51100000000E-03 0.  1.
        -12    1    3    3    0    0 -0.22425441756E+02  0.28281935975E+02 -0.20829399115E+02  0.41672919359E+02  0.00000000000E+00 0.  1.
</event>
<event>
 7    1  0.2349719E-015  0.9000776E+02  0.7816164E-02  0.1186339E+00
        -11   -1    0    0    0    0  0.00000000000E+00  0.00000000000E+00  0.45593999997E+02  0.45594000000E+02  0.51100000000E-03 0.  1.
         11   -1    0    0    0    0 -0.00000000000E+00 -0.00000000000E+00 -0.45593999997E+02  0.45594000000E+02  0.51100000000E-03 0. -1.
    9900012    2    1    2    0    0  0.89133467923E+00 -0.73006870240E-01 -0.77016272383E+00  0.90007763526E+02  0.90000025204E+02 0.  0.
        -12    1    1    2    0    0 -0.89133467923E+00  0.73006870240E-01  0.77016272383E+00  0.11802364741E+01  0.00000000000E+00 0.  1.
         11    1    3    3    0    0  0.20228858240E+01  0.28349582592E+01  0.68799532116E+01  0.77112133833E+01  0.51100000000E-03 0. -1.
        -11    1    3    3    0    0 -0.13393348534E+02 -0.68763431789E+01  0.34808560946E+02  0.37924949517E+02  0.51100000000E-03 0.  1.
         12    1    3    3    0    0  0.12261797390E+02  0.39683780495E+01 -0.42458676881E+02  0.44371600626E+02  0.00000000000E+00 0. -1.
</event>
<event>
 7    1  0.2349719E-015  0.9000778E+02  0.7816164E-02  0.1186339E+00
        -11   -1    0    0    0    0  0.00000000000E+00  0.00000000000E+00  0.45593999997E+02  0.45594000000E+02  0.51100000000E-03 0.  1.
         11   -1    0    0    0    0 -0.00000000000E+00 -0.00000000000E+00 -0.45593999997E+02  0.45594000000E+02  0.51100000000E-03 0. -1.
    9900012    2    1    2    0    0  0.65991360031E+00 -0.73924608832E+00 -0.64104701346E+00  0.90007783066E+02  0.90000045002E+02 0.  0.
        -12    1    1    2    0    0 -0.65991360031E+00  0.73924608832E+00  0.64104701346E+00  0.11802169345E+01  0.00000000000E+00 0.  1.
         11    1    3    3    0    0 -0.14225666720E+02  0.13159234315E+02  0.17104210193E+02  0.25847418594E+02  0.51100000000E-03 0. -1.
        -11    1    3    3    0    0  0.10506569263E+02  0.96294661312E+01  0.16865867630E+02  0.22081035004E+02  0.51100000000E-03 0.  1.
         12    1    3    3    0    0  0.43790110564E+01 -0.23527946534E+02 -0.34611124837E+02  0.42079329468E+02  0.00000000000E+00 0. -1.
</event>
<event>
 7    1  0.2349719E-015  0.9000782E+02  0.7816164E-02  0.1186339E+00
        -11   -1    0    0    0    0  0.00000000000E+00  0.00000000000E+00  0.45593999997E+02  0.45594000000E+02  0.51100000000E-03 0. -1.
         11   -1    0    0    0    0 -0.00000000000E+00 -0.00000000000E+00 -0.45593999997E+02  0.45594000000E+02  0.51100000000E-03 0.  1.
    9900012    2    1    2    0    0  0.90085078427E+00  0.59348837579E+00  0.47860649404E+00  0.90007820029E+02  0.90000082453E+02 0.  0.
        -12    1    1    2    0    0 -0.90085078427E+00 -0.59348837579E+00 -0.47860649404E+00  0.11801799710E+01  0.00000000000E+00 0.  1.
         11    1    3    3    0    0  0.13985915140E+02  0.23069103300E+01 -0.88715545788E+01  0.16722204953E+02  0.51100000000E-03 0. -1.
        -11    1    3    3    0    0 -0.49653604468E+01 -0.27065661681E+02 -0.19730798694E+02  0.33860142705E+02  0.51100000000E-03 0.  1.
         12    1    3    3    0    0 -0.81197039088E+01  0.25352239727E+02  0.29080959767E+02  0.39425472372E+02  0.00000000000E+00 0. -1.
</event>
<event>
 7    1  0.2349719E-015  0.9000768E+02  0.7816164E-02  0.1186339E+00
        -11   -1    0    0    0    0  0.00000000000E+00  0.00000000000E+00  0.45593999997E+02  0.45594000000E+02  0.51100000000E-03 0. -1.
         11   -1    0    0    0    0 -0.00000000000E+00 -0.00000000000E+00 -0.45593999997E+02  0.45594000000E+02  0.51100000000E-03 0.  1.
    9900012    2    1    2    0    0 -0.75725733193E-01  0.54878114048E+00  0.10422399198E+01  0.90007678359E+02  0.89999938913E+02 0.  0.
        -12    1    1    2    0    0  0.75725733193E-01 -0.54878114048E+00 -0.10422399198E+01  0.11803216414E+01  0.00000000000E+00 0.  1.
         11    1    3    3    0    0 -0.37610811210E+01  0.57870997339E+01 -0.70522550852E+01  0.98676520296E+01  0.51100000000E-03 0. -1.
        -11    1    3    3    0    0 -0.24868796711E-01 -0.95632075499E+01 -0.35198051545E+02  0.36474078329E+02  0.51100000000E-03 0.  1.
         12    1    3    3    0    0  0.37102241845E+01  0.43248889565E+01  0.43292546550E+02  0.43665948000E+02  0.00000000000E+00 0. -1.
</event>
<event>
 7    1  0.2349719E-015  0.9000770E+02  0.7816164E-02  0.1186339E+00
        -11   -1    0    0    0    0  0.00000000000E+00  0.00000000000E+00  0.45593999997E+02  0.45594000000E+02  0.51100000000E-03 0.  1.
         11   -1    0    0    0    0 -0.00000000000E+00 -0.00000000000E+00 -0.45593999997E+02  0.45594000000E+02  0.51100000000E-03 0. -1.
    9900012    2    1    2    0    0  0.36351894839E+00 -0.11164331215E+01  0.12060643425E+00  0.90007697135E+02  0.89999957937E+02 0.  0.
        -12    1    1    2    0    0 -0.36351894839E+00  0.11164331215E+01 -0.12060643425E+00  0.11803028647E+01  0.00000000000E+00 0.  1.
         11    1    3    3    0    0 -0.50570810322E+01 -0.11546014227E+01 -0.83874176736E+01  0.98618430582E+01  0.51100000000E-03 0. -1.
        -11    1    3    3    0    0 -0.10471901379E+02  0.13705696259E+02  0.39287344842E+02  0.42906902631E+02  0.51100000000E-03 0.  1.
         12    1    3    3    0    0  0.15892501359E+02 -0.13667527958E+02 -0.30779320734E+02  0.37238951446E+02  0.00000000000E+00 0. -1.
</event>
<event>
 7    1  0.2349719E-015  0.9000688E+02  0.7816164E-02  0.1186341E+00
        -11   -1    0    0    0    0  0.00000000000E+00  0.00000000000E+00  0.45593999997E+02  0.45594000000E+02  0.51100000000E-03 0.  1.
         11   -1    0    0    0    0 -0.00000000000E+00 -0.00000000000E+00 -0.45593999997E+02  0.45594000000E+02  0.51100000000E-03 0. -1.
    9900012    2    1    2    0    0  0.94186008441E+00 -0.23994194596E-01 -0.71229747080E+00  0.90006880266E+02  0.89999130281E+02 0.  0.
        -12    1    1    2    0    0 -0.94186008441E+00  0.23994194596E-01  0.71229747080E+00  0.11811197344E+01  0.00000000000E+00 0.  1.
         11    1    3    3    0    0  0.26130664723E+02  0.37364808565E+01  0.10188186024E+02  0.28294382177E+02  0.51100000000E-03 0. -1.
        -11    1    3    3    0    0  0.15628214662E+02 -0.89499063944E+01 -0.99077517569E+01  0.20554937683E+02  0.51100000000E-03 0.  1.
        -12    1    3    3    0    0 -0.40817019301E+02  0.51894313433E+01 -0.99273173832E+00  0.41157560406E+02  0.00000000000E+00 0.  1.
</event>
<event>
 7    1  0.2349719E-015  0.9000779E+02  0.7816164E-02  0.1186339E+00
        -11   -1    0    0    0    0  0.00000000000E+00  0.00000000000E+00  0.45593999997E+02  0.45594000000E+02  0.51100000000E-03 0.  1.
         11   -1    0    0    0    0 -0.00000000000E+00 -0.00000000000E+00 -0.45593999997E+02  0.45594000000E+02  0.51100000000E-03 0. -1.
    9900012    2    1    2    0    0 -0.49634643401E+00 -0.18726134137E+00 -0.10542665454E+01  0.90007786231E+02  0.90000048209E+02 0.  0.
        -12    1    1    2    0    0  0.49634643401E+00  0.18726134137E+00  0.10542665454E+01  0.11802137693E+01  0.00000000000E+00 0.  1.
         11    1    3    3    0    0  0.23124133755E+02 -0.12536423752E+02 -0.27771677064E+02  0.38251189911E+02  0.51100000000E-03 0. -1.
        -11    1    3    3    0    0 -0.26447072474E+01 -0.11186164203E+01 -0.82945311306E+01  0.87775296102E+01  0.51100000000E-03 0.  1.
        -12    1    3    3    0    0 -0.20975772942E+02  0.13467778831E+02  0.35011941649E+02  0.42979066709E+02  0.00000000000E+00 0.  1.
</event>
<event>
 7    1  0.2349719E-015  0.9000778E+02  0.7816164E-02  0.1186339E+00
        -11   -1    0    0    0    0  0.00000000000E+00  0.00000000000E+00  0.45593999997E+02  0.45594000000E+02  0.51100000000E-03 0. -1.
         11   -1    0    0    0    0 -0.00000000000E+00 -0.00000000000E+00 -0.45593999997E+02  0.45594000000E+02  0.51100000000E-03 0.  1.
    9900012    2    1    2    0    0 -0.44105797566E+00  0.10855918550E+01 -0.14101671898E+00  0.90007776492E+02  0.90000038342E+02 0.  0.
        -12    1    1    2    0    0  0.44105797566E+00 -0.10855918550E+01  0.14101671898E+00  0.11802235079E+01  0.00000000000E+00 0.  1.
         11    1    3    3    0    0 -0.95878182001E+01  0.22753483788E+02  0.25346014480E+02  0.35384569131E+02  0.51100000000E-03 0. -1.
        -11    1    3    3    0    0  0.65989342943E+01 -0.12151451541E+02  0.10467905136E+02  0.17343031643E+02  0.51100000000E-03 0.  1.
        -12    1    3    3    0    0  0.25478259301E+01 -0.95164403919E+01 -0.35954936335E+02  0.37280175718E+02  0.00000000000E+00 0.  1.
</event>
<event>
 7    1  0.2349719E-015  0.9000775E+02  0.7816164E-02  0.1186339E+00
        -11   -1    0    0    0    0  0.00000000000E+00  0.00000000000E+00  0.45593999997E+02  0.45594000000E+02  0.51100000000E-03 0. -1.
         11   -1    0    0    0    0 -0.00000000000E+00 -0.00000000000E+00 -0.45593999997E+02  0.45594000000E+02  0.51100000000E-03 0.  1.
    9900012    2    1    2    0    0  0.11541980040E+00  0.55395828553E+00  0.10357542439E+01  0.90007754955E+02  0.90000016520E+02 0.  0.
        -12    1    1    2    0    0 -0.11541980040E+00 -0.55395828553E+00 -0.10357542439E+01  0.11802450450E+01  0.00000000000E+00 0.  1.
         11    1    3    3    0    0 -0.32133221351E+01 -0.17561153253E+01  0.11891906422E+02  0.12442942529E+02  0.51100000000E-03 0. -1.
        -11    1    3    3    0    0 -0.17817605079E+02 -0.50353012222E+01 -0.38065856007E+02  0.42330021296E+02  0.51100000000E-03 0.  1.
         12    1    3    3    0    0  0.21146347014E+02  0.73453748330E+01  0.27209703829E+02  0.35234791129E+02  0.00000000000E+00 0. -1.
</event>
<event>
 7    1  0.2349719E-015  0.9000773E+02  0.7816164E-02  0.1186339E+00
        -11   -1    0    0    0    0  0.00000000000E+00  0.00000000000E+00  0.45593999997E+02  0.45594000000E+02  0.51100000000E-03 0.  1.
         11   -1    0    0    0    0 -0.00000000000E+00 -0.00000000000E+00 -0.45593999997E+02  0.45594000000E+02  0.51100000000E-03 0. -1.
    9900012    2    1    2    0    0  0.60865322637E+00  0.10108614259E+01 -0.27370009093E-01  0.90007725163E+02  0.89999986336E+02 0.  0.
        -12    1    1    2    0    0 -0.60865322637E+00 -0.10108614259E+01  0.27370009093E-01  0.11802748365E+01  0.00000000000E+00 0.  1.
         11    1    3    3    0    0  0.28624853835E+01 -0.18573582003E+01  0.96441292586E+01  0.10229996651E+02  0.51100000000E-03 0. -1.
        -11    1    3    3    0    0  0.69705001768E+01 -0.19034299885E+02  0.28403216151E+02  0.34894628997E+02  0.51100000000E-03 0.  1.
         12    1    3    3    0    0 -0.92243323339E+01  0.21902519511E+02 -0.38074715419E+02  0.44883099516E+02  0.00000000000E+00 0. -1.
</event>
<event>
 7    1  0.2349719E-015  0.9000780E+02  0.7816164E-02  0.1186339E+00
        -11   -1    0    0    0    0  0.00000000000E+00  0.00000000000E+00  0.45593999997E+02  0.45594000000E+02  0.51100000000E-03 0. -1.
         11   -1    0    0    0    0 -0.00000000000E+00 -0.00000000000E+00 -0.45593999997E+02  0.45594000000E+02  0.51100000000E-03 0.  1.
    9900012    2    1    2    0    0  0.69599111911E+00 -0.95276045301E+00  0.26882403691E-01  0.90007797144E+02  0.90000059266E+02 0.  0.
        -12    1    1    2    0    0 -0.69599111911E+00  0.95276045301E+00 -0.26882403691E-01  0.11802028564E+01  0.00000000000E+00 0.  1.
         11    1    3    3    0    0 -0.53704385231E+01 -0.90939386475E+01  0.56153415940E+01  0.11961329004E+02  0.51100000000E-03 0. -1.
        -11    1    3    3    0    0  0.34063328248E+02 -0.86502769213E+01  0.16300961409E+02  0.38740921068E+02  0.51100000000E-03 0.  1.
         12    1    3    3    0    0 -0.27996898606E+02  0.16791455116E+02 -0.21889420599E+02  0.39305547071E+02  0.00000000000E+00 0. -1.
</event>
<event>
 7    1  0.2349719E-015  0.9000780E+02  0.7816164E-02  0.1186339E+00
        -11   -1    0    0    0    0  0.00000000000E+00  0.00000000000E+00  0.45593999997E+02  0.45594000000E+02  0.51100000000E-03 0. -1.
         11   -1    0    0    0    0 -0.00000000000E+00 -0.00000000000E+00 -0.45593999997E+02  0.45594000000E+02  0.51100000000E-03 0.  1.
    9900012    2    1    2    0    0 -0.39114692045E+00 -0.73403351770E+00  0.83729632861E+00  0.90007802449E+02  0.90000064641E+02 0.  0.
        -12    1    1    2    0    0  0.39114692045E+00  0.73403351770E+00 -0.83729632861E+00  0.11801975514E+01  0.00000000000E+00 0.  1.
         11    1    3    3    0    0 -0.13194935920E+01  0.33852422390E+01 -0.85329468467E+01  0.92742714272E+01  0.51100000000E-03 0. -1.
        -11    1    3    3    0    0  0.67896874437E+01  0.21250486786E+02 -0.27616086628E+02  0.35501144843E+02  0.51100000000E-03 0.  1.
         12    1    3    3    0    0 -0.58613407721E+01 -0.25369762543E+02  0.36986329803E+02  0.45232386179E+02  0.00000000000E+00 0. -1.
</event>
<event>
 7    1  0.2349719E-015  0.9000778E+02  0.7816164E-02  0.1186339E+00
        -11   -1    0    0    0    0  0.00000000000E+00  0.00000000000E+00  0.45593999997E+02  0.45594000000E+02  0.51100000000E-03 0. -1.
         11   -1    0    0    0    0 -0.00000000000E+00 -0.00000000000E+00 -0.45593999997E+02  0.45594000000E+02  0.51100000000E-03 0.  1.
    9900012    2    1    2    0    0  0.28638602432E+00 -0.21314255407E+00  0.11249353638E+01  0.90007777023E+02  0.90000038879E+02 0.  0.
        -12    1    1    2    0    0 -0.28638602432E+00  0.21314255407E+00 -0.11249353638E+01  0.11802229773E+01  0.00000000000E+00 0.  1.
         11    1    3    3    0    0 -0.19736623964E+01 -0.75283697514E+01 -0.22792339291E+01  0.81096610246E+01  0.51100000000E-03 0. -1.
        -11    1    3    3    0    0  0.70243462227E+01  0.12398981393E+02 -0.37650143411E+02  0.40256794191E+02  0.51100000000E-03 0.  1.
         12    1    3    3    0    0 -0.47642978020E+01 -0.50837541961E+01  0.41054312704E+02  0.41641321807E+02  0.00000000000E+00 0. -1.
</event>
<event>
 7    1  0.2349719E-015  0.9000753E+02  0.7816164E-02  0.1186339E+00
        -11   -1    0    0    0    0  0.00000000000E+00  0.00000000000E+00  0.45593999997E+02  0.45594000000E+02  0.51100000000E-03 0.  1.
         11   -1    0    0    0    0 -0.00000000000E+00 -0.00000000000E+00 -0.45593999997E+02  0.45594000000E+02  0.51100000000E-03 0. -1.
    9900012    2    1    2    0    0 -0.84062426383E+00 -0.81973719740E+00 -0.12207684885E+00  0.90007525103E+02  0.89999783634E+02 0.  0.
        -12    1    1    2    0    0  0.84062426383E+00  0.81973719740E+00  0.12207684885E+00  0.11804748971E+01  0.00000000000E+00 0.  1.
         11    1    3    3    0    0 -0.83955680948E+01 -0.28038299807E+01  0.28786287407E+01  0.93077134616E+01  0.51100000000E-03 0. -1.
        -11    1    3    3    0    0 -0.27733539842E+02  0.26308433064E+01 -0.26378449452E+02  0.38365259863E+02  0.51100000000E-03 0.  1.
         12    1    3    3    0    0  0.35288483673E+02 -0.64675052313E+00  0.23377743862E+02  0.42334551778E+02  0.00000000000E+00 0. -1.
</event>
<event>
 7    1  0.2349719E-015  0.9000777E+02  0.7816164E-02  0.1186339E+00
        -11   -1    0    0    0    0  0.00000000000E+00  0.00000000000E+00  0.45593999997E+02  0.45594000000E+02  0.51100000000E-03 0.  1.
         11   -1    0    0    0    0 -0.00000000000E+00 -0.00000000000E+00 -0.45593999997E+02  0.45594000000E+02  0.51100000000E-03 0. -1.
    9900012    2    1    2    0    0  0.10537210333E+01 -0.20983066847E-01 -0.53121090435E+00  0.90007765561E+02  0.90000027267E+02 0.  0.
        -12    1    1    2    0    0 -0.10537210333E+01  0.20983066847E-01  0.53121090435E+00  0.11802344386E+01  0.00000000000E+00 0.  1.
         11    1    3    3    0    0  0.42343334323E+01  0.71671128009E+01 -0.43012545301E+01  0.93700520975E+01  0.51100000000E-03 0. -1.
        -11    1    3    3    0    0 -0.34937399032E+02  0.17035665012E+02 -0.64715909949E+01  0.39404533037E+02  0.51100000000E-03 0.  1.
         12    1    3    3    0    0  0.31756786633E+02 -0.24223760880E+02  0.10241634621E+02  0.41233180427E+02  0.00000000000E+00 0. -1.
</event>
<event>
 7    1  0.2349719E-015  0.9000775E+02  0.7816164E-02  0.1186339E+00
        -11   -1    0    0    0    0  0.00000000000E+00  0.00000000000E+00  0.45593999997E+02  0.45594000000E+02  0.51100000000E-03 0. -1.
         11   -1    0    0    0    0 -0.00000000000E+00 -0.00000000000E+00 -0.45593999997E+02  0.45594000000E+02  0.51100000000E-03 0.  1.
    9900012    2    1    2    0    0 -0.84906446069E+00  0.71763165364E+00  0.39633427679E+00  0.90007751506E+02  0.90000013026E+02 0.  0.
        -12    1    1    2    0    0  0.84906446069E+00 -0.71763165364E+00 -0.39633427679E+00  0.11802484940E+01  0.00000000000E+00 0.  1.
         11    1    3    3    0    0 -0.16428744042E+01  0.35516272488E+02  0.15854355187E+02  0.38928976694E+02  0.51100000000E-03 0. -1.
        -11    1    3    3    0    0  0.27016926224E+01 -0.16399696763E+01  0.91902278320E+01  0.97184840088E+01  0.51100000000E-03 0.  1.
        -12    1    3    3    0    0 -0.19078826788E+01 -0.33158671158E+02 -0.24648248742E+02  0.41360290804E+02  0.00000000000E+00 0.  1.
</event>
<event>
 7    1  0.2349719E-015  0.9000770E+02  0.7816164E-02  0.1186339E+00
        -11   -1    0    0    0    0  0.00000000000E+00  0.00000000000E+00  0.45593999997E+02  0.45594000000E+02  0.51100000000E-03 0. -1.
         11   -1    0    0    0    0 -0.00000000000E+00 -0.00000000000E+00 -0.45593999997E+02  0.45594000000E+02  0.51100000000E-03 0.  1.
    9900012    2    1    2    0    0 -0.47081248418E+00  0.88895810036E+00  0.61741693796E+00  0.90007697253E+02  0.89999958057E+02 0.  0.
        -12    1    1    2    0    0  0.47081248418E+00 -0.88895810036E+00 -0.61741693796E+00  0.11803027471E+01  0.00000000000E+00 0.  1.
         11    1    3    3    0    0 -0.58985413663E+01  0.53723606074E+00  0.70504198496E+01  0.92081395054E+01  0.51100000000E-03 0. -1.
        -11    1    3    3    0    0 -0.33099130700E+02 -0.15115872289E+02 -0.13255996493E+02  0.38726780029E+02  0.51100000000E-03 0.  1.
         12    1    3    3    0    0  0.38526859582E+02  0.15467594329E+02  0.68229935809E+01  0.42072777719E+02  0.00000000000E+00 0. -1.
</event>
<event>
 7    1  0.2349719E-015  0.9000773E+02  0.7816164E-02  0.1186339E+00
        -11   -1    0    0    0    0  0.00000000000E+00  0.00000000000E+00  0.45593999997E+02  0.45594000000E+02  0.51100000000E-03 0.  1.
         11   -1    0    0    0    0 -0.00000000000E+00 -0.00000000000E+00 -0.45593999997E+02  0.45594000000E+02  0.51100000000E-03 0. -1.
    9900012    2    1    2    0    0 -0.22239365145E+00  0.11461214984E+01  0.17317712465E+00  0.90007727260E+02  0.89999988459E+02 0.  0.
        -12    1    1    2    0    0  0.22239365145E+00 -0.11461214984E+01 -0.17317712465E+00  0.11802727404E+01  0.00000000000E+00 0.  1.
         11    1    3    3    0    0  0.10141689088E+02  0.52674608437E+01 -0.44761718985E+01  0.12273390584E+02  0.51100000000E-03 0. -1.
        -11    1    3    3    0    0 -0.13688605915E+02  0.34552925172E+02  0.10157324406E+02  0.38528610268E+02  0.51100000000E-03 0.  1.
         12    1    3    3    0    0  0.33245231754E+01 -0.38674264518E+02 -0.55079753826E+01  0.39205726407E+02  0.00000000000E+00 0. -1.
</event>
<event>
 7    1  0.2349719E-015  0.9000758E+02  0.7816164E-02  0.1186339E+00
        -11   -1    0    0    0    0  0.00000000000E+00  0.00000000000E+00  0.45593999997E+02  0.45594000000E+02  0.51100000000E-03 0.  1.
         11   -1    0    0    0    0 -0.00000000000E+00 -0.00000000000E+00 -0.45593999997E+02  0.45594000000E+02  0.51100000000E-03 0. -1.
    9900012    2    1    2    0    0  0.71453941312E+00 -0.72686285903E+00 -0.59538953208E+00  0.90007582750E+02  0.89999842042E+02 0.  0.
        -12    1    1    2    0    0 -0.71453941312E+00  0.72686285903E+00  0.59538953208E+00  0.11804172498E+01  0.00000000000E+00 0.  1.
         11    1    3    3    0    0  0.85641556773E+01 -0.40104065607E+01 -0.36854393175E+02  0.38048316911E+02  0.51100000000E-03 0. -1.
        -11    1    3    3    0    0  0.66082950572E+01  0.42922766760E+01 -0.42377925703E+01  0.89471832861E+01  0.51100000000E-03 0.  1.
        -12    1    3    3    0    0 -0.14457911321E+02 -0.10087329743E+01  0.40496796213E+02  0.43012082553E+02  0.00000000000E+00 0.  1.
</event>
<event>
 7    1  0.2349719E-015  0.9000777E+02  0.7816164E-02  0.1186339E+00
        -11   -1    0    0    0    0  0.00000000000E+00  0.00000000000E+00  0.45593999997E+02  0.45594000000E+02  0.51100000000E-03 0. -1.
         11   -1    0    0    0    0 -0.00000000000E+00 -0.00000000000E+00 -0.45593999997E+02  0.45594000000E+02  0.51100000000E-03 0.  1.
    9900012    2    1    2    0    0  0.64876297743E-01  0.11776963900E+01  0.42054888072E-01  0.90007768525E+02  0.90000030270E+02 0.  0.
        -12    1    1    2    0    0 -0.64876297743E-01 -0.11776963900E+01 -0.42054888072E-01  0.11802314750E+01  0.00000000000E+00 0.  1.
         11    1    3    3    0    0  0.89363221246E+01 -0.33545263496E+02 -0.12200705145E+02  0.36796735758E+02  0.51100000000E-03 0. -1.
        -11    1    3    3    0    0  0.93062392047E+01 -0.52972150344E+00 -0.42636036311E+01  0.10250122399E+02  0.51100000000E-03 0.  1.
        -12    1    3    3    0    0 -0.18177685032E+02  0.35252681390E+02  0.16506363664E+02  0.42960910368E+02  0.00000000000E+00 0.  1.
</event>
<event>
 7    1  0.2349719E-015  0.9000761E+02  0.7816164E-02  0.1186339E+00
        -11   -1    0    0    0    0  0.00000000000E+00  0.00000000000E+00  0.45593999997E+02  0.45594000000E+02  0.51100000000E-03 0. -1.
         11   -1    0    0    0    0 -0.00000000000E+00 -0.00000000000E+00 -0.45593999997E+02  0.45594000000E+02  0.51100000000E-03 0.  1.
    9900012    2    1    2    0    0 -0.94275584599E+00  0.63826889780E+00 -0.31169061434E+00  0.90007607349E+02  0.89999866966E+02 0.  0.
        -12    1    1    2    0    0  0.94275584599E+00 -0.63826889780E+00  0.31169061434E+00  0.11803926508E+01  0.00000000000E+00 0.  1.
         11    1    3    3    0    0  0.15507143735E+02 -0.23479793284E+02  0.23155895652E+02  0.36441291184E+02  0.51100000000E-03 0. -1.
        -11    1    3    3    0    0  0.73085266373E+01  0.23536493400E+01  0.61223597465E+01  0.98202604828E+01  0.51100000000E-03 0.  1.
        -12    1    3    3    0    0 -0.23758426219E+02  0.21764412842E+02 -0.29589946012E+02  0.43746055682E+02  0.00000000000E+00 0.  1.
</event>
<event>
 7    1  0.2349719E-015  0.9000776E+02  0.7816164E-02  0.1186339E+00
        -11   -1    0    0    0    0  0.00000000000E+00  0.00000000000E+00  0.45593999997E+02  0.45594000000E+02  0.51100000000E-03 0.  1.
         11   -1    0    0    0    0 -0.00000000000E+00 -0.00000000000E+00 -0.45593999997E+02  0.45594000000E+02  0.51100000000E-03 0. -1.
    9900012    2    1    2    0    0  0.24590587045E+00 -0.90715034051E+00  0.71384921463E+00  0.90007757593E+02  0.90000019194E+02 0.  0.
        -12    1    1    2    0    0 -0.24590587045E+00  0.90715034051E+00 -0.71384921463E+00  0.11802424067E+01  0.00000000000E+00 0.  1.
         11    1    3    3    0    0 -0.23465952641E+01  0.61110930001E+00  0.94593704712E+01  0.97652267707E+01  0.51100000000E-03 0. -1.
        -11    1    3    3    0    0  0.25732028184E+01  0.29868445379E+02 -0.29940601873E+02  0.42369624059E+02  0.51100000000E-03 0.  1.
         12    1    3    3    0    0  0.19298316186E-01 -0.31386705020E+02  0.21195080616E+02  0.37872906764E+02  0.00000000000E+00 0. -1.
</event>
<event>
 7    1  0.2349719E-015  0.9000788E+02  0.7816164E-02  0.1186339E+00
        -11   -1    0    0    0    0  0.00000000000E+00  0.00000000000E+00  0.45593999997E+02  0.45594000000E+02  0.51100000000E-03 0. -1.
         11   -1    0    0    0    0 -0.00000000000E+00 -0.00000000000E+00 -0.45593999997E+02  0.45594000000E+02  0.51100000000E-03 0.  1.
    9900012    2    1    2    0    0 -0.14363516454E+00 -0.97319011192E+00  0.65187737042E+00  0.90007883836E+02  0.90000147103E+02 0.  0.
        -12    1    1    2    0    0  0.14363516454E+00  0.97319011192E+00 -0.65187737042E+00  0.11801161640E+01  0.00000000000E+00 0.  1.
         11    1    3    3    0    0  0.19799339834E+01  0.34696331126E+02  0.38069100098E+01  0.34960664986E+02  0.51100000000E-03 0. -1.
        -11    1    3    3    0    0  0.22064992881E+01  0.87577325369E+01 -0.50910008890E+01  0.10367488057E+02  0.51100000000E-03 0.  1.
        -12    1    3    3    0    0 -0.43300684360E+01 -0.44427253775E+02  0.19359682497E+01  0.44679730793E+02  0.00000000000E+00 0.  1.
</event>
<event>
 7    1  0.3086431E-015  0.9000778E+02  0.7816164E-02  0.1186339E+00
        -11   -1    0    0    0    0  0.00000000000E+00  0.00000000000E+00  0.45593999997E+02  0.45594000000E+02  0.51100000000E-03 0. -1.
         11   -1    0    0    0    0 -0.00000000000E+00 -0.00000000000E+00 -0.45593999997E+02  0.45594000000E+02  0.51100000000E-03 0.  1.
    9900012    2    1    2    0    0 -0.56763272615E+00  0.98417851913E+00 -0.31955096350E+00  0.90007776679E+02  0.90000038531E+02 0.  0.
        -12    1    1    2    0    0  0.56763272615E+00 -0.98417851913E+00  0.31955096350E+00  0.11802233211E+01  0.00000000000E+00 0.  1.
         11    1    3    3    0    0  0.24945604955E+02 -0.67083982916E+01  0.24918104947E+02  0.35891472088E+02  0.51100000000E-03 0. -1.
        -11    1    3    3    0    0  0.89186961061E+01 -0.80561788592E+00  0.22647074310E+01  0.92369399922E+01  0.51100000000E-03 0.  1.
        -12    1    3    3    0    0 -0.34431933788E+02  0.84981946967E+01 -0.27502363341E+02  0.44879364599E+02  0.00000000000E+00 0.  1.
</event>
<event>
 7    1  0.2349719E-015  0.9000761E+02  0.7816164E-02  0.1186339E+00
        -11   -1    0    0    0    0  0.00000000000E+00  0.00000000000E+00  0.45593999997E+02  0.45594000000E+02  0.51100000000E-03 0.  1.
         11   -1    0    0    0    0 -0.00000000000E+00 -0.00000000000E+00 -0.45593999997E+02  0.45594000000E+02  0.51100000000E-03 0. -1.
    9900012    2    1    2    0    0 -0.49888080669E+00  0.47693727842E+00 -0.95759116289E+00  0.90007605125E+02  0.89999864712E+02 0.  0.
        -12    1    1    2    0    0  0.49888080669E+00 -0.47693727842E+00  0.95759116289E+00  0.11803948755E+01  0.00000000000E+00 0.  1.
         11    1    3    3    0    0  0.44722799895E+01  0.29580599200E+01 -0.79678729549E+01  0.96040828027E+01  0.51100000000E-03 0. -1.
        -11    1    3    3    0    0  0.36149521329E+02  0.86900983501E+01 -0.23913294595E+00  0.37180141023E+02  0.51100000000E-03 0.  1.
         12    1    3    3    0    0 -0.41120682125E+02 -0.11171220992E+02  0.72494147379E+01  0.43223381299E+02  0.00000000000E+00 0. -1.
</event>
<event>
 7    1  0.2349719E-015  0.9000775E+02  0.7816164E-02  0.1186339E+00
        -11   -1    0    0    0    0  0.00000000000E+00  0.00000000000E+00  0.45593999997E+02  0.45594000000E+02  0.51100000000E-03 0.  1.
         11   -1    0    0    0    0 -0.00000000000E+00 -0.00000000000E+00 -0.45593999997E+02  0.45594000000E+02  0.51100000000E-03 0. -1.
    9900012    2    1    2    0    0 -0.84059420189E+00  0.56808117585E+00  0.60306060689E+00  0.90007747091E+02  0.90000008552E+02 0.  0.
        -12    1    1    2    0    0  0.84059420189E+00 -0.56808117585E+00 -0.60306060689E+00  0.11802529094E+01  0.00000000000E+00 0.  1.
         11    1    3    3    0    0 -0.25950028155E+01 -0.41330052658E+01  0.81389129257E+01  0.94898722864E+01  0.51100000000E-03 0. -1.
        -11    1    3    3    0    0  0.10825331356E+02  0.15515720066E+02  0.32754968701E+02  0.37826093414E+02  0.51100000000E-03 0.  1.
         12    1    3    3    0    0 -0.90709227423E+01 -0.10814633624E+02 -0.40290821020E+02  0.42691781390E+02  0.00000000000E+00 0. -1.
</event>
<event>
 7    1  0.2349719E-015  0.9000771E+02  0.7816164E-02  0.1186339E+00
        -11   -1    0    0    0    0  0.00000000000E+00  0.00000000000E+00  0.45593999997E+02  0.45594000000E+02  0.51100000000E-03 0. -1.
         11   -1    0    0    0    0 -0.00000000000E+00 -0.00000000000E+00 -0.45593999997E+02  0.45594000000E+02  0.51100000000E-03 0.  1.
    9900012    2    1    2    0    0 -0.43775148752E+00 -0.63498868796E+00  0.89344254406E+00  0.90007713349E+02  0.89999974365E+02 0.  0.
        -12    1    1    2    0    0  0.43775148752E+00  0.63498868796E+00 -0.89344254406E+00  0.11802866509E+01  0.00000000000E+00 0.  1.
         11    1    3    3    0    0  0.23168489677E+02 -0.33493421304E+02 -0.27079828895E+01  0.40815699873E+02  0.51100000000E-03 0. -1.
        -11    1    3    3    0    0  0.61286058190E+01  0.83131700117E+01 -0.92978669298E+00  0.10369817187E+02  0.51100000000E-03 0.  1.
        -12    1    3    3    0    0 -0.29734846983E+02  0.24545262604E+02  0.45312121265E+01  0.38822196290E+02  0.00000000000E+00 0.  1.
</event>
<event>
 7    1  0.2349719E-015  0.9000768E+02  0.7816164E-02  0.1186339E+00
        -11   -1    0    0    0    0  0.00000000000E+00  0.00000000000E+00  0.45593999997E+02  0.45594000000E+02  0.51100000000E-03 0. -1.
         11   -1    0    0    0    0 -0.00000000000E+00 -0.00000000000E+00 -0.45593999997E+02  0.45594000000E+02  0.51100000000E-03 0.  1.
    9900012    2    1    2    0    0 -0.83612728042E+00 -0.70099338902E+00 -0.45018230715E+00  0.90007676032E+02  0.89999936555E+02 0.  0.
        -12    1    1    2    0    0  0.83612728042E+00  0.70099338902E+00  0.45018230715E+00  0.11803239683E+01  0.00000000000E+00 0.  1.
         11    1    3    3    0    0  0.40020024400E+02 -0.37181232100E+01 -0.41570075658E+01  0.40406775488E+02  0.51100000000E-03 0. -1.
        -11    1    3    3    0    0 -0.27323621680E+01 -0.89463931431E+01  0.22315262406E+01  0.96168322702E+01  0.51100000000E-03 0.  1.
        -12    1    3    3    0    0 -0.38123789512E+02  0.11963522964E+02  0.14752990181E+01  0.39984068273E+02  0.00000000000E+00 0.  1.
</event>
<event>
 7    1  0.2349719E-015  0.9000776E+02  0.7816164E-02  0.1186339E+00
        -11   -1    0    0    0    0  0.00000000000E+00  0.00000000000E+00  0.45593999997E+02  0.45594000000E+02  0.51100000000E-03 0.  1.
         11   -1    0    0    0    0 -0.00000000000E+00 -0.00000000000E+00 -0.45593999997E+02  0.45594000000E+02  0.51100000000E-03 0. -1.
    9900012    2    1    2    0    0  0.67259103186E+00  0.17978955432E+00 -0.95302284078E+00  0.90007764636E+02  0.90000026329E+02 0.  0.
        -12    1    1    2    0    0 -0.67259103186E+00 -0.17978955432E+00  0.95302284078E+00  0.11802353643E+01  0.00000000000E+00 0.  1.
         11    1    3    3    0    0 -0.16641478031E+02 -0.30576505438E+02 -0.51904962895E+01  0.35196629495E+02  0.51100000000E-03 0. -1.
        -11    1    3    3    0    0  0.37064374011E+01 -0.95552062747E+01  0.66153647338E+01  0.12198471051E+02  0.51100000000E-03 0.  1.
        -12    1    3    3    0    0  0.13607631661E+02  0.40311501267E+02 -0.23778912851E+01  0.42612664089E+02  0.00000000000E+00 0.  1.
</event>
<event>
 7    1  0.2349719E-015  0.9000776E+02  0.7816164E-02  0.1186339E+00
        -11   -1    0    0    0    0  0.00000000000E+00  0.00000000000E+00  0.45593999997E+02  0.45594000000E+02  0.51100000000E-03 0.  1.
         11   -1    0    0    0    0 -0.00000000000E+00 -0.00000000000E+00 -0.45593999997E+02  0.45594000000E+02  0.51100000000E-03 0. -1.
    9900012    2    1    2    0    0 -0.35766894333E+00 -0.10647136777E+01  0.36252837943E+00  0.90007758874E+02  0.90000020492E+02 0.  0.
        -12    1    1    2    0    0  0.35766894333E+00  0.10647136777E+01 -0.36252837943E+00  0.11802411255E+01  0.00000000000E+00 0.  1.
         11    1    3    3    0    0  0.96688938096E+01  0.13315755157E+02 -0.34655642620E+02  0.38364181322E+02  0.51100000000E-03 0. -1.
        -11    1    3    3    0    0 -0.65129898705E+01 -0.54395987712E+00 -0.55893925662E+01  0.85997813298E+01  0.51100000000E-03 0.  1.
        -12    1    3    3    0    0 -0.35135728824E+01 -0.13836508957E+02  0.40607563565E+02  0.43043796222E+02  0.00000000000E+00 0.  1.
</event>
<event>
 7    1  0.2349719E-015  0.9000775E+02  0.7816164E-02  0.1186339E+00
        -11   -1    0    0    0    0  0.00000000000E+00  0.00000000000E+00  0.45593999997E+02  0.45594000000E+02  0.51100000000E-03 0. -1.
         11   -1    0    0    0    0 -0.00000000000E+00 -0.00000000000E+00 -0.45593999997E+02  0.45594000000E+02  0.51100000000E-03 0.  1.
    9900012    2    1    2    0    0  0.92304505568E+00  0.51052695445E+00 -0.52946054515E+00  0.90007754934E+02  0.90000016500E+02 0.  0.
        -12    1    1    2    0    0 -0.92304505568E+00 -0.51052695445E+00  0.52946054515E+00  0.11802450656E+01  0.00000000000E+00 0.  1.
         11    1    3    3    0    0  0.60232325280E+00  0.95787214304E+01  0.37617640550E+01  0.10308519128E+02  0.51100000000E-03 0. -1.
        -11    1    3    3    0    0 -0.59180834395E+01  0.28282107036E+02 -0.23494146054E+02  0.37240786633E+02  0.51100000000E-03 0.  1.
         12    1    3    3    0    0  0.62388052424E+01 -0.37350301512E+02  0.19202921453E+02  0.42458449174E+02  0.00000000000E+00 0. -1.
</event>
<event>
 7    1  0.2349719E-015  0.9000782E+02  0.7816164E-02  0.1186339E+00
        -11   -1    0    0    0    0  0.00000000000E+00  0.00000000000E+00  0.45593999997E+02  0.45594000000E+02  0.51100000000E-03 0. -1.
         11   -1    0    0    0    0 -0.00000000000E+00 -0.00000000000E+00 -0.45593999997E+02  0.45594000000E+02  0.51100000000E-03 0.  1.
    9900012    2    1    2    0    0 -0.50722478403E+00 -0.34866925310E+00  0.10069651748E+01  0.90007819466E+02  0.90000081883E+02 0.  0.
        -12    1    1    2    0    0  0.50722478403E+00  0.34866925310E+00 -0.10069651748E+01  0.11801805340E+01  0.00000000000E+00 0.  1.
         11    1    3    3    0    0 -0.23401747207E+02  0.19263494112E+02  0.19429985745E+02  0.36003448780E+02  0.51100000000E-03 0. -1.
        -11    1    3    3    0    0 -0.99600847139E+01  0.30523200268E+01 -0.10381439593E+01  0.10468891450E+02  0.51100000000E-03 0.  1.
        -12    1    3    3    0    0  0.32854607137E+02 -0.22664483392E+02 -0.17384876610E+02  0.43535479236E+02  0.00000000000E+00 0.  1.
</event>
<event>
 7    1  0.2349719E-015  0.9000777E+02  0.7816164E-02  0.1186339E+00
        -11   -1    0    0    0    0  0.00000000000E+00  0.00000000000E+00  0.45593999997E+02  0.45594000000E+02  0.51100000000E-03 0. -1.
         11   -1    0    0    0    0 -0.00000000000E+00 -0.00000000000E+00 -0.45593999997E+02  0.45594000000E+02  0.51100000000E-03 0.  1.
    9900012    2    1    2    0    0 -0.99364700036E+00 -0.36605978670E+00  0.52116447902E+00  0.90007768437E+02  0.90000030180E+02 0.  0.
        -12    1    1    2    0    0  0.99364700036E+00  0.36605978670E+00 -0.52116447902E+00  0.11802315633E+01  0.00000000000E+00 0.  1.
         11    1    3    3    0    0  0.47370689779E+01  0.50125483880E+01 -0.58681789343E+01  0.90554396972E+01  0.51100000000E-03 0. -1.
        -11    1    3    3    0    0 -0.98215084526E+01 -0.34317067818E+01 -0.36433847952E+02  0.37890155933E+02  0.51100000000E-03 0.  1.
         12    1    3    3    0    0  0.40907924743E+01 -0.19469013928E+01  0.42823191366E+02  0.43062172807E+02  0.00000000000E+00 0. -1.
</event>
<event>
 7    1  0.2349719E-015  0.9000785E+02  0.7816164E-02  0.1186339E+00
        -11   -1    0    0    0    0  0.00000000000E+00  0.00000000000E+00  0.45593999997E+02  0.45594000000E+02  0.51100000000E-03 0. -1.
         11   -1    0    0    0    0 -0.00000000000E+00 -0.00000000000E+00 -0.45593999997E+02  0.45594000000E+02  0.51100000000E-03 0.  1.
    9900012    2    1    2    0    0 -0.60417520995E+00 -0.99229709392E+00 -0.20753493896E+00  0.90007850875E+02  0.90000113706E+02 0.  0.
        -12    1    1    2    0    0  0.60417520995E+00  0.99229709392E+00  0.20753493896E+00  0.11801491252E+01  0.00000000000E+00 0.  1.
         11    1    3    3    0    0 -0.18408935971E+02  0.19171013459E+02  0.27077830641E+02  0.37942398357E+02  0.51100000000E-03 0. -1.
        -11    1    3    3    0    0  0.33799116205E+01  0.80477273601E+01  0.19607094643E+01  0.89461779599E+01  0.51100000000E-03 0.  1.
        -12    1    3    3    0    0  0.14424849141E+02 -0.28211037913E+02 -0.29246075044E+02  0.43119274557E+02  0.00000000000E+00 0.  1.
</event>
<event>
 7    1  0.2349719E-015  0.9000782E+02  0.7816164E-02  0.1186339E+00
        -11   -1    0    0    0    0  0.00000000000E+00  0.00000000000E+00  0.45593999997E+02  0.45594000000E+02  0.51100000000E-03 0.  1.
         11   -1    0    0    0    0 -0.00000000000E+00 -0.00000000000E+00 -0.45593999997E+02  0.45594000000E+02  0.51100000000E-03 0. -1.
    9900012    2    1    2    0    0 -0.99514234319E+00 -0.62253969903E+00  0.12231560263E+00  0.90007819901E+02  0.90000082323E+02 0.  0.
        -12    1    1    2    0    0  0.99514234319E+00  0.62253969903E+00 -0.12231560263E+00  0.11801800993E+01  0.00000000000E+00 0.  1.
         11    1    3    3    0    0  0.46048977208E+01  0.88818815712E+01 -0.71114466635E+01  0.12274590713E+02  0.51100000000E-03 0. -1.
        -11    1    3    3    0    0  0.28644178687E+02  0.16273482420E+02  0.10935049351E+02  0.34711532771E+02  0.51100000000E-03 0.  1.
         12    1    3    3    0    0 -0.34244218751E+02 -0.25777903690E+02 -0.37012870852E+01  0.43021696417E+02  0.00000000000E+00 0. -1.
</event>
<event>
 7    1  0.2349719E-015  0.9000774E+02  0.7816164E-02  0.1186339E+00
        -11   -1    0    0    0    0  0.00000000000E+00  0.00000000000E+00  0.45593999997E+02  0.45594000000E+02  0.51100000000E-03 0. -1.
         11   -1    0    0    0    0 -0.00000000000E+00 -0.00000000000E+00 -0.45593999997E+02  0.45594000000E+02  0.51100000000E-03 0.  1.
    9900012    2    1    2    0    0  0.10586580228E+01  0.50481427575E+00  0.13198754569E+00  0.90007739446E+02  0.90000000807E+02 0.  0.
        -12    1    1    2    0    0 -0.10586580228E+01 -0.50481427575E+00 -0.13198754569E+00  0.11802605537E+01  0.00000000000E+00 0.  1.
         11    1    3    3    0    0 -0.34245511598E+02  0.16433111830E+02 -0.12195753391E+01  0.38003810247E+02  0.51100000000E-03 0. -1.
        -11    1    3    3    0    0 -0.68163190875E+01  0.80115799725E-02  0.14525215048E+01  0.69693679105E+01  0.51100000000E-03 0.  1.
        -12    1    3    3    0    0  0.42120488708E+02 -0.15936309135E+02 -0.10095862001E+00  0.45034561289E+02  0.00000000000E+00 0.  1.
</event>
<event>
 7    1  0.2349719E-015  0.9000754E+02  0.7816164E-02  0.1186339E+00
        -11   -1    0    0    0    0  0.00000000000E+00  0.00000000000E+00  0.45593999997E+02  0.45594000000E+02  0.51100000000E-03 0. -1.
         11   -1    0    0    0    0 -0.00000000000E+00 -0.00000000000E+00 -0.45593999997E+02  0.45594000000E+02  0.51100000000E-03 0.  1.
    9900012    2    1    2    0    0 -0.45961815511E+00  0.96323184073E+00  0.50441131084E+00  0.90007536024E+02  0.89999794700E+02 0.  0.
        -12    1    1    2    0    0  0.45961815511E+00 -0.96323184073E+00 -0.50441131084E+00  0.11804639757E+01  0.00000000000E+00 0.  1.
         11    1    3    3    0    0 -0.63668953621E+01  0.59146342919E+01  0.26130226654E+01  0.90745877631E+01  0.51100000000E-03 0. -1.
        -11    1    3    3    0    0  0.12373333136E+02  0.30781219206E+02 -0.21729678029E+02  0.39658060167E+02  0.51100000000E-03 0.  1.
         12    1    3    3    0    0 -0.64660559288E+01 -0.35732621657E+02  0.19621066674E+02  0.41274888094E+02  0.00000000000E+00 0. -1.
</event>
<event>
 7    1  0.2349719E-015  0.9000807E+02  0.7816164E-02  0.1186338E+00
        -11   -1    0    0    0    0  0.00000000000E+00  0.00000000000E+00  0.45593999997E+02  0.45594000000E+02  0.51100000000E-03 0.  1.
         11   -1    0    0    0    0 -0.00000000000E+00 -0.00000000000E+00 -0.45593999997E+02  0.45594000000E+02  0.51100000000E-03 0. -1.
    9900012    2    1    2    0    0 -0.17794684306E+00  0.84509817823E+00 -0.80397005633E+00  0.90008074637E+02  0.90000340422E+02 0.  0.
        -12    1    1    2    0    0  0.17794684306E+00 -0.84509817823E+00  0.80397005633E+00  0.11799253626E+01  0.00000000000E+00 0.  1.
         11    1    3    3    0    0 -0.15284921544E+01  0.21523424376E+02 -0.33004804970E+02  0.39432362806E+02  0.51100000000E-03 0. -1.
        -11    1    3    3    0    0  0.99221824379E+01 -0.13779326751E+01 -0.21566015441E+01  0.10246918233E+02  0.51100000000E-03 0.  1.
        -12    1    3    3    0    0 -0.85716371265E+01 -0.19300393522E+02  0.34357436458E+02  0.40328793598E+02  0.00000000000E+00 0.  1.
</event>
<event>
 7    1  0.4191020E-015  0.9000763E+02  0.7816164E-02  0.1186339E+00
        -11   -1    0    0    0    0  0.00000000000E+00  0.00000000000E+00  0.45593999997E+02  0.45594000000E+02  0.51100000000E-03 0.  1.
         11   -1    0    0    0    0 -0.00000000000E+00 -0.00000000000E+00 -0.45593999997E+02  0.45594000000E+02  0.51100000000E-03 0. -1.
    9900012    2    1    2    0    0  0.16838507049E+00  0.69749439974E+00 -0.93723784965E+00  0.90007632787E+02  0.89999892740E+02 0.  0.
        -12    1    1    2    0    0 -0.16838507049E+00 -0.69749439974E+00  0.93723784965E+00  0.11803672125E+01  0.00000000000E+00 0.  1.
         11    1    3    3    0    0 -0.41827115424E+01 -0.51356431320E+01 -0.36728835529E+02  0.37321270956E+02  0.51100000000E-03 0. -1.
        -11    1    3    3    0    0  0.34333830855E+01  0.48509644740E+01 -0.73903345841E+01  0.94835131289E+01  0.51100000000E-03 0.  1.
        -12    1    3    3    0    0  0.91771352739E+00  0.98217305775E+00  0.43181932263E+02  0.43202848702E+02  0.00000000000E+00 0.  1.
</event>
<event>
 7    1  0.3154869E-015  0.9000741E+02  0.7816164E-02  0.1186340E+00
        -11   -1    0    0    0    0  0.00000000000E+00  0.00000000000E+00  0.45593999997E+02  0.45594000000E+02  0.51100000000E-03 0.  1.
         11   -1    0    0    0    0 -0.00000000000E+00 -0.00000000000E+00 -0.45593999997E+02  0.45594000000E+02  0.51100000000E-03 0. -1.
    9900012    2    1    2    0    0  0.56004014548E+00 -0.65414366980E+00 -0.80761781431E+00  0.90007408860E+02  0.89999665857E+02 0.  0.
        -12    1    1    2    0    0 -0.56004014548E+00  0.65414366980E+00  0.80761781431E+00  0.11805911398E+01  0.00000000000E+00 0.  1.
         11    1    3    3    0    0 -0.15495223803E+00 -0.11519939144E+02 -0.35883314428E+02  0.37687468245E+02  0.51100000000E-03 0. -1.
        -11    1    3    3    0    0 -0.28475978689E+01  0.57366723286E+01 -0.71707209965E+01  0.96144403321E+01  0.51100000000E-03 0.  1.
        -12    1    3    3    0    0  0.35625902524E+01  0.51291231458E+01  0.42246417610E+02  0.42705500283E+02  0.00000000000E+00 0.  1.
</event>
<event>
 7    1  0.2349719E-015  0.9000782E+02  0.7816164E-02  0.1186339E+00
        -11   -1    0    0    0    0  0.00000000000E+00  0.00000000000E+00  0.45593999997E+02  0.45594000000E+02  0.51100000000E-03 0.  1.
         11   -1    0    0    0    0 -0.00000000000E+00 -0.00000000000E+00 -0.45593999997E+02  0.45594000000E+02  0.51100000000E-03 0. -1.
    9900012    2    1    2    0    0  0.30496611793E+00 -0.73417358149E+00 -0.87224903694E+00  0.90007816301E+02  0.90000078676E+02 0.  0.
        -12    1    1    2    0    0 -0.30496611793E+00  0.73417358149E+00  0.87224903694E+00  0.11801836990E+01  0.00000000000E+00 0.  1.
         11    1    3    3    0    0  0.12965175563E+02 -0.21168192207E+02 -0.80290915230E+01  0.26089355102E+02  0.51100000000E-03 0. -1.
        -11    1    3    3    0    0  0.17259694100E+02 -0.61743440247E+01 -0.93877893529E+01  0.20594906015E+02  0.51100000000E-03 0.  1.
        -12    1    3    3    0    0 -0.29919903545E+02  0.26608362650E+02  0.16544631839E+02  0.43323555184E+02  0.00000000000E+00 0.  1.
</event>
<event>
 7    1  0.2349719E-015  0.9000776E+02  0.7816164E-02  0.1186339E+00
        -11   -1    0    0    0    0  0.00000000000E+00  0.00000000000E+00  0.45593999997E+02  0.45594000000E+02  0.51100000000E-03 0.  1.
         11   -1    0    0    0    0 -0.00000000000E+00 -0.00000000000E+00 -0.45593999997E+02  0.45594000000E+02  0.51100000000E-03 0. -1.
    9900012    2    1    2    0    0  0.17529275157E+00 -0.11378500908E+01 -0.25986412906E+00  0.90007762844E+02  0.90000024514E+02 0.  0.
        -12    1    1    2    0    0 -0.17529275157E+00  0.11378500908E+01  0.25986412906E+00  0.11802371556E+01  0.00000000000E+00 0.  1.
         11    1    3    3    0    0  0.29535581717E+01  0.29452545145E+02 -0.26825751502E+02  0.39947426266E+02  0.51100000000E-03 0. -1.
        -11    1    3    3    0    0 -0.13453721645E+02 -0.14597607155E+02  0.37162132313E+01  0.20196608670E+02  0.51100000000E-03 0.  1.
        -12    1    3    3    0    0  0.10675456224E+02 -0.15992788081E+02  0.22849674142E+02  0.29863727908E+02  0.00000000000E+00 0.  1.
</event>
<event>
 7    1  0.2349719E-015  0.9000718E+02  0.7816164E-02  0.1186340E+00
        -11   -1    0    0    0    0  0.00000000000E+00  0.00000000000E+00  0.45593999997E+02  0.45594000000E+02  0.51100000000E-03 0.  1.
         11   -1    0    0    0    0 -0.00000000000E+00 -0.00000000000E+00 -0.45593999997E+02  0.45594000000E+02  0.51100000000E-03 0. -1.
    9900012    2    1    2    0    0  0.63270076766E+00  0.72030094657E+00  0.68933461033E+00  0.90007184214E+02  0.89999438244E+02 0.  0.
        -12    1    1    2    0    0 -0.63270076766E+00 -0.72030094657E+00 -0.68933461033E+00  0.11808157858E+01  0.00000000000E+00 0.  1.
         11    1    3    3    0    0  0.34971522606E+01  0.93640390884E+01 -0.19944590062E+01  0.10192799859E+02  0.51100000000E-03 0. -1.
        -11    1    3    3    0    0 -0.63341534902E+01  0.22121467270E+02  0.30491351178E+02  0.38199519781E+02  0.51100000000E-03 0.  1.
         12    1    3    3    0    0  0.34697019973E+01 -0.30765205412E+02 -0.27807557561E+02  0.41614864574E+02  0.00000000000E+00 0. -1.
</event>
<event>
 7    1  0.2349719E-015  0.9000743E+02  0.7816164E-02  0.1186340E+00
        -11   -1    0    0    0    0  0.00000000000E+00  0.00000000000E+00  0.45593999997E+02  0.45594000000E+02  0.51100000000E-03 0.  1.
         11   -1    0    0    0    0 -0.00000000000E+00 -0.00000000000E+00 -0.45593999997E+02  0.45594000000E+02  0.51100000000E-03 0. -1.
    9900012    2    1    2    0    0 -0.87846601741E+00  0.76166150309E+00 -0.20475530531E+00  0.90007425765E+02  0.89999682985E+02 0.  0.
        -12    1    1    2    0    0  0.87846601741E+00 -0.76166150309E+00  0.20475530531E+00  0.11805742349E+01  0.00000000000E+00 0.  1.
         11    1    3    3    0    0  0.39597163423E+01  0.34784915587E+01 -0.95765263840E+01  0.10931107669E+02  0.51100000000E-03 0. -1.
        -11    1    3    3    0    0  0.34494099066E+02 -0.31319728210E+00  0.17743181418E+02  0.38791254813E+02  0.51100000000E-03 0.  1.
         12    1    3    3    0    0 -0.39332281425E+02 -0.24036327735E+01 -0.83714103391E+01  0.40285063283E+02  0.00000000000E+00 0. -1.
</event>
<event>
 7    1  0.2349719E-015  0.9000766E+02  0.7816164E-02  0.1186339E+00
        -11   -1    0    0    0    0  0.00000000000E+00  0.00000000000E+00  0.45593999997E+02  0.45594000000E+02  0.51100000000E-03 0.  1.
         11   -1    0    0    0    0 -0.00000000000E+00 -0.00000000000E+00 -0.45593999997E+02  0.45594000000E+02  0.51100000000E-03 0. -1.
    9900012    2    1    2    0    0  0.29364792525E+00 -0.10772523299E+01 -0.38274560901E+00  0.90007662808E+02  0.89999923157E+02 0.  0.
        -12    1    1    2    0    0 -0.29364792525E+00  0.10772523299E+01  0.38274560901E+00  0.11803371923E+01  0.00000000000E+00 0.  1.
         11    1    3    3    0    0  0.50946032798E+01  0.42383655375E+01 -0.62233640602E+01  0.90911487446E+01  0.51100000000E-03 0. -1.
        -11    1    3    3    0    0  0.83255478288E+01  0.34513127616E+02  0.14054211391E+02  0.38183655961E+02  0.51100000000E-03 0.  1.
         12    1    3    3    0    0 -0.13126503183E+02 -0.39828745483E+02 -0.82135929395E+01  0.42732858102E+02  0.00000000000E+00 0. -1.
</event>
<event>
 7    1  0.2349719E-015  0.9000785E+02  0.7816164E-02  0.1186339E+00
        -11   -1    0    0    0    0  0.00000000000E+00  0.00000000000E+00  0.45593999997E+02  0.45594000000E+02  0.51100000000E-03 0.  1.
         11   -1    0    0    0    0 -0.00000000000E+00 -0.00000000000E+00 -0.45593999997E+02  0.45594000000E+02  0.51100000000E-03 0. -1.
    9900012    2    1    2    0    0 -0.94106928916E+00 -0.10367614148E+00  0.70455756895E+00  0.90007846825E+02  0.90000109603E+02 0.  0.
        -12    1    1    2    0    0  0.94106928916E+00  0.10367614148E+00 -0.70455756895E+00  0.11801531753E+01  0.00000000000E+00 0.  1.
         11    1    3    3    0    0  0.41265497135E+01  0.78454283121E+01  0.25726828518E+01  0.92302684281E+01  0.51100000000E-03 0. -1.
        -11    1    3    3    0    0 -0.41589405267E+02 -0.13636637816E+02  0.83150329265E-02  0.43767985911E+02  0.51100000000E-03 0.  1.
         12    1    3    3    0    0  0.36521786264E+02  0.56875333624E+01 -0.18764403158E+01  0.37009592485E+02  0.00000000000E+00 0. -1.
</event>
<event>
 7    1  0.2349719E-015  0.9000766E+02  0.7816164E-02  0.1186339E+00
        -11   -1    0    0    0    0  0.00000000000E+00  0.00000000000E+00  0.45593999997E+02  0.45594000000E+02  0.51100000000E-03 0. -1.
         11   -1    0    0    0    0 -0.00000000000E+00 -0.00000000000E+00 -0.45593999997E+02  0.45594000000E+02  0.51100000000E-03 0.  1.
    9900012    2    1    2    0    0 -0.51239297926E-02  0.44815149723E+00  0.10919414908E+01  0.90007660117E+02  0.89999920431E+02 0.  0.
        -12    1    1    2    0    0  0.51239297926E-02 -0.44815149723E+00 -0.10919414908E+01  0.11803398826E+01  0.00000000000E+00 0.  1.
         11    1    3    3    0    0 -0.95077071263E+01  0.90442948722E+01  0.54642328822E+01  0.14214556123E+02  0.51100000000E-03 0. -1.
        -11    1    3    3    0    0 -0.13174139189E+02  0.27723733088E+02 -0.10708467789E+02  0.32508992639E+02  0.51100000000E-03 0.  1.
         12    1    3    3    0    0  0.22676722386E+02 -0.36319876463E+02  0.63361763978E+01  0.43284111355E+02  0.00000000000E+00 0. -1.
</event>
<event>
 7    1  0.2349719E-015  0.9000775E+02  0.7816164E-02  0.1186339E+00
        -11   -1    0    0    0    0  0.00000000000E+00  0.00000000000E+00  0.45593999997E+02  0.45594000000E+02  0.51100000000E-03 0.  1.
         11   -1    0    0    0    0 -0.00000000000E+00 -0.00000000000E+00 -0.45593999997E+02  0.45594000000E+02  0.51100000000E-03 0. -1.
    9900012    2    1    2    0    0 -0.92024734723E-01  0.44455736255E+00 -0.10894397835E+01  0.90007754753E+02  0.90000016316E+02 0.  0.
        -12    1    1    2    0    0  0.92024734723E-01 -0.44455736255E+00  0.10894397835E+01  0.11802452466E+01  0.00000000000E+00 0.  1.
         11    1    3    3    0    0  0.17481800464E+02 -0.21852133174E+02  0.24148803667E+02  0.36963411511E+02  0.51100000000E-03 0. -1.
        -11    1    3    3    0    0 -0.15865907750E+01 -0.77721119303E+01  0.33208455399E+01  0.85994772810E+01  0.51100000000E-03 0.  1.
        -12    1    3    3    0    0 -0.15987234423E+02  0.30068802467E+02 -0.28559088991E+02  0.44444865961E+02  0.00000000000E+00 0.  1.
</event>
<event>
 7    1  0.2349719E-015  0.9000743E+02  0.7816164E-02  0.1186340E+00
        -11   -1    0    0    0    0  0.00000000000E+00  0.00000000000E+00  0.45593999997E+02  0.45594000000E+02  0.51100000000E-03 0. -1.
         11   -1    0    0    0    0 -0.00000000000E+00 -0.00000000000E+00 -0.45593999997E+02  0.45594000000E+02  0.51100000000E-03 0.  1.
    9900012    2    1    2    0    0 -0.22696811322E+00 -0.68130885470E+00  0.93704793527E+00  0.90007425939E+02  0.89999683161E+02 0.  0.
        -12    1    1    2    0    0  0.22696811322E+00  0.68130885470E+00 -0.93704793527E+00  0.11805740607E+01  0.00000000000E+00 0.  1.
         11    1    3    3    0    0 -0.33504136258E+02 -0.15776868683E+02  0.53948397834E+00  0.37036843481E+02  0.51100000000E-03 0. -1.
        -11    1    3    3    0    0 -0.72152633765E+01  0.98031046753E+00  0.63699218231E+01  0.96745510748E+01  0.51100000000E-03 0.  1.
        -12    1    3    3    0    0  0.40492431522E+02  0.14115249360E+02 -0.59723578662E+01  0.43296031383E+02  0.00000000000E+00 0.  1.
</event>
<event>
 7    1  0.2349719E-015  0.9000765E+02  0.7816164E-02  0.1186339E+00
        -11   -1    0    0    0    0  0.00000000000E+00  0.00000000000E+00  0.45593999997E+02  0.45594000000E+02  0.51100000000E-03 0. -1.
         11   -1    0    0    0    0 -0.00000000000E+00 -0.00000000000E+00 -0.45593999997E+02  0.45594000000E+02  0.51100000000E-03 0.  1.
    9900012    2    1    2    0    0 -0.11216264545E+01 -0.25198849879E+00 -0.26774052117E+00  0.90007648741E+02  0.89999908905E+02 0.  0.
        -12    1    1    2    0    0  0.11216264545E+01  0.25198849879E+00  0.26774052117E+00  0.11803512585E+01  0.00000000000E+00 0.  1.
         11    1    3    3    0    0 -0.33127614011E+01 -0.16303740443E+01 -0.88061090062E+01  0.95488252531E+01  0.51100000000E-03 0. -1.
        -11    1    3    3    0    0 -0.41732868088E+01 -0.38876652270E+02  0.66382044885E+01  0.39659502942E+02  0.51100000000E-03 0.  1.
         12    1    3    3    0    0  0.63644217555E+01  0.40255037816E+02  0.19001639966E+01  0.40799320546E+02  0.00000000000E+00 0. -1.
</event>
<event>
 7    1  0.5703446E-015  0.9000770E+02  0.7816164E-02  0.1186339E+00
        -11   -1    0    0    0    0  0.00000000000E+00  0.00000000000E+00  0.45593999997E+02  0.45594000000E+02  0.51100000000E-03 0. -1.
         11   -1    0    0    0    0 -0.00000000000E+00 -0.00000000000E+00 -0.45593999997E+02  0.45594000000E+02  0.51100000000E-03 0.  1.
    9900012    2    1    2    0    0  0.69962767996E+00 -0.33726950526E+00  0.88874957463E+00  0.90007701133E+02  0.89999961988E+02 0.  0.
        -12    1    1    2    0    0 -0.69962767996E+00  0.33726950526E+00 -0.88874957463E+00  0.11802988673E+01  0.00000000000E+00 0.  1.
         11    1    3    3    0    0 -0.21967239320E+02  0.46319260906E+01  0.30816940016E+02  0.38127393497E+02  0.51100000000E-03 0. -1.
        -11    1    3    3    0    0  0.25630758182E+01  0.79355940338E+01  0.48805836788E+01  0.96624586739E+01  0.51100000000E-03 0.  1.
        -12    1    3    3    0    0  0.20103791182E+02 -0.12904789630E+02 -0.34808774120E+02  0.42217848962E+02  0.00000000000E+00 0.  1.
</event>
<event>
 7    1  0.2349719E-015  0.9000769E+02  0.7816164E-02  0.1186339E+00
        -11   -1    0    0    0    0  0.00000000000E+00  0.00000000000E+00  0.45593999997E+02  0.45594000000E+02  0.51100000000E-03 0.  1.
         11   -1    0    0    0    0 -0.00000000000E+00 -0.00000000000E+00 -0.45593999997E+02  0.45594000000E+02  0.51100000000E-03 0. -1.
    9900012    2    1    2    0    0  0.25219957063E+00 -0.11441070598E+01  0.14337405313E+00  0.90007685759E+02  0.89999946411E+02 0.  0.
        -12    1    1    2    0    0 -0.25219957063E+00  0.11441070598E+01 -0.14337405313E+00  0.11803142407E+01  0.00000000000E+00 0.  1.
         11    1    3    3    0    0  0.26255926091E+02  0.92830529668E+01  0.22702070851E+02  0.35929552578E+02  0.51100000000E-03 0. -1.
        -11    1    3    3    0    0  0.34972054871E+01 -0.16859445473E+01  0.91227367574E+01  0.99144935040E+01  0.51100000000E-03 0.  1.
        -12    1    3    3    0    0 -0.29500932008E+02 -0.87412154793E+01 -0.31681433555E+02  0.44163639677E+02  0.00000000000E+00 0.  1.
</event>
<event>
 7    1  0.2349719E-015  0.9000774E+02  0.7816164E-02  0.1186339E+00
        -11   -1    0    0    0    0  0.00000000000E+00  0.00000000000E+00  0.45593999997E+02  0.45594000000E+02  0.51100000000E-03 0.  1.
         11   -1    0    0    0    0 -0.00000000000E+00 -0.00000000000E+00 -0.45593999997E+02  0.45594000000E+02  0.51100000000E-03 0. -1.
    9900012    2    1    2    0    0  0.41950928175E+00  0.65927218241E+00  0.88452231637E+00  0.90007742581E+02  0.90000003983E+02 0.  0.
        -12    1    1    2    0    0 -0.41950928175E+00 -0.65927218241E+00 -0.88452231637E+00  0.11802574194E+01  0.00000000000E+00 0.  1.
         11    1    3    3    0    0 -0.66432001567E+01  0.48387224186E+01  0.54621206890E+01  0.98681358750E+01  0.51100000000E-03 0. -1.
        -11    1    3    3    0    0 -0.86597211581E+01  0.25745422649E+02  0.23714789608E+02  0.36058408234E+02  0.51100000000E-03 0.  1.
         12    1    3    3    0    0  0.15722430597E+02 -0.29924872886E+02 -0.28292387981E+02  0.44081198472E+02  0.00000000000E+00 0. -1.
</event>
<event>
 7    1  0.2349719E-015  0.9000773E+02  0.7816164E-02  0.1186339E+00
        -11   -1    0    0    0    0  0.00000000000E+00  0.00000000000E+00  0.45593999997E+02  0.45594000000E+02  0.51100000000E-03 0. -1.
         11   -1    0    0    0    0 -0.00000000000E+00 -0.00000000000E+00 -0.45593999997E+02  0.45594000000E+02  0.51100000000E-03 0.  1.
    9900012    2    1    2    0    0 -0.10844390199E+01  0.45614379428E+00 -0.94621321658E-01  0.90007733783E+02  0.89999995069E+02 0.  0.
        -12    1    1    2    0    0  0.10844390199E+01 -0.45614379428E+00  0.94621321658E-01  0.11802662172E+01  0.00000000000E+00 0.  1.
         11    1    3    3    0    0  0.71803483713E+01  0.32167041836E+02  0.17789915219E+02  0.37453398604E+02  0.51100000000E-03 0. -1.
        -11    1    3    3    0    0 -0.36021379448E+01  0.75526503322E+01 -0.84768345018E+01  0.11911114484E+02  0.51100000000E-03 0.  1.
        -12    1    3    3    0    0 -0.46626494463E+01 -0.39263548374E+02 -0.94077020391E+01  0.40643220695E+02  0.00000000000E+00 0.  1.
</event>
<event>
 7    1  0.2349719E-015  0.9000774E+02  0.7816164E-02  0.1186339E+00
        -11   -1    0    0    0    0  0.00000000000E+00  0.00000000000E+00  0.45593999997E+02  0.45594000000E+02  0.51100000000E-03 0.  1.
         11   -1    0    0    0    0 -0.00000000000E+00 -0.00000000000E+00 -0.45593999997E+02  0.45594000000E+02  0.51100000000E-03 0. -1.
    9900012    2    1    2    0    0  0.29706443236E+00  0.72201964625E-02 -0.11422433571E+01  0.90007737616E+02  0.89999998953E+02 0.  0.
        -12    1    1    2    0    0 -0.29706443236E+00 -0.72201964625E-02  0.11422433571E+01  0.11802623840E+01  0.00000000000E+00 0.  1.
         11    1    3    3    0    0  0.59230222087E+01 -0.69235790043E+01 -0.12427995553E+01  0.91957973721E+01  0.51100000000E-03 0. -1.
        -11    1    3    3    0    0  0.24473882435E+02  0.56469271195E+01  0.29481468049E+02  0.38730035707E+02  0.51100000000E-03 0.  1.
         12    1    3    3    0    0 -0.30099840211E+02  0.12838720813E+01 -0.29380911850E+02  0.42081904537E+02  0.00000000000E+00 0. -1.
</event>
<event>
 7    1  0.2349719E-015  0.9000768E+02  0.7816164E-02  0.1186339E+00
        -11   -1    0    0    0    0  0.00000000000E+00  0.00000000000E+00  0.45593999997E+02  0.45594000000E+02  0.51100000000E-03 0.  1.
         11   -1    0    0    0    0 -0.00000000000E+00 -0.00000000000E+00 -0.45593999997E+02  0.45594000000E+02  0.51100000000E-03 0. -1.
    9900012    2    1    2    0    0 -0.43320825353E+00  0.74436386790E+00  0.80710447509E+00  0.90007676065E+02  0.89999936589E+02 0.  0.
        -12    1    1    2    0    0  0.43320825353E+00 -0.74436386790E+00 -0.80710447509E+00  0.11803239354E+01  0.00000000000E+00 0.  1.
         11    1    3    3    0    0  0.44610878214E+01  0.66637934788E+01  0.47644784511E+01  0.93277919815E+01  0.51100000000E-03 0. -1.
        -11    1    3    3    0    0 -0.32998580679E+02 -0.81764072686E+01  0.23497115894E+02  0.41326437280E+02  0.51100000000E-03 0.  1.
         12    1    3    3    0    0  0.28104284604E+02  0.22569776577E+01 -0.27454489870E+02  0.39353446803E+02  0.00000000000E+00 0. -1.
</event>
<event>
 7    1  0.2349719E-015  0.9000685E+02  0.7816164E-02  0.1186341E+00
        -11   -1    0    0    0    0  0.00000000000E+00  0.00000000000E+00  0.45593999997E+02  0.45594000000E+02  0.51100000000E-03 0. -1.
         11   -1    0    0    0    0 -0.00000000000E+00 -0.00000000000E+00 -0.45593999997E+02  0.45594000000E+02  0.51100000000E-03 0.  1.
    9900012    2    1    2    0    0  0.55780547722E+00  0.28043892832E+00  0.10026549730E+01  0.90006852279E+02  0.89999101925E+02 0.  0.
        -12    1    1    2    0    0 -0.55780547722E+00 -0.28043892832E+00 -0.10026549730E+01  0.11811477206E+01  0.00000000000E+00 0.  1.
         11    1    3    3    0    0  0.14445016069E+02 -0.34197786620E+02  0.44881965334E+01  0.37393729519E+02  0.51100000000E-03 0. -1.
        -11    1    3    3    0    0 -0.34737022125E+01 -0.63750508272E+01  0.59779497713E+01  0.94044544680E+01  0.51100000000E-03 0.  1.
        -12    1    3    3    0    0 -0.10413508379E+02  0.40853276376E+02 -0.94634913317E+01  0.43208668292E+02  0.00000000000E+00 0.  1.
</event>
<event>
 7    1  0.2349719E-015  0.9000769E+02  0.7816164E-02  0.1186339E+00
        -11   -1    0    0    0    0  0.00000000000E+00  0.00000000000E+00  0.45593999997E+02  0.45594000000E+02  0.51100000000E-03 0.  1.
         11   -1    0    0    0    0 -0.00000000000E+00 -0.00000000000E+00 -0.45593999997E+02  0.45594000000E+02  0.51100000000E-03 0. -1.
    9900012    2    1    2    0    0  0.15868261226E+00 -0.10504112856E+01 -0.51438871772E+00  0.90007686570E+02  0.89999947233E+02 0.  0.
        -12    1    1    2    0    0 -0.15868261226E+00  0.10504112856E+01  0.51438871772E+00  0.11803134301E+01  0.00000000000E+00 0.  1.
         11    1    3    3    0    0  0.56353324453E+01  0.52363227865E+01  0.70055564979E+01  0.10404512012E+02  0.51100000000E-03 0. -1.
        -11    1    3    3    0    0  0.36145546321E+02 -0.85282599230E+01 -0.76633122853E+01  0.37920417872E+02  0.51100000000E-03 0.  1.
         12    1    3    3    0    0 -0.41622196154E+02  0.22415258509E+01  0.14336706975E+00  0.41682756686E+02  0.00000000000E+00 0. -1.
</event>
<event>
 7    1  0.2349719E-015  0.9000781E+02  0.7816164E-02  0.1186339E+00
        -11   -1    0    0    0    0  0.00000000000E+00  0.00000000000E+00  0.45593999997E+02  0.45594000000E+02  0.51100000000E-03 0.  1.
         11   -1    0    0    0    0 -0.00000000000E+00 -0.00000000000E+00 -0.45593999997E+02  0.45594000000E+02  0.51100000000E-03 0. -1.
    9900012    2    1    2    0    0 -0.27779832021E+00  0.11356150110E+01 -0.16138755559E+00  0.90007813869E+02  0.90000076212E+02 0.  0.
        -12    1    1    2    0    0  0.27779832021E+00 -0.11356150110E+01  0.16138755559E+00  0.11801861307E+01  0.00000000000E+00 0.  1.
         11    1    3    3    0    0  0.99812332753E+01 -0.26936826569E+01  0.11432748702E+02  0.15413912128E+02  0.51100000000E-03 0. -1.
        -11    1    3    3    0    0  0.24247047948E+02 -0.49756254524E+01  0.16059788616E+02  0.29505812876E+02  0.51100000000E-03 0.  1.
         12    1    3    3    0    0 -0.34506079543E+02  0.88049231203E+01 -0.27653924873E+02  0.45088088865E+02  0.00000000000E+00 0. -1.
</event>
<event>
 7    1  0.2349719E-015  0.9000751E+02  0.7816164E-02  0.1186340E+00
        -11   -1    0    0    0    0  0.00000000000E+00  0.00000000000E+00  0.45593999997E+02  0.45594000000E+02  0.51100000000E-03 0.  1.
         11   -1    0    0    0    0 -0.00000000000E+00 -0.00000000000E+00 -0.45593999997E+02  0.45594000000E+02  0.51100000000E-03 0. -1.
    9900012    2    1    2    0    0 -0.69202568399E+00  0.95046607986E+00 -0.10615467193E+00  0.90007511063E+02  0.89999769409E+02 0.  0.
        -12    1    1    2    0    0  0.69202568399E+00 -0.95046607986E+00  0.10615467193E+00  0.11804889371E+01  0.00000000000E+00 0.  1.
         11    1    3    3    0    0  0.66105819090E+01 -0.18474574958E+02 -0.33593969653E+02  0.38904556422E+02  0.51100000000E-03 0. -1.
        -11    1    3    3    0    0  0.72746517400E+01  0.23019550013E+01 -0.30355117339E+01  0.82118138382E+01  0.51100000000E-03 0.  1.
        -12    1    3    3    0    0 -0.14577259333E+02  0.17123086037E+02  0.36523326715E+02  0.42891140803E+02  0.00000000000E+00 0.  1.
</event>
<event>
 7    1  0.2349719E-015  0.9000806E+02  0.7816164E-02  0.1186338E+00
        -11   -1    0    0    0    0  0.00000000000E+00  0.00000000000E+00  0.45593999997E+02  0.45594000000E+02  0.51100000000E-03 0. -1.
         11   -1    0    0    0    0 -0.00000000000E+00 -0.00000000000E+00 -0.45593999997E+02  0.45594000000E+02  0.51100000000E-03 0.  1.
    9900012    2    1    2    0    0 -0.51708837160E+00 -0.77251439357E+00  0.72671266419E+00  0.90008055015E+02  0.90000320540E+02 0.  0.
        -12    1    1    2    0    0  0.51708837160E+00  0.77251439357E+00 -0.72671266419E+00  0.11799449854E+01  0.00000000000E+00 0.  1.
         11    1    3    3    0    0  0.60347602740E+01 -0.41418823083E+01 -0.55089729913E+01  0.91609117614E+01  0.51100000000E-03 0. -1.
        -11    1    3    3    0    0 -0.12155645498E+02 -0.89535622064E+01 -0.34640616903E+02  0.37787542039E+02  0.51100000000E-03 0.  1.
         12    1    3    3    0    0  0.56037968528E+01  0.12322930121E+02  0.40876302558E+02  0.43059601215E+02  0.00000000000E+00 0. -1.
</event>
<event>
 7    1  0.2349719E-015  0.9000775E+02  0.7816164E-02  0.1186339E+00
        -11   -1    0    0    0    0  0.00000000000E+00  0.00000000000E+00  0.45593999997E+02  0.45594000000E+02  0.51100000000E-03 0. -1.
         11   -1    0    0    0    0 -0.00000000000E+00 -0.00000000000E+00 -0.45593999997E+02  0.45594000000E+02  0.51100000000E-03 0.  1.
    9900012    2    1    2    0    0 -0.11435282844E+01 -0.25118258294E+00  0.14913894156E+00  0.90007749158E+02  0.90000010646E+02 0.  0.
        -12    1    1    2    0    0  0.11435282844E+01  0.25118258294E+00 -0.14913894156E+00  0.11802508424E+01  0.00000000000E+00 0.  1.
         11    1    3    3    0    0  0.15986208969E+02  0.18235634991E+02 -0.29259812980E+02  0.38003077725E+02  0.51100000000E-03 0. -1.
        -11    1    3    3    0    0  0.69445458974E+00  0.87155981724E+01  0.96014093410E+00  0.87957824867E+01  0.51100000000E-03 0.  1.
        -12    1    3    3    0    0 -0.17824191843E+02 -0.27202415747E+02  0.28448810987E+02  0.43208888945E+02  0.00000000000E+00 0.  1.
</event>
<event>
 7    1  0.2349719E-015  0.9000759E+02  0.7816164E-02  0.1186339E+00
        -11   -1    0    0    0    0  0.00000000000E+00  0.00000000000E+00  0.45593999997E+02  0.45594000000E+02  0.51100000000E-03 0.  1.
         11   -1    0    0    0    0 -0.00000000000E+00 -0.00000000000E+00 -0.45593999997E+02  0.45594000000E+02  0.51100000000E-03 0. -1.
    9900012    2    1    2    0    0  0.11318824069E-01 -0.27920923970E-01 -0.11800297717E+01  0.90007585685E+02  0.89999845016E+02 0.  0.
        -12    1    1    2    0    0 -0.11318824069E-01  0.27920923970E-01  0.11800297717E+01  0.11804143154E+01  0.00000000000E+00 0.  1.
         11    1    3    3    0    0  0.11287335236E+02 -0.31371356624E+02 -0.16093541573E+02  0.37021183582E+02  0.51100000000E-03 0. -1.
        -11    1    3    3    0    0  0.90898263194E+01 -0.40837310053E+01  0.24073712131E+01  0.10251694390E+02  0.51100000000E-03 0.  1.
        -12    1    3    3    0    0 -0.20365842732E+02  0.35427166705E+02  0.12506140588E+02  0.42734707713E+02  0.00000000000E+00 0.  1.
</event>
<event>
 7    1  0.2423474E-015  0.9000799E+02  0.7816164E-02  0.1186339E+00
        -11   -1    0    0    0    0  0.00000000000E+00  0.00000000000E+00  0.45593999997E+02  0.45594000000E+02  0.51100000000E-03 0. -1.
         11   -1    0    0    0    0 -0.00000000000E+00 -0.00000000000E+00 -0.45593999997E+02  0.45594000000E+02  0.51100000000E-03 0.  1.
    9900012    2    1    2    0    0  0.27503593173E+00  0.35263619497E+00  0.10919865983E+01  0.90007986534E+02  0.90000251156E+02 0.  0.
        -12    1    1    2    0    0 -0.27503593173E+00 -0.35263619497E+00 -0.10919865983E+01  0.11800134663E+01  0.00000000000E+00 0.  1.
         11    1    3    3    0    0 -0.34873872850E+02 -0.13918315893E+01  0.11299633090E+02  0.36685227421E+02  0.51100000000E-03 0. -1.
        -11    1    3    3    0    0 -0.69813369470E+01 -0.48138327221E+01  0.24837543757E+01  0.88363503272E+01  0.51100000000E-03 0.  1.
        -12    1    3    3    0    0  0.42130245728E+02  0.65583005064E+01 -0.12691400867E+02  0.44486408786E+02  0.00000000000E+00 0.  1.
</event>
<event>
 7    1  0.2349719E-015  0.9000775E+02  0.7816164E-02  0.1186339E+00
        -11   -1    0    0    0    0  0.00000000000E+00  0.00000000000E+00  0.45593999997E+02  0.45594000000E+02  0.51100000000E-03 0.  1.
         11   -1    0    0    0    0 -0.00000000000E+00 -0.00000000000E+00 -0.45593999997E+02  0.45594000000E+02  0.51100000000E-03 0. -1.
    9900012    2    1    2    0    0  0.11294291197E+01 -0.27736114391E+00 -0.20113497042E+00  0.90007748071E+02  0.90000009545E+02 0.  0.
        -12    1    1    2    0    0 -0.11294291197E+01  0.27736114391E+00  0.20113497042E+00  0.11802519294E+01  0.00000000000E+00 0.  1.
         11    1    3    3    0    0 -0.75067968611E+01 -0.12229832463E+02 -0.34373716412E+02  0.37248801074E+02  0.51100000000E-03 0. -1.
        -11    1    3    3    0    0 -0.71754985064E+01 -0.79913626166E+00 -0.48972832591E+01  0.87240919964E+01  0.51100000000E-03 0.  1.
        -12    1    3    3    0    0  0.15811724487E+02  0.12751607580E+02  0.39069864701E+02  0.44034855000E+02  0.00000000000E+00 0.  1.
</event>
<event>
 7    1  0.2349719E-015  0.9000773E+02  0.7816164E-02  0.1186339E+00
        -11   -1    0    0    0    0  0.00000000000E+00  0.00000000000E+00  0.45593999997E+02  0.45594000000E+02  0.51100000000E-03 0. -1.
         11   -1    0    0    0    0 -0.00000000000E+00 -0.00000000000E+00 -0.45593999997E+02  0.45594000000E+02  0.51100000000E-03 0.  1.
    9900012    2    1    2    0    0 -0.71110862572E+00 -0.87279043595E+00 -0.35440663802E+00  0.90007727706E+02  0.89999988912E+02 0.  0.
        -12    1    1    2    0    0  0.71110862572E+00  0.87279043595E+00  0.35440663802E+00  0.11802722939E+01  0.00000000000E+00 0.  1.
         11    1    3    3    0    0  0.37296659354E+01  0.41966402338E+01  0.76968446384E+01  0.95269940113E+01  0.51100000000E-03 0. -1.
        -11    1    3    3    0    0 -0.53933396318E+01  0.37014674189E+02 -0.86035517389E+01  0.38382226622E+02  0.51100000000E-03 0.  1.
         12    1    3    3    0    0  0.95256507069E+00 -0.42084104859E+02  0.55230046240E+00  0.42098507073E+02  0.00000000000E+00 0. -1.
</event>
<event>
 7    1  0.2349719E-015  0.9000780E+02  0.7816164E-02  0.1186339E+00
        -11   -1    0    0    0    0  0.00000000000E+00  0.00000000000E+00  0.45593999997E+02  0.45594000000E+02  0.51100000000E-03 0.  1.
         11   -1    0    0    0    0 -0.00000000000E+00 -0.00000000000E+00 -0.45593999997E+02  0.45594000000E+02  0.51100000000E-03 0. -1.
    9900012    2    1    2    0    0 -0.33807935463E+00 -0.11452738014E+00 -0.11249309079E+01  0.90007795052E+02  0.90000057147E+02 0.  0.
        -12    1    1    2    0    0  0.33807935463E+00  0.11452738014E+00  0.11249309079E+01  0.11802049477E+01  0.00000000000E+00 0.  1.
         11    1    3    3    0    0  0.22770519923E+02 -0.23946026368E+02 -0.16534452841E+02  0.36949924051E+02  0.51100000000E-03 0. -1.
        -11    1    3    3    0    0  0.47079639499E+01  0.15711122143E+01 -0.87165385233E+01  0.10030521533E+02  0.51100000000E-03 0.  1.
        -12    1    3    3    0    0 -0.27816563227E+02  0.22260386774E+02  0.24126060456E+02  0.43027349468E+02  0.00000000000E+00 0.  1.
</event>
<event>
 7    1  0.2349719E-015  0.9000773E+02  0.7816164E-02  0.1186339E+00
        -11   -1    0    0    0    0  0.00000000000E+00  0.00000000000E+00  0.45593999997E+02  0.45594000000E+02  0.51100000000E-03 0.  1.
         11   -1    0    0    0    0 -0.00000000000E+00 -0.00000000000E+00 -0.45593999997E+02  0.45594000000E+02  0.51100000000E-03 0. -1.
    9900012    2    1    2    0    0  0.13719240810E+00 -0.81782809055E-01 -0.11694112838E+01  0.90007731837E+02  0.89999993098E+02 0.  0.
        -12    1    1    2    0    0 -0.13719240810E+00  0.81782809055E-01  0.11694112838E+01  0.11802681625E+01  0.00000000000E+00 0.  1.
         11    1    3    3    0    0  0.21917158274E+01 -0.82357600529E+01  0.53043851826E+01  0.10038319797E+02  0.51100000000E-03 0. -1.
        -11    1    3    3    0    0 -0.22401382001E+02  0.37413178476E+02  0.71671124306E+00  0.43612859509E+02  0.51100000000E-03 0.  1.
         12    1    3    3    0    0  0.20346858582E+02 -0.29259201232E+02 -0.71905077095E+01  0.36356552532E+02  0.00000000000E+00 0. -1.
</event>
<event>
 7    1  0.2349719E-015  0.9000781E+02  0.7816164E-02  0.1186339E+00
        -11   -1    0    0    0    0  0.00000000000E+00  0.00000000000E+00  0.45593999997E+02  0.45594000000E+02  0.51100000000E-03 0.  1.
         11   -1    0    0    0    0 -0.00000000000E+00 -0.00000000000E+00 -0.45593999997E+02  0.45594000000E+02  0.51100000000E-03 0. -1.
    9900012    2    1    2    0    0  0.81388075908E+00  0.32177918180E+00 -0.79177445685E+00  0.90007809116E+02  0.90000071396E+02 0.  0.
        -12    1    1    2    0    0 -0.81388075908E+00 -0.32177918180E+00  0.79177445685E+00  0.11801908839E+01  0.00000000000E+00 0.  1.
         11    1    3    3    0    0 -0.30040546209E-01  0.81550485842E+01 -0.46873881010E+01  0.94062387443E+01  0.51100000000E-03 0. -1.
        -11    1    3    3    0    0 -0.28337874564E+02  0.22534972525E+02 -0.74915521419E+01  0.36972739623E+02  0.51100000000E-03 0.  1.
         12    1    3    3    0    0  0.29181795869E+02 -0.30368241927E+02  0.11387165786E+02  0.43628830749E+02  0.00000000000E+00 0. -1.
</event>
<event>
 7    1  0.2349719E-015  0.9000770E+02  0.7816164E-02  0.1186339E+00
        -11   -1    0    0    0    0  0.00000000000E+00  0.00000000000E+00  0.45593999997E+02  0.45594000000E+02  0.51100000000E-03 0.  1.
         11   -1    0    0    0    0 -0.00000000000E+00 -0.00000000000E+00 -0.45593999997E+02  0.45594000000E+02  0.51100000000E-03 0. -1.
    9900012    2    1    2    0    0 -0.40011697687E+00 -0.24067225490E+00 -0.10840123184E+01  0.90007703666E+02  0.89999964554E+02 0.  0.
        -12    1    1    2    0    0  0.40011697687E+00  0.24067225490E+00  0.10840123184E+01  0.11802963340E+01  0.00000000000E+00 0.  1.
         11    1    3    3    0    0 -0.40027240484E+01  0.91653114864E+01  0.54720824228E+01  0.11400369325E+02  0.51100000000E-03 0. -1.
        -11    1    3    3    0    0 -0.14931893296E+02  0.30571993075E+02  0.21719800319E+00  0.34024335015E+02  0.51100000000E-03 0.  1.
         12    1    3    3    0    0  0.18534500368E+02 -0.39977976817E+02 -0.67732927444E+01  0.44582999325E+02  0.00000000000E+00 0. -1.
</event>
<event>
 7    1  0.2349719E-015  0.9000760E+02  0.7816164E-02  0.1186339E+00
        -11   -1    0    0    0    0  0.00000000000E+00  0.00000000000E+00  0.45593999997E+02  0.45594000000E+02  0.51100000000E-03 0.  1.
         11   -1    0    0    0    0 -0.00000000000E+00 -0.00000000000E+00 -0.45593999997E+02  0.45594000000E+02  0.51100000000E-03 0. -1.
    9900012    2    1    2    0    0 -0.73700316516E+00 -0.45561244996E+00  0.80161565348E+00  0.90007600057E+02  0.89999859577E+02 0.  0.
        -12    1    1    2    0    0  0.73700316516E+00  0.45561244996E+00 -0.80161565348E+00  0.11803999432E+01  0.00000000000E+00 0.  1.
         11    1    3    3    0    0 -0.24295017758E+01 -0.66842656087E+01 -0.37339630349E+02  0.38010917911E+02  0.51100000000E-03 0. -1.
        -11    1    3    3    0    0 -0.41144354582E+01  0.47366710303E+01 -0.52575220214E+01  0.81857296350E+01  0.51100000000E-03 0.  1.
        -12    1    3    3    0    0  0.58069340689E+01  0.14919821284E+01  0.43398768023E+02  0.43810952511E+02  0.00000000000E+00 0.  1.
</event>
<event>
 7    1  0.2349719E-015  0.9000774E+02  0.7816164E-02  0.1186339E+00
        -11   -1    0    0    0    0  0.00000000000E+00  0.00000000000E+00  0.45593999997E+02  0.45594000000E+02  0.51100000000E-03 0.  1.
         11   -1    0    0    0    0 -0.00000000000E+00 -0.00000000000E+00 -0.45593999997E+02  0.45594000000E+02  0.51100000000E-03 0. -1.
    9900012    2    1    2    0    0 -0.15317160805E-01  0.10674356895E+01 -0.50333991448E+00  0.90007743826E+02  0.90000005245E+02 0.  0.
        -12    1    1    2    0    0  0.15317160805E-01 -0.10674356895E+01  0.50333991448E+00  0.11802561740E+01  0.00000000000E+00 0.  1.
         11    1    3    3    0    0 -0.13533264533E+01  0.83993015419E+01  0.42291706564E+01  0.95008233108E+01  0.51100000000E-03 0. -1.
        -11    1    3    3    0    0 -0.23082565696E+02  0.28374656825E+02  0.24339610102E+01  0.36658561830E+02  0.51100000000E-03 0.  1.
         12    1    3    3    0    0  0.24420574988E+02 -0.35706522677E+02 -0.71664715810E+01  0.43848358685E+02  0.00000000000E+00 0. -1.
</event>
<event>
 7    1  0.2349719E-015  0.9000766E+02  0.7816164E-02  0.1186339E+00
        -11   -1    0    0    0    0  0.00000000000E+00  0.00000000000E+00  0.45593999997E+02  0.45594000000E+02  0.51100000000E-03 0.  1.
         11   -1    0    0    0    0 -0.00000000000E+00 -0.00000000000E+00 -0.45593999997E+02  0.45594000000E+02  0.51100000000E-03 0. -1.
    9900012    2    1    2    0    0  0.45243642013E+00 -0.10638063543E+01  0.23837016841E+00  0.90007659790E+02  0.89999920099E+02 0.  0.
        -12    1    1    2    0    0 -0.45243642013E+00  0.10638063543E+01 -0.23837016841E+00  0.11803402098E+01  0.00000000000E+00 0.  1.
         11    1    3    3    0    0 -0.53783888894E+01  0.52245759362E+01  0.10198258995E+02  0.12658109952E+02  0.51100000000E-03 0. -1.
        -11    1    3    3    0    0 -0.25926688113E+02 -0.10972709184E+02  0.19122800698E+02  0.34033439588E+02  0.51100000000E-03 0.  1.
         12    1    3    3    0    0  0.31757513423E+02  0.46843268936E+01 -0.29082689525E+02  0.43316110251E+02  0.00000000000E+00 0. -1.
</event>
<event>
 7    1  0.2349719E-015  0.9000823E+02  0.7816164E-02  0.1186338E+00
        -11   -1    0    0    0    0  0.00000000000E+00  0.00000000000E+00  0.45593999997E+02  0.45594000000E+02  0.51100000000E-03 0.  1.
         11   -1    0    0    0    0 -0.00000000000E+00 -0.00000000000E+00 -0.45593999997E+02  0.45594000000E+02  0.51100000000E-03 0. -1.
    9900012    2    1    2    0    0 -0.67413720332E+00 -0.94137911941E+00  0.22626622821E+00  0.90008232217E+02  0.90000500081E+02 0.  0.
        -12    1    1    2    0    0  0.67413720332E+00  0.94137911941E+00 -0.22626622821E+00  0.11797677828E+01  0.00000000000E+00 0.  1.
         11    1    3    3    0    0  0.47409714934E+01 -0.37134907964E+02 -0.11672509944E+02  0.39213845626E+02  0.51100000000E-03 0. -1.
        -11    1    3    3    0    0 -0.96371155425E+01  0.18486728320E+01 -0.63358293894E+01  0.11680510328E+02  0.51100000000E-03 0.  1.
        -12    1    3    3    0    0  0.42220068458E+01  0.34344856012E+02  0.18234605561E+02  0.39113876262E+02  0.00000000000E+00 0.  1.
</event>
<event>
 7    1  0.2349719E-015  0.9000775E+02  0.7816164E-02  0.1186339E+00
        -11   -1    0    0    0    0  0.00000000000E+00  0.00000000000E+00  0.45593999997E+02  0.45594000000E+02  0.51100000000E-03 0.  1.
         11   -1    0    0    0    0 -0.00000000000E+00 -0.00000000000E+00 -0.45593999997E+02  0.45594000000E+02  0.51100000000E-03 0. -1.
    9900012    2    1    2    0    0 -0.48386943222E+00 -0.53837800456E+00 -0.93220315398E+00  0.90007752897E+02  0.90000014436E+02 0.  0.
        -12    1    1    2    0    0  0.48386943222E+00  0.53837800456E+00  0.93220315398E+00  0.11802471027E+01  0.00000000000E+00 0.  1.
         11    1    3    3    0    0 -0.90471305414E+00  0.75329008367E+01  0.24043762303E+01  0.79589023140E+01  0.51100000000E-03 0. -1.
        -11    1    3    3    0    0  0.16789464616E+02  0.16268498931E+02  0.29747344909E+02  0.37834570289E+02  0.51100000000E-03 0.  1.
         12    1    3    3    0    0 -0.16368620994E+02 -0.24339777772E+02 -0.33083924294E+02  0.44214280294E+02  0.00000000000E+00 0. -1.
</event>
<event>
 7    1  0.2349719E-015  0.9000760E+02  0.7816164E-02  0.1186339E+00
        -11   -1    0    0    0    0  0.00000000000E+00  0.00000000000E+00  0.45593999997E+02  0.45594000000E+02  0.51100000000E-03 0.  1.
         11   -1    0    0    0    0 -0.00000000000E+00 -0.00000000000E+00 -0.45593999997E+02  0.45594000000E+02  0.51100000000E-03 0. -1.
    9900012    2    1    2    0    0  0.11229142309E+01 -0.27884956634E+00  0.23377477343E+00  0.90007600027E+02  0.89999859548E+02 0.  0.
        -12    1    1    2    0    0 -0.11229142309E+01  0.27884956634E+00 -0.23377477343E+00  0.11803999726E+01  0.00000000000E+00 0.  1.
         11    1    3    3    0    0  0.18332344553E+02  0.23737535323E+02 -0.27727926412E+02  0.40845848546E+02  0.51100000000E-03 0. -1.
        -11    1    3    3    0    0  0.10621679756E+01 -0.38495574847E+01 -0.50122475444E+01  0.64085816951E+01  0.51100000000E-03 0.  1.
        -12    1    3    3    0    0 -0.18271598298E+02 -0.20166827405E+02  0.32973948730E+02  0.42753169787E+02  0.00000000000E+00 0.  1.
</event>
<event>
 7    1  0.2349719E-015  0.9000777E+02  0.7816164E-02  0.1186339E+00
        -11   -1    0    0    0    0  0.00000000000E+00  0.00000000000E+00  0.45593999997E+02  0.45594000000E+02  0.51100000000E-03 0.  1.
         11   -1    0    0    0    0 -0.00000000000E+00 -0.00000000000E+00 -0.45593999997E+02  0.45594000000E+02  0.51100000000E-03 0. -1.
    9900012    2    1    2    0    0 -0.10455443249E+01 -0.10970513194E+00  0.53642026352E+00  0.90007769154E+02  0.90000030907E+02 0.  0.
        -12    1    1    2    0    0  0.10455443249E+01  0.10970513194E+00 -0.53642026352E+00  0.11802308462E+01  0.00000000000E+00 0.  1.
         11    1    3    3    0    0 -0.34922758371E+02  0.75045233074E+01 -0.75914125535E+01  0.36517755505E+02  0.51100000000E-03 0. -1.
        -11    1    3    3    0    0 -0.89051348055E+01 -0.36637253194E+00 -0.15124559012E+01  0.90400872700E+01  0.51100000000E-03 0.  1.
        -12    1    3    3    0    0  0.42782348851E+02 -0.72478559074E+01  0.96402887183E+01  0.44449926379E+02  0.00000000000E+00 0.  1.
</event>
<event>
 7    1  0.2349719E-015  0.9000740E+02  0.7816164E-02  0.1186340E+00
        -11   -1    0    0    0    0  0.00000000000E+00  0.00000000000E+00  0.45593999997E+02  0.45594000000E+02  0.51100000000E-03 0.  1.
         11   -1    0    0    0    0 -0.00000000000E+00 -0.00000000000E+00 -0.45593999997E+02  0.45594000000E+02  0.51100000000E-03 0. -1.
    9900012    2    1    2    0    0 -0.78947129219E+00 -0.63397577903E+00 -0.60714970142E+00  0.90007398048E+02  0.89999654901E+02 0.  0.
        -12    1    1    2    0    0  0.78947129219E+00  0.63397577903E+00  0.60714970142E+00  0.11806019522E+01  0.00000000000E+00 0.  1.
         11    1    3    3    0    0  0.30161255406E+01  0.80040361933E+01 -0.32252589823E+01  0.91413294670E+01  0.51100000000E-03 0. -1.
        -11    1    3    3    0    0 -0.21392448611E+02  0.26353646615E+02  0.18439167085E+02  0.38628414808E+02  0.51100000000E-03 0.  1.
         12    1    3    3    0    0  0.17586851778E+02 -0.34991658588E+02 -0.15821057804E+02  0.42237653773E+02  0.00000000000E+00 0. -1.
</event>
<event>
 7    1  0.2821711E-015  0.9000766E+02  0.7816164E-02  0.1186339E+00
        -11   -1    0    0    0    0  0.00000000000E+00  0.00000000000E+00  0.45593999997E+02  0.45594000000E+02  0.51100000000E-03 0. -1.
         11   -1    0    0    0    0 -0.00000000000E+00 -0.00000000000E+00 -0.45593999997E+02  0.45594000000E+02  0.51100000000E-03 0.  1.
    9900012    2    1    2    0    0 -0.11516817775E+01  0.24696308925E+00  0.76389587152E-01  0.90007662314E+02  0.89999922656E+02 0.  0.
        -12    1    1    2    0    0  0.11516817775E+01 -0.24696308925E+00 -0.76389587152E-01  0.11803376861E+01  0.00000000000E+00 0.  1.
         11    1    3    3    0    0  0.13173509818E+02  0.18452994196E+02  0.29640021374E+02  0.37317358200E+02  0.51100000000E-03 0. -1.
        -11    1    3    3    0    0  0.89314112627E+01  0.26695431244E+01  0.48734306372E+00  0.93345632548E+01  0.51100000000E-03 0.  1.
        -12    1    3    3    0    0 -0.23256602858E+02 -0.20875574231E+02 -0.30050974851E+02  0.43355740859E+02  0.00000000000E+00 0.  1.
</event>
<event>
 7    1  0.2349719E-015  0.9000774E+02  0.7816164E-02  0.1186339E+00
        -11   -1    0    0    0    0  0.00000000000E+00  0.00000000000E+00  0.45593999997E+02  0.45594000000E+02  0.51100000000E-03 0.  1.
         11   -1    0    0    0    0 -0.00000000000E+00 -0.00000000000E+00 -0.45593999997E+02  0.45594000000E+02  0.51100000000E-03 0. -1.
    9900012    2    1    2    0    0  0.10331088287E+01 -0.44680390406E+00 -0.35505973674E+00  0.90007739437E+02  0.90000000797E+02 0.  0.
        -12    1    1    2    0    0 -0.10331088287E+01  0.44680390406E+00  0.35505973674E+00  0.11802605633E+01  0.00000000000E+00 0.  1.
         11    1    3    3    0    0  0.93755147932E+01  0.32806247760E+02 -0.95150034982E+01  0.35421539514E+02  0.51100000000E-03 0. -1.
        -11    1    3    3    0    0 -0.51995480927E+01  0.91653088728E+01 -0.17327037606E+01  0.10678972314E+02  0.51100000000E-03 0.  1.
        -12    1    3    3    0    0 -0.31428578718E+01 -0.42418360537E+02  0.10892647522E+02  0.43907227609E+02  0.00000000000E+00 0.  1.
</event>
<event>
 7    1  0.2349719E-015  0.9000778E+02  0.7816164E-02  0.1186339E+00
        -11   -1    0    0    0    0  0.00000000000E+00  0.00000000000E+00  0.45593999997E+02  0.45594000000E+02  0.51100000000E-03 0.  1.
         11   -1    0    0    0    0 -0.00000000000E+00 -0.00000000000E+00 -0.45593999997E+02  0.45594000000E+02  0.51100000000E-03 0. -1.
    9900012    2    1    2    0    0 -0.73790291674E+00  0.88667913714E+00  0.24942522587E+00  0.90007782414E+02  0.90000044342E+02 0.  0.
        -12    1    1    2    0    0  0.73790291674E+00 -0.88667913714E+00 -0.24942522587E+00  0.11802175859E+01  0.00000000000E+00 0.  1.
         11    1    3    3    0    0  0.21912019811E+02 -0.91275397402E+01 -0.13993208745E+02  0.27554645436E+02  0.51100000000E-03 0. -1.
        -11    1    3    3    0    0  0.11077526591E+02 -0.10341275649E+02 -0.80803423240E+01  0.17173977692E+02  0.51100000000E-03 0.  1.
        -12    1    3    3    0    0 -0.33727449319E+02  0.20355494526E+02  0.22322976295E+02  0.45279159286E+02  0.00000000000E+00 0.  1.
</event>
<event>
 7    1  0.2349719E-015  0.9000781E+02  0.7816164E-02  0.1186339E+00
        -11   -1    0    0    0    0  0.00000000000E+00  0.00000000000E+00  0.45593999997E+02  0.45594000000E+02  0.51100000000E-03 0. -1.
         11   -1    0    0    0    0 -0.00000000000E+00 -0.00000000000E+00 -0.45593999997E+02  0.45594000000E+02  0.51100000000E-03 0.  1.
    9900012    2    1    2    0    0  0.51131856803E+00 -0.79583809379E+00 -0.70571914336E+00  0.90007811685E+02  0.90000073999E+02 0.  0.
        -12    1    1    2    0    0 -0.51131856803E+00  0.79583809379E+00  0.70571914336E+00  0.11801883150E+01  0.00000000000E+00 0.  1.
         11    1    3    3    0    0  0.14111346154E+01 -0.45120276063E+01  0.79160689201E+01  0.92202950838E+01  0.51100000000E-03 0. -1.
        -11    1    3    3    0    0  0.12336164138E+02  0.20945086649E+02  0.28694964143E+02  0.37606895216E+02  0.51100000000E-03 0.  1.
         12    1    3    3    0    0 -0.13235980185E+02 -0.17228897136E+02 -0.37316752206E+02  0.43180621385E+02  0.00000000000E+00 0. -1.
</event>
<event>
 7    1  0.2349719E-015  0.9000774E+02  0.7816164E-02  0.1186339E+00
        -11   -1    0    0    0    0  0.00000000000E+00  0.00000000000E+00  0.45593999997E+02  0.45594000000E+02  0.51100000000E-03 0.  1.
         11   -1    0    0    0    0 -0.00000000000E+00 -0.00000000000E+00 -0.45593999997E+02  0.45594000000E+02  0.51100000000E-03 0. -1.
    9900012    2    1    2    0    0 -0.42416459165E+00 -0.88367885049E+00  0.65742077200E+00  0.90007743255E+02  0.90000004666E+02 0.  0.
        -12    1    1    2    0    0  0.42416459165E+00  0.88367885049E+00 -0.65742077200E+00  0.11802567446E+01  0.00000000000E+00 0.  1.
         11    1    3    3    0    0 -0.48462513458E+01  0.82995971602E+01 -0.29278090816E+01  0.10046966279E+02  0.51100000000E-03 0. -1.
        -11    1    3    3    0    0  0.24063416312E+02  0.24209554738E+02  0.18043453244E+02  0.38609801223E+02  0.51100000000E-03 0.  1.
         12    1    3    3    0    0 -0.19641329558E+02 -0.33392830748E+02 -0.14458223391E+02  0.41350975754E+02  0.00000000000E+00 0. -1.
</event>
<event>
 7    1  0.2349719E-015  0.9000753E+02  0.7816164E-02  0.1186339E+00
        -11   -1    0    0    0    0  0.00000000000E+00  0.00000000000E+00  0.45593999997E+02  0.45594000000E+02  0.51100000000E-03 0.  1.
         11   -1    0    0    0    0 -0.00000000000E+00 -0.00000000000E+00 -0.45593999997E+02  0.45594000000E+02  0.51100000000E-03 0. -1.
    9900012    2    1    2    0    0  0.10392887293E+01 -0.13139476954E+00 -0.54418182139E+00  0.90007525730E+02  0.89999784269E+02 0.  0.
        -12    1    1    2    0    0 -0.10392887293E+01  0.13139476954E+00  0.54418182139E+00  0.11804742704E+01  0.00000000000E+00 0.  1.
         11    1    3    3    0    0  0.19727172682E+02 -0.28282095382E+02  0.42935043792E+01  0.34748704167E+02  0.51100000000E-03 0. -1.
        -11    1    3    3    0    0  0.90238630417E+01 -0.60661740122E+01  0.61909322134E+00  0.10890906667E+02  0.51100000000E-03 0.  1.
        -12    1    3    3    0    0 -0.27711746994E+02  0.34216874624E+02 -0.54567794220E+01  0.44367914896E+02  0.00000000000E+00 0.  1.
</event>
<event>
 7    1  0.2349719E-015  0.9000778E+02  0.7816164E-02  0.1186339E+00
        -11   -1    0    0    0    0  0.00000000000E+00  0.00000000000E+00  0.45593999997E+02  0.45594000000E+02  0.51100000000E-03 0.  1.
         11   -1    0    0    0    0 -0.00000000000E+00 -0.00000000000E+00 -0.45593999997E+02  0.45594000000E+02  0.51100000000E-03 0. -1.
    9900012    2    1    2    0    0 -0.47492319366E+00 -0.81005193099E+00 -0.71496850985E+00  0.90007781317E+02  0.90000043230E+02 0.  0.
        -12    1    1    2    0    0  0.47492319366E+00  0.81005193099E+00  0.71496850985E+00  0.11802186835E+01  0.00000000000E+00 0.  1.
         11    1    3    3    0    0  0.23695313388E+02 -0.67386371423E+01  0.21845893165E+02  0.32925979948E+02  0.51100000000E-03 0. -1.
        -11    1    3    3    0    0 -0.85200700627E+01 -0.14580889246E+02  0.66138177094E+01  0.18136606905E+02  0.51100000000E-03 0.  1.
        -12    1    3    3    0    0 -0.15650166519E+02  0.20509474458E+02 -0.29174679384E+02  0.38945194463E+02  0.00000000000E+00 0.  1.
</event>
<event>
 7    1  0.2349719E-015  0.9000742E+02  0.7816164E-02  0.1186340E+00
        -11   -1    0    0    0    0  0.00000000000E+00  0.00000000000E+00  0.45593999997E+02  0.45594000000E+02  0.51100000000E-03 0.  1.
         11   -1    0    0    0    0 -0.00000000000E+00 -0.00000000000E+00 -0.45593999997E+02  0.45594000000E+02  0.51100000000E-03 0. -1.
    9900012    2    1    2    0    0 -0.40975073922E+00 -0.13009992827E-01 -0.11071143629E+01  0.90007420845E+02  0.89999678000E+02 0.  0.
        -12    1    1    2    0    0  0.40975073922E+00  0.13009992827E-01  0.11071143629E+01  0.11805791548E+01  0.00000000000E+00 0.  1.
         11    1    3    3    0    0  0.24130513737E+01  0.37208523042E+01  0.12331484657E+02  0.13104696598E+02  0.51100000000E-03 0. -1.
        -11    1    3    3    0    0  0.34463749674E+02  0.74551523188E+01 -0.14080446942E+02  0.37968254160E+02  0.51100000000E-03 0.  1.
         12    1    3    3    0    0 -0.37286551787E+02 -0.11189014616E+02  0.64184792129E+00  0.38934470087E+02  0.00000000000E+00 0. -1.
</event>
<event>
 7    1  0.2349719E-015  0.9000776E+02  0.7816164E-02  0.1186339E+00
        -11   -1    0    0    0    0  0.00000000000E+00  0.00000000000E+00  0.45593999997E+02  0.45594000000E+02  0.51100000000E-03 0.  1.
         11   -1    0    0    0    0 -0.00000000000E+00 -0.00000000000E+00 -0.45593999997E+02  0.45594000000E+02  0.51100000000E-03 0. -1.
    9900012    2    1    2    0    0  0.86770999666E+00  0.43758337367E+00 -0.66975770674E+00  0.90007756282E+02  0.90000017865E+02 0.  0.
        -12    1    1    2    0    0 -0.86770999666E+00 -0.43758337367E+00  0.66975770674E+00  0.11802437176E+01  0.00000000000E+00 0.  1.
         11    1    3    3    0    0  0.63847064412E+01  0.24642366292E+02 -0.29885855483E+02  0.39257802423E+02  0.51100000000E-03 0. -1.
        -11    1    3    3    0    0  0.54873831049E+01  0.61708863017E+01  0.10688434930E+02  0.13506807639E+02  0.51100000000E-03 0.  1.
        -12    1    3    3    0    0 -0.11004379549E+02 -0.30375669220E+02  0.18527662847E+02  0.37243146221E+02  0.00000000000E+00 0.  1.
</event>
<event>
 7    1  0.2349719E-015  0.9000775E+02  0.7816164E-02  0.1186339E+00
        -11   -1    0    0    0    0  0.00000000000E+00  0.00000000000E+00  0.45593999997E+02  0.45594000000E+02  0.51100000000E-03 0.  1.
         11   -1    0    0    0    0 -0.00000000000E+00 -0.00000000000E+00 -0.45593999997E+02  0.45594000000E+02  0.51100000000E-03 0. -1.
    9900012    2    1    2    0    0 -0.73104436913E+00  0.55803604521E+00 -0.73969547152E+00  0.90007754480E+02  0.90000016039E+02 0.  0.
        -12    1    1    2    0    0  0.73104436913E+00 -0.55803604521E+00  0.73969547152E+00  0.11802455202E+01  0.00000000000E+00 0.  1.
         11    1    3    3    0    0 -0.34774442864E+01  0.27625376270E+01  0.18804322442E+02  0.19321665965E+02  0.51100000000E-03 0. -1.
        -11    1    3    3    0    0 -0.97692754277E+01  0.21764068873E+02  0.13953414047E+02  0.27637134441E+02  0.51100000000E-03 0.  1.
         12    1    3    3    0    0  0.12515675345E+02 -0.23968570454E+02 -0.33497431960E+02  0.43048954074E+02  0.00000000000E+00 0. -1.
</event>
<event>
 7    1  0.2349719E-015  0.9000839E+02  0.7816164E-02  0.1186338E+00
        -11   -1    0    0    0    0  0.00000000000E+00  0.00000000000E+00  0.45593999997E+02  0.45594000000E+02  0.51100000000E-03 0.  1.
         11   -1    0    0    0    0 -0.00000000000E+00 -0.00000000000E+00 -0.45593999997E+02  0.45594000000E+02  0.51100000000E-03 0. -1.
    9900012    2    1    2    0    0  0.26291760021E+00  0.84593776284E+00 -0.77894300912E+00  0.90008386260E+02  0.90000656157E+02 0.  0.
        -12    1    1    2    0    0 -0.26291760021E+00 -0.84593776284E+00  0.77894300912E+00  0.11796137396E+01  0.00000000000E+00 0.  1.
         11    1    3    3    0    0  0.35989844641E+01 -0.16394755638E+02  0.51972233435E+00  0.16793177578E+02  0.51100000000E-03 0. -1.
        -11    1    3    3    0    0  0.93594828198E+01 -0.16954755220E+02  0.22480883228E+02  0.29672440988E+02  0.51100000000E-03 0.  1.
        -12    1    3    3    0    0 -0.12695549684E+02  0.34195448621E+02 -0.23779548571E+02  0.43542767694E+02  0.00000000000E+00 0.  1.
</event>
<event>
 7    1  0.2349719E-015  0.9000776E+02  0.7816164E-02  0.1186339E+00
        -11   -1    0    0    0    0  0.00000000000E+00  0.00000000000E+00  0.45593999997E+02  0.45594000000E+02  0.51100000000E-03 0.  1.
         11   -1    0    0    0    0 -0.00000000000E+00 -0.00000000000E+00 -0.45593999997E+02  0.45594000000E+02  0.51100000000E-03 0. -1.
    9900012    2    1    2    0    0  0.10981418904E+01  0.35609038047E+00 -0.24544093777E+00  0.90007763912E+02  0.90000025595E+02 0.  0.
        -12    1    1    2    0    0 -0.10981418904E+01 -0.35609038047E+00  0.24544093777E+00  0.11802360884E+01  0.00000000000E+00 0.  1.
         11    1    3    3    0    0 -0.66378209906E+01  0.63356095381E+01  0.27247449346E+00  0.91801338952E+01  0.51100000000E-03 0. -1.
        -11    1    3    3    0    0  0.99127478746E+01  0.41166112988E+01  0.38757815794E+02  0.40216630197E+02  0.51100000000E-03 0.  1.
         12    1    3    3    0    0 -0.21767849936E+01 -0.10096130456E+02 -0.39275731225E+02  0.40610999820E+02  0.00000000000E+00 0. -1.
</event>
<event>
 7    1  0.2349719E-015  0.9000787E+02  0.7816164E-02  0.1186339E+00
        -11   -1    0    0    0    0  0.00000000000E+00  0.00000000000E+00  0.45593999997E+02  0.45594000000E+02  0.51100000000E-03 0.  1.
         11   -1    0    0    0    0 -0.00000000000E+00 -0.00000000000E+00 -0.45593999997E+02  0.45594000000E+02  0.51100000000E-03 0. -1.
    9900012    2    1    2    0    0 -0.76507337613E+00 -0.13799972944E+00 -0.88788215012E+00  0.90007866148E+02  0.90000129181E+02 0.  0.
        -12    1    1    2    0    0  0.76507337613E+00  0.13799972944E+00  0.88788215012E+00  0.11801338520E+01  0.00000000000E+00 0.  1.
         11    1    3    3    0    0 -0.50229094252E+01 -0.29846512017E+02 -0.16718784934E+02  0.34576895011E+02  0.51100000000E-03 0. -1.
        -11    1    3    3    0    0 -0.20968390489E+01 -0.35403668887E+01 -0.11315085954E+02  0.12040020852E+02  0.51100000000E-03 0.  1.
        -12    1    3    3    0    0  0.63546750979E+01  0.33248879176E+02  0.27145988739E+02  0.43390950285E+02  0.00000000000E+00 0.  1.
</event>
<event>
 7    1  0.2349719E-015  0.9000784E+02  0.7816164E-02  0.1186339E+00
        -11   -1    0    0    0    0  0.00000000000E+00  0.00000000000E+00  0.45593999997E+02  0.45594000000E+02  0.51100000000E-03 0.  1.
         11   -1    0    0    0    0 -0.00000000000E+00 -0.00000000000E+00 -0.45593999997E+02  0.45594000000E+02  0.51100000000E-03 0. -1.
    9900012    2    1    2    0    0  0.10559617195E+01 -0.14645358033E+00 -0.50624325646E+00  0.90007836436E+02  0.90000099076E+02 0.  0.
        -12    1    1    2    0    0 -0.10559617195E+01  0.14645358033E+00  0.50624325646E+00  0.11801635644E+01  0.00000000000E+00 0.  1.
         11    1    3    3    0    0 -0.36795628428E+01  0.39915167525E+01 -0.78052673930E+01  0.95075542616E+01  0.51100000000E-03 0. -1.
        -11    1    3    3    0    0 -0.13863321097E+02 -0.13041004503E+02 -0.31361139459E+02  0.36684881610E+02  0.51100000000E-03 0.  1.
         12    1    3    3    0    0  0.18598845660E+02  0.89030341699E+01  0.38660163596E+02  0.43815400564E+02  0.00000000000E+00 0. -1.
</event>
<event>
 7    1  0.2349719E-015  0.9000785E+02  0.7816164E-02  0.1186339E+00
        -11   -1    0    0    0    0  0.00000000000E+00  0.00000000000E+00  0.45593999997E+02  0.45594000000E+02  0.51100000000E-03 0. -1.
         11   -1    0    0    0    0 -0.00000000000E+00 -0.00000000000E+00 -0.45593999997E+02  0.45594000000E+02  0.51100000000E-03 0.  1.
    9900012    2    1    2    0    0  0.39415568247E+00  0.10788584820E+01 -0.27102696349E+00  0.90007851729E+02  0.90000114572E+02 0.  0.
        -12    1    1    2    0    0 -0.39415568247E+00 -0.10788584820E+01  0.27102696349E+00  0.11801482709E+01  0.00000000000E+00 0.  1.
         11    1    3    3    0    0 -0.23220188661E+02 -0.25914186045E+02 -0.77334109424E+01  0.35644464436E+02  0.51100000000E-03 0. -1.
        -11    1    3    3    0    0  0.15895956774E+02 -0.73252633076E+01  0.78579010912E+01  0.19185607473E+02  0.51100000000E-03 0.  1.
        -12    1    3    3    0    0  0.77183875698E+01  0.34318307835E+02 -0.39551711221E+00  0.35177779821E+02  0.00000000000E+00 0.  1.
</event>
<event>
 7    1  0.2349719E-015  0.9000763E+02  0.7816164E-02  0.1186339E+00
        -11   -1    0    0    0    0  0.00000000000E+00  0.00000000000E+00  0.45593999997E+02  0.45594000000E+02  0.51100000000E-03 0.  1.
         11   -1    0    0    0    0 -0.00000000000E+00 -0.00000000000E+00 -0.45593999997E+02  0.45594000000E+02  0.51100000000E-03 0. -1.
    9900012    2    1    2    0    0 -0.56827978369E-01 -0.11661954623E+01 -0.17330767700E+00  0.90007628522E+02  0.89999888418E+02 0.  0.
        -12    1    1    2    0    0  0.56827978369E-01  0.11661954623E+01  0.17330767700E+00  0.11803714781E+01  0.00000000000E+00 0.  1.
         11    1    3    3    0    0 -0.79267592935E+01  0.32409586000E+02 -0.55288545570E+01  0.33819861185E+02  0.51100000000E-03 0. -1.
        -11    1    3    3    0    0 -0.26542874677E+01  0.86510662357E+01 -0.64307406076E+01  0.11101378923E+02  0.51100000000E-03 0.  1.
        -12    1    3    3    0    0  0.10524218783E+02 -0.42226847698E+02  0.11786287488E+02  0.45086388414E+02  0.00000000000E+00 0.  1.
</event>
<event>
 7    1  0.2349719E-015  0.9000770E+02  0.7816164E-02  0.1186339E+00
        -11   -1    0    0    0    0  0.00000000000E+00  0.00000000000E+00  0.45593999997E+02  0.45594000000E+02  0.51100000000E-03 0.  1.
         11   -1    0    0    0    0 -0.00000000000E+00 -0.00000000000E+00 -0.45593999997E+02  0.45594000000E+02  0.51100000000E-03 0. -1.
    9900012    2    1    2    0    0 -0.93465831038E+00 -0.39116402301E+00 -0.60541161208E+00  0.90007695518E+02  0.89999956299E+02 0.  0.
        -12    1    1    2    0    0  0.93465831038E+00  0.39116402301E+00  0.60541161208E+00  0.11803044820E+01  0.00000000000E+00 0.  1.
         11    1    3    3    0    0  0.91230782186E+00  0.21382021497E+02  0.12727658475E+02  0.24900129304E+02  0.51100000000E-03 0. -1.
        -11    1    3    3    0    0 -0.14192901234E+02 -0.29402817856E+02  0.12917914074E+02  0.35111773632E+02  0.51100000000E-03 0.  1.
         12    1    3    3    0    0  0.12345935102E+02  0.76296323362E+01 -0.26250984161E+02  0.29995792581E+02  0.00000000000E+00 0. -1.
</event>
<event>
 7    1  0.2349719E-015  0.9000823E+02  0.7816164E-02  0.1186338E+00
        -11   -1    0    0    0    0  0.00000000000E+00  0.00000000000E+00  0.45593999997E+02  0.45594000000E+02  0.51100000000E-03 0.  1.
         11   -1    0    0    0    0 -0.00000000000E+00 -0.00000000000E+00 -0.45593999997E+02  0.45594000000E+02  0.51100000000E-03 0. -1.
    9900012    2    1    2    0    0  0.65675076405E+00  0.93528045775E+00 -0.29287338070E+00  0.90008234804E+02  0.90000502702E+02 0.  0.
        -12    1    1    2    0    0 -0.65675076405E+00 -0.93528045775E+00  0.29287338070E+00  0.11797651961E+01  0.00000000000E+00 0.  1.
         11    1    3    3    0    0 -0.14341186536E+02  0.11823665378E+02 -0.31475827773E+02  0.36554020688E+02  0.51100000000E-03 0. -1.
        -11    1    3    3    0    0 -0.10391006998E+02 -0.22094092899E+01 -0.19695570350E+01  0.10804335751E+02  0.51100000000E-03 0.  1.
        -12    1    3    3    0    0  0.25388944298E+02 -0.86789756301E+01  0.33152511427E+02  0.42649878364E+02  0.00000000000E+00 0.  1.
</event>
<event>
 7    1  0.2349719E-015  0.9000772E+02  0.7816164E-02  0.1186339E+00
        -11   -1    0    0    0    0  0.00000000000E+00  0.00000000000E+00  0.45593999997E+02  0.45594000000E+02  0.51100000000E-03 0. -1.
         11   -1    0    0    0    0 -0.00000000000E+00 -0.00000000000E+00 -0.45593999997E+02  0.45594000000E+02  0.51100000000E-03 0.  1.
    9900012    2    1    2    0    0  0.11665408036E+01 -0.79214774303E-01 -0.16117644980E+00  0.90007716019E+02  0.89999977071E+02 0.  0.
        -12    1    1    2    0    0 -0.11665408036E+01  0.79214774303E-01  0.16117644980E+00  0.11802839807E+01  0.00000000000E+00 0.  1.
         11    1    3    3    0    0  0.85937173078E+00 -0.13452427473E+02  0.35511337381E+02  0.37983699235E+02  0.51100000000E-03 0. -1.
        -11    1    3    3    0    0 -0.74635821304E+01 -0.74423828203E+01 -0.66537401028E+00  0.10561100468E+02  0.51100000000E-03 0.  1.
        -12    1    3    3    0    0  0.77707512032E+01  0.20815595519E+02 -0.35007139821E+02  0.41462916317E+02  0.00000000000E+00 0.  1.
</event>
<event>
 7    1  0.2349719E-015  0.9000776E+02  0.7816164E-02  0.1186339E+00
        -11   -1    0    0    0    0  0.00000000000E+00  0.00000000000E+00  0.45593999997E+02  0.45594000000E+02  0.51100000000E-03 0.  1.
         11   -1    0    0    0    0 -0.00000000000E+00 -0.00000000000E+00 -0.45593999997E+02  0.45594000000E+02  0.51100000000E-03 0. -1.
    9900012    2    1    2    0    0  0.84137378994E-02 -0.46038608740E+00 -0.10867082904E+01  0.90007762291E+02  0.90000023954E+02 0.  0.
        -12    1    1    2    0    0 -0.84137378994E-02  0.46038608740E+00  0.10867082904E+01  0.11802377087E+01  0.00000000000E+00 0.  1.
         11    1    3    3    0    0 -0.15112677472E+02  0.29989442353E+02  0.15415433012E+02  0.36951255029E+02  0.51100000000E-03 0. -1.
        -11    1    3    3    0    0  0.20365207542E+01 -0.12671357908E+01  0.10764860840E+02  0.11028838518E+02  0.51100000000E-03 0.  1.
        -12    1    3    3    0    0  0.13084570456E+02 -0.29182692649E+02 -0.27267002142E+02  0.42027668744E+02  0.00000000000E+00 0.  1.
</event>
<event>
 7    1  0.2349719E-015  0.9000770E+02  0.7816164E-02  0.1186339E+00
        -11   -1    0    0    0    0  0.00000000000E+00  0.00000000000E+00  0.45593999997E+02  0.45594000000E+02  0.51100000000E-03 0. -1.
         11   -1    0    0    0    0 -0.00000000000E+00 -0.00000000000E+00 -0.45593999997E+02  0.45594000000E+02  0.51100000000E-03 0.  1.
    9900012    2    1    2    0    0  0.90395412015E+00 -0.13617382591E+00  0.74661116873E+00  0.90007701479E+02  0.89999962338E+02 0.  0.
        -12    1    1    2    0    0 -0.90395412015E+00  0.13617382591E+00 -0.74661116873E+00  0.11802985213E+01  0.00000000000E+00 0.  1.
         11    1    3    3    0    0 -0.33872624890E+02 -0.18997550098E+02  0.64165509929E+01  0.39362847376E+02  0.51100000000E-03 0. -1.
        -11    1    3    3    0    0  0.48306036193E+01 -0.67057692676E+01  0.52400665416E+01  0.97857227847E+01  0.51100000000E-03 0.  1.
        -12    1    3    3    0    0  0.29945975391E+02  0.25567145540E+02 -0.10910006366E+02  0.40859131318E+02  0.00000000000E+00 0.  1.
</event>
<event>
 7    1  0.2349719E-015  0.9000802E+02  0.7816164E-02  0.1186338E+00
        -11   -1    0    0    0    0  0.00000000000E+00  0.00000000000E+00  0.45593999997E+02  0.45594000000E+02  0.51100000000E-03 0.  1.
         11   -1    0    0    0    0 -0.00000000000E+00 -0.00000000000E+00 -0.45593999997E+02  0.45594000000E+02  0.51100000000E-03 0. -1.
    9900012    2    1    2    0    0 -0.11452500686E+01  0.17145539506E+00 -0.22661513642E+00  0.90008021571E+02  0.90000286656E+02 0.  0.
        -12    1    1    2    0    0  0.11452500686E+01 -0.17145539506E+00  0.22661513642E+00  0.11799784287E+01  0.00000000000E+00 0.  1.
         11    1    3    3    0    0  0.12882767890E+02  0.28285838270E+02 -0.26559932262E+02  0.40883790885E+02  0.51100000000E-03 0. -1.
        -11    1    3    3    0    0 -0.12918788703E+02 -0.20194182889E+01  0.16354110094E+01  0.13177546100E+02  0.51100000000E-03 0.  1.
        -12    1    3    3    0    0 -0.11092292554E+01 -0.26094964586E+02  0.24697906116E+02  0.35946684587E+02  0.00000000000E+00 0.  1.
</event>
<event>
 7    1  0.2349719E-015  0.9000774E+02  0.7816164E-02  0.1186339E+00
        -11   -1    0    0    0    0  0.00000000000E+00  0.00000000000E+00  0.45593999997E+02  0.45594000000E+02  0.51100000000E-03 0.  1.
         11   -1    0    0    0    0 -0.00000000000E+00 -0.00000000000E+00 -0.45593999997E+02  0.45594000000E+02  0.51100000000E-03 0. -1.
    9900012    2    1    2    0    0 -0.87600758342E+00 -0.53268077552E+00 -0.58469971411E+00  0.90007740770E+02  0.90000002148E+02 0.  0.
        -12    1    1    2    0    0  0.87600758342E+00  0.53268077552E+00  0.58469971411E+00  0.11802592302E+01  0.00000000000E+00 0.  1.
         11    1    3    3    0    0  0.73320134160E+00  0.85064638431E+01 -0.34956668734E+01  0.92258982474E+01  0.51100000000E-03 0. -1.
        -11    1    3    3    0    0  0.45083746089E+01  0.13638165304E+02  0.36825638211E+02  0.39527871488E+02  0.51100000000E-03 0.  1.
         12    1    3    3    0    0 -0.61175835339E+01 -0.22677309922E+02 -0.33914671051E+02  0.41253971035E+02  0.00000000000E+00 0. -1.
</event>
<event>
 7    1  0.2349719E-015  0.9000779E+02  0.7816164E-02  0.1186339E+00
        -11   -1    0    0    0    0  0.00000000000E+00  0.00000000000E+00  0.45593999997E+02  0.45594000000E+02  0.51100000000E-03 0.  1.
         11   -1    0    0    0    0 -0.00000000000E+00 -0.00000000000E+00 -0.45593999997E+02  0.45594000000E+02  0.51100000000E-03 0. -1.
    9900012    2    1    2    0    0 -0.67385720088E+00  0.85502605751E+00 -0.45580051730E+00  0.90007785105E+02  0.90000047069E+02 0.  0.
        -12    1    1    2    0    0  0.67385720088E+00 -0.85502605751E+00  0.45580051730E+00  0.11802148947E+01  0.00000000000E+00 0.  1.
         11    1    3    3    0    0  0.34418389410E+01  0.22654678640E+02 -0.36677761002E+02  0.43247414628E+02  0.51100000000E-03 0. -1.
        -11    1    3    3    0    0 -0.61466287533E+01 -0.66004960158E+01  0.19690825867E+01  0.92317321874E+01  0.51100000000E-03 0.  1.
        -12    1    3    3    0    0  0.20309326114E+01 -0.15199156567E+02  0.34252877898E+02  0.37528638290E+02  0.00000000000E+00 0.  1.
</event>
<event>
 7    1  0.2349719E-015  0.9000772E+02  0.7816164E-02  0.1186339E+00
        -11   -1    0    0    0    0  0.00000000000E+00  0.00000000000E+00  0.45593999997E+02  0.45594000000E+02  0.51100000000E-03 0. -1.
         11   -1    0    0    0    0 -0.00000000000E+00 -0.00000000000E+00 -0.45593999997E+02  0.45594000000E+02  0.51100000000E-03 0.  1.
    9900012    2    1    2    0    0 -0.66546581165E+00  0.67694509272E+00  0.70139937011E+00  0.90007720168E+02  0.89999981274E+02 0.  0.
        -12    1    1    2    0    0  0.66546581165E+00 -0.67694509272E+00 -0.70139937011E+00  0.11802798318E+01  0.00000000000E+00 0.  1.
         11    1    3    3    0    0  0.24457869309E+02 -0.23728723680E+02  0.24936419434E+00  0.34077879649E+02  0.51100000000E-03 0. -1.
        -11    1    3    3    0    0  0.69901248063E+01 -0.69732815258E+01  0.44961886027E+01  0.10849157214E+02  0.51100000000E-03 0.  1.
        -12    1    3    3    0    0 -0.32113459927E+02  0.31378950298E+02 -0.40441534269E+01  0.45080683305E+02  0.00000000000E+00 0.  1.
</event>
<event>
 7    1  0.2349719E-015  0.9000783E+02  0.7816164E-02  0.1186339E+00
        -11   -1    0    0    0    0  0.00000000000E+00  0.00000000000E+00  0.45593999997E+02  0.45594000000E+02  0.51100000000E-03 0.  1.
         11   -1    0    0    0    0 -0.00000000000E+00 -0.00000000000E+00 -0.45593999997E+02  0.45594000000E+02  0.51100000000E-03 0. -1.
    9900012    2    1    2    0    0 -0.81397295706E+00 -0.77548953228E+00 -0.35897141494E+00  0.90007832018E+02  0.90000094600E+02 0.  0.
        -12    1    1    2    0    0  0.81397295706E+00  0.77548953228E+00  0.35897141494E+00  0.11801679822E+01  0.00000000000E+00 0.  1.
         11    1    3    3    0    0 -0.27035856493E+01  0.82834582671E+01  0.15617562075E+01  0.88523521699E+01  0.51100000000E-03 0. -1.
        -11    1    3    3    0    0 -0.11889832232E+02 -0.17387613827E+02  0.35015230716E+02  0.40862741066E+02  0.51100000000E-03 0.  1.
         12    1    3    3    0    0  0.13779444924E+02  0.83286660272E+01 -0.36935958338E+02  0.40292738782E+02  0.00000000000E+00 0. -1.
</event>
<event>
 7    1  0.2349719E-015  0.9000768E+02  0.7816164E-02  0.1186339E+00
        -11   -1    0    0    0    0  0.00000000000E+00  0.00000000000E+00  0.45593999997E+02  0.45594000000E+02  0.51100000000E-03 0.  1.
         11   -1    0    0    0    0 -0.00000000000E+00 -0.00000000000E+00 -0.45593999997E+02  0.45594000000E+02  0.51100000000E-03 0. -1.
    9900012    2    1    2    0    0  0.40455145823E+00 -0.10403948366E+01  0.38348605299E+00  0.90007684427E+02  0.89999945062E+02 0.  0.
        -12    1    1    2    0    0 -0.40455145823E+00  0.10403948366E+01 -0.38348605299E+00  0.11803155728E+01  0.00000000000E+00 0.  1.
         11    1    3    3    0    0 -0.55838037208E+01 -0.33182401361E+02 -0.17612129207E+02  0.37979438115E+02  0.51100000000E-03 0. -1.
        -11    1    3    3    0    0  0.17674326400E+02  0.37054930227E+01  0.60518932111E+01  0.19045679403E+02  0.51100000000E-03 0.  1.
        -12    1    3    3    0    0 -0.11685971221E+02  0.28436513502E+02  0.11943722049E+02  0.32982566909E+02  0.00000000000E+00 0.  1.
</event>
<event>
 7    1  0.2349719E-015  0.9000775E+02  0.7816164E-02  0.1186339E+00
        -11   -1    0    0    0    0  0.00000000000E+00  0.00000000000E+00  0.45593999997E+02  0.45594000000E+02  0.51100000000E-03 0.  1.
         11   -1    0    0    0    0 -0.00000000000E+00 -0.00000000000E+00 -0.45593999997E+02  0.45594000000E+02  0.51100000000E-03 0. -1.
    9900012    2    1    2    0    0 -0.56904227497E+00 -0.81409169182E+00  0.63751516218E+00  0.90007754273E+02  0.90000015830E+02 0.  0.
        -12    1    1    2    0    0  0.56904227497E+00  0.81409169182E+00 -0.63751516218E+00  0.11802457267E+01  0.00000000000E+00 0.  1.
         11    1    3    3    0    0 -0.12641782379E+01 -0.24839333608E+02 -0.28019604531E+02  0.37465836158E+02  0.51100000000E-03 0. -1.
        -11    1    3    3    0    0 -0.82318466717E+01  0.92833064771E-01 -0.54924073289E+01  0.98963860137E+01  0.51100000000E-03 0.  1.
        -12    1    3    3    0    0  0.89269826347E+01  0.23932408851E+02  0.34149527022E+02  0.42645532101E+02  0.00000000000E+00 0.  1.
</event>
<event>
 7    1  0.2349719E-015  0.9000774E+02  0.7816164E-02  0.1186339E+00
        -11   -1    0    0    0    0  0.00000000000E+00  0.00000000000E+00  0.45593999997E+02  0.45594000000E+02  0.51100000000E-03 0.  1.
         11   -1    0    0    0    0 -0.00000000000E+00 -0.00000000000E+00 -0.45593999997E+02  0.45594000000E+02  0.51100000000E-03 0. -1.
    9900012    2    1    2    0    0 -0.22147610429E+00  0.70201565458E+00 -0.92256428012E+00  0.90007744733E+02  0.90000006164E+02 0.  0.
        -12    1    1    2    0    0  0.22147610429E+00 -0.70201565458E+00  0.92256428012E+00  0.11802552669E+01  0.00000000000E+00 0.  1.
         11    1    3    3    0    0 -0.20857704093E+01 -0.60767928603E+01  0.24606407078E+01  0.68798693753E+01  0.51100000000E-03 0. -1.
        -11    1    3    3    0    0 -0.19418182622E+02 -0.30738638926E+02  0.10450176841E+02  0.37830357330E+02  0.51100000000E-03 0.  1.
         12    1    3    3    0    0  0.21282476928E+02  0.37517447441E+02 -0.13833381829E+02  0.45297518028E+02  0.00000000000E+00 0. -1.
</event>
<event>
 7    1  0.2349719E-015  0.9000766E+02  0.7816164E-02  0.1186339E+00
        -11   -1    0    0    0    0  0.00000000000E+00  0.00000000000E+00  0.45593999997E+02  0.45594000000E+02  0.51100000000E-03 0.  1.
         11   -1    0    0    0    0 -0.00000000000E+00 -0.00000000000E+00 -0.45593999997E+02  0.45594000000E+02  0.51100000000E-03 0. -1.
    9900012    2    1    2    0    0  0.11466860260E+01 -0.14656950185E+00 -0.23838341588E+00  0.90007661865E+02  0.89999922201E+02 0.  0.
        -12    1    1    2    0    0 -0.11466860260E+01  0.14656950185E+00  0.23838341588E+00  0.11803381355E+01  0.00000000000E+00 0.  1.
         11    1    3    3    0    0  0.27006041100E+00 -0.85385251613E+00  0.15785777820E+02  0.15811159932E+02  0.51100000000E-03 0. -1.
        -11    1    3    3    0    0  0.45042056942E+01 -0.19458928915E+02  0.22791339572E+02  0.30304833660E+02  0.51100000000E-03 0.  1.
         12    1    3    3    0    0 -0.36275800791E+01  0.20166211929E+02 -0.38815500807E+02  0.43891668272E+02  0.00000000000E+00 0. -1.
</event>
<event>
 7    1  0.2349719E-015  0.9000777E+02  0.7816164E-02  0.1186339E+00
        -11   -1    0    0    0    0  0.00000000000E+00  0.00000000000E+00  0.45593999997E+02  0.45594000000E+02  0.51100000000E-03 0.  1.
         11   -1    0    0    0    0 -0.00000000000E+00 -0.00000000000E+00 -0.45593999997E+02  0.45594000000E+02  0.51100000000E-03 0. -1.
    9900012    2    1    2    0    0 -0.22007367423E+00 -0.93531015164E+00 -0.68534384150E+00  0.90007773885E+02  0.90000035700E+02 0.  0.
        -12    1    1    2    0    0  0.22007367423E+00  0.93531015164E+00  0.68534384150E+00  0.11802261152E+01  0.00000000000E+00 0.  1.
         11    1    3    3    0    0  0.72637860868E+01 -0.28874190327E+02 -0.25855524228E+02  0.39433356295E+02  0.51100000000E-03 0. -1.
        -11    1    3    3    0    0 -0.46735945347E+01 -0.63038900838E+01 -0.22393475482E+00  0.78505836152E+01  0.51100000000E-03 0.  1.
        -12    1    3    3    0    0 -0.28102652264E+01  0.34242770259E+02  0.25394115141E+02  0.42723833974E+02  0.00000000000E+00 0.  1.
</event>
<event>
 7    1  0.2349719E-015  0.9000756E+02  0.7816164E-02  0.1186339E+00
        -11   -1    0    0    0    0  0.00000000000E+00  0.00000000000E+00  0.45593999997E+02  0.45594000000E+02  0.51100000000E-03 0.  1.
         11   -1    0    0    0    0 -0.00000000000E+00 -0.00000000000E+00 -0.45593999997E+02  0.45594000000E+02  0.51100000000E-03 0. -1.
    9900012    2    1    2    0    0 -0.71887279051E+00 -0.33544441215E+00 -0.87414909268E+00  0.90007560387E+02  0.89999819384E+02 0.  0.
        -12    1    1    2    0    0  0.71887279051E+00  0.33544441215E+00  0.87414909268E+00  0.11804396125E+01  0.00000000000E+00 0.  1.
         11    1    3    3    0    0 -0.30625969664E+01 -0.16474088145E+02  0.26617482222E+01  0.16966436994E+02  0.51100000000E-03 0. -1.
        -11    1    3    3    0    0 -0.82014369606E+01 -0.25597938591E+02  0.87604266900E+01  0.28271241649E+02  0.51100000000E-03 0.  1.
         12    1    3    3    0    0  0.10545161136E+02  0.41736582324E+02 -0.12296324005E+02  0.44769881745E+02  0.00000000000E+00 0. -1.
</event>
<event>
 7    1  0.2349719E-015  0.9000777E+02  0.7816164E-02  0.1186339E+00
        -11   -1    0    0    0    0  0.00000000000E+00  0.00000000000E+00  0.45593999997E+02  0.45594000000E+02  0.51100000000E-03 0.  1.
         11   -1    0    0    0    0 -0.00000000000E+00 -0.00000000000E+00 -0.45593999997E+02  0.45594000000E+02  0.51100000000E-03 0. -1.
    9900012    2    1    2    0    0  0.65129348837E+00 -0.98419167030E+00  0.11408862894E-01  0.90007768407E+02  0.90000030150E+02 0.  0.
        -12    1    1    2    0    0 -0.65129348837E+00  0.98419167030E+00 -0.11408862894E-01  0.11802315934E+01  0.00000000000E+00 0.  1.
         11    1    3    3    0    0 -0.38669414412E+02 -0.10158537424E+02  0.29552724662E+01  0.40090561597E+02  0.51100000000E-03 0. -1.
        -11    1    3    3    0    0  0.18347536225E+01 -0.62201315115E+01 -0.65698196015E+01  0.92314076247E+01  0.51100000000E-03 0.  1.
        -12    1    3    3    0    0  0.37485954278E+02  0.15394477265E+02  0.36259559982E+01  0.40685799185E+02  0.00000000000E+00 0.  1.
</event>
<event>
 7    1  0.2349719E-015  0.9000787E+02  0.7816164E-02  0.1186339E+00
        -11   -1    0    0    0    0  0.00000000000E+00  0.00000000000E+00  0.45593999997E+02  0.45594000000E+02  0.51100000000E-03 0.  1.
         11   -1    0    0    0    0 -0.00000000000E+00 -0.00000000000E+00 -0.45593999997E+02  0.45594000000E+02  0.51100000000E-03 0. -1.
    9900012    2    1    2    0    0  0.20490687822E+00 -0.10290980750E+01 -0.54008160168E+00  0.90007865341E+02  0.90000128363E+02 0.  0.
        -12    1    1    2    0    0 -0.20490687822E+00  0.10290980750E+01  0.54008160168E+00  0.11801346590E+01  0.00000000000E+00 0.  1.
         11    1    3    3    0    0 -0.80850733179E+01  0.51527582960E+01 -0.46278695282E+01  0.10645961922E+02  0.51100000000E-03 0. -1.
        -11    1    3    3    0    0  0.40607417671E+02  0.11513334369E+02 -0.65508086009E+00  0.42213130296E+02  0.51100000000E-03 0.  1.
         12    1    3    3    0    0 -0.32317437475E+02 -0.17695190740E+02  0.47428687866E+01  0.37148773123E+02  0.00000000000E+00 0. -1.
</event>
<event>
 7    1  0.2349719E-015  0.9000772E+02  0.7816164E-02  0.1186339E+00
        -11   -1    0    0    0    0  0.00000000000E+00  0.00000000000E+00  0.45593999997E+02  0.45594000000E+02  0.51100000000E-03 0. -1.
         11   -1    0    0    0    0 -0.00000000000E+00 -0.00000000000E+00 -0.45593999997E+02  0.45594000000E+02  0.51100000000E-03 0.  1.
    9900012    2    1    2    0    0 -0.57345602540E-01  0.11756217208E+01 -0.87679773611E-01  0.90007719232E+02  0.89999980326E+02 0.  0.
        -12    1    1    2    0    0  0.57345602540E-01 -0.11756217208E+01  0.87679773611E-01  0.11802807680E+01  0.00000000000E+00 0.  1.
         11    1    3    3    0    0 -0.74541067618E+01 -0.31372681459E+01 -0.34854066921E+00  0.80949144464E+01  0.51100000000E-03 0. -1.
        -11    1    3    3    0    0 -0.13195254584E+02 -0.12404169362E+02 -0.34037388234E+02  0.38555440072E+02  0.51100000000E-03 0.  1.
         12    1    3    3    0    0  0.20592015743E+02  0.16717059229E+02  0.34298249129E+02  0.43357364714E+02  0.00000000000E+00 0. -1.
</event>
<event>
 7    1  0.2349719E-015  0.9000775E+02  0.7816164E-02  0.1186339E+00
        -11   -1    0    0    0    0  0.00000000000E+00  0.00000000000E+00  0.45593999997E+02  0.45594000000E+02  0.51100000000E-03 0. -1.
         11   -1    0    0    0    0 -0.00000000000E+00 -0.00000000000E+00 -0.45593999997E+02  0.45594000000E+02  0.51100000000E-03 0.  1.
    9900012    2    1    2    0    0 -0.63651368034E+00  0.78858878666E+00 -0.60494570853E+00  0.90007753733E+02  0.90000015283E+02 0.  0.
        -12    1    1    2    0    0  0.63651368034E+00 -0.78858878666E+00  0.60494570853E+00  0.11802462667E+01  0.00000000000E+00 0.  1.
         11    1    3    3    0    0 -0.14659589081E+02  0.24329452939E+02  0.22890074168E+02  0.36479875658E+02  0.51100000000E-03 0. -1.
        -11    1    3    3    0    0 -0.12295055734E+02 -0.22857448586E-01 -0.27888856476E+01  0.12607410574E+02  0.51100000000E-03 0.  1.
        -12    1    3    3    0    0  0.26318131135E+02 -0.23518006704E+02 -0.20706134229E+02  0.40920467501E+02  0.00000000000E+00 0.  1.
</event>
<event>
 7    1  0.2653662E-015  0.9000787E+02  0.7816164E-02  0.1186339E+00
        -11   -1    0    0    0    0  0.00000000000E+00  0.00000000000E+00  0.45593999997E+02  0.45594000000E+02  0.51100000000E-03 0. -1.
         11   -1    0    0    0    0 -0.00000000000E+00 -0.00000000000E+00 -0.45593999997E+02  0.45594000000E+02  0.51100000000E-03 0.  1.
    9900012    2    1    2    0    0 -0.44154367265E+00 -0.97825037255E+00  0.49069083877E+00  0.90007867759E+02  0.90000130814E+02 0.  0.
        -12    1    1    2    0    0  0.44154367265E+00  0.97825037255E+00 -0.49069083877E+00  0.11801322407E+01  0.00000000000E+00 0.  1.
         11    1    3    3    0    0 -0.11545863400E+02 -0.39296714696E+02  0.12888419802E+02  0.42937746946E+02  0.51100000000E-03 0. -1.
        -11    1    3    3    0    0  0.19485447414E+01  0.69451039775E+01  0.61610450084E+01  0.94862938877E+01  0.51100000000E-03 0.  1.
        -12    1    3    3    0    0  0.91557749865E+01  0.31373360346E+02 -0.18558773972E+02  0.37583826925E+02  0.00000000000E+00 0.  1.
</event>
<event>
 7    1  0.2349719E-015  0.9000780E+02  0.7816164E-02  0.1186339E+00
        -11   -1    0    0    0    0  0.00000000000E+00  0.00000000000E+00  0.45593999997E+02  0.45594000000E+02  0.51100000000E-03 0. -1.
         11   -1    0    0    0    0 -0.00000000000E+00 -0.00000000000E+00 -0.45593999997E+02  0.45594000000E+02  0.51100000000E-03 0.  1.
    9900012    2    1    2    0    0  0.65549450356E+00  0.91103051774E+00  0.36500130119E+00  0.90007798492E+02  0.90000060633E+02 0.  0.
        -12    1    1    2    0    0 -0.65549450356E+00 -0.91103051774E+00 -0.36500130119E+00  0.11802015075E+01  0.00000000000E+00 0.  1.
         11    1    3    3    0    0 -0.20244886011E+02 -0.14012811585E+02  0.35748377311E+02  0.43406920863E+02  0.51100000000E-03 0. -1.
        -11    1    3    3    0    0  0.98283694536E+01  0.11459023397E+01 -0.41853704304E+01  0.10743708121E+02  0.51100000000E-03 0.  1.
        -12    1    3    3    0    0  0.11072011061E+02  0.13777939763E+02 -0.31198005580E+02  0.35857169509E+02  0.00000000000E+00 0.  1.
</event>
<event>
 7    1  0.2349719E-015  0.9000770E+02  0.7816164E-02  0.1186339E+00
        -11   -1    0    0    0    0  0.00000000000E+00  0.00000000000E+00  0.45593999997E+02  0.45594000000E+02  0.51100000000E-03 0.  1.
         11   -1    0    0    0    0 -0.00000000000E+00 -0.00000000000E+00 -0.45593999997E+02  0.45594000000E+02  0.51100000000E-03 0. -1.
    9900012    2    1    2    0    0  0.51861223083E+00  0.17617292638E+00 -0.10455247719E+01  0.90007695974E+02  0.89999956760E+02 0.  0.
        -12    1    1    2    0    0 -0.51861223083E+00 -0.17617292638E+00  0.10455247719E+01  0.11803040263E+01  0.00000000000E+00 0.  1.
         11    1    3    3    0    0  0.38307466679E+00  0.27787790658E+02 -0.24801278289E+02  0.37247972574E+02  0.51100000000E-03 0. -1.
        -11    1    3    3    0    0  0.38777767595E+01  0.59417608343E+01 -0.47792878801E+01  0.85547219307E+01  0.51100000000E-03 0.  1.
        -12    1    3    3    0    0 -0.37422391955E+01 -0.33553378566E+02  0.28535041397E+02  0.44205001469E+02  0.00000000000E+00 0.  1.
</event>
<event>
 7    1  0.2349719E-015  0.9000776E+02  0.7816164E-02  0.1186339E+00
        -11   -1    0    0    0    0  0.00000000000E+00  0.00000000000E+00  0.45593999997E+02  0.45594000000E+02  0.51100000000E-03 0. -1.
         11   -1    0    0    0    0 -0.00000000000E+00 -0.00000000000E+00 -0.45593999997E+02  0.45594000000E+02  0.51100000000E-03 0.  1.
    9900012    2    1    2    0    0 -0.11196338416E+01  0.39398000003E-01 -0.37124781557E+00  0.90007763972E+02  0.90000025656E+02 0.  0.
        -12    1    1    2    0    0  0.11196338416E+01 -0.39398000003E-01  0.37124781557E+00  0.11802360282E+01  0.00000000000E+00 0.  1.
         11    1    3    3    0    0  0.39821227911E+01 -0.34021586889E+01  0.52139895609E+01  0.73903770588E+01  0.51100000000E-03 0. -1.
        -11    1    3    3    0    0  0.31261974672E+02  0.21473782698E+02 -0.15275752155E+02  0.40887443157E+02  0.51100000000E-03 0.  1.
         12    1    3    3    0    0 -0.36363731304E+02 -0.18032226009E+02  0.96905147788E+01  0.41729943756E+02  0.00000000000E+00 0. -1.
</event>
<event>
 7    1  0.2349719E-015  0.9000778E+02  0.7816164E-02  0.1186339E+00
        -11   -1    0    0    0    0  0.00000000000E+00  0.00000000000E+00  0.45593999997E+02  0.45594000000E+02  0.51100000000E-03 0. -1.
         11   -1    0    0    0    0 -0.00000000000E+00 -0.00000000000E+00 -0.45593999997E+02  0.45594000000E+02  0.51100000000E-03 0.  1.
    9900012    2    1    2    0    0 -0.92745037024E+00 -0.66545477589E+00 -0.29988664470E+00  0.90007777035E+02  0.90000038892E+02 0.  0.
        -12    1    1    2    0    0  0.92745037024E+00  0.66545477589E+00  0.29988664470E+00  0.11802229652E+01  0.00000000000E+00 0.  1.
         11    1    3    3    0    0 -0.62332870668E+01  0.28000060031E+02  0.28858542869E+02  0.40689958542E+02  0.51100000000E-03 0. -1.
        -11    1    3    3    0    0  0.17232784221E+01 -0.11386100787E+02  0.36366152720E+01  0.12076338458E+02  0.51100000000E-03 0.  1.
        -12    1    3    3    0    0  0.35825582744E+01 -0.17279414020E+02 -0.32795044786E+02  0.37241480035E+02  0.00000000000E+00 0.  1.
</event>
<event>
 7    1  0.2349719E-015  0.9000795E+02  0.7816164E-02  0.1186339E+00
        -11   -1    0    0    0    0  0.00000000000E+00  0.00000000000E+00  0.45593999997E+02  0.45594000000E+02  0.51100000000E-03 0.  1.
         11   -1    0    0    0    0 -0.00000000000E+00 -0.00000000000E+00 -0.45593999997E+02  0.45594000000E+02  0.51100000000E-03 0. -1.
    9900012    2    1    2    0    0  0.69617592778E+00  0.86019258003E+00 -0.40979005922E+00  0.90007949116E+02  0.90000213244E+02 0.  0.
        -12    1    1    2    0    0 -0.69617592778E+00 -0.86019258003E+00  0.40979005922E+00  0.11800508844E+01  0.00000000000E+00 0.  1.
         11    1    3    3    0    0 -0.51795230553E+01  0.27938265974E+00  0.78380179162E+01  0.93989381777E+01  0.51100000000E-03 0. -1.
        -11    1    3    3    0    0  0.35543800812E+01  0.12471468118E+02  0.34142021093E+02  0.36521893973E+02  0.51100000000E-03 0.  1.
         12    1    3    3    0    0  0.23213189019E+01 -0.11890658197E+02 -0.42389829069E+02  0.44087116965E+02  0.00000000000E+00 0. -1.
</event>
<event>
 7    1  0.2349719E-015  0.9000801E+02  0.7816164E-02  0.1186339E+00
        -11   -1    0    0    0    0  0.00000000000E+00  0.00000000000E+00  0.45593999997E+02  0.45594000000E+02  0.51100000000E-03 0. -1.
         11   -1    0    0    0    0 -0.00000000000E+00 -0.00000000000E+00 -0.45593999997E+02  0.45594000000E+02  0.51100000000E-03 0.  1.
    9900012    2    1    2    0    0 -0.51460154931E+00 -0.80279046659E+00  0.69505163021E+00  0.90008006756E+02  0.90000271645E+02 0.  0.
        -12    1    1    2    0    0  0.51460154931E+00  0.80279046659E+00 -0.69505163021E+00  0.11799932442E+01  0.00000000000E+00 0.  1.
         11    1    3    3    0    0 -0.29952062611E+01  0.21303997298E+02  0.31251649227E+02  0.37940705596E+02  0.51100000000E-03 0. -1.
        -11    1    3    3    0    0  0.11524179846E+02  0.15525307839E+01  0.92072768600E+00  0.11664682280E+02  0.51100000000E-03 0.  1.
        -12    1    3    3    0    0 -0.90435751344E+01 -0.23659318549E+02 -0.31477325283E+02  0.40402618880E+02  0.00000000000E+00 0.  1.
</event>
<event>
 7    1  0.2349719E-015  0.9000756E+02  0.7816164E-02  0.1186339E+00
        -11   -1    0    0    0    0  0.00000000000E+00  0.00000000000E+00  0.45593999997E+02  0.45594000000E+02  0.51100000000E-03 0. -1.
         11   -1    0    0    0    0 -0.00000000000E+00 -0.00000000000E+00 -0.45593999997E+02  0.45594000000E+02  0.51100000000E-03 0.  1.
    9900012    2    1    2    0    0  0.93438113093E+00 -0.19829608054E+00  0.69358367977E+00  0.90007556120E+02  0.89999815060E+02 0.  0.
        -12    1    1    2    0    0 -0.93438113093E+00  0.19829608054E+00 -0.69358367977E+00  0.11804438802E+01  0.00000000000E+00 0.  1.
         11    1    3    3    0    0  0.27271808246E+02 -0.11966928369E+02  0.21091263882E+02  0.36493839371E+02  0.51100000000E-03 0. -1.
        -11    1    3    3    0    0  0.32863182346E+01  0.57063578993E+00  0.94340387895E+01  0.10006328042E+02  0.51100000000E-03 0.  1.
        -12    1    3    3    0    0 -0.29623745350E+02  0.11197996498E+02 -0.29831718991E+02  0.43507388707E+02  0.00000000000E+00 0.  1.
</event>
<event>
 7    1  0.2349719E-015  0.9000772E+02  0.7816164E-02  0.1186339E+00
        -11   -1    0    0    0    0  0.00000000000E+00  0.00000000000E+00  0.45593999997E+02  0.45594000000E+02  0.51100000000E-03 0. -1.
         11   -1    0    0    0    0 -0.00000000000E+00 -0.00000000000E+00 -0.45593999997E+02  0.45594000000E+02  0.51100000000E-03 0.  1.
    9900012    2    1    2    0    0  0.72950411352E-01  0.76619752334E+00  0.89480186169E+00  0.90007724278E+02  0.89999985439E+02 0.  0.
        -12    1    1    2    0    0 -0.72950411352E-01 -0.76619752334E+00 -0.89480186169E+00  0.11802757216E+01  0.00000000000E+00 0.  1.
         11    1    3    3    0    0  0.22708016239E+02 -0.12856706892E+02  0.20721081926E+02  0.33321346762E+02  0.51100000000E-03 0. -1.
        -11    1    3    3    0    0  0.90255430143E+01 -0.11222719395E+01  0.79360586004E+01  0.12070664745E+02  0.51100000000E-03 0.  1.
        -12    1    3    3    0    0 -0.31660608842E+02  0.14745176355E+02 -0.27762338665E+02  0.44615712771E+02  0.00000000000E+00 0.  1.
</event>
<event>
 7    1  0.2349719E-015  0.9000771E+02  0.7816164E-02  0.1186339E+00
        -11   -1    0    0    0    0  0.00000000000E+00  0.00000000000E+00  0.45593999997E+02  0.45594000000E+02  0.51100000000E-03 0.  1.
         11   -1    0    0    0    0 -0.00000000000E+00 -0.00000000000E+00 -0.45593999997E+02  0.45594000000E+02  0.51100000000E-03 0. -1.
    9900012    2    1    2    0    0 -0.41813487596E-01 -0.11586379143E+01  0.22111918034E+00  0.90007710258E+02  0.89999971233E+02 0.  0.
        -12    1    1    2    0    0  0.41813487596E-01  0.11586379143E+01 -0.22111918034E+00  0.11802897424E+01  0.00000000000E+00 0.  1.
         11    1    3    3    0    0  0.26811857395E+01 -0.24020909242E+02 -0.30694931003E+02  0.39068806321E+02  0.51100000000E-03 0. -1.
        -11    1    3    3    0    0 -0.11523271252E+02  0.26689292870E+01 -0.13134552143E+01  0.11901013770E+02  0.51100000000E-03 0.  1.
        -12    1    3    3    0    0  0.88002720251E+01  0.20193342041E+02  0.32229505398E+02  0.39037890167E+02  0.00000000000E+00 0.  1.
</event>
<event>
 7    1  0.2349719E-015  0.9000772E+02  0.7816164E-02  0.1186339E+00
        -11   -1    0    0    0    0  0.00000000000E+00  0.00000000000E+00  0.45593999997E+02  0.45594000000E+02  0.51100000000E-03 0.  1.
         11   -1    0    0    0    0 -0.00000000000E+00 -0.00000000000E+00 -0.45593999997E+02  0.45594000000E+02  0.51100000000E-03 0. -1.
    9900012    2    1    2    0    0  0.31953681494E+00 -0.64347165094E+00 -0.93642938491E+00  0.90007720569E+02  0.89999981681E+02 0.  0.
        -12    1    1    2    0    0 -0.31953681494E+00  0.64347165094E+00  0.93642938491E+00  0.11802794307E+01  0.00000000000E+00 0.  1.
         11    1    3    3    0    0 -0.39398168485E+01 -0.33101304433E+02  0.17008737648E+02  0.37423464145E+02  0.51100000000E-03 0. -1.
        -11    1    3    3    0    0  0.34219372843E+01 -0.28518330623E+01  0.77279281239E+01  0.89198363181E+01  0.51100000000E-03 0.  1.
        -12    1    3    3    0    0  0.83741637920E+00  0.35309665845E+02 -0.25673095157E+02  0.43664420106E+02  0.00000000000E+00 0.  1.
</event>
<event>
 7    1  0.2349719E-015  0.9000771E+02  0.7816164E-02  0.1186339E+00
        -11   -1    0    0    0    0  0.00000000000E+00  0.00000000000E+00  0.45593999997E+02  0.45594000000E+02  0.51100000000E-03 0.  1.
         11   -1    0    0    0    0 -0.00000000000E+00 -0.00000000000E+00 -0.45593999997E+02  0.45594000000E+02  0.51100000000E-03 0. -1.
    9900012    2    1    2    0    0  0.98636026052E+00 -0.21268472839E+00 -0.61232219607E+00  0.90007711972E+02  0.89999972970E+02 0.  0.
        -12    1    1    2    0    0 -0.98636026052E+00  0.21268472839E+00  0.61232219607E+00  0.11802880280E+01  0.00000000000E+00 0.  1.
         11    1    3    3    0    0  0.35220976194E+02 -0.26105666074E+01 -0.17945594418E+02  0.39615357897E+02  0.51100000000E-03 0. -1.
        -11    1    3    3    0    0 -0.15407284705E+01 -0.85930442269E+01 -0.42443667460E+01  0.97071572894E+01  0.51100000000E-03 0.  1.
        -12    1    3    3    0    0 -0.32693887463E+02  0.10990926106E+02  0.21577638967E+02  0.40685196786E+02  0.00000000000E+00 0.  1.
</event>
<event>
 7    1  0.2349719E-015  0.9000782E+02  0.7816164E-02  0.1186339E+00
        -11   -1    0    0    0    0  0.00000000000E+00  0.00000000000E+00  0.45593999997E+02  0.45594000000E+02  0.51100000000E-03 0. -1.
         11   -1    0    0    0    0 -0.00000000000E+00 -0.00000000000E+00 -0.45593999997E+02  0.45594000000E+02  0.51100000000E-03 0.  1.
    9900012    2    1    2    0    0  0.40789499822E+00  0.10226312898E+01  0.42505915330E+00  0.90007818502E+02  0.90000080906E+02 0.  0.
        -12    1    1    2    0    0 -0.40789499822E+00 -0.10226312898E+01 -0.42505915330E+00  0.11801814980E+01  0.00000000000E+00 0.  1.
         11    1    3    3    0    0 -0.19895225411E+02  0.24732025699E+02  0.22915679027E+02  0.39148709236E+02  0.51100000000E-03 0. -1.
        -11    1    3    3    0    0  0.43624082512E+01 -0.60284872247E+01  0.88113363170E+01  0.11533122384E+02  0.51100000000E-03 0.  1.
        -12    1    3    3    0    0  0.15940712158E+02 -0.17680907184E+02 -0.31301956190E+02  0.39325986883E+02  0.00000000000E+00 0.  1.
</event>
<event>
 7    1  0.2349719E-015  0.9000773E+02  0.7816164E-02  0.1186339E+00
        -11   -1    0    0    0    0  0.00000000000E+00  0.00000000000E+00  0.45593999997E+02  0.45594000000E+02  0.51100000000E-03 0.  1.
         11   -1    0    0    0    0 -0.00000000000E+00 -0.00000000000E+00 -0.45593999997E+02  0.45594000000E+02  0.51100000000E-03 0. -1.
    9900012    2    1    2    0    0  0.95656629087E+00  0.53891656067E+00  0.43312072329E+00  0.90007727282E+02  0.89999988482E+02 0.  0.
        -12    1    1    2    0    0 -0.95656629087E+00 -0.53891656067E+00 -0.43312072329E+00  0.11802727181E+01  0.00000000000E+00 0.  1.
         11    1    3    3    0    0  0.67331975498E+01  0.72701567882E+01  0.12195390533E+01  0.99839072879E+01  0.51100000000E-03 0. -1.
        -11    1    3    3    0    0  0.24936362210E+02 -0.31584680903E+02  0.28796058047E+01  0.40344843014E+02  0.51100000000E-03 0.  1.
         12    1    3    3    0    0 -0.30712993468E+02  0.24853440675E+02 -0.36660241348E+01  0.39678976980E+02  0.00000000000E+00 0. -1.
</event>
<event>
 7    1  0.2349719E-015  0.9000773E+02  0.7816164E-02  0.1186339E+00
        -11   -1    0    0    0    0  0.00000000000E+00  0.00000000000E+00  0.45593999997E+02  0.45594000000E+02  0.51100000000E-03 0. -1.
         11   -1    0    0    0    0 -0.00000000000E+00 -0.00000000000E+00 -0.45593999997E+02  0.45594000000E+02  0.51100000000E-03 0.  1.
    9900012    2    1    2    0    0  0.29790737279E-01 -0.74002481657E+00  0.91897361134E+00  0.90007730236E+02  0.89999991475E+02 0.  0.
        -12    1    1    2    0    0 -0.29790737279E-01  0.74002481657E+00 -0.91897361134E+00  0.11802697639E+01  0.00000000000E+00 0.  1.
         11    1    3    3    0    0  0.36924488513E+02  0.34532367840E+01  0.21167803308E+02  0.42701505751E+02  0.51100000000E-03 0. -1.
        -11    1    3    3    0    0 -0.14436857520E+01  0.58112042032E-01 -0.10077712136E+02  0.10180760665E+02  0.51100000000E-03 0.  1.
        -12    1    3    3    0    0 -0.35451012024E+02 -0.42513736426E+01 -0.10171117561E+02  0.37125463820E+02  0.00000000000E+00 0.  1.
</event>
<event>
 7    1  0.2546362E-015  0.9000768E+02  0.7816164E-02  0.1186339E+00
        -11   -1    0    0    0    0  0.00000000000E+00  0.00000000000E+00  0.45593999997E+02  0.45594000000E+02  0.51100000000E-03 0. -1.
         11   -1    0    0    0    0 -0.00000000000E+00 -0.00000000000E+00 -0.45593999997E+02  0.45594000000E+02  0.51100000000E-03 0.  1.
    9900012    2    1    2    0    0 -0.11666385537E+01 -0.47469583112E-01  0.17281448607E+00  0.90007676433E+02  0.89999936962E+02 0.  0.
        -12    1    1    2    0    0  0.11666385537E+01  0.47469583112E-01 -0.17281448607E+00  0.11803235671E+01  0.00000000000E+00 0.  1.
         11    1    3    3    0    0 -0.11631511577E+01 -0.13606070431E+02  0.32925533156E+02  0.35645039025E+02  0.51100000000E-03 0. -1.
        -11    1    3    3    0    0  0.29097807065E+01 -0.18753385329E+01  0.90591534231E+01  0.96980399760E+01  0.51100000000E-03 0.  1.
        -12    1    3    3    0    0 -0.29132681025E+01  0.15433939381E+02 -0.41811872093E+02  0.44664597432E+02  0.00000000000E+00 0.  1.
</event>
<event>
 7    1  0.2349719E-015  0.9000758E+02  0.7816164E-02  0.1186339E+00
        -11   -1    0    0    0    0  0.00000000000E+00  0.00000000000E+00  0.45593999997E+02  0.45594000000E+02  0.51100000000E-03 0. -1.
         11   -1    0    0    0    0 -0.00000000000E+00 -0.00000000000E+00 -0.45593999997E+02  0.45594000000E+02  0.51100000000E-03 0.  1.
    9900012    2    1    2    0    0  0.11404885319E+01  0.26410287661E+00 -0.15142572517E+00  0.90007578816E+02  0.89999838056E+02 0.  0.
        -12    1    1    2    0    0 -0.11404885319E+01 -0.26410287661E+00  0.15142572517E+00  0.11804211838E+01  0.00000000000E+00 0.  1.
         11    1    3    3    0    0  0.20941134378E+02 -0.45408004830E+01  0.29548716323E+01  0.21630562746E+02  0.51100000000E-03 0. -1.
        -11    1    3    3    0    0  0.14517330227E+02 -0.19615071821E+02  0.63359096744E+01  0.25212054084E+02  0.51100000000E-03 0.  1.
        -12    1    3    3    0    0 -0.34317976074E+02  0.24419975181E+02 -0.94422070319E+01  0.43164961986E+02  0.00000000000E+00 0.  1.
</event>
<event>
 7    1  0.2349719E-015  0.9000774E+02  0.7816164E-02  0.1186339E+00
        -11   -1    0    0    0    0  0.00000000000E+00  0.00000000000E+00  0.45593999997E+02  0.45594000000E+02  0.51100000000E-03 0.  1.
         11   -1    0    0    0    0 -0.00000000000E+00 -0.00000000000E+00 -0.45593999997E+02  0.45594000000E+02  0.51100000000E-03 0. -1.
    9900012    2    1    2    0    0 -0.45972177423E+00  0.45543005970E+00 -0.98703907133E+00  0.90007742919E+02  0.90000004326E+02 0.  0.
        -12    1    1    2    0    0  0.45972177423E+00 -0.45543005970E+00  0.98703907133E+00  0.11802570810E+01  0.00000000000E+00 0.  1.
         11    1    3    3    0    0  0.28258727040E+01 -0.93157989794E+01 -0.35852803269E+02  0.37150951128E+02  0.51100000000E-03 0. -1.
        -11    1    3    3    0    0  0.58906718119E+01 -0.65250557707E+01 -0.40511481592E+01  0.96792648933E+01  0.51100000000E-03 0.  1.
        -12    1    3    3    0    0 -0.91762662902E+01  0.16296284810E+02  0.38916912357E+02  0.43177526898E+02  0.00000000000E+00 0.  1.
</event>
<event>
 7    1  0.2349719E-015  0.9000777E+02  0.7816164E-02  0.1186339E+00
        -11   -1    0    0    0    0  0.00000000000E+00  0.00000000000E+00  0.45593999997E+02  0.45594000000E+02  0.51100000000E-03 0.  1.
         11   -1    0    0    0    0 -0.00000000000E+00 -0.00000000000E+00 -0.45593999997E+02  0.45594000000E+02  0.51100000000E-03 0. -1.
    9900012    2    1    2    0    0 -0.20807129044E+00 -0.86552583260E-01 -0.11585174716E+01  0.90007767928E+02  0.90000029665E+02 0.  0.
        -12    1    1    2    0    0  0.20807129044E+00  0.86552583260E-01  0.11585174716E+01  0.11802320719E+01  0.00000000000E+00 0.  1.
         11    1    3    3    0    0 -0.97014367329E+01  0.19750594935E+02 -0.15541757185E+02  0.26939749287E+02  0.51100000000E-03 0. -1.
        -11    1    3    3    0    0  0.41517013465E+01  0.56014418278E+01 -0.19300345474E+02  0.20521113768E+02  0.51100000000E-03 0.  1.
        -12    1    3    3    0    0  0.53416640960E+01 -0.25438589346E+02  0.33683585187E+02  0.42546904873E+02  0.00000000000E+00 0.  1.
</event>
<event>
 7    1  0.2349719E-015  0.9000786E+02  0.7816164E-02  0.1186339E+00
        -11   -1    0    0    0    0  0.00000000000E+00  0.00000000000E+00  0.45593999997E+02  0.45594000000E+02  0.51100000000E-03 0.  1.
         11   -1    0    0    0    0 -0.00000000000E+00 -0.00000000000E+00 -0.45593999997E+02  0.45594000000E+02  0.51100000000E-03 0. -1.
    9900012    2    1    2    0    0  0.94302550542E+00 -0.44875335747E+00  0.54958849659E+00  0.90007862637E+02  0.90000125624E+02 0.  0.
        -12    1    1    2    0    0 -0.94302550542E+00  0.44875335747E+00 -0.54958849659E+00  0.11801373629E+01  0.00000000000E+00 0.  1.
         11    1    3    3    0    0  0.27175488503E+02  0.20613390648E+02  0.37518079803E+01  0.34314648662E+02  0.51100000000E-03 0. -1.
        -11    1    3    3    0    0  0.88610121244E+01  0.64747651855E+01 -0.12127044773E+01  0.11041321139E+02  0.51100000000E-03 0.  1.
        -12    1    3    3    0    0 -0.35093475122E+02 -0.27536909191E+02 -0.19895150064E+01  0.44651892837E+02  0.00000000000E+00 0.  1.
</event>
<event>
 7    1  0.2349719E-015  0.9000775E+02  0.7816164E-02  0.1186339E+00
        -11   -1    0    0    0    0  0.00000000000E+00  0.00000000000E+00  0.45593999997E+02  0.45594000000E+02  0.51100000000E-03 0.  1.
         11   -1    0    0    0    0 -0.00000000000E+00 -0.00000000000E+00 -0.45593999997E+02  0.45594000000E+02  0.51100000000E-03 0. -1.
    9900012    2    1    2    0    0  0.72482156945E+00 -0.28279345464E+00 -0.88749199722E+00  0.90007754055E+02  0.90000015609E+02 0.  0.
        -12    1    1    2    0    0 -0.72482156945E+00  0.28279345464E+00  0.88749199722E+00  0.11802459450E+01  0.00000000000E+00 0.  1.
         11    1    3    3    0    0  0.33650826181E+01  0.51566990262E+01  0.63603096313E+01  0.88526190893E+01  0.51100000000E-03 0. -1.
        -11    1    3    3    0    0  0.28921376417E+02  0.12829217214E+02  0.18373192895E+02  0.36587006513E+02  0.51100000000E-03 0.  1.
         12    1    3    3    0    0 -0.31561637465E+02 -0.18268709695E+02 -0.25620994524E+02  0.44568128453E+02  0.00000000000E+00 0. -1.
</event>
<event>
 7    1  0.2349719E-015  0.9000783E+02  0.7816164E-02  0.1186339E+00
        -11   -1    0    0    0    0  0.00000000000E+00  0.00000000000E+00  0.45593999997E+02  0.45594000000E+02  0.51100000000E-03 0.  1.
         11   -1    0    0    0    0 -0.00000000000E+00 -0.00000000000E+00 -0.45593999997E+02  0.45594000000E+02  0.51100000000E-03 0. -1.
    9900012    2    1    2    0    0  0.17722634388E+00  0.48661325145E+00 -0.10604672278E+01  0.90007833751E+02  0.90000096357E+02 0.  0.
        -12    1    1    2    0    0 -0.17722634388E+00 -0.48661325145E+00  0.10604672278E+01  0.11801662488E+01  0.00000000000E+00 0.  1.
         11    1    3    3    0    0 -0.16260265724E+02  0.16943124680E+02 -0.12786895583E+02  0.26738930687E+02  0.51100000000E-03 0. -1.
        -11    1    3    3    0    0 -0.10891234229E+02 -0.35826807123E+01  0.27061634062E+02  0.29390247064E+02  0.51100000000E-03 0.  1.
         12    1    3    3    0    0  0.27328726297E+02 -0.12873830716E+02 -0.15335205707E+02  0.33878656001E+02  0.00000000000E+00 0. -1.
</event>
<event>
 7    1  0.2349719E-015  0.9000771E+02  0.7816164E-02  0.1186339E+00
        -11   -1    0    0    0    0  0.00000000000E+00  0.00000000000E+00  0.45593999997E+02  0.45594000000E+02  0.51100000000E-03 0. -1.
         11   -1    0    0    0    0 -0.00000000000E+00 -0.00000000000E+00 -0.45593999997E+02  0.45594000000E+02  0.51100000000E-03 0.  1.
    9900012    2    1    2    0    0 -0.12123526884E+00 -0.57181506718E+00  0.10253851980E+01  0.90007709669E+02  0.89999970636E+02 0.  0.
        -12    1    1    2    0    0  0.12123526884E+00  0.57181506718E+00 -0.10253851980E+01  0.11802903312E+01  0.00000000000E+00 0.  1.
         11    1    3    3    0    0 -0.59936522908E+01  0.64355732834E+01  0.11337581011E+01  0.88671234886E+01  0.51100000000E-03 0. -1.
        -11    1    3    3    0    0 -0.34777981236E+02 -0.10783977938E+02  0.12362298425E+02  0.38452939831E+02  0.51100000000E-03 0.  1.
         12    1    3    3    0    0  0.40650398258E+02  0.37765895879E+01 -0.12470671328E+02  0.42687646349E+02  0.00000000000E+00 0. -1.
</event>
<event>
 7    1  0.2349719E-015  0.9000775E+02  0.7816164E-02  0.1186339E+00
        -11   -1    0    0    0    0  0.00000000000E+00  0.00000000000E+00  0.45593999997E+02  0.45594000000E+02  0.51100000000E-03 0.  1.
         11   -1    0    0    0    0 -0.00000000000E+00 -0.00000000000E+00 -0.45593999997E+02  0.45594000000E+02  0.51100000000E-03 0. -1.
    9900012    2    1    2    0    0 -0.59966652601E+00  0.98989608496E+00 -0.23127369784E+00  0.90007753532E+02  0.90000015079E+02 0.  0.
        -12    1    1    2    0    0  0.59966652601E+00 -0.98989608496E+00  0.23127369784E+00  0.11802464678E+01  0.00000000000E+00 0.  1.
         11    1    3    3    0    0 -0.73933697713E+00  0.48974829530E+01  0.74819417347E+01  0.89728151003E+01  0.51100000000E-03 0. -1.
        -11    1    3    3    0    0 -0.61109732755E+01  0.12241307738E+02  0.33578673570E+02  0.36259080635E+02  0.51100000000E-03 0.  1.
         12    1    3    3    0    0  0.62506437267E+01 -0.16148894606E+02 -0.41291889003E+02  0.44775857797E+02  0.00000000000E+00 0. -1.
</event>
<event>
 7    1  0.2349719E-015  0.9000763E+02  0.7816164E-02  0.1186339E+00
        -11   -1    0    0    0    0  0.00000000000E+00  0.00000000000E+00  0.45593999997E+02  0.45594000000E+02  0.51100000000E-03 0.  1.
         11   -1    0    0    0    0 -0.00000000000E+00 -0.00000000000E+00 -0.45593999997E+02  0.45594000000E+02  0.51100000000E-03 0. -1.
    9900012    2    1    2    0    0  0.11109267978E+01  0.29003624942E+00 -0.27386556358E+00  0.90007626448E+02  0.89999886317E+02 0.  0.
        -12    1    1    2    0    0 -0.11109267978E+01 -0.29003624942E+00  0.27386556358E+00  0.11803735523E+01  0.00000000000E+00 0.  1.
         11    1    3    3    0    0  0.17512591459E+01 -0.56707471188E+01  0.63638141374E+01  0.87018625660E+01  0.51100000000E-03 0. -1.
        -11    1    3    3    0    0 -0.58528728961E+01 -0.10502096501E+02  0.34583446628E+02  0.36613726019E+02  0.51100000000E-03 0.  1.
         12    1    3    3    0    0  0.52125405480E+01  0.16462879869E+02 -0.41221126329E+02  0.44692037863E+02  0.00000000000E+00 0. -1.
</event>
<event>
 7    1  0.2349719E-015  0.9000778E+02  0.7816164E-02  0.1186339E+00
        -11   -1    0    0    0    0  0.00000000000E+00  0.00000000000E+00  0.45593999997E+02  0.45594000000E+02  0.51100000000E-03 0. -1.
         11   -1    0    0    0    0 -0.00000000000E+00 -0.00000000000E+00 -0.45593999997E+02  0.45594000000E+02  0.51100000000E-03 0.  1.
    9900012    2    1    2    0    0  0.34606733347E+00  0.10995474797E+01  0.25330052234E+00  0.90007776117E+02  0.90000037962E+02 0.  0.
        -12    1    1    2    0    0 -0.34606733347E+00 -0.10995474797E+01 -0.25330052234E+00  0.11802238830E+01  0.00000000000E+00 0.  1.
         11    1    3    3    0    0  0.40155768307E+01 -0.39064436074E+01 -0.63809290752E+01  0.84912552113E+01  0.51100000000E-03 0. -1.
        -11    1    3    3    0    0  0.21048365278E+02  0.32911091371E+01 -0.30300799741E+02  0.37040566214E+02  0.51100000000E-03 0.  1.
         12    1    3    3    0    0 -0.24717874775E+02  0.17148819500E+01  0.36935029339E+02  0.44475954692E+02  0.00000000000E+00 0. -1.
</event>
<event>
 7    1  0.2349719E-015  0.9000795E+02  0.7816164E-02  0.1186339E+00
        -11   -1    0    0    0    0  0.00000000000E+00  0.00000000000E+00  0.45593999997E+02  0.45594000000E+02  0.51100000000E-03 0. -1.
         11   -1    0    0    0    0 -0.00000000000E+00 -0.00000000000E+00 -0.45593999997E+02  0.45594000000E+02  0.51100000000E-03 0.  1.
    9900012    2    1    2    0    0  0.54419044105E+00  0.87339251706E+00  0.57754199993E+00  0.90007952337E+02  0.90000216508E+02 0.  0.
        -12    1    1    2    0    0 -0.54419044105E+00 -0.87339251706E+00 -0.57754199993E+00  0.11800476629E+01  0.00000000000E+00 0.  1.
         11    1    3    3    0    0 -0.28270129787E+02  0.20048532210E+02  0.11713634276E+02  0.36583508719E+02  0.51100000000E-03 0. -1.
        -11    1    3    3    0    0 -0.59046977336E+01  0.66994904801E+01 -0.13431032741E+01  0.90306453082E+01  0.51100000000E-03 0.  1.
        -12    1    3    3    0    0  0.34719017962E+02 -0.25874630173E+02 -0.97929890020E+01  0.44393798310E+02  0.00000000000E+00 0.  1.
</event>
<event>
 7    1  0.2349719E-015  0.9000808E+02  0.7816164E-02  0.1186338E+00
        -11   -1    0    0    0    0  0.00000000000E+00  0.00000000000E+00  0.45593999997E+02  0.45594000000E+02  0.51100000000E-03 0. -1.
         11   -1    0    0    0    0 -0.00000000000E+00 -0.00000000000E+00 -0.45593999997E+02  0.45594000000E+02  0.51100000000E-03 0.  1.
    9900012    2    1    2    0    0  0.99373726596E+00  0.65543838283E-01  0.63276665954E+00  0.90008083311E+02  0.90000349210E+02 0.  0.
        -12    1    1    2    0    0 -0.99373726596E+00 -0.65543838283E-01 -0.63276665954E+00  0.11799166894E+01  0.00000000000E+00 0.  1.
         11    1    3    3    0    0  0.96461244633E+00  0.75500901468E+00 -0.85154103067E+01  0.86030650780E+01  0.51100000000E-03 0. -1.
        -11    1    3    3    0    0 -0.37128429191E+02  0.91691640124E+01 -0.83850772026E+01  0.39152309547E+02  0.51100000000E-03 0.  1.
         12    1    3    3    0    0  0.37157554011E+02 -0.98586291888E+01  0.17533254169E+02  0.42252708686E+02  0.00000000000E+00 0. -1.
</event>
<event>
 7    1  0.2349719E-015  0.9000773E+02  0.7816164E-02  0.1186339E+00
        -11   -1    0    0    0    0  0.00000000000E+00  0.00000000000E+00  0.45593999997E+02  0.45594000000E+02  0.51100000000E-03 0. -1.
         11   -1    0    0    0    0 -0.00000000000E+00 -0.00000000000E+00 -0.45593999997E+02  0.45594000000E+02  0.51100000000E-03 0.  1.
    9900012    2    1    2    0    0  0.38329785789E+00  0.11120290640E+01  0.97586798773E-01  0.90007725002E+02  0.89999986172E+02 0.  0.
        -12    1    1    2    0    0 -0.38329785789E+00 -0.11120290640E+01 -0.97586798773E-01  0.11802749977E+01  0.00000000000E+00 0.  1.
         11    1    3    3    0    0 -0.13251803291E+02  0.15356215790E+02  0.37031366349E+02  0.42222573912E+02  0.51100000000E-03 0. -1.
        -11    1    3    3    0    0 -0.70338644801E+00 -0.97564825123E+01 -0.23227527109E+01  0.10053799477E+02  0.51100000000E-03 0.  1.
        -12    1    3    3    0    0  0.14338487597E+02 -0.44877042136E+01 -0.34611026839E+02  0.37731351613E+02  0.00000000000E+00 0.  1.
</event>
<event>
 7    1  0.2349719E-015  0.9000771E+02  0.7816164E-02  0.1186339E+00
        -11   -1    0    0    0    0  0.00000000000E+00  0.00000000000E+00  0.45593999997E+02  0.45594000000E+02  0.51100000000E-03 0. -1.
         11   -1    0    0    0    0 -0.00000000000E+00 -0.00000000000E+00 -0.45593999997E+02  0.45594000000E+02  0.51100000000E-03 0.  1.
    9900012    2    1    2    0    0  0.90882424296E+00 -0.31678685652E+00 -0.68320210837E+00  0.90007711672E+02  0.89999972666E+02 0.  0.
        -12    1    1    2    0    0 -0.90882424296E+00  0.31678685652E+00  0.68320210837E+00  0.11802883283E+01  0.00000000000E+00 0.  1.
         11    1    3    3    0    0 -0.15666156753E+02 -0.48091445539E+01  0.36527692984E+02  0.40035343057E+02  0.51100000000E-03 0. -1.
        -11    1    3    3    0    0 -0.74184698098E+01 -0.33094658909E+01 -0.88151062990E+01  0.11987174735E+02  0.51100000000E-03 0.  1.
        -12    1    3    3    0    0  0.23993450806E+02  0.78018235883E+01 -0.28395788793E+02  0.37985193879E+02  0.00000000000E+00 0.  1.
</event>
<event>
 7    1  0.2349719E-015  0.9000763E+02  0.7816164E-02  0.1186339E+00
        -11   -1    0    0    0    0  0.00000000000E+00  0.00000000000E+00  0.45593999997E+02  0.45594000000E+02  0.51100000000E-03 0. -1.
         11   -1    0    0    0    0 -0.00000000000E+00 -0.00000000000E+00 -0.45593999997E+02  0.45594000000E+02  0.51100000000E-03 0.  1.
    9900012    2    1    2    0    0 -0.42418421609E+00 -0.69211849165E+00  0.85691857790E+00  0.90007631539E+02  0.89999891475E+02 0.  0.
        -12    1    1    2    0    0  0.42418421609E+00  0.69211849165E+00 -0.85691857790E+00  0.11803684615E+01  0.00000000000E+00 0.  1.
         11    1    3    3    0    0 -0.53614667713E+01 -0.81473020756E+01  0.48510528990E+01  0.10892959724E+02  0.51100000000E-03 0. -1.
        -11    1    3    3    0    0  0.79424664880E+01  0.16373877793E+02 -0.38908477810E+02  0.42954118471E+02  0.51100000000E-03 0.  1.
         12    1    3    3    0    0 -0.30051839328E+01 -0.89186942091E+01  0.34914343489E+02  0.36160553344E+02  0.00000000000E+00 0. -1.
</event>
<event>
 7    1  0.2349719E-015  0.9000777E+02  0.7816164E-02  0.1186339E+00
        -11   -1    0    0    0    0  0.00000000000E+00  0.00000000000E+00  0.45593999997E+02  0.45594000000E+02  0.51100000000E-03 0.  1.
         11   -1    0    0    0    0 -0.00000000000E+00 -0.00000000000E+00 -0.45593999997E+02  0.45594000000E+02  0.51100000000E-03 0. -1.
    9900012    2    1    2    0    0  0.22101853953E+00  0.55435809219E+00 -0.10182293408E+01  0.90007765667E+02  0.90000027374E+02 0.  0.
        -12    1    1    2    0    0 -0.22101853953E+00 -0.55435809219E+00  0.10182293408E+01  0.11802343326E+01  0.00000000000E+00 0.  1.
         11    1    3    3    0    0  0.86103138038E+01  0.34944020955E+02  0.75086424127E+01  0.36764137627E+02  0.51100000000E-03 0. -1.
        -11    1    3    3    0    0  0.27176684187E+01  0.74561648466E+01  0.29283374512E+01  0.84590351898E+01  0.51100000000E-03 0.  1.
        -12    1    3    3    0    0 -0.11106963683E+02 -0.41845827709E+02 -0.11455209205E+02  0.44784592851E+02  0.00000000000E+00 0.  1.
</event>
<event>
 7    1  0.2349719E-015  0.9000772E+02  0.7816164E-02  0.1186339E+00
        -11   -1    0    0    0    0  0.00000000000E+00  0.00000000000E+00  0.45593999997E+02  0.45594000000E+02  0.51100000000E-03 0. -1.
         11   -1    0    0    0    0 -0.00000000000E+00 -0.00000000000E+00 -0.45593999997E+02  0.45594000000E+02  0.51100000000E-03 0.  1.
    9900012    2    1    2    0    0  0.10487165730E+01 -0.52441264727E+00  0.13511454916E+00  0.90007715705E+02  0.89999976753E+02 0.  0.
        -12    1    1    2    0    0 -0.10487165730E+01  0.52441264727E+00 -0.13511454916E+00  0.11802842948E+01  0.00000000000E+00 0.  1.
         11    1    3    3    0    0  0.14949328758E+02 -0.17854687513E+02  0.26163283048E+02  0.35025557477E+02  0.51100000000E-03 0. -1.
        -11    1    3    3    0    0  0.76230947584E+01 -0.38813552960E+01  0.63795068894E+01  0.10671204292E+02  0.51100000000E-03 0.  1.
        -12    1    3    3    0    0 -0.21523706943E+02  0.21211630161E+02 -0.32407675388E+02  0.44310953936E+02  0.00000000000E+00 0.  1.
</event>
<event>
 7    1  0.2349719E-015  0.9000774E+02  0.7816164E-02  0.1186339E+00
        -11   -1    0    0    0    0  0.00000000000E+00  0.00000000000E+00  0.45593999997E+02  0.45594000000E+02  0.51100000000E-03 0. -1.
         11   -1    0    0    0    0 -0.00000000000E+00 -0.00000000000E+00 -0.45593999997E+02  0.45594000000E+02  0.51100000000E-03 0.  1.
    9900012    2    1    2    0    0 -0.86812484895E+00  0.66437623060E+00 -0.44495374554E+00  0.90007737163E+02  0.89999998493E+02 0.  0.
        -12    1    1    2    0    0  0.86812484895E+00 -0.66437623060E+00  0.44495374554E+00  0.11802628372E+01  0.00000000000E+00 0.  1.
         11    1    3    3    0    0  0.73818177384E+01  0.50063388814E+01 -0.57543124144E+01  0.10614460596E+02  0.51100000000E-03 0. -1.
        -11    1    3    3    0    0  0.22547021766E+02 -0.27514356436E+02  0.16567711898E+02  0.39241522376E+02  0.51100000000E-03 0.  1.
         12    1    3    3    0    0 -0.30796964354E+02  0.23172393785E+02 -0.11258353229E+02  0.40151754191E+02  0.00000000000E+00 0. -1.
</event>
<event>
 7    1  0.2349719E-015  0.9000774E+02  0.7816164E-02  0.1186339E+00
        -11   -1    0    0    0    0  0.00000000000E+00  0.00000000000E+00  0.45593999997E+02  0.45594000000E+02  0.51100000000E-03 0.  1.
         11   -1    0    0    0    0 -0.00000000000E+00 -0.00000000000E+00 -0.45593999997E+02  0.45594000000E+02  0.51100000000E-03 0. -1.
    9900012    2    1    2    0    0 -0.29452518935E+00 -0.10711772314E+01  0.39854995041E+00  0.90007742481E+02  0.90000003882E+02 0.  0.
        -12    1    1    2    0    0  0.29452518935E+00  0.10711772314E+01 -0.39854995041E+00  0.11802575190E+01  0.00000000000E+00 0.  1.
         11    1    3    3    0    0 -0.24301177136E+02 -0.57639750324E+01 -0.32626284671E+02  0.41088259516E+02  0.51100000000E-03 0. -1.
        -11    1    3    3    0    0 -0.15360198719E+01  0.91359725011E+01  0.42652741276E+01  0.10198917307E+02  0.51100000000E-03 0.  1.
        -12    1    3    3    0    0  0.25542671818E+02 -0.44431747001E+01  0.28759560494E+02  0.38720565658E+02  0.00000000000E+00 0.  1.
</event>
<event>
 7    1  0.2349719E-015  0.9000772E+02  0.7816164E-02  0.1186339E+00
        -11   -1    0    0    0    0  0.00000000000E+00  0.00000000000E+00  0.45593999997E+02  0.45594000000E+02  0.51100000000E-03 0.  1.
         11   -1    0    0    0    0 -0.00000000000E+00 -0.00000000000E+00 -0.45593999997E+02  0.45594000000E+02  0.51100000000E-03 0. -1.
    9900012    2    1    2    0    0  0.11614294522E+01  0.16094451374E+00  0.13501879375E+00  0.90007723938E+02  0.89999985094E+02 0.  0.
        -12    1    1    2    0    0 -0.11614294522E+01 -0.16094451374E+00 -0.13501879375E+00  0.11802760624E+01  0.00000000000E+00 0.  1.
         11    1    3    3    0    0  0.34540916889E+00 -0.75627673518E+01  0.66684686878E+01  0.10088767636E+02  0.51100000000E-03 0. -1.
        -11    1    3    3    0    0 -0.33836977784E+01 -0.35763033548E+02 -0.16939650060E+01  0.35962668100E+02  0.51100000000E-03 0.  1.
         12    1    3    3    0    0  0.41997180617E+01  0.43486745413E+02 -0.48394848881E+01  0.43956288201E+02  0.00000000000E+00 0. -1.
</event>
<event>
 7    1  0.2349719E-015  0.9000785E+02  0.7816164E-02  0.1186339E+00
        -11   -1    0    0    0    0  0.00000000000E+00  0.00000000000E+00  0.45593999997E+02  0.45594000000E+02  0.51100000000E-03 0. -1.
         11   -1    0    0    0    0 -0.00000000000E+00 -0.00000000000E+00 -0.45593999997E+02  0.45594000000E+02  0.51100000000E-03 0.  1.
    9900012    2    1    2    0    0  0.82712509097E+00 -0.66305983990E+00  0.51863301165E+00  0.90007845574E+02  0.90000108336E+02 0.  0.
        -12    1    1    2    0    0 -0.82712509097E+00  0.66305983990E+00 -0.51863301165E+00  0.11801544256E+01  0.00000000000E+00 0.  1.
         11    1    3    3    0    0 -0.45681355697E+01 -0.66875207091E+01 -0.60067884401E+01  0.10083268490E+02  0.51100000000E-03 0. -1.
        -11    1    3    3    0    0 -0.19937436273E+02 -0.25241669956E+02 -0.13610743189E+02  0.34927003848E+02  0.51100000000E-03 0.  1.
         12    1    3    3    0    0  0.25332696934E+02  0.31266130826E+02  0.20136164641E+02  0.44997573237E+02  0.00000000000E+00 0. -1.
</event>
<event>
 7    1  0.2349719E-015  0.9000713E+02  0.7816164E-02  0.1186340E+00
        -11   -1    0    0    0    0  0.00000000000E+00  0.00000000000E+00  0.45593999997E+02  0.45594000000E+02  0.51100000000E-03 0. -1.
         11   -1    0    0    0    0 -0.00000000000E+00 -0.00000000000E+00 -0.45593999997E+02  0.45594000000E+02  0.51100000000E-03 0.  1.
    9900012    2    1    2    0    0 -0.19975619289E+00 -0.98981623931E+00  0.61222753642E+00  0.90007126899E+02  0.89999380172E+02 0.  0.
        -12    1    1    2    0    0  0.19975619289E+00  0.98981623931E+00 -0.61222753642E+00  0.11808731009E+01  0.00000000000E+00 0.  1.
         11    1    3    3    0    0 -0.89593740404E+01 -0.47723063479E+01  0.16706466086E+01  0.10287679594E+02  0.51100000000E-03 0. -1.
        -11    1    3    3    0    0  0.20152244769E+02 -0.12753340184E+02 -0.33766437754E+02  0.41339242541E+02  0.51100000000E-03 0.  1.
         12    1    3    3    0    0 -0.11392626921E+02  0.16535830292E+02  0.32708018682E+02  0.38380204764E+02  0.00000000000E+00 0. -1.
</event>
<event>
 7    1  0.2349719E-015  0.9000775E+02  0.7816164E-02  0.1186339E+00
        -11   -1    0    0    0    0  0.00000000000E+00  0.00000000000E+00  0.45593999997E+02  0.45594000000E+02  0.51100000000E-03 0.  1.
         11   -1    0    0    0    0 -0.00000000000E+00 -0.00000000000E+00 -0.45593999997E+02  0.45594000000E+02  0.51100000000E-03 0. -1.
    9900012    2    1    2    0    0  0.89299586007E+00 -0.48038743386E+00 -0.60397372461E+00  0.90007746657E+02  0.90000008113E+02 0.  0.
        -12    1    1    2    0    0 -0.89299586007E+00  0.48038743386E+00  0.60397372461E+00  0.11802533426E+01  0.00000000000E+00 0.  1.
         11    1    3    3    0    0 -0.34332524135E+01 -0.86234213535E+01 -0.14913924042E+01  0.94007908997E+01  0.51100000000E-03 0. -1.
        -11    1    3    3    0    0 -0.35081248065E+02 -0.71286146329E+01 -0.95979340202E+01  0.37062534319E+02  0.51100000000E-03 0.  1.
         12    1    3    3    0    0  0.39407496339E+02  0.15271648553E+02  0.10485352700E+02  0.43544421439E+02  0.00000000000E+00 0. -1.
</event>
<event>
 7    1  0.2349719E-015  0.9000780E+02  0.7816164E-02  0.1186339E+00
        -11   -1    0    0    0    0  0.00000000000E+00  0.00000000000E+00  0.45593999997E+02  0.45594000000E+02  0.51100000000E-03 0.  1.
         11   -1    0    0    0    0 -0.00000000000E+00 -0.00000000000E+00 -0.45593999997E+02  0.45594000000E+02  0.51100000000E-03 0. -1.
    9900012    2    1    2    0    0 -0.50115117354E+00  0.82581290260E+00 -0.67804502857E+00  0.90007803190E+02  0.90000065392E+02 0.  0.
        -12    1    1    2    0    0  0.50115117354E+00 -0.82581290260E+00  0.67804502857E+00  0.11801968097E+01  0.00000000000E+00 0.  1.
         11    1    3    3    0    0 -0.49432239422E+01 -0.58775194895E+01  0.59260829082E+01  0.97004720085E+01  0.51100000000E-03 0. -1.
        -11    1    3    3    0    0 -0.22459873856E+02 -0.21455379780E+02  0.16350736474E+02  0.35101650084E+02  0.51100000000E-03 0.  1.
         12    1    3    3    0    0  0.26901946625E+02  0.28158712172E+02 -0.22954864411E+02  0.45205681098E+02  0.00000000000E+00 0. -1.
</event>
<event>
 7    1  0.2349719E-015  0.9000777E+02  0.7816164E-02  0.1186339E+00
        -11   -1    0    0    0    0  0.00000000000E+00  0.00000000000E+00  0.45593999997E+02  0.45594000000E+02  0.51100000000E-03 0.  1.
         11   -1    0    0    0    0 -0.00000000000E+00 -0.00000000000E+00 -0.45593999997E+02  0.45594000000E+02  0.51100000000E-03 0. -1.
    9900012    2    1    2    0    0 -0.23332445611E+00  0.66152992169E+00 -0.94914259092E+00  0.90007773837E+02  0.90000035651E+02 0.  0.
        -12    1    1    2    0    0  0.23332445611E+00 -0.66152992169E+00  0.94914259092E+00  0.11802261635E+01  0.00000000000E+00 0.  1.
         11    1    3    3    0    0  0.71626647325E+01  0.18510042241E+02 -0.53614708014E+01  0.20558959100E+02  0.51100000000E-03 0. -1.
        -11    1    3    3    0    0 -0.19953731714E+02 -0.29238816435E+02 -0.19285226879E+02  0.40311037842E+02  0.51100000000E-03 0.  1.
         12    1    3    3    0    0  0.12557742525E+02  0.11390304115E+02  0.23697555089E+02  0.29137776895E+02  0.00000000000E+00 0. -1.
</event>
<event>
 7    1  0.2349719E-015  0.9000778E+02  0.7816164E-02  0.1186339E+00
        -11   -1    0    0    0    0  0.00000000000E+00  0.00000000000E+00  0.45593999997E+02  0.45594000000E+02  0.51100000000E-03 0.  1.
         11   -1    0    0    0    0 -0.00000000000E+00 -0.00000000000E+00 -0.45593999997E+02  0.45594000000E+02  0.51100000000E-03 0. -1.
    9900012    2    1    2    0    0 -0.88794205465E+00 -0.14259494793E+00 -0.76428725689E+00  0.90007784163E+02  0.90000046114E+02 0.  0.
        -12    1    1    2    0    0  0.88794205465E+00  0.14259494793E+00  0.76428725689E+00  0.11802158373E+01  0.00000000000E+00 0.  1.
         11    1    3    3    0    0  0.65673507409E+01  0.16483982640E+01 -0.79533734363E+01  0.10445260259E+02  0.51100000000E-03 0. -1.
        -11    1    3    3    0    0  0.29882017554E+02  0.10506235447E+02  0.20878154627E+02  0.37936964787E+02  0.51100000000E-03 0.  1.
         12    1    3    3    0    0 -0.37337310350E+02 -0.12297228659E+02 -0.13689068447E+02  0.41625559117E+02  0.00000000000E+00 0. -1.
</event>
<event>
 7    1  0.2349719E-015  0.9000782E+02  0.7816164E-02  0.1186339E+00
        -11   -1    0    0    0    0  0.00000000000E+00  0.00000000000E+00  0.45593999997E+02  0.45594000000E+02  0.51100000000E-03 0. -1.
         11   -1    0    0    0    0 -0.00000000000E+00 -0.00000000000E+00 -0.45593999997E+02  0.45594000000E+02  0.51100000000E-03 0.  1.
    9900012    2    1    2    0    0 -0.11762337288E+01  0.78939023785E-01  0.55402622586E-01  0.90007819249E+02  0.90000081663E+02 0.  0.
        -12    1    1    2    0    0  0.11762337288E+01 -0.78939023785E-01 -0.55402622586E-01  0.11801807509E+01  0.00000000000E+00 0.  1.
         11    1    3    3    0    0  0.27519198669E+02 -0.19014636879E+02  0.12628974368E+02  0.35754072563E+02  0.51100000000E-03 0. -1.
        -11    1    3    3    0    0  0.26308918001E-01 -0.24049080161E+01  0.11042988966E+02  0.11301852958E+02  0.51100000000E-03 0.  1.
        -12    1    3    3    0    0 -0.28721741315E+02  0.21498483919E+02 -0.23616560711E+02  0.42951893728E+02  0.00000000000E+00 0.  1.
</event>
<event>
 7    1  0.2349719E-015  0.9000774E+02  0.7816164E-02  0.1186339E+00
        -11   -1    0    0    0    0  0.00000000000E+00  0.00000000000E+00  0.45593999997E+02  0.45594000000E+02  0.51100000000E-03 0.  1.
         11   -1    0    0    0    0 -0.00000000000E+00 -0.00000000000E+00 -0.45593999997E+02  0.45594000000E+02  0.51100000000E-03 0. -1.
    9900012    2    1    2    0    0 -0.58711946625E+00  0.62564479858E+00 -0.81047641785E+00  0.90007740408E+02  0.90000001781E+02 0.  0.
        -12    1    1    2    0    0  0.58711946625E+00 -0.62564479858E+00  0.81047641785E+00  0.11802595924E+01  0.00000000000E+00 0.  1.
         11    1    3    3    0    0  0.51919011141E+01  0.19178780441E+01 -0.76380494017E+01  0.94325973249E+01  0.51100000000E-03 0. -1.
        -11    1    3    3    0    0  0.26866468071E+01 -0.39512075998E+02  0.11275254625E+02  0.41177100285E+02  0.51100000000E-03 0.  1.
         12    1    3    3    0    0 -0.84656673875E+01  0.38219842752E+02 -0.44476816414E+01  0.39398042798E+02  0.00000000000E+00 0. -1.
</event>
<event>
 7    1  0.2349719E-015  0.9000772E+02  0.7816164E-02  0.1186339E+00
        -11   -1    0    0    0    0  0.00000000000E+00  0.00000000000E+00  0.45593999997E+02  0.45594000000E+02  0.51100000000E-03 0.  1.
         11   -1    0    0    0    0 -0.00000000000E+00 -0.00000000000E+00 -0.45593999997E+02  0.45594000000E+02  0.51100000000E-03 0. -1.
    9900012    2    1    2    0    0  0.10393770614E+01  0.55298774397E+00 -0.83492460871E-01  0.90007715665E+02  0.89999976712E+02 0.  0.
        -12    1    1    2    0    0 -0.10393770614E+01 -0.55298774397E+00  0.83492460871E-01  0.11802843351E+01  0.00000000000E+00 0.  1.
         11    1    3    3    0    0  0.36470903101E+01 -0.76416259633E+01  0.37773823287E+01  0.92716952393E+01  0.51100000000E-03 0. -1.
        -11    1    3    3    0    0  0.15501080270E+00 -0.34775336003E+02 -0.12245315452E+02  0.36868628578E+02  0.51100000000E-03 0.  1.
         12    1    3    3    0    0 -0.27627240514E+01  0.42969949710E+02  0.83844406622E+01  0.43867391847E+02  0.00000000000E+00 0. -1.
</event>
<event>
 7    1  0.2349719E-015  0.9000770E+02  0.7816164E-02  0.1186339E+00
        -11   -1    0    0    0    0  0.00000000000E+00  0.00000000000E+00  0.45593999997E+02  0.45594000000E+02  0.51100000000E-03 0.  1.
         11   -1    0    0    0    0 -0.00000000000E+00 -0.00000000000E+00 -0.45593999997E+02  0.45594000000E+02  0.51100000000E-03 0. -1.
    9900012    2    1    2    0    0  0.60350070388E+00  0.10053767610E+01  0.13454216737E+00  0.90007704645E+02  0.89999965546E+02 0.  0.
        -12    1    1    2    0    0 -0.60350070388E+00 -0.10053767610E+01 -0.13454216737E+00  0.11802953554E+01  0.00000000000E+00 0.  1.
         11    1    3    3    0    0 -0.95664923329E+01  0.15115073390E+01 -0.73439148753E+00  0.97129687073E+01  0.51100000000E-03 0. -1.
        -11    1    3    3    0    0  0.12361446339E+02  0.35075659137E+02  0.17328642296E+02  0.41029124577E+02  0.51100000000E-03 0.  1.
         12    1    3    3    0    0 -0.21914533023E+01 -0.35581789715E+02 -0.16459708641E+02  0.39265611360E+02  0.00000000000E+00 0. -1.
</event>
<event>
 7    1  0.2349719E-015  0.9000775E+02  0.7816164E-02  0.1186339E+00
        -11   -1    0    0    0    0  0.00000000000E+00  0.00000000000E+00  0.45593999997E+02  0.45594000000E+02  0.51100000000E-03 0.  1.
         11   -1    0    0    0    0 -0.00000000000E+00 -0.00000000000E+00 -0.45593999997E+02  0.45594000000E+02  0.51100000000E-03 0. -1.
    9900012    2    1    2    0    0 -0.74639258899E+00  0.85340468435E+00  0.32801596982E+00  0.90007747515E+02  0.90000008982E+02 0.  0.
        -12    1    1    2    0    0  0.74639258899E+00 -0.85340468435E+00 -0.32801596982E+00  0.11802524851E+01  0.00000000000E+00 0.  1.
         11    1    3    3    0    0 -0.68797371895E+01 -0.34059669881E+01 -0.49695471102E+01  0.91448233259E+01  0.51100000000E-03 0. -1.
        -11    1    3    3    0    0  0.14079222281E+02 -0.33921928283E+02  0.16533148596E+02  0.40277372323E+02  0.51100000000E-03 0.  1.
         12    1    3    3    0    0 -0.79458776808E+01  0.38181299955E+02 -0.11235585516E+02  0.40585551866E+02  0.00000000000E+00 0. -1.
</event>
<event>
 7    1  0.2349719E-015  0.9000767E+02  0.7816164E-02  0.1186339E+00
        -11   -1    0    0    0    0  0.00000000000E+00  0.00000000000E+00  0.45593999997E+02  0.45594000000E+02  0.51100000000E-03 0. -1.
         11   -1    0    0    0    0 -0.00000000000E+00 -0.00000000000E+00 -0.45593999997E+02  0.45594000000E+02  0.51100000000E-03 0.  1.
    9900012    2    1    2    0    0 -0.82947055763E+00 -0.79818998091E+00  0.26086165861E+00  0.90007670615E+02  0.89999931067E+02 0.  0.
        -12    1    1    2    0    0  0.82947055763E+00  0.79818998091E+00 -0.26086165861E+00  0.11803293848E+01  0.00000000000E+00 0.  1.
         11    1    3    3    0    0  0.19666168301E+01 -0.27084239901E+00 -0.77646860535E+01  0.80144424093E+01  0.51100000000E-03 0. -1.
        -11    1    3    3    0    0  0.23296816362E+02  0.31958775409E+01 -0.28501355750E+02  0.36949730252E+02  0.51100000000E-03 0.  1.
         12    1    3    3    0    0 -0.26092903750E+02 -0.37232251228E+01  0.36526903462E+02  0.45043497954E+02  0.00000000000E+00 0. -1.
</event>
<event>
 7    1  0.2349719E-015  0.9000781E+02  0.7816164E-02  0.1186339E+00
        -11   -1    0    0    0    0  0.00000000000E+00  0.00000000000E+00  0.45593999997E+02  0.45594000000E+02  0.51100000000E-03 0. -1.
         11   -1    0    0    0    0 -0.00000000000E+00 -0.00000000000E+00 -0.45593999997E+02  0.45594000000E+02  0.51100000000E-03 0.  1.
    9900012    2    1    2    0    0  0.40533846416E-01  0.40076572407E+00  0.11093162240E+01  0.90007814149E+02  0.90000076496E+02 0.  0.
        -12    1    1    2    0    0 -0.40533846416E-01 -0.40076572407E+00 -0.11093162240E+01  0.11801858511E+01  0.00000000000E+00 0.  1.
         11    1    3    3    0    0  0.70081561381E+01 -0.48820424311E+01 -0.37807651700E+01  0.93403841616E+01  0.51100000000E-03 0. -1.
        -11    1    3    3    0    0  0.79530148363E+01  0.23164575020E+02 -0.29994254905E+02  0.38723420671E+02  0.51100000000E-03 0.  1.
         12    1    3    3    0    0 -0.14920637128E+02 -0.17881766865E+02  0.34884336299E+02  0.41944009317E+02  0.00000000000E+00 0. -1.
</event>
<event>
 7    1  0.2349719E-015  0.9000778E+02  0.7816164E-02  0.1186339E+00
        -11   -1    0    0    0    0  0.00000000000E+00  0.00000000000E+00  0.45593999997E+02  0.45594000000E+02  0.51100000000E-03 0.  1.
         11   -1    0    0    0    0 -0.00000000000E+00 -0.00000000000E+00 -0.45593999997E+02  0.45594000000E+02  0.51100000000E-03 0. -1.
    9900012    2    1    2    0    0  0.81477780011E+00 -0.56684142814E-01 -0.85196310375E+00  0.90007780916E+02  0.90000042824E+02 0.  0.
        -12    1    1    2    0    0 -0.81477780011E+00  0.56684142814E-01  0.85196310375E+00  0.11802190838E+01  0.00000000000E+00 0.  1.
         11    1    3    3    0    0  0.12575450688E+02 -0.11006225239E+02 -0.34378764959E+02  0.38225363757E+02  0.51100000000E-03 0. -1.
        -11    1    3    3    0    0 -0.45471504013E+01  0.13155115442E+01 -0.75873718731E+01  0.89428943635E+01  0.51100000000E-03 0.  1.
        -12    1    3    3    0    0 -0.72135224861E+01  0.96340295517E+01  0.41114173728E+02  0.42839522796E+02  0.00000000000E+00 0.  1.
</event>
<event>
 7    1  0.2349719E-015  0.9000777E+02  0.7816164E-02  0.1186339E+00
        -11   -1    0    0    0    0  0.00000000000E+00  0.00000000000E+00  0.45593999997E+02  0.45594000000E+02  0.51100000000E-03 0.  1.
         11   -1    0    0    0    0 -0.00000000000E+00 -0.00000000000E+00 -0.45593999997E+02  0.45594000000E+02  0.51100000000E-03 0. -1.
    9900012    2    1    2    0    0  0.58217795135E+00  0.87678036914E+00  0.53410796388E+00  0.90007768540E+02  0.90000030284E+02 0.  0.
        -12    1    1    2    0    0 -0.58217795135E+00 -0.87678036914E+00 -0.53410796388E+00  0.11802314603E+01  0.00000000000E+00 0.  1.
         11    1    3    3    0    0 -0.24143085446E+02 -0.27509932248E+02  0.31234789486E+01  0.36734739255E+02  0.51100000000E-03 0. -1.
        -11    1    3    3    0    0  0.15174356115E+01 -0.84783030084E+01  0.34818131458E+01  0.92901698467E+01  0.51100000000E-03 0.  1.
        -12    1    3    3    0    0  0.23207827786E+02  0.36865015625E+02 -0.60711841305E+01  0.43982859438E+02  0.00000000000E+00 0.  1.
</event>
<event>
 7    1  0.2349719E-015  0.9000771E+02  0.7816164E-02  0.1186339E+00
        -11   -1    0    0    0    0  0.00000000000E+00  0.00000000000E+00  0.45593999997E+02  0.45594000000E+02  0.51100000000E-03 0.  1.
         11   -1    0    0    0    0 -0.00000000000E+00 -0.00000000000E+00 -0.45593999997E+02  0.45594000000E+02  0.51100000000E-03 0. -1.
    9900012    2    1    2    0    0  0.10248108056E+01 -0.57494919852E+00 -0.11083680562E+00  0.90007708271E+02  0.89999969220E+02 0.  0.
        -12    1    1    2    0    0 -0.10248108056E+01  0.57494919852E+00  0.11083680562E+00  0.11802917290E+01  0.00000000000E+00 0.  1.
         11    1    3    3    0    0 -0.11627167299E+02 -0.13500048729E+02 -0.33991038724E+02  0.38377507070E+02  0.51100000000E-03 0. -1.
        -11    1    3    3    0    0 -0.68245810483E+01  0.80887937016E+01 -0.17599706803E+01  0.10728512809E+02  0.51100000000E-03 0.  1.
        -12    1    3    3    0    0  0.19476559153E+02  0.48363058290E+01  0.35640172599E+02  0.40901688393E+02  0.00000000000E+00 0.  1.
</event>
<event>
 7    1  0.2349719E-015  0.9000770E+02  0.7816164E-02  0.1186339E+00
        -11   -1    0    0    0    0  0.00000000000E+00  0.00000000000E+00  0.45593999997E+02  0.45594000000E+02  0.51100000000E-03 0.  1.
         11   -1    0    0    0    0 -0.00000000000E+00 -0.00000000000E+00 -0.45593999997E+02  0.45594000000E+02  0.51100000000E-03 0. -1.
    9900012    2    1    2    0    0 -0.78230726702E+00  0.86165584495E+00  0.19659825978E+00  0.90007700745E+02  0.89999961595E+02 0.  0.
        -12    1    1    2    0    0  0.78230726702E+00 -0.86165584495E+00 -0.19659825978E+00  0.11802992548E+01  0.00000000000E+00 0.  1.
         11    1    3    3    0    0  0.34594499018E+02  0.55622640856E+01  0.89866470712E+01  0.36172889985E+02  0.51100000000E-03 0. -1.
        -11    1    3    3    0    0  0.83579898582E+01  0.11679819151E+01 -0.43243868005E+01  0.94826419149E+01  0.51100000000E-03 0.  1.
        -12    1    3    3    0    0 -0.43734796143E+02 -0.58685901557E+01 -0.44656620109E+01  0.44352168845E+02  0.00000000000E+00 0.  1.
</event>
<event>
 7    1  0.2349719E-015  0.9000777E+02  0.7816164E-02  0.1186339E+00
        -11   -1    0    0    0    0  0.00000000000E+00  0.00000000000E+00  0.45593999997E+02  0.45594000000E+02  0.51100000000E-03 0. -1.
         11   -1    0    0    0    0 -0.00000000000E+00 -0.00000000000E+00 -0.45593999997E+02  0.45594000000E+02  0.51100000000E-03 0.  1.
    9900012    2    1    2    0    0  0.87125014833E+00  0.62087913720E+00  0.49836676203E+00  0.90007772415E+02  0.90000034210E+02 0.  0.
        -12    1    1    2    0    0 -0.87125014833E+00 -0.62087913720E+00 -0.49836676203E+00  0.11802275855E+01  0.00000000000E+00 0.  1.
         11    1    3    3    0    0  0.72418109921E+00  0.77532716452E+01 -0.10904528052E+02  0.13399492220E+02  0.51100000000E-03 0. -1.
        -11    1    3    3    0    0 -0.18636921989E+02 -0.29341530033E+02 -0.14496109469E+02  0.37661617542E+02  0.51100000000E-03 0.  1.
         12    1    3    3    0    0  0.18783991038E+02  0.22209137525E+02  0.25899004283E+02  0.38946662652E+02  0.00000000000E+00 0. -1.
</event>
<event>
 7    1  0.2349719E-015  0.9000774E+02  0.7816164E-02  0.1186339E+00
        -11   -1    0    0    0    0  0.00000000000E+00  0.00000000000E+00  0.45593999997E+02  0.45594000000E+02  0.51100000000E-03 0.  1.
         11   -1    0    0    0    0 -0.00000000000E+00 -0.00000000000E+00 -0.45593999997E+02  0.45594000000E+02  0.51100000000E-03 0. -1.
    9900012    2    1    2    0    0 -0.51376241296E+00 -0.66864927170E+00 -0.82580800081E+00  0.90007744723E+02  0.90000006153E+02 0.  0.
        -12    1    1    2    0    0  0.51376241296E+00  0.66864927170E+00  0.82580800081E+00  0.11802552774E+01  0.00000000000E+00 0.  1.
         11    1    3    3    0    0  0.36719661786E+00 -0.59876998271E+01  0.10697797086E+02  0.12265000829E+02  0.51100000000E-03 0. -1.
        -11    1    3    3    0    0 -0.34854638574E+02  0.14476349925E+02  0.63585993724E+01  0.38273258595E+02  0.51100000000E-03 0.  1.
         12    1    3    3    0    0  0.33973679543E+02 -0.91572993692E+01 -0.17882204459E+02  0.39469485299E+02  0.00000000000E+00 0. -1.
</event>
<event>
 7    1  0.2349719E-015  0.9000772E+02  0.7816164E-02  0.1186339E+00
        -11   -1    0    0    0    0  0.00000000000E+00  0.00000000000E+00  0.45593999997E+02  0.45594000000E+02  0.51100000000E-03 0. -1.
         11   -1    0    0    0    0 -0.00000000000E+00 -0.00000000000E+00 -0.45593999997E+02  0.45594000000E+02  0.51100000000E-03 0.  1.
    9900012    2    1    2    0    0  0.77424984360E+00  0.65360488815E-01  0.88844020624E+00  0.90007720027E+02  0.89999981132E+02 0.  0.
        -12    1    1    2    0    0 -0.77424984360E+00 -0.65360488815E-01 -0.88844020624E+00  0.11802799727E+01  0.00000000000E+00 0.  1.
         11    1    3    3    0    0 -0.10287030450E+02  0.62132465837E+01  0.36205228428E+01  0.12551319234E+02  0.51100000000E-03 0. -1.
        -11    1    3    3    0    0 -0.25778116577E+02 -0.36964428895E+01 -0.23515470933E+02  0.35087780747E+02  0.51100000000E-03 0.  1.
         12    1    3    3    0    0  0.36839396871E+02 -0.24514432054E+01  0.20783388296E+02  0.42368620047E+02  0.00000000000E+00 0. -1.
</event>
<event>
 7    1  0.2349719E-015  0.9000777E+02  0.7816164E-02  0.1186339E+00
        -11   -1    0    0    0    0  0.00000000000E+00  0.00000000000E+00  0.45593999997E+02  0.45594000000E+02  0.51100000000E-03 0.  1.
         11   -1    0    0    0    0 -0.00000000000E+00 -0.00000000000E+00 -0.45593999997E+02  0.45594000000E+02  0.51100000000E-03 0. -1.
    9900012    2    1    2    0    0 -0.92815640904E+00 -0.44401195021E+00  0.57820979268E+00  0.90007768033E+02  0.90000029771E+02 0.  0.
        -12    1    1    2    0    0  0.92815640904E+00  0.44401195021E+00 -0.57820979268E+00  0.11802319670E+01  0.00000000000E+00 0.  1.
         11    1    3    3    0    0 -0.62045021510E+01  0.73141356242E+01  0.26269566205E+01  0.99445124676E+01  0.51100000000E-03 0. -1.
        -11    1    3    3    0    0  0.23241143047E+02  0.25958810132E+02  0.15361795632E+02  0.38078804063E+02  0.51100000000E-03 0.  1.
         12    1    3    3    0    0 -0.17964797305E+02 -0.33716957706E+02 -0.17410542460E+02  0.41984451502E+02  0.00000000000E+00 0. -1.
</event>
<event>
 7    1  0.2349719E-015  0.9000780E+02  0.7816164E-02  0.1186339E+00
        -11   -1    0    0    0    0  0.00000000000E+00  0.00000000000E+00  0.45593999997E+02  0.45594000000E+02  0.51100000000E-03 0.  1.
         11   -1    0    0    0    0 -0.00000000000E+00 -0.00000000000E+00 -0.45593999997E+02  0.45594000000E+02  0.51100000000E-03 0. -1.
    9900012    2    1    2    0    0  0.77800854886E+00  0.25799440411E+00 -0.84912556842E+00  0.90007799743E+02  0.90000061900E+02 0.  0.
        -12    1    1    2    0    0 -0.77800854886E+00 -0.25799440411E+00  0.84912556842E+00  0.11802002566E+01  0.00000000000E+00 0.  1.
         11    1    3    3    0    0 -0.72758733000E+01  0.70317782518E+01 -0.39070428794E+02  0.40359418282E+02  0.51100000000E-03 0. -1.
        -11    1    3    3    0    0 -0.33449098189E+00 -0.11135073743E+02  0.93178911844E+00  0.11178997392E+02  0.51100000000E-03 0.  1.
        -12    1    3    3    0    0  0.83883728308E+01  0.43612898949E+01  0.37289514107E+02  0.38469384069E+02  0.00000000000E+00 0.  1.
</event>
<event>
 7    1  0.2349719E-015  0.9000777E+02  0.7816164E-02  0.1186339E+00
        -11   -1    0    0    0    0  0.00000000000E+00  0.00000000000E+00  0.45593999997E+02  0.45594000000E+02  0.51100000000E-03 0. -1.
         11   -1    0    0    0    0 -0.00000000000E+00 -0.00000000000E+00 -0.45593999997E+02  0.45594000000E+02  0.51100000000E-03 0.  1.
    9900012    2    1    2    0    0  0.45977600670E+00  0.84205152024E+00  0.68739209138E+00  0.90007765860E+02  0.90000027569E+02 0.  0.
        -12    1    1    2    0    0 -0.45977600670E+00 -0.84205152024E+00 -0.68739209138E+00  0.11802341405E+01  0.00000000000E+00 0.  1.
         11    1    3    3    0    0 -0.26974684931E+02 -0.79018487498E+01 -0.22723814131E+02  0.36144772370E+02  0.51100000000E-03 0. -1.
        -11    1    3    3    0    0 -0.40135874910E+01 -0.63589853469E+01 -0.48649803031E+01  0.89562052679E+01  0.51100000000E-03 0.  1.
        -12    1    3    3    0    0  0.31448048429E+02  0.15102885617E+02  0.28276186525E+02  0.44906788221E+02  0.00000000000E+00 0.  1.
</event>
<event>
 7    1  0.2349719E-015  0.9000778E+02  0.7816164E-02  0.1186339E+00
        -11   -1    0    0    0    0  0.00000000000E+00  0.00000000000E+00  0.45593999997E+02  0.45594000000E+02  0.51100000000E-03 0.  1.
         11   -1    0    0    0    0 -0.00000000000E+00 -0.00000000000E+00 -0.45593999997E+02  0.45594000000E+02  0.51100000000E-03 0. -1.
    9900012    2    1    2    0    0  0.39789469105E+00  0.81680357401E+00 -0.75328070418E+00  0.90007779646E+02  0.90000041538E+02 0.  0.
        -12    1    1    2    0    0 -0.39789469105E+00 -0.81680357401E+00  0.75328070418E+00  0.11802203536E+01  0.00000000000E+00 0.  1.
         11    1    3    3    0    0  0.77501870271E+01  0.19810411769E+01 -0.32907368479E+01  0.86497903074E+01  0.51100000000E-03 0. -1.
        -11    1    3    3    0    0  0.94879526068E+01  0.21323513165E+02  0.32676400827E+02  0.40155455789E+02  0.51100000000E-03 0.  1.
         12    1    3    3    0    0 -0.16840244943E+02 -0.22487750768E+02 -0.30138944683E+02  0.41202533550E+02  0.00000000000E+00 0. -1.
</event>
<event>
 7    1  0.2349719E-015  0.9000817E+02  0.7816164E-02  0.1186338E+00
        -11   -1    0    0    0    0  0.00000000000E+00  0.00000000000E+00  0.45593999997E+02  0.45594000000E+02  0.51100000000E-03 0. -1.
         11   -1    0    0    0    0 -0.00000000000E+00 -0.00000000000E+00 -0.45593999997E+02  0.45594000000E+02  0.51100000000E-03 0.  1.
    9900012    2    1    2    0    0 -0.71558844353E+00 -0.88416535215E+00  0.31333465814E+00  0.90008172132E+02  0.90000439203E+02 0.  0.
        -12    1    1    2    0    0  0.71558844353E+00  0.88416535215E+00 -0.31333465814E+00  0.11798278681E+01  0.00000000000E+00 0.  1.
         11    1    3    3    0    0 -0.90309177764E+00 -0.22224477050E+01 -0.69872928642E+01  0.73876322588E+01  0.51100000000E-03 0. -1.
        -11    1    3    3    0    0 -0.26513017357E+02  0.26731545759E+02 -0.13870978497E+02  0.40123804316E+02  0.51100000000E-03 0.  1.
         12    1    3    3    0    0  0.26700520691E+02 -0.25393263406E+02  0.21171606019E+02  0.42496735557E+02  0.00000000000E+00 0. -1.
</event>
<event>
 7    1  0.2349719E-015  0.9000784E+02  0.7816164E-02  0.1186339E+00
        -11   -1    0    0    0    0  0.00000000000E+00  0.00000000000E+00  0.45593999997E+02  0.45594000000E+02  0.51100000000E-03 0.  1.
         11   -1    0    0    0    0 -0.00000000000E+00 -0.00000000000E+00 -0.45593999997E+02  0.45594000000E+02  0.51100000000E-03 0. -1.
    9900012    2    1    2    0    0  0.19380572265E+00 -0.43430247627E+00 -0.10800865793E+01  0.90007844791E+02  0.90000107542E+02 0.  0.
        -12    1    1    2    0    0 -0.19380572265E+00  0.43430247627E+00  0.10800865793E+01  0.11801552092E+01  0.00000000000E+00 0.  1.
         11    1    3    3    0    0 -0.72886939567E+01 -0.30216343399E+02 -0.19632768972E+02  0.36764086903E+02  0.51100000000E-03 0. -1.
        -11    1    3    3    0    0  0.10538838680E+02 -0.72153420833E+01  0.52454350926E+01  0.13807348466E+02  0.51100000000E-03 0.  1.
        -12    1    3    3    0    0 -0.30563390002E+01  0.36997383006E+02  0.13307247300E+02  0.39436409422E+02  0.00000000000E+00 0.  1.
</event>
<event>
 7    1  0.2349719E-015  0.9000773E+02  0.7816164E-02  0.1186339E+00
        -11   -1    0    0    0    0  0.00000000000E+00  0.00000000000E+00  0.45593999997E+02  0.45594000000E+02  0.51100000000E-03 0. -1.
         11   -1    0    0    0    0 -0.00000000000E+00 -0.00000000000E+00 -0.45593999997E+02  0.45594000000E+02  0.51100000000E-03 0.  1.
    9900012    2    1    2    0    0  0.79616336805E+00 -0.53146581828E+00  0.69044294434E+00  0.90007727369E+02  0.89999988570E+02 0.  0.
        -12    1    1    2    0    0 -0.79616336805E+00  0.53146581828E+00 -0.69044294434E+00  0.11802726312E+01  0.00000000000E+00 0.  1.
         11    1    3    3    0    0 -0.62742429390E+00 -0.12599768358E+02  0.15866253321E+01  0.12714763235E+02  0.51100000000E-03 0. -1.
        -11    1    3    3    0    0 -0.66829721285E+01  0.16297305732E+02 -0.36503158354E+02  0.40530789046E+02  0.51100000000E-03 0.  1.
         12    1    3    3    0    0  0.81065597904E+01 -0.42290031923E+01  0.35606975967E+02  0.36762175087E+02  0.00000000000E+00 0. -1.
</event>
<event>
 7    1  0.2349719E-015  0.9000782E+02  0.7816164E-02  0.1186339E+00
        -11   -1    0    0    0    0  0.00000000000E+00  0.00000000000E+00  0.45593999997E+02  0.45594000000E+02  0.51100000000E-03 0.  1.
         11   -1    0    0    0    0 -0.00000000000E+00 -0.00000000000E+00 -0.45593999997E+02  0.45594000000E+02  0.51100000000E-03 0. -1.
    9900012    2    1    2    0    0  0.10578002499E+00 -0.11749438612E+01  0.33890305533E-01  0.90007817369E+02  0.90000079758E+02 0.  0.
        -12    1    1    2    0    0 -0.10578002499E+00  0.11749438612E+01 -0.33890305533E-01  0.11801826314E+01  0.00000000000E+00 0.  1.
         11    1    3    3    0    0 -0.44691113611E+01 -0.89126255496E+01  0.14497134243E+01  0.10075193289E+02  0.51100000000E-03 0. -1.
        -11    1    3    3    0    0 -0.25780675454E+02 -0.20198975675E+02  0.14365006961E+02  0.35763043361E+02  0.51100000000E-03 0.  1.
         12    1    3    3    0    0  0.30355566840E+02  0.27936657363E+02 -0.15780830080E+02  0.44169580718E+02  0.00000000000E+00 0. -1.
</event>
<event>
 7    1  0.2349719E-015  0.9000831E+02  0.7816164E-02  0.1186338E+00
        -11   -1    0    0    0    0  0.00000000000E+00  0.00000000000E+00  0.45593999997E+02  0.45594000000E+02  0.51100000000E-03 0.  1.
         11   -1    0    0    0    0 -0.00000000000E+00 -0.00000000000E+00 -0.45593999997E+02  0.45594000000E+02  0.51100000000E-03 0. -1.
    9900012    2    1    2    0    0  0.34604116454E-01  0.11784816135E+01 -0.40641265274E-01  0.90008310180E+02  0.90000579073E+02 0.  0.
        -12    1    1    2    0    0 -0.34604116454E-01 -0.11784816135E+01  0.40641265274E-01  0.11796898197E+01  0.00000000000E+00 0.  1.
         11    1    3    3    0    0  0.45039426829E+01  0.26278619451E+02  0.20345619483E+02  0.33537972097E+02  0.51100000000E-03 0. -1.
        -11    1    3    3    0    0  0.65278455171E+01  0.67164168647E+01  0.80914095582E+01  0.12377153610E+02  0.51100000000E-03 0.  1.
         12    1    3    3    0    0 -0.10997184084E+02 -0.31816554702E+02 -0.28477670306E+02  0.44093184473E+02  0.00000000000E+00 0. -1.
</event>
<event>
 7    1  0.2349719E-015  0.9000779E+02  0.7816164E-02  0.1186339E+00
        -11   -1    0    0    0    0  0.00000000000E+00  0.00000000000E+00  0.45593999997E+02  0.45594000000E+02  0.51100000000E-03 0.  1.
         11   -1    0    0    0    0 -0.00000000000E+00 -0.00000000000E+00 -0.45593999997E+02  0.45594000000E+02  0.51100000000E-03 0. -1.
    9900012    2    1    2    0    0 -0.31541592021E+00  0.80789690995E+00 -0.80043997392E+00  0.90007792912E+02  0.90000054978E+02 0.  0.
        -12    1    1    2    0    0  0.31541592021E+00 -0.80789690995E+00  0.80043997392E+00  0.11802070885E+01  0.00000000000E+00 0.  1.
         11    1    3    3    0    0  0.13927843880E+01 -0.17435326441E+02 -0.36089381376E+01  0.17859308251E+02  0.51100000000E-03 0. -1.
        -11    1    3    3    0    0 -0.34282130216E+02 -0.91566697321E+00  0.19028463849E+01  0.34347106469E+02  0.51100000000E-03 0.  1.
         12    1    3    3    0    0  0.32573929908E+02  0.19158890324E+02  0.90565177872E+00  0.37801378192E+02  0.00000000000E+00 0. -1.
</event>
<event>
 7    1  0.2349719E-015  0.9000775E+02  0.7816164E-02  0.1186339E+00
        -11   -1    0    0    0    0  0.00000000000E+00  0.00000000000E+00  0.45593999997E+02  0.45594000000E+02  0.51100000000E-03 0.  1.
         11   -1    0    0    0    0 -0.00000000000E+00 -0.00000000000E+00 -0.45593999997E+02  0.45594000000E+02  0.51100000000E-03 0. -1.
    9900012    2    1    2    0    0 -0.33233621605E-01  0.11686172695E+01 -0.16191590328E+00  0.90007751062E+02  0.90000012576E+02 0.  0.
        -12    1    1    2    0    0  0.33233621605E-01 -0.11686172695E+01  0.16191590328E+00  0.11802489381E+01  0.00000000000E+00 0.  1.
         11    1    3    3    0    0 -0.66319062520E+01  0.48088049074E+01 -0.37946785701E+01  0.90280878864E+01  0.51100000000E-03 0. -1.
        -11    1    3    3    0    0 -0.27726531544E+02  0.16674012089E+01 -0.23911039664E+02  0.36650765289E+02  0.51100000000E-03 0.  1.
         12    1    3    3    0    0  0.34325204174E+02 -0.53075888468E+01  0.27543802331E+02  0.44328897886E+02  0.00000000000E+00 0. -1.
</event>
<event>
 7    1  0.2349719E-015  0.9000807E+02  0.7816164E-02  0.1186338E+00
        -11   -1    0    0    0    0  0.00000000000E+00  0.00000000000E+00  0.45593999997E+02  0.45594000000E+02  0.51100000000E-03 0.  1.
         11   -1    0    0    0    0 -0.00000000000E+00 -0.00000000000E+00 -0.45593999997E+02  0.45594000000E+02  0.51100000000E-03 0. -1.
    9900012    2    1    2    0    0 -0.21937954989E+00 -0.10670773940E+01 -0.45325720697E+00  0.90008074728E+02  0.90000340514E+02 0.  0.
        -12    1    1    2    0    0  0.21937954989E+00  0.10670773940E+01  0.45325720697E+00  0.11799252719E+01  0.00000000000E+00 0.  1.
         11    1    3    3    0    0  0.12305434651E+02 -0.38378487995E+01 -0.40834850799E+02  0.42820997716E+02  0.51100000000E-03 0. -1.
        -11    1    3    3    0    0 -0.10926347954E+01  0.82450625014E+01  0.52418618041E+01  0.98311760172E+01  0.51100000000E-03 0.  1.
        -12    1    3    3    0    0 -0.11432179406E+02 -0.54742910959E+01  0.35139731788E+02  0.37355900995E+02  0.00000000000E+00 0.  1.
</event>
<event>
 7    1  0.2349719E-015  0.9000770E+02  0.7816164E-02  0.1186339E+00
        -11   -1    0    0    0    0  0.00000000000E+00  0.00000000000E+00  0.45593999997E+02  0.45594000000E+02  0.51100000000E-03 0. -1.
         11   -1    0    0    0    0 -0.00000000000E+00 -0.00000000000E+00 -0.45593999997E+02  0.45594000000E+02  0.51100000000E-03 0.  1.
    9900012    2    1    2    0    0 -0.75667523487E+00 -0.90423688755E+00  0.53828052203E-01  0.90007703758E+02  0.89999964648E+02 0.  0.
        -12    1    1    2    0    0  0.75667523487E+00  0.90423688755E+00 -0.53828052203E-01  0.11802962421E+01  0.00000000000E+00 0.  1.
         11    1    3    3    0    0  0.65285515829E+01 -0.10588954758E+01 -0.11153873575E+02  0.12967349050E+02  0.51100000000E-03 0. -1.
        -11    1    3    3    0    0 -0.29694956605E+02  0.81861225421E+01 -0.20787385270E+02  0.37160710928E+02  0.51100000000E-03 0.  1.
         12    1    3    3    0    0  0.22409729787E+02 -0.80314639538E+01  0.31995086898E+02  0.39879643779E+02  0.00000000000E+00 0. -1.
</event>
<event>
 7    1  0.2349719E-015  0.9000788E+02  0.7816164E-02  0.1186339E+00
        -11   -1    0    0    0    0  0.00000000000E+00  0.00000000000E+00  0.45593999997E+02  0.45594000000E+02  0.51100000000E-03 0. -1.
         11   -1    0    0    0    0 -0.00000000000E+00 -0.00000000000E+00 -0.45593999997E+02  0.45594000000E+02  0.51100000000E-03 0.  1.
    9900012    2    1    2    0    0  0.62593656648E+00  0.79644380352E+00  0.60545443151E+00  0.90007875267E+02  0.90000138420E+02 0.  0.
        -12    1    1    2    0    0 -0.62593656648E+00 -0.79644380352E+00 -0.60545443151E+00  0.11801247333E+01  0.00000000000E+00 0.  1.
         11    1    3    3    0    0  0.15472327063E+01  0.29744318880E+01 -0.92098363362E+01  0.98011356334E+01  0.51100000000E-03 0. -1.
        -11    1    3    3    0    0 -0.13556171450E+02 -0.23562397066E+02 -0.25339653450E+02  0.37162539971E+02  0.51100000000E-03 0.  1.
         12    1    3    3    0    0  0.12634875310E+02  0.21384408981E+02  0.35154944218E+02  0.43044199662E+02  0.00000000000E+00 0. -1.
</event>
<event>
 7    1  0.2349719E-015  0.9000733E+02  0.7816164E-02  0.1186340E+00
        -11   -1    0    0    0    0  0.00000000000E+00  0.00000000000E+00  0.45593999997E+02  0.45594000000E+02  0.51100000000E-03 0. -1.
         11   -1    0    0    0    0 -0.00000000000E+00 -0.00000000000E+00 -0.45593999997E+02  0.45594000000E+02  0.51100000000E-03 0.  1.
    9900012    2    1    2    0    0  0.51113137478E+00  0.81584652625E+00  0.68345567953E+00  0.90007333873E+02  0.89999589880E+02 0.  0.
        -12    1    1    2    0    0 -0.51113137478E+00 -0.81584652625E+00 -0.68345567953E+00  0.11806661266E+01  0.00000000000E+00 0.  1.
         11    1    3    3    0    0  0.98976688630E+01 -0.66241681119E+00 -0.33962714834E+01  0.10485099199E+02  0.51100000000E-03 0. -1.
        -11    1    3    3    0    0  0.26130895587E+02 -0.95959306984E+01 -0.20814008082E+02  0.34758143259E+02  0.51100000000E-03 0.  1.
         12    1    3    3    0    0 -0.35517433075E+02  0.11074194036E+02  0.24893735245E+02  0.44764091415E+02  0.00000000000E+00 0. -1.
</event>
<event>
 7    1  0.2349719E-015  0.9000771E+02  0.7816164E-02  0.1186339E+00
        -11   -1    0    0    0    0  0.00000000000E+00  0.00000000000E+00  0.45593999997E+02  0.45594000000E+02  0.51100000000E-03 0. -1.
         11   -1    0    0    0    0 -0.00000000000E+00 -0.00000000000E+00 -0.45593999997E+02  0.45594000000E+02  0.51100000000E-03 0.  1.
    9900012    2    1    2    0    0 -0.60023629025E+00 -0.98599902958E+00  0.24618391730E+00  0.90007710115E+02  0.89999971089E+02 0.  0.
        -12    1    1    2    0    0  0.60023629025E+00  0.98599902958E+00 -0.24618391730E+00  0.11802898846E+01  0.00000000000E+00 0.  1.
         11    1    3    3    0    0 -0.18495573982E+02  0.25364005680E+02  0.18466156850E+02  0.36420021831E+02  0.51100000000E-03 0. -1.
        -11    1    3    3    0    0 -0.10035071086E+02 -0.14245918085E+02 -0.14972758818E+02  0.22974602079E+02  0.51100000000E-03 0.  1.
        -12    1    3    3    0    0  0.27930408778E+02 -0.12104086625E+02 -0.32472141146E+01  0.30613086206E+02  0.00000000000E+00 0.  1.
</event>
<event>
 7    1  0.2349719E-015  0.9000789E+02  0.7816164E-02  0.1186339E+00
        -11   -1    0    0    0    0  0.00000000000E+00  0.00000000000E+00  0.45593999997E+02  0.45594000000E+02  0.51100000000E-03 0.  1.
         11   -1    0    0    0    0 -0.00000000000E+00 -0.00000000000E+00 -0.45593999997E+02  0.45594000000E+02  0.51100000000E-03 0. -1.
    9900012    2    1    2    0    0 -0.11044584200E+01 -0.17766154086E+00 -0.37585656102E+00  0.90007889760E+02  0.90000153104E+02 0.  0.
        -12    1    1    2    0    0  0.11044584200E+01  0.17766154086E+00  0.37585656102E+00  0.11801102402E+01  0.00000000000E+00 0.  1.
         11    1    3    3    0    0  0.31757452765E+02  0.16239520592E+01 -0.15950083697E+02  0.35574965869E+02  0.51100000000E-03 0. -1.
        -11    1    3    3    0    0  0.95972211195E+01  0.48527606801E+00  0.21946023105E+01  0.98568973639E+01  0.51100000000E-03 0.  1.
        -12    1    3    3    0    0 -0.42459132305E+02 -0.22868896680E+01  0.13379624825E+02  0.44576026526E+02  0.00000000000E+00 0.  1.
</event>
<event>
 7    1  0.2349719E-015  0.9000784E+02  0.7816164E-02  0.1186339E+00
        -11   -1    0    0    0    0  0.00000000000E+00  0.00000000000E+00  0.45593999997E+02  0.45594000000E+02  0.51100000000E-03 0.  1.
         11   -1    0    0    0    0 -0.00000000000E+00 -0.00000000000E+00 -0.45593999997E+02  0.45594000000E+02  0.51100000000E-03 0. -1.
    9900012    2    1    2    0    0 -0.96350791805E-01  0.70144429431E+00 -0.94417746757E+00  0.90007839560E+02  0.90000102242E+02 0.  0.
        -12    1    1    2    0    0  0.96350791805E-01 -0.70144429431E+00  0.94417746757E+00  0.11801604397E+01  0.00000000000E+00 0.  1.
         11    1    3    3    0    0  0.12762620242E+02 -0.29736120630E+02  0.94735663514E+01  0.33717499985E+02  0.51100000000E-03 0. -1.
        -11    1    3    3    0    0  0.44335809986E+01 -0.10091925945E+02 -0.51395086449E-01  0.11022987411E+02  0.51100000000E-03 0.  1.
        -12    1    3    3    0    0 -0.17292552032E+02  0.40529490869E+02 -0.10366348733E+02  0.45267352164E+02  0.00000000000E+00 0.  1.
</event>
<event>
 7    1  0.3157293E-015  0.9000771E+02  0.7816164E-02  0.1186339E+00
        -11   -1    0    0    0    0  0.00000000000E+00  0.00000000000E+00  0.45593999997E+02  0.45594000000E+02  0.51100000000E-03 0. -1.
         11   -1    0    0    0    0 -0.00000000000E+00 -0.00000000000E+00 -0.45593999997E+02  0.45594000000E+02  0.51100000000E-03 0.  1.
    9900012    2    1    2    0    0 -0.33251245072E+00  0.21495249029E+00  0.11119005775E+01  0.90007706817E+02  0.89999967747E+02 0.  0.
        -12    1    1    2    0    0  0.33251245072E+00 -0.21495249029E+00 -0.11119005775E+01  0.11802931827E+01  0.00000000000E+00 0.  1.
         11    1    3    3    0    0  0.10611879538E+02  0.76717332675E+01  0.36286327238E+02  0.38576742000E+02  0.51100000000E-03 0. -1.
        -11    1    3    3    0    0  0.42129149259E+01 -0.86972969675E+01  0.31782204466E+01  0.10173136792E+02  0.51100000000E-03 0.  1.
        -12    1    3    3    0    0 -0.15157306915E+02  0.12405161902E+01 -0.38352647107E+02  0.41257828026E+02  0.00000000000E+00 0.  1.
</event>
<event>
 7    1  0.2349719E-015  0.9000802E+02  0.7816164E-02  0.1186338E+00
        -11   -1    0    0    0    0  0.00000000000E+00  0.00000000000E+00  0.45593999997E+02  0.45594000000E+02  0.51100000000E-03 0.  1.
         11   -1    0    0    0    0 -0.00000000000E+00 -0.00000000000E+00 -0.45593999997E+02  0.45594000000E+02  0.51100000000E-03 0. -1.
    9900012    2    1    2    0    0 -0.87189250688E+00  0.59346481490E+00 -0.52911088970E+00  0.90008018914E+02  0.90000283963E+02 0.  0.
        -12    1    1    2    0    0  0.87189250688E+00 -0.59346481490E+00  0.52911088970E+00  0.11799810862E+01  0.00000000000E+00 0.  1.
         11    1    3    3    0    0 -0.63788694025E+01 -0.97561696478E+00  0.11155783683E+02  0.12887719471E+02  0.51100000000E-03 0. -1.
        -11    1    3    3    0    0 -0.25158192392E+02 -0.17496303940E+02  0.13097042505E+02  0.33325483022E+02  0.51100000000E-03 0.  1.
         12    1    3    3    0    0  0.30665169288E+02  0.19065385720E+02 -0.24781937077E+02  0.43794816421E+02  0.00000000000E+00 0. -1.
</event>
<event>
 7    1  0.2349719E-015  0.9000767E+02  0.7816164E-02  0.1186339E+00
        -11   -1    0    0    0    0  0.00000000000E+00  0.00000000000E+00  0.45593999997E+02  0.45594000000E+02  0.51100000000E-03 0. -1.
         11   -1    0    0    0    0 -0.00000000000E+00 -0.00000000000E+00 -0.45593999997E+02  0.45594000000E+02  0.51100000000E-03 0.  1.
    9900012    2    1    2    0    0 -0.39691641619E+00  0.41246447830E-01  0.11108214872E+01  0.90007674499E+02  0.89999935003E+02 0.  0.
        -12    1    1    2    0    0  0.39691641619E+00 -0.41246447830E-01 -0.11108214872E+01  0.11803255006E+01  0.00000000000E+00 0.  1.
         11    1    3    3    0    0 -0.13799037038E+02 -0.38902345554E+02 -0.47787992676E+01  0.41552892023E+02  0.51100000000E-03 0. -1.
        -11    1    3    3    0    0  0.12099511474E+02  0.53182881768E+01  0.66504945104E+01  0.14795656272E+02  0.51100000000E-03 0.  1.
        -12    1    3    3    0    0  0.13026091480E+01  0.33625303825E+02 -0.76087375564E+00  0.33659126204E+02  0.00000000000E+00 0.  1.
</event>
<event>
 7    1  0.2349719E-015  0.9000773E+02  0.7816164E-02  0.1186339E+00
        -11   -1    0    0    0    0  0.00000000000E+00  0.00000000000E+00  0.45593999997E+02  0.45594000000E+02  0.51100000000E-03 0.  1.
         11   -1    0    0    0    0 -0.00000000000E+00 -0.00000000000E+00 -0.45593999997E+02  0.45594000000E+02  0.51100000000E-03 0. -1.
    9900012    2    1    2    0    0 -0.60932949189E+00  0.27875674800E-01 -0.10104363842E+01  0.90007728349E+02  0.89999989563E+02 0.  0.
        -12    1    1    2    0    0  0.60932949189E+00 -0.27875674800E-01  0.10104363842E+01  0.11802716507E+01  0.00000000000E+00 0.  1.
         11    1    3    3    0    0  0.40634924972E+01 -0.93638530255E+01  0.33714755031E+01  0.10749909864E+02  0.51100000000E-03 0. -1.
        -11    1    3    3    0    0  0.13312730372E+02  0.11595103630E+02  0.33162790867E+02  0.37569215010E+02  0.51100000000E-03 0.  1.
         12    1    3    3    0    0 -0.17985552361E+02 -0.22033749296E+01 -0.37544702754E+02  0.41688603475E+02  0.00000000000E+00 0. -1.
</event>
<event>
 7    1  0.2349719E-015  0.9000759E+02  0.7816164E-02  0.1186339E+00
        -11   -1    0    0    0    0  0.00000000000E+00  0.00000000000E+00  0.45593999997E+02  0.45594000000E+02  0.51100000000E-03 0. -1.
         11   -1    0    0    0    0 -0.00000000000E+00 -0.00000000000E+00 -0.45593999997E+02  0.45594000000E+02  0.51100000000E-03 0.  1.
    9900012    2    1    2    0    0 -0.85464875534E+00  0.65647356593E+00  0.48163960227E+00  0.90007593822E+02  0.89999853261E+02 0.  0.
        -12    1    1    2    0    0  0.85464875534E+00 -0.65647356593E+00 -0.48163960227E+00  0.11804061777E+01  0.00000000000E+00 0.  1.
         11    1    3    3    0    0  0.49655858218E+01 -0.21756136663E-02  0.10134093220E+02  0.11285251124E+02  0.51100000000E-03 0. -1.
        -11    1    3    3    0    0  0.23188160062E+02 -0.15422151697E+02 -0.29096360250E+02  0.40275696271E+02  0.51100000000E-03 0.  1.
         12    1    3    3    0    0 -0.29008394639E+02  0.16080800877E+02  0.19443906633E+02  0.38446646427E+02  0.00000000000E+00 0. -1.
</event>
<event>
 7    1  0.2349719E-015  0.9000757E+02  0.7816164E-02  0.1186339E+00
        -11   -1    0    0    0    0  0.00000000000E+00  0.00000000000E+00  0.45593999997E+02  0.45594000000E+02  0.51100000000E-03 0. -1.
         11   -1    0    0    0    0 -0.00000000000E+00 -0.00000000000E+00 -0.45593999997E+02  0.45594000000E+02  0.51100000000E-03 0.  1.
    9900012    2    1    2    0    0 -0.83350527686E+00 -0.70752935883E+00  0.44507273330E+00  0.90007568478E+02  0.89999827582E+02 0.  0.
        -12    1    1    2    0    0  0.83350527686E+00  0.70752935883E+00 -0.44507273330E+00  0.11804315220E+01  0.00000000000E+00 0.  1.
         11    1    3    3    0    0  0.36120725998E+02  0.10951087090E+02 -0.69251003013E+00  0.37750665233E+02  0.51100000000E-03 0. -1.
        -11    1    3    3    0    0  0.53744083443E+01 -0.76665285736E+01 -0.21736125493E+01  0.96116864907E+01  0.51100000000E-03 0.  1.
        -12    1    3    3    0    0 -0.42328639620E+02 -0.39920878753E+01  0.33111953128E+01  0.42645216755E+02  0.00000000000E+00 0.  1.
</event>
<event>
 7    1  0.2349719E-015  0.9000769E+02  0.7816164E-02  0.1186339E+00
        -11   -1    0    0    0    0  0.00000000000E+00  0.00000000000E+00  0.45593999997E+02  0.45594000000E+02  0.51100000000E-03 0. -1.
         11   -1    0    0    0    0 -0.00000000000E+00 -0.00000000000E+00 -0.45593999997E+02  0.45594000000E+02  0.51100000000E-03 0.  1.
    9900012    2    1    2    0    0 -0.74085546108E+00 -0.12012089794E+00  0.91094928137E+00  0.90007693075E+02  0.89999953823E+02 0.  0.
        -12    1    1    2    0    0  0.74085546108E+00  0.12012089794E+00 -0.91094928137E+00  0.11803069251E+01  0.00000000000E+00 0.  1.
         11    1    3    3    0    0  0.30094305376E+01  0.43009043760E+01  0.10041486824E+02  0.11330750571E+02  0.51100000000E-03 0. -1.
        -11    1    3    3    0    0  0.12472491808E+01  0.35256991141E+02 -0.14852749776E+02  0.38278129931E+02  0.51100000000E-03 0.  1.
         12    1    3    3    0    0 -0.49975351795E+01 -0.39678016415E+02  0.57222122342E+01  0.40398812573E+02  0.00000000000E+00 0. -1.
</event>
<event>
 7    1  0.2349719E-015  0.9000775E+02  0.7816164E-02  0.1186339E+00
        -11   -1    0    0    0    0  0.00000000000E+00  0.00000000000E+00  0.45593999997E+02  0.45594000000E+02  0.51100000000E-03 0.  1.
         11   -1    0    0    0    0 -0.00000000000E+00 -0.00000000000E+00 -0.45593999997E+02  0.45594000000E+02  0.51100000000E-03 0. -1.
    9900012    2    1    2    0    0 -0.10661153678E+01 -0.47283757206E+00  0.18115508151E+00  0.90007748116E+02  0.90000009591E+02 0.  0.
        -12    1    1    2    0    0  0.10661153678E+01  0.47283757206E+00 -0.18115508151E+00  0.11802518844E+01  0.00000000000E+00 0.  1.
         11    1    3    3    0    0 -0.20748552627E+01 -0.56163858681E+01 -0.68602008023E+01  0.91055570884E+01  0.51100000000E-03 0. -1.
        -11    1    3    3    0    0  0.30677476910E+02  0.83677300231E+01 -0.22466233467E+02  0.38934022933E+02  0.51100000000E-03 0.  1.
         12    1    3    3    0    0 -0.29668737015E+02 -0.32241817270E+01  0.29507589351E+02  0.41968168094E+02  0.00000000000E+00 0. -1.
</event>
<event>
 7    1  0.2349719E-015  0.9000774E+02  0.7816164E-02  0.1186339E+00
        -11   -1    0    0    0    0  0.00000000000E+00  0.00000000000E+00  0.45593999997E+02  0.45594000000E+02  0.51100000000E-03 0. -1.
         11   -1    0    0    0    0 -0.00000000000E+00 -0.00000000000E+00 -0.45593999997E+02  0.45594000000E+02  0.51100000000E-03 0.  1.
    9900012    2    1    2    0    0  0.62863908081E+00  0.62006295092E+00  0.78316603300E+00  0.90007739778E+02  0.90000001143E+02 0.  0.
        -12    1    1    2    0    0 -0.62863908081E+00 -0.62006295092E+00 -0.78316603300E+00  0.11802602223E+01  0.00000000000E+00 0.  1.
         11    1    3    3    0    0  0.46922002410E+01  0.35807411479E+02 -0.18253723579E+02  0.40464625103E+02  0.51100000000E-03 0. -1.
        -11    1    3    3    0    0 -0.10271693446E+02 -0.10054888566E+01  0.91931288447E+00  0.10361651921E+02  0.51100000000E-03 0.  1.
        -12    1    3    3    0    0  0.62081322859E+01 -0.34181859672E+02  0.18117576727E+02  0.39181462754E+02  0.00000000000E+00 0.  1.
</event>
<event>
 8    1  0.2349719E-015  0.9000774E+02  0.7816164E-02  0.1186339E+00
        -11   -1    0    0    0    0  0.00000000000E+00  0.00000000000E+00  0.45593999997E+02  0.45594000000E+02  0.51100000000E-03 0.  1.
         11   -1    0    0    0    0 -0.00000000000E+00 -0.00000000000E+00 -0.45593999997E+02  0.45594000000E+02  0.51100000000E-03 0. -1.
    9900012    2    1    2    0    0  0.48576293985E+00  0.57022485139E+00  0.91208441685E+00  0.90007737318E+02  0.89999998651E+02 0.  0.
         23    2    3    3    0    0 -0.24908639086E+02 -0.58965429649E+01  0.82861854030E+01  0.62785097740E+02  0.56728283154E+02 0.  0.
        -12    1    1    2    0    0 -0.48576293985E+00 -0.57022485139E+00 -0.91208441685E+00  0.11802626819E+01  0.00000000000E+00 0.  1.
         11    1    4    4    0    0  0.12708536587E+02  0.94244646208E+01  0.14780580276E+02  0.21651627863E+02  0.51100000000E-03 0.  1.
        -11    1    4    4    0    0 -0.37617175673E+02 -0.15321007586E+02 -0.64943948728E+01  0.41133469877E+02  0.51100000000E-03 0. -1.
         12    1    3    3    0    0  0.25394402026E+02  0.64667678163E+01 -0.73741009861E+01  0.27222639578E+02  0.00000000000E+00 0. -1.
</event>
<event>
 7    1  0.2349719E-015  0.9000783E+02  0.7816164E-02  0.1186339E+00
        -11   -1    0    0    0    0  0.00000000000E+00  0.00000000000E+00  0.45593999997E+02  0.45594000000E+02  0.51100000000E-03 0. -1.
         11   -1    0    0    0    0 -0.00000000000E+00 -0.00000000000E+00 -0.45593999997E+02  0.45594000000E+02  0.51100000000E-03 0.  1.
    9900012    2    1    2    0    0  0.65466954426E+00 -0.19067197380E+00  0.96325649980E+00  0.90007825819E+02  0.90000088319E+02 0.  0.
        -12    1    1    2    0    0 -0.65466954426E+00  0.19067197380E+00 -0.96325649980E+00  0.11801741813E+01  0.00000000000E+00 0.  1.
         11    1    3    3    0    0  0.11145463274E+01 -0.35580850001E+02  0.73608153834E+00  0.35605911259E+02  0.51100000000E-03 0. -1.
        -11    1    3    3    0    0  0.14661499187E+02 -0.11948982348E+01 -0.14363053958E+01  0.14780064738E+02  0.51100000000E-03 0.  1.
        -12    1    3    3    0    0 -0.15121375971E+02  0.36585076262E+02  0.16634803572E+01  0.39621849821E+02  0.00000000000E+00 0.  1.
</event>
<event>
 7    1  0.2349719E-015  0.9000767E+02  0.7816164E-02  0.1186339E+00
        -11   -1    0    0    0    0  0.00000000000E+00  0.00000000000E+00  0.45593999997E+02  0.45594000000E+02  0.51100000000E-03 0.  1.
         11   -1    0    0    0    0 -0.00000000000E+00 -0.00000000000E+00 -0.45593999997E+02  0.45594000000E+02  0.51100000000E-03 0. -1.
    9900012    2    1    2    0    0  0.72623510557E+00  0.13895017220E+00 -0.92003283327E+00  0.90007667423E+02  0.89999927833E+02 0.  0.
        -12    1    1    2    0    0 -0.72623510557E+00 -0.13895017220E+00  0.92003283327E+00  0.11803325774E+01  0.00000000000E+00 0.  1.
         11    1    3    3    0    0 -0.27996201453E+01  0.53118699280E+01 -0.84006361833E+01  0.10325915148E+02  0.51100000000E-03 0. -1.
        -11    1    3    3    0    0 -0.24542640718E+02 -0.31175568598E+02  0.11232624348E+02  0.41236260025E+02  0.51100000000E-03 0.  1.
         12    1    3    3    0    0  0.28068495969E+02  0.26002648843E+02 -0.37520209978E+01  0.38445492250E+02  0.00000000000E+00 0. -1.
</event>
<event>
 7    1  0.2349719E-015  0.9000761E+02  0.7816164E-02  0.1186339E+00
        -11   -1    0    0    0    0  0.00000000000E+00  0.00000000000E+00  0.45593999997E+02  0.45594000000E+02  0.51100000000E-03 0. -1.
         11   -1    0    0    0    0 -0.00000000000E+00 -0.00000000000E+00 -0.45593999997E+02  0.45594000000E+02  0.51100000000E-03 0.  1.
    9900012    2    1    2    0    0 -0.81336037268E+00 -0.46968309273E+00 -0.71496341208E+00  0.90007606005E+02  0.89999865604E+02 0.  0.
        -12    1    1    2    0    0  0.81336037268E+00  0.46968309273E+00  0.71496341208E+00  0.11803939953E+01  0.00000000000E+00 0.  1.
         11    1    3    3    0    0 -0.89492895886E+01 -0.33681983567E+01  0.27302215256E+02  0.28928282052E+02  0.51100000000E-03 0. -1.
        -11    1    3    3    0    0 -0.20508324166E+02 -0.28402776549E+01 -0.23829149759E+02  0.31567180992E+02  0.51100000000E-03 0.  1.
        -12    1    3    3    0    0  0.28644253382E+02  0.57387929189E+01 -0.41880289090E+01  0.29512142961E+02  0.00000000000E+00 0.  1.
</event>
<event>
 7    1  0.2349719E-015  0.9000782E+02  0.7816164E-02  0.1186339E+00
        -11   -1    0    0    0    0  0.00000000000E+00  0.00000000000E+00  0.45593999997E+02  0.45594000000E+02  0.51100000000E-03 0. -1.
         11   -1    0    0    0    0 -0.00000000000E+00 -0.00000000000E+00 -0.45593999997E+02  0.45594000000E+02  0.51100000000E-03 0.  1.
    9900012    2    1    2    0    0  0.85447539509E+00 -0.32334080511E+00 -0.74709000307E+00  0.90007821645E+02  0.90000084091E+02 0.  0.
        -12    1    1    2    0    0 -0.85447539509E+00  0.32334080511E+00  0.74709000307E+00  0.11801783551E+01  0.00000000000E+00 0.  1.
         11    1    3    3    0    0 -0.30841677530E+01  0.10375835920E+02  0.15796669580E+01  0.10939168603E+02  0.51100000000E-03 0. -1.
        -11    1    3    3    0    0 -0.25180888018E+02  0.41239336187E+01 -0.27727714470E+02  0.37681694492E+02  0.51100000000E-03 0.  1.
         12    1    3    3    0    0  0.29119531166E+02 -0.14823110344E+02  0.25400957509E+02  0.41386958549E+02  0.00000000000E+00 0. -1.
</event>
<event>
 7    1  0.2349719E-015  0.9000793E+02  0.7816164E-02  0.1186339E+00
        -11   -1    0    0    0    0  0.00000000000E+00  0.00000000000E+00  0.45593999997E+02  0.45594000000E+02  0.51100000000E-03 0.  1.
         11   -1    0    0    0    0 -0.00000000000E+00 -0.00000000000E+00 -0.45593999997E+02  0.45594000000E+02  0.51100000000E-03 0. -1.
    9900012    2    1    2    0    0  0.10948135753E+01  0.21311413564E+00 -0.38538739295E+00  0.90007933120E+02  0.90000197037E+02 0.  0.
        -12    1    1    2    0    0 -0.10948135753E+01 -0.21311413564E+00  0.38538739295E+00  0.11800668803E+01  0.00000000000E+00 0.  1.
         11    1    3    3    0    0 -0.66418776140E+01 -0.62620070640E+01  0.10150772932E+01  0.91846422294E+01  0.51100000000E-03 0. -1.
        -11    1    3    3    0    0 -0.22216686140E+02  0.17361702610E+02  0.26329515587E+02  0.38577885529E+02  0.51100000000E-03 0.  1.
         12    1    3    3    0    0  0.29953377329E+02 -0.10886581411E+02 -0.27729980273E+02  0.42245405362E+02  0.00000000000E+00 0. -1.
</event>
<event>
 7    1  0.2349719E-015  0.9000773E+02  0.7816164E-02  0.1186339E+00
        -11   -1    0    0    0    0  0.00000000000E+00  0.00000000000E+00  0.45593999997E+02  0.45594000000E+02  0.51100000000E-03 0.  1.
         11   -1    0    0    0    0 -0.00000000000E+00 -0.00000000000E+00 -0.45593999997E+02  0.45594000000E+02  0.51100000000E-03 0. -1.
    9900012    2    1    2    0    0  0.90036288176E+00  0.94601704006E-01  0.75726113322E+00  0.90007725784E+02  0.89999986964E+02 0.  0.
        -12    1    1    2    0    0 -0.90036288176E+00 -0.94601704006E-01 -0.75726113322E+00  0.11802742161E+01  0.00000000000E+00 0.  1.
         11    1    3    3    0    0 -0.98677530402E+00  0.85404264299E+00  0.12296899240E+02  0.12365955099E+02  0.51100000000E-03 0. -1.
        -11    1    3    3    0    0  0.40094215635E+01  0.34435209054E+02  0.10302038867E+02  0.36166159444E+02  0.51100000000E-03 0.  1.
         12    1    3    3    0    0 -0.21222833777E+01 -0.35194649993E+02 -0.21841676973E+02  0.41475611241E+02  0.00000000000E+00 0. -1.
</event>
<event>
 7    1  0.2349719E-015  0.9000797E+02  0.7816164E-02  0.1186339E+00
        -11   -1    0    0    0    0  0.00000000000E+00  0.00000000000E+00  0.45593999997E+02  0.45594000000E+02  0.51100000000E-03 0.  1.
         11   -1    0    0    0    0 -0.00000000000E+00 -0.00000000000E+00 -0.45593999997E+02  0.45594000000E+02  0.51100000000E-03 0. -1.
    9900012    2    1    2    0    0  0.11140525770E+01 -0.57390600497E-01  0.38478926726E+00  0.90007970507E+02  0.90000234917E+02 0.  0.
        -12    1    1    2    0    0 -0.11140525770E+01  0.57390600497E-01 -0.38478926726E+00  0.11800294935E+01  0.00000000000E+00 0.  1.
         11    1    3    3    0    0 -0.84749756813E+01  0.82530155968E+00 -0.48483175203E+01  0.97985977824E+01  0.51100000000E-03 0. -1.
        -11    1    3    3    0    0 -0.55290730216E+01  0.92185845755E+00  0.40976610139E+02  0.41358228326E+02  0.51100000000E-03 0.  1.
         12    1    3    3    0    0  0.15118101280E+02 -0.18045506177E+01 -0.35743503351E+02  0.38851144398E+02  0.00000000000E+00 0. -1.
</event>
<event>
 7    1  0.2349719E-015  0.9000791E+02  0.7816164E-02  0.1186339E+00
        -11   -1    0    0    0    0  0.00000000000E+00  0.00000000000E+00  0.45593999997E+02  0.45594000000E+02  0.51100000000E-03 0. -1.
         11   -1    0    0    0    0 -0.00000000000E+00 -0.00000000000E+00 -0.45593999997E+02  0.45594000000E+02  0.51100000000E-03 0.  1.
    9900012    2    1    2    0    0  0.40859617687E+00  0.42073623584E+00  0.10240289460E+01  0.90007913097E+02  0.90000176750E+02 0.  0.
        -12    1    1    2    0    0 -0.40859617687E+00 -0.42073623584E+00 -0.10240289460E+01  0.11800869028E+01  0.00000000000E+00 0.  1.
         11    1    3    3    0    0 -0.21988374598E+02 -0.14165537241E+02  0.88038462699E+01  0.27598166102E+02  0.51100000000E-03 0. -1.
        -11    1    3    3    0    0 -0.28183250933E+01  0.14234804671E+02 -0.27033642125E+02  0.30682086422E+02  0.51100000000E-03 0.  1.
         12    1    3    3    0    0  0.25215295868E+02  0.35146880546E+00  0.19253824802E+02  0.31727660574E+02  0.00000000000E+00 0. -1.
</event>
<event>
 7    1  0.2349719E-015  0.9000769E+02  0.7816164E-02  0.1186339E+00
        -11   -1    0    0    0    0  0.00000000000E+00  0.00000000000E+00  0.45593999997E+02  0.45594000000E+02  0.51100000000E-03 0.  1.
         11   -1    0    0    0    0 -0.00000000000E+00 -0.00000000000E+00 -0.45593999997E+02  0.45594000000E+02  0.51100000000E-03 0. -1.
    9900012    2    1    2    0    0  0.52441656448E+00 -0.19783954894E+00 -0.10387416492E+01  0.90007687569E+02  0.89999948245E+02 0.  0.
        -12    1    1    2    0    0 -0.52441656448E+00  0.19783954894E+00  0.10387416492E+01  0.11803124306E+01  0.00000000000E+00 0.  1.
         11    1    3    3    0    0 -0.27190020838E+02 -0.19962185532E+02 -0.16075447910E+02  0.37365841489E+02  0.51100000000E-03 0. -1.
        -11    1    3    3    0    0  0.60030990719E+01  0.19076379809E+02 -0.74832038176E+01  0.21352840671E+02  0.51100000000E-03 0.  1.
        -12    1    3    3    0    0  0.21711338331E+02  0.68796617354E+00  0.22519910079E+02  0.31289005410E+02  0.00000000000E+00 0.  1.
</event>
<event>
 7    1  0.2349719E-015  0.9000777E+02  0.7816164E-02  0.1186339E+00
        -11   -1    0    0    0    0  0.00000000000E+00  0.00000000000E+00  0.45593999997E+02  0.45594000000E+02  0.51100000000E-03 0.  1.
         11   -1    0    0    0    0 -0.00000000000E+00 -0.00000000000E+00 -0.45593999997E+02  0.45594000000E+02  0.51100000000E-03 0. -1.
    9900012    2    1    2    0    0 -0.86524203100E+00  0.50509859582E+00 -0.62383965518E+00  0.90007769396E+02  0.90000031152E+02 0.  0.
        -12    1    1    2    0    0  0.86524203100E+00 -0.50509859582E+00  0.62383965518E+00  0.11802306042E+01  0.00000000000E+00 0.  1.
         11    1    3    3    0    0 -0.61394660451E+01  0.15294685664E+01  0.15410523600E+01  0.65120780133E+01  0.51100000000E-03 0. -1.
        -11    1    3    3    0    0  0.12257205348E+02 -0.28282398255E+02  0.28426821675E+02  0.41931102118E+02  0.51100000000E-03 0.  1.
         12    1    3    3    0    0 -0.69829813338E+01  0.27258028284E+02 -0.30591713690E+02  0.41564589265E+02  0.00000000000E+00 0. -1.
</event>
<event>
 7    1  0.2349719E-015  0.9000775E+02  0.7816164E-02  0.1186339E+00
        -11   -1    0    0    0    0  0.00000000000E+00  0.00000000000E+00  0.45593999997E+02  0.45594000000E+02  0.51100000000E-03 0.  1.
         11   -1    0    0    0    0 -0.00000000000E+00 -0.00000000000E+00 -0.45593999997E+02  0.45594000000E+02  0.51100000000E-03 0. -1.
    9900012    2    1    2    0    0  0.70565191125E+00  0.49082464266E+00  0.80879233382E+00  0.90007746430E+02  0.90000007883E+02 0.  0.
        -12    1    1    2    0    0 -0.70565191125E+00 -0.49082464266E+00 -0.80879233382E+00  0.11802535698E+01  0.00000000000E+00 0.  1.
         11    1    3    3    0    0  0.28358312793E+01  0.74296123826E+01  0.57887023094E+01  0.98361656090E+01  0.51100000000E-03 0. -1.
        -11    1    3    3    0    0  0.93891285250E+00 -0.17289255748E+01  0.37355129822E+02  0.37406903978E+02  0.51100000000E-03 0.  1.
         12    1    3    3    0    0 -0.30690922205E+01 -0.52098621651E+01 -0.42335039797E+02  0.42764676843E+02  0.00000000000E+00 0. -1.
</event>
<event>
 7    1  0.2349719E-015  0.9000748E+02  0.7816164E-02  0.1186340E+00
        -11   -1    0    0    0    0  0.00000000000E+00  0.00000000000E+00  0.45593999997E+02  0.45594000000E+02  0.51100000000E-03 0.  1.
         11   -1    0    0    0    0 -0.00000000000E+00 -0.00000000000E+00 -0.45593999997E+02  0.45594000000E+02  0.51100000000E-03 0. -1.
    9900012    2    1    2    0    0  0.10148063608E+01  0.38921629461E+00 -0.46077758571E+00  0.90007475855E+02  0.89999733736E+02 0.  0.
        -12    1    1    2    0    0 -0.10148063608E+01 -0.38921629461E+00  0.46077758571E+00  0.11805241452E+01  0.00000000000E+00 0.  1.
         11    1    3    3    0    0  0.79144460178E+01  0.91051070893E+01 -0.22645026217E+01  0.12274746566E+02  0.51100000000E-03 0. -1.
        -11    1    3    3    0    0 -0.26890503734E+02  0.13990351091E+00  0.31140592385E+02  0.41144322311E+02  0.51100000000E-03 0.  1.
         12    1    3    3    0    0  0.19990864077E+02 -0.88557943056E+01 -0.29336867349E+02  0.36588406978E+02  0.00000000000E+00 0. -1.
</event>
<event>
 7    1  0.2349719E-015  0.9000785E+02  0.7816164E-02  0.1186339E+00
        -11   -1    0    0    0    0  0.00000000000E+00  0.00000000000E+00  0.45593999997E+02  0.45594000000E+02  0.51100000000E-03 0.  1.
         11   -1    0    0    0    0 -0.00000000000E+00 -0.00000000000E+00 -0.45593999997E+02  0.45594000000E+02  0.51100000000E-03 0. -1.
    9900012    2    1    2    0    0  0.66739434703E+00 -0.67966884131E+00 -0.69669862085E+00  0.90007850045E+02  0.90000112865E+02 0.  0.
        -12    1    1    2    0    0 -0.66739434703E+00  0.67966884131E+00  0.69669862085E+00  0.11801499551E+01  0.00000000000E+00 0.  1.
         11    1    3    3    0    0 -0.40766712808E+01 -0.22730270427E+01 -0.24078049682E+02  0.24526279323E+02  0.51100000000E-03 0. -1.
        -11    1    3    3    0    0  0.32737953582E+02  0.34129676653E+01  0.15231674187E+02  0.36268799978E+02  0.51100000000E-03 0.  1.
         12    1    3    3    0    0 -0.27993887954E+02 -0.18196094639E+01  0.81496768747E+01  0.29212770744E+02  0.00000000000E+00 0. -1.
</event>
<event>
 7    1  0.2349719E-015  0.9000682E+02  0.7816164E-02  0.1186341E+00
        -11   -1    0    0    0    0  0.00000000000E+00  0.00000000000E+00  0.45593999997E+02  0.45594000000E+02  0.51100000000E-03 0.  1.
         11   -1    0    0    0    0 -0.00000000000E+00 -0.00000000000E+00 -0.45593999997E+02  0.45594000000E+02  0.51100000000E-03 0. -1.
    9900012    2    1    2    0    0  0.10446730310E+01 -0.97752916122E-01 -0.54249240960E+00  0.90006816107E+02  0.89999065275E+02 0.  0.
        -12    1    1    2    0    0 -0.10446730310E+01  0.97752916122E-01  0.54249240960E+00  0.11811838929E+01  0.00000000000E+00 0.  1.
         11    1    3    3    0    0  0.87998986492E+01 -0.11593338260E+01  0.19400506626E+01  0.90854866678E+01  0.51100000000E-03 0. -1.
        -11    1    3    3    0    0  0.15087292093E+02 -0.34705491634E+02 -0.60874515233E+01  0.38329552549E+02  0.51100000000E-03 0.  1.
         12    1    3    3    0    0 -0.22842517711E+02  0.35767072544E+02  0.36049084511E+01  0.42591776891E+02  0.00000000000E+00 0. -1.
</event>
<event>
 7    1  0.2349719E-015  0.9000768E+02  0.7816164E-02  0.1186339E+00
        -11   -1    0    0    0    0  0.00000000000E+00  0.00000000000E+00  0.45593999997E+02  0.45594000000E+02  0.51100000000E-03 0.  1.
         11   -1    0    0    0    0 -0.00000000000E+00 -0.00000000000E+00 -0.45593999997E+02  0.45594000000E+02  0.51100000000E-03 0. -1.
    9900012    2    1    2    0    0  0.19627420631E-01 -0.11793003075E+01 -0.44897005724E-01  0.90007682165E+02  0.89999942769E+02 0.  0.
        -12    1    1    2    0    0 -0.19627420631E-01  0.11793003075E+01  0.44897005724E-01  0.11803178352E+01  0.00000000000E+00 0.  1.
         11    1    3    3    0    0  0.56741631618E+01 -0.61766642157E+01  0.27954819614E+01  0.88409291411E+01  0.51100000000E-03 0. -1.
        -11    1    3    3    0    0  0.19138908994E+01 -0.15545309032E+02  0.34495994451E+02  0.37885264216E+02  0.51100000000E-03 0.  1.
         12    1    3    3    0    0 -0.75684266406E+01  0.20542672940E+02 -0.37336373418E+02  0.43281488808E+02  0.00000000000E+00 0. -1.
</event>
<event>
 7    1  0.2349719E-015  0.9000761E+02  0.7816164E-02  0.1186339E+00
        -11   -1    0    0    0    0  0.00000000000E+00  0.00000000000E+00  0.45593999997E+02  0.45594000000E+02  0.51100000000E-03 0. -1.
         11   -1    0    0    0    0 -0.00000000000E+00 -0.00000000000E+00 -0.45593999997E+02  0.45594000000E+02  0.51100000000E-03 0.  1.
    9900012    2    1    2    0    0  0.41801737957E+00 -0.86225902371E+00  0.68926594936E+00  0.90007611631E+02  0.89999871304E+02 0.  0.
        -12    1    1    2    0    0 -0.41801737957E+00  0.86225902371E+00 -0.68926594936E+00  0.11803883694E+01  0.00000000000E+00 0.  1.
         11    1    3    3    0    0 -0.62054926592E+01  0.49937286996E+01  0.48681247443E+01  0.93351006559E+01  0.51100000000E-03 0. -1.
        -11    1    3    3    0    0 -0.26691229451E+02 -0.16051498809E+02 -0.25128572965E+02  0.40018964544E+02  0.51100000000E-03 0.  1.
         12    1    3    3    0    0  0.33314739490E+02  0.10195511085E+02  0.20949714170E+02  0.40653546431E+02  0.00000000000E+00 0. -1.
</event>
<event>
 7    1  0.2349719E-015  0.9000753E+02  0.7816164E-02  0.1186339E+00
        -11   -1    0    0    0    0  0.00000000000E+00  0.00000000000E+00  0.45593999997E+02  0.45594000000E+02  0.51100000000E-03 0. -1.
         11   -1    0    0    0    0 -0.00000000000E+00 -0.00000000000E+00 -0.45593999997E+02  0.45594000000E+02  0.51100000000E-03 0.  1.
    9900012    2    1    2    0    0  0.57793222165E+00  0.16028720953E+00 -0.10167679256E+01  0.90007527782E+02  0.89999786349E+02 0.  0.
        -12    1    1    2    0    0 -0.57793222165E+00 -0.16028720953E+00  0.10167679256E+01  0.11804722177E+01  0.00000000000E+00 0.  1.
         11    1    3    3    0    0  0.24062219459E+01 -0.76170385547E+01  0.28299412181E+01  0.84745352649E+01  0.51100000000E-03 0. -1.
        -11    1    3    3    0    0  0.30948357220E+02  0.27839864458E+02  0.54835116850E+01  0.41987233397E+02  0.51100000000E-03 0.  1.
         12    1    3    3    0    0 -0.32776646944E+02 -0.20062538694E+02 -0.93302208286E+01  0.39545759121E+02  0.00000000000E+00 0. -1.
</event>
<event>
 7    1  0.2349719E-015  0.9000775E+02  0.7816164E-02  0.1186339E+00
        -11   -1    0    0    0    0  0.00000000000E+00  0.00000000000E+00  0.45593999997E+02  0.45594000000E+02  0.51100000000E-03 0.  1.
         11   -1    0    0    0    0 -0.00000000000E+00 -0.00000000000E+00 -0.45593999997E+02  0.45594000000E+02  0.51100000000E-03 0. -1.
    9900012    2    1    2    0    0 -0.76816080814E+00 -0.16735849855E+00 -0.88028566873E+00  0.90007753097E+02  0.90000014638E+02 0.  0.
        -12    1    1    2    0    0  0.76816080814E+00  0.16735849855E+00  0.88028566873E+00  0.11802469033E+01  0.00000000000E+00 0.  1.
         11    1    3    3    0    0  0.53628786056E+01 -0.10141340883E+02 -0.10636676359E+02  0.15644364675E+02  0.51100000000E-03 0. -1.
        -11    1    3    3    0    0 -0.22403362789E+02 -0.17574471717E+02 -0.16556666663E+02  0.32937758449E+02  0.51100000000E-03 0.  1.
         12    1    3    3    0    0  0.16272323376E+02  0.27548454101E+02  0.26313057353E+02  0.41425629973E+02  0.00000000000E+00 0. -1.
</event>
<event>
 7    1  0.2349719E-015  0.9000771E+02  0.7816164E-02  0.1186339E+00
        -11   -1    0    0    0    0  0.00000000000E+00  0.00000000000E+00  0.45593999997E+02  0.45594000000E+02  0.51100000000E-03 0.  1.
         11   -1    0    0    0    0 -0.00000000000E+00 -0.00000000000E+00 -0.45593999997E+02  0.45594000000E+02  0.51100000000E-03 0. -1.
    9900012    2    1    2    0    0  0.12919793998E+00  0.14522030142E+00 -0.11641729904E+01  0.90007711986E+02  0.89999972985E+02 0.  0.
        -12    1    1    2    0    0 -0.12919793998E+00 -0.14522030142E+00  0.11641729904E+01  0.11802880137E+01  0.00000000000E+00 0.  1.
         11    1    3    3    0    0  0.67412448295E+01  0.33146478133E+01  0.10676382875E+02  0.13054364156E+02  0.51100000000E-03 0. -1.
        -11    1    3    3    0    0  0.31068520845E+02  0.79179336037E+01  0.78610456788E+01  0.33011251104E+02  0.51100000000E-03 0.  1.
         12    1    3    3    0    0 -0.37680567734E+02 -0.11087361116E+02 -0.19701601544E+02  0.43942096726E+02  0.00000000000E+00 0. -1.
</event>
<event>
 7    1  0.2349719E-015  0.9000851E+02  0.7816164E-02  0.1186338E+00
        -11   -1    0    0    0    0  0.00000000000E+00  0.00000000000E+00  0.45593999997E+02  0.45594000000E+02  0.51100000000E-03 0. -1.
         11   -1    0    0    0    0 -0.00000000000E+00 -0.00000000000E+00 -0.45593999997E+02  0.45594000000E+02  0.51100000000E-03 0.  1.
    9900012    2    1    2    0    0 -0.33259319978E+00  0.57803115820E+00  0.97286263431E+00  0.90008508600E+02  0.90000780111E+02 0.  0.
        -12    1    1    2    0    0  0.33259319978E+00 -0.57803115820E+00 -0.97286263431E+00  0.11794913996E+01  0.00000000000E+00 0.  1.
         11    1    3    3    0    0 -0.66411612856E+01 -0.17835030012E+02  0.38355111089E+02  0.42817144529E+02  0.51100000000E-03 0. -1.
        -11    1    3    3    0    0 -0.29340554613E+01  0.86269500480E+01 -0.19917527278E+01  0.93273805418E+01  0.51100000000E-03 0.  1.
        -12    1    3    3    0    0  0.92426235471E+01  0.97861111222E+01 -0.35390495727E+02  0.37863983529E+02  0.00000000000E+00 0.  1.
</event>
<event>
 7    1  0.2349719E-015  0.9000754E+02  0.7816164E-02  0.1186339E+00
        -11   -1    0    0    0    0  0.00000000000E+00  0.00000000000E+00  0.45593999997E+02  0.45594000000E+02  0.51100000000E-03 0. -1.
         11   -1    0    0    0    0 -0.00000000000E+00 -0.00000000000E+00 -0.45593999997E+02  0.45594000000E+02  0.51100000000E-03 0.  1.
    9900012    2    1    2    0    0  0.45095417659E+00 -0.63982350541E+00  0.88359642874E+00  0.90007543971E+02  0.89999802751E+02 0.  0.
        -12    1    1    2    0    0 -0.45095417659E+00  0.63982350541E+00 -0.88359642874E+00  0.11804560290E+01  0.00000000000E+00 0.  1.
         11    1    3    3    0    0  0.21554250328E+02 -0.27372897720E+02  0.36215059033E+01  0.35028224934E+02  0.51100000000E-03 0. -1.
        -11    1    3    3    0    0 -0.87635740629E+01 -0.11656160227E+02 -0.42320342301E+00  0.14589222152E+02  0.51100000000E-03 0.  1.
        -12    1    3    3    0    0 -0.12339722088E+02  0.38389234442E+02 -0.23147060515E+01  0.40390096885E+02  0.00000000000E+00 0.  1.
</event>
<event>
 7    1  0.2349719E-015  0.9000773E+02  0.7816164E-02  0.1186339E+00
        -11   -1    0    0    0    0  0.00000000000E+00  0.00000000000E+00  0.45593999997E+02  0.45594000000E+02  0.51100000000E-03 0.  1.
         11   -1    0    0    0    0 -0.00000000000E+00 -0.00000000000E+00 -0.45593999997E+02  0.45594000000E+02  0.51100000000E-03 0. -1.
    9900012    2    1    2    0    0 -0.57124320379E+00  0.99742403682E+00 -0.26805555499E+00  0.90007734230E+02  0.89999995522E+02 0.  0.
        -12    1    1    2    0    0  0.57124320379E+00 -0.99742403682E+00  0.26805555499E+00  0.11802657699E+01  0.00000000000E+00 0.  1.
         11    1    3    3    0    0  0.14968232642E+01 -0.37178185129E+01  0.86404702236E+01  0.95247246850E+01  0.51100000000E-03 0. -1.
        -11    1    3    3    0    0  0.34446681785E+02  0.17962258210E+02  0.51187335769E+01  0.39184410672E+02  0.51100000000E-03 0.  1.
         12    1    3    3    0    0 -0.36514748253E+02 -0.13247015660E+02 -0.14027259355E+02  0.41298598873E+02  0.00000000000E+00 0. -1.
</event>
<event>
 7    1  0.2349719E-015  0.9000781E+02  0.7816164E-02  0.1186339E+00
        -11   -1    0    0    0    0  0.00000000000E+00  0.00000000000E+00  0.45593999997E+02  0.45594000000E+02  0.51100000000E-03 0.  1.
         11   -1    0    0    0    0 -0.00000000000E+00 -0.00000000000E+00 -0.45593999997E+02  0.45594000000E+02  0.51100000000E-03 0. -1.
    9900012    2    1    2    0    0  0.11258568414E+01 -0.27718425139E+00 -0.22016778915E+00  0.90007805697E+02  0.90000067933E+02 0.  0.
        -12    1    1    2    0    0 -0.11258568414E+01  0.27718425139E+00  0.22016778915E+00  0.11801943026E+01  0.00000000000E+00 0.  1.
         11    1    3    3    0    0 -0.71197116638E+01 -0.28434776346E+02 -0.25975197101E+02  0.39165516270E+02  0.51100000000E-03 0. -1.
        -11    1    3    3    0    0  0.31093074574E+01 -0.71890969033E+01  0.69747850342E+01  0.10488018578E+02  0.51100000000E-03 0.  1.
        -12    1    3    3    0    0  0.51362610478E+01  0.35346688998E+02  0.18780244278E+02  0.40354270849E+02  0.00000000000E+00 0.  1.
</event>
<event>
 7    1  0.2349719E-015  0.9000778E+02  0.7816164E-02  0.1186339E+00
        -11   -1    0    0    0    0  0.00000000000E+00  0.00000000000E+00  0.45593999997E+02  0.45594000000E+02  0.51100000000E-03 0.  1.
         11   -1    0    0    0    0 -0.00000000000E+00 -0.00000000000E+00 -0.45593999997E+02  0.45594000000E+02  0.51100000000E-03 0. -1.
    9900012    2    1    2    0    0  0.11515678844E+00  0.64952271077E+00 -0.97866010051E+00  0.90007781194E+02  0.90000043106E+02 0.  0.
        -12    1    1    2    0    0 -0.11515678844E+00 -0.64952271077E+00  0.97866010051E+00  0.11802188060E+01  0.00000000000E+00 0.  1.
         11    1    3    3    0    0 -0.29026972129E+02 -0.15395665147E+02 -0.17507375908E+02  0.37230361638E+02  0.51100000000E-03 0. -1.
        -11    1    3    3    0    0  0.25153852474E+01 -0.76754792591E+01 -0.64657533298E+01  0.10346309061E+02  0.51100000000E-03 0.  1.
        -12    1    3    3    0    0  0.26626743670E+02  0.23720667117E+02  0.22994469137E+02  0.42431110495E+02  0.00000000000E+00 0.  1.
</event>
<event>
 7    1  0.2349719E-015  0.9000771E+02  0.7816164E-02  0.1186339E+00
        -11   -1    0    0    0    0  0.00000000000E+00  0.00000000000E+00  0.45593999997E+02  0.45594000000E+02  0.51100000000E-03 0. -1.
         11   -1    0    0    0    0 -0.00000000000E+00 -0.00000000000E+00 -0.45593999997E+02  0.45594000000E+02  0.51100000000E-03 0.  1.
    9900012    2    1    2    0    0  0.85062048078E-01  0.11584348621E+01 -0.20947627991E+00  0.90007708852E+02  0.89999969809E+02 0.  0.
        -12    1    1    2    0    0 -0.85062048078E-01 -0.11584348621E+01  0.20947627991E+00  0.11802911478E+01  0.00000000000E+00 0.  1.
         11    1    3    3    0    0 -0.21882419309E+02  0.36443849874E+02 -0.64500572312E-01  0.42508806488E+02  0.51100000000E-03 0. -1.
        -11    1    3    3    0    0  0.60185520915E+01  0.24399829709E+01  0.70023674355E+00  0.65319842264E+01  0.51100000000E-03 0.  1.
        -12    1    3    3    0    0  0.15948929265E+02 -0.37725397983E+02 -0.84521245115E+00  0.40966918138E+02  0.00000000000E+00 0.  1.
</event>
<event>
 7    1  0.2349719E-015  0.9000769E+02  0.7816164E-02  0.1186339E+00
        -11   -1    0    0    0    0  0.00000000000E+00  0.00000000000E+00  0.45593999997E+02  0.45594000000E+02  0.51100000000E-03 0.  1.
         11   -1    0    0    0    0 -0.00000000000E+00 -0.00000000000E+00 -0.45593999997E+02  0.45594000000E+02  0.51100000000E-03 0. -1.
    9900012    2    1    2    0    0 -0.75974873229E+00  0.50429233981E+00 -0.74940054396E+00  0.90007690687E+02  0.89999951404E+02 0.  0.
        -12    1    1    2    0    0  0.75974873229E+00 -0.50429233981E+00  0.74940054396E+00  0.11803093135E+01  0.00000000000E+00 0.  1.
         11    1    3    3    0    0  0.15520673872E+02  0.27129096039E+02 -0.23358669933E+02  0.39019310996E+02  0.51100000000E-03 0. -1.
        -11    1    3    3    0    0  0.91901536527E+01 -0.79970735207E+00  0.27030849456E+01  0.96127584227E+01  0.51100000000E-03 0.  1.
        -12    1    3    3    0    0 -0.25470576257E+02 -0.25825096347E+02  0.19906184443E+02  0.41375621268E+02  0.00000000000E+00 0.  1.
</event>
<event>
 7    1  0.2349719E-015  0.9000780E+02  0.7816164E-02  0.1186339E+00
        -11   -1    0    0    0    0  0.00000000000E+00  0.00000000000E+00  0.45593999997E+02  0.45594000000E+02  0.51100000000E-03 0. -1.
         11   -1    0    0    0    0 -0.00000000000E+00 -0.00000000000E+00 -0.45593999997E+02  0.45594000000E+02  0.51100000000E-03 0.  1.
    9900012    2    1    2    0    0 -0.49667983041E+00 -0.28500186159E+00  0.10319651122E+01  0.90007801327E+02  0.90000063504E+02 0.  0.
        -12    1    1    2    0    0  0.49667983041E+00  0.28500186159E+00 -0.10319651122E+01  0.11801986731E+01  0.00000000000E+00 0.  1.
         11    1    3    3    0    0  0.13571342494E+02  0.14254020223E+02  0.24028748619E+02  0.31060250966E+02  0.51100000000E-03 0. -1.
        -11    1    3    3    0    0  0.46233562448E+01  0.16152899820E+02 -0.14082744314E+02  0.21922939658E+02  0.51100000000E-03 0.  1.
        -12    1    3    3    0    0 -0.18691378569E+02 -0.30691921904E+02 -0.89140391931E+01  0.37024610703E+02  0.00000000000E+00 0.  1.
</event>
<event>
 7    1  0.2349719E-015  0.9000773E+02  0.7816164E-02  0.1186339E+00
        -11   -1    0    0    0    0  0.00000000000E+00  0.00000000000E+00  0.45593999997E+02  0.45594000000E+02  0.51100000000E-03 0.  1.
         11   -1    0    0    0    0 -0.00000000000E+00 -0.00000000000E+00 -0.45593999997E+02  0.45594000000E+02  0.51100000000E-03 0. -1.
    9900012    2    1    2    0    0 -0.99287339215E+00 -0.36972973724E+00 -0.52012678678E+00  0.90007733282E+02  0.89999994561E+02 0.  0.
        -12    1    1    2    0    0  0.99287339215E+00  0.36972973724E+00  0.52012678678E+00  0.11802667181E+01  0.00000000000E+00 0.  1.
         11    1    3    3    0    0  0.23719902019E+01 -0.62510481488E+01  0.81121928543E+01  0.10512355285E+02  0.51100000000E-03 0. -1.
        -11    1    3    3    0    0  0.10597650494E+01 -0.35255169303E+02  0.56604801270E+01  0.35722417332E+02  0.51100000000E-03 0.  1.
         12    1    3    3    0    0 -0.44246286434E+01  0.41136487714E+02 -0.14292799768E+02  0.43772960664E+02  0.00000000000E+00 0. -1.
</event>
<event>
 7    1  0.2349719E-015  0.9000773E+02  0.7816164E-02  0.1186339E+00
        -11   -1    0    0    0    0  0.00000000000E+00  0.00000000000E+00  0.45593999997E+02  0.45594000000E+02  0.51100000000E-03 0.  1.
         11   -1    0    0    0    0 -0.00000000000E+00 -0.00000000000E+00 -0.45593999997E+02  0.45594000000E+02  0.51100000000E-03 0. -1.
    9900012    2    1    2    0    0 -0.27261658161E+00  0.95198902773E-01 -0.11443993383E+01  0.90007732032E+02  0.89999993294E+02 0.  0.
        -12    1    1    2    0    0  0.27261658161E+00 -0.95198902773E-01  0.11443993383E+01  0.11802679684E+01  0.00000000000E+00 0.  1.
         11    1    3    3    0    0  0.18667814817E+02 -0.21133179765E+02  0.24692479498E+02  0.37480890345E+02  0.51100000000E-03 0. -1.
        -11    1    3    3    0    0 -0.91438996795E+01 -0.21592377821E+01  0.65068335427E+01  0.11428564746E+02  0.51100000000E-03 0.  1.
        -12    1    3    3    0    0 -0.97965317196E+01  0.23387616450E+02 -0.32343712379E+02  0.41098276940E+02  0.00000000000E+00 0.  1.
</event>
<event>
 7    1  0.2349719E-015  0.9000722E+02  0.7816164E-02  0.1186340E+00
        -11   -1    0    0    0    0  0.00000000000E+00  0.00000000000E+00  0.45593999997E+02  0.45594000000E+02  0.51100000000E-03 0.  1.
         11   -1    0    0    0    0 -0.00000000000E+00 -0.00000000000E+00 -0.45593999997E+02  0.45594000000E+02  0.51100000000E-03 0. -1.
    9900012    2    1    2    0    0 -0.44378466926E+00 -0.78127338251E+00 -0.76610715868E+00  0.90007215045E+02  0.89999469482E+02 0.  0.
        -12    1    1    2    0    0  0.44378466926E+00  0.78127338251E+00  0.76610715868E+00  0.11807849548E+01  0.00000000000E+00 0.  1.
         11    1    3    3    0    0  0.89245611661E+01 -0.22882775646E+01  0.38322582147E+01  0.99784873355E+01  0.51100000000E-03 0. -1.
        -11    1    3    3    0    0  0.20076850400E+02  0.14799388410E+02  0.25646021563E+02  0.35774575351E+02  0.51100000000E-03 0.  1.
         12    1    3    3    0    0 -0.29445196235E+02 -0.13292384227E+02 -0.30244386937E+02  0.44254152358E+02  0.00000000000E+00 0. -1.
</event>
<event>
 7    1  0.2349719E-015  0.9000775E+02  0.7816164E-02  0.1186339E+00
        -11   -1    0    0    0    0  0.00000000000E+00  0.00000000000E+00  0.45593999997E+02  0.45594000000E+02  0.51100000000E-03 0.  1.
         11   -1    0    0    0    0 -0.00000000000E+00 -0.00000000000E+00 -0.45593999997E+02  0.45594000000E+02  0.51100000000E-03 0. -1.
    9900012    2    1    2    0    0  0.53641510153E+00  0.10513103442E+01 -0.26261912741E-02  0.90007745156E+02  0.90000006592E+02 0.  0.
        -12    1    1    2    0    0 -0.53641510153E+00 -0.10513103442E+01  0.26261912741E-02  0.11802548445E+01  0.00000000000E+00 0.  1.
         11    1    3    3    0    0 -0.23207810940E+01 -0.10341063446E+02  0.10600870361E+02  0.14990065735E+02  0.51100000000E-03 0. -1.
        -11    1    3    3    0    0 -0.47750361134E+01 -0.30213718580E+02 -0.11576817381E+02  0.32706153263E+02  0.51100000000E-03 0.  1.
         12    1    3    3    0    0  0.76322323090E+01  0.41606092370E+02  0.97332082880E+00  0.42311526158E+02  0.00000000000E+00 0. -1.
</event>
<event>
 7    1  0.2349719E-015  0.9000788E+02  0.7816164E-02  0.1186339E+00
        -11   -1    0    0    0    0  0.00000000000E+00  0.00000000000E+00  0.45593999997E+02  0.45594000000E+02  0.51100000000E-03 0. -1.
         11   -1    0    0    0    0 -0.00000000000E+00 -0.00000000000E+00 -0.45593999997E+02  0.45594000000E+02  0.51100000000E-03 0.  1.
    9900012    2    1    2    0    0  0.18826835732E+00  0.36121767770E+00  0.11075911504E+01  0.90007880794E+02  0.90000144020E+02 0.  0.
        -12    1    1    2    0    0 -0.18826835732E+00 -0.36121767770E+00 -0.11075911504E+01  0.11801192065E+01  0.00000000000E+00 0.  1.
         11    1    3    3    0    0 -0.28129420582E+02  0.56854963197E+01  0.31685601862E+02  0.42750047208E+02  0.51100000000E-03 0. -1.
        -11    1    3    3    0    0 -0.33034199398E+01 -0.14531121425E+01 -0.60798532234E+01  0.70702711176E+01  0.51100000000E-03 0.  1.
        -12    1    3    3    0    0  0.31621108879E+02 -0.38711664995E+01 -0.24498157488E+02  0.40187562468E+02  0.00000000000E+00 0.  1.
</event>
<event>
 7    1  0.2349719E-015  0.9000771E+02  0.7816164E-02  0.1186339E+00
        -11   -1    0    0    0    0  0.00000000000E+00  0.00000000000E+00  0.45593999997E+02  0.45594000000E+02  0.51100000000E-03 0.  1.
         11   -1    0    0    0    0 -0.00000000000E+00 -0.00000000000E+00 -0.45593999997E+02  0.45594000000E+02  0.51100000000E-03 0. -1.
    9900012    2    1    2    0    0 -0.68527508319E+00 -0.20993418063E+00 -0.93776791771E+00  0.90007710643E+02  0.89999971623E+02 0.  0.
        -12    1    1    2    0    0  0.68527508319E+00  0.20993418063E+00  0.93776791771E+00  0.11802893575E+01  0.00000000000E+00 0.  1.
         11    1    3    3    0    0 -0.29558655163E+01  0.91240359167E+01  0.23933069163E+01  0.98849932026E+01  0.51100000000E-03 0. -1.
        -11    1    3    3    0    0 -0.28031098640E+02  0.12696809444E+02  0.19328353481E+02  0.36339189721E+02  0.51100000000E-03 0.  1.
         12    1    3    3    0    0  0.30301689073E+02 -0.22030779542E+02 -0.22659428315E+02  0.43783527719E+02  0.00000000000E+00 0. -1.
</event>
<event>
 7    1  0.2349719E-015  0.9000775E+02  0.7816164E-02  0.1186339E+00
        -11   -1    0    0    0    0  0.00000000000E+00  0.00000000000E+00  0.45593999997E+02  0.45594000000E+02  0.51100000000E-03 0.  1.
         11   -1    0    0    0    0 -0.00000000000E+00 -0.00000000000E+00 -0.45593999997E+02  0.45594000000E+02  0.51100000000E-03 0. -1.
    9900012    2    1    2    0    0 -0.78188473013E+00 -0.30205135043E+00 -0.83090610174E+00  0.90007752696E+02  0.90000014231E+02 0.  0.
        -12    1    1    2    0    0  0.78188473013E+00  0.30205135043E+00  0.83090610174E+00  0.11802473043E+01  0.00000000000E+00 0.  1.
         11    1    3    3    0    0 -0.17433769418E+01 -0.17112496236E+02 -0.33775138183E+02  0.37902992628E+02  0.51100000000E-03 0. -1.
        -11    1    3    3    0    0  0.40875166625E+01 -0.93872652537E+01  0.45028958727E+00  0.10248478052E+02  0.51100000000E-03 0.  1.
        -12    1    3    3    0    0 -0.31260244508E+01  0.26197710139E+02  0.32493942494E+02  0.41856282016E+02  0.00000000000E+00 0.  1.
</event>
<event>
 7    1  0.2349719E-015  0.9000784E+02  0.7816164E-02  0.1186339E+00
        -11   -1    0    0    0    0  0.00000000000E+00  0.00000000000E+00  0.45593999997E+02  0.45594000000E+02  0.51100000000E-03 0. -1.
         11   -1    0    0    0    0 -0.00000000000E+00 -0.00000000000E+00 -0.45593999997E+02  0.45594000000E+02  0.51100000000E-03 0.  1.
    9900012    2    1    2    0    0  0.33245528814E-01 -0.10264755117E+01  0.58139683081E+00  0.90007839199E+02  0.90000101876E+02 0.  0.
        -12    1    1    2    0    0 -0.33245528814E-01  0.10264755117E+01 -0.58139683081E+00  0.11801608010E+01  0.00000000000E+00 0.  1.
         11    1    3    3    0    0 -0.42616289974E+01  0.35786031099E+01 -0.78873243177E+01  0.96528631547E+01  0.51100000000E-03 0. -1.
        -11    1    3    3    0    0 -0.28808941729E+01 -0.11042402401E+02 -0.34489447825E+02  0.36328449093E+02  0.51100000000E-03 0.  1.
         12    1    3    3    0    0  0.71757686991E+01  0.64373237792E+01  0.42958168973E+02  0.44026526951E+02  0.00000000000E+00 0. -1.
</event>
<event>
 7    1  0.2349719E-015  0.9000789E+02  0.7816164E-02  0.1186339E+00
        -11   -1    0    0    0    0  0.00000000000E+00  0.00000000000E+00  0.45593999997E+02  0.45594000000E+02  0.51100000000E-03 0. -1.
         11   -1    0    0    0    0 -0.00000000000E+00 -0.00000000000E+00 -0.45593999997E+02  0.45594000000E+02  0.51100000000E-03 0.  1.
    9900012    2    1    2    0    0  0.85753835328E+00 -0.53307356846E+00 -0.61083157565E+00  0.90007892094E+02  0.90000155469E+02 0.  0.
        -12    1    1    2    0    0 -0.85753835328E+00  0.53307356846E+00  0.61083157565E+00  0.11801079063E+01  0.00000000000E+00 0.  1.
         11    1    3    3    0    0 -0.33020653724E+02  0.51180108735E+01 -0.16182926220E+02  0.37127411827E+02  0.51100000000E-03 0. -1.
        -11    1    3    3    0    0  0.21993664850E+01 -0.16378811073E+01 -0.11001188417E+02  0.11337813471E+02  0.51100000000E-03 0.  1.
        -12    1    3    3    0    0  0.31678825592E+02 -0.40132033346E+01  0.26573283061E+02  0.41542666796E+02  0.00000000000E+00 0.  1.
</event>
<event>
 7    1  0.2349719E-015  0.9000775E+02  0.7816164E-02  0.1186339E+00
        -11   -1    0    0    0    0  0.00000000000E+00  0.00000000000E+00  0.45593999997E+02  0.45594000000E+02  0.51100000000E-03 0.  1.
         11   -1    0    0    0    0 -0.00000000000E+00 -0.00000000000E+00 -0.45593999997E+02  0.45594000000E+02  0.51100000000E-03 0. -1.
    9900012    2    1    2    0    0 -0.55092458031E+00  0.87856153611E+00  0.56355948551E+00  0.90007751060E+02  0.90000012574E+02 0.  0.
        -12    1    1    2    0    0  0.55092458031E+00 -0.87856153611E+00 -0.56355948551E+00  0.11802489397E+01  0.00000000000E+00 0.  1.
         11    1    3    3    0    0 -0.50000237378E+01  0.43131774066E+00  0.85088587959E+01  0.98786107648E+01  0.51100000000E-03 0. -1.
        -11    1    3    3    0    0  0.21803839871E+02 -0.12656852337E+02  0.28274775414E+02  0.37882268533E+02  0.51100000000E-03 0.  1.
         12    1    3    3    0    0 -0.17354740714E+02  0.13104096133E+02 -0.36220074724E+02  0.42246871763E+02  0.00000000000E+00 0. -1.
</event>
<event>
 7    1  0.2349719E-015  0.9000739E+02  0.7816164E-02  0.1186340E+00
        -11   -1    0    0    0    0  0.00000000000E+00  0.00000000000E+00  0.45593999997E+02  0.45594000000E+02  0.51100000000E-03 0.  1.
         11   -1    0    0    0    0 -0.00000000000E+00 -0.00000000000E+00 -0.45593999997E+02  0.45594000000E+02  0.51100000000E-03 0. -1.
    9900012    2    1    2    0    0  0.29196548566E-01 -0.14948078289E+00 -0.11707400264E+01  0.90007394582E+02  0.89999651390E+02 0.  0.
        -12    1    1    2    0    0 -0.29196548566E-01  0.14948078289E+00  0.11707400264E+01  0.11806054177E+01  0.00000000000E+00 0.  1.
         11    1    3    3    0    0 -0.83952126567E+01  0.20548409908E+02  0.45736060382E+01  0.22663508505E+02  0.51100000000E-03 0. -1.
        -11    1    3    3    0    0  0.74750468009E+01  0.64743750026E+01  0.24652214452E+02  0.26561730628E+02  0.51100000000E-03 0.  1.
         12    1    3    3    0    0  0.94936240427E+00 -0.27172265693E+02 -0.30396560516E+02  0.40782155449E+02  0.00000000000E+00 0. -1.
</event>
<event>
 7    1  0.2349719E-015  0.9000770E+02  0.7816164E-02  0.1186339E+00
        -11   -1    0    0    0    0  0.00000000000E+00  0.00000000000E+00  0.45593999997E+02  0.45594000000E+02  0.51100000000E-03 0.  1.
         11   -1    0    0    0    0 -0.00000000000E+00 -0.00000000000E+00 -0.45593999997E+02  0.45594000000E+02  0.51100000000E-03 0. -1.
    9900012    2    1    2    0    0  0.11186052570E+01 -0.20051015968E+00  0.31880623526E+00  0.90007695183E+02  0.89999955959E+02 0.  0.
        -12    1    1    2    0    0 -0.11186052570E+01  0.20051015968E+00 -0.31880623526E+00  0.11803048169E+01  0.00000000000E+00 0.  1.
         11    1    3    3    0    0 -0.19463398291E+01 -0.10750386360E+01 -0.10285592661E+02  0.10523182192E+02  0.51100000000E-03 0. -1.
        -11    1    3    3    0    0  0.11109155154E+02 -0.24405441056E+02  0.34558209601E+02  0.43741384666E+02  0.51100000000E-03 0.  1.
         12    1    3    3    0    0 -0.80442100674E+01  0.25279969533E+02 -0.23953810705E+02  0.35743128325E+02  0.00000000000E+00 0. -1.
</event>
<event>
 7    1  0.2349719E-015  0.9000771E+02  0.7816164E-02  0.1186339E+00
        -11   -1    0    0    0    0  0.00000000000E+00  0.00000000000E+00  0.45593999997E+02  0.45594000000E+02  0.51100000000E-03 0. -1.
         11   -1    0    0    0    0 -0.00000000000E+00 -0.00000000000E+00 -0.45593999997E+02  0.45594000000E+02  0.51100000000E-03 0.  1.
    9900012    2    1    2    0    0  0.97478728658E+00 -0.58632466724E+00  0.31481234688E+00  0.90007706103E+02  0.89999967024E+02 0.  0.
        -12    1    1    2    0    0 -0.97478728658E+00  0.58632466724E+00 -0.31481234688E+00  0.11802938970E+01  0.00000000000E+00 0.  1.
         11    1    3    3    0    0 -0.42080066384E+02  0.81032731190E+00  0.44382231939E+00  0.42090207837E+02  0.51100000000E-03 0. -1.
        -11    1    3    3    0    0  0.69838631800E+01 -0.63488594481E+01 -0.57869049320E+01  0.11071162096E+02  0.51100000000E-03 0.  1.
        -12    1    3    3    0    0  0.36070990490E+02  0.49522074690E+01  0.56578949595E+01  0.36846336170E+02  0.00000000000E+00 0.  1.
</event>
<event>
 7    1  0.2349719E-015  0.9000782E+02  0.7816164E-02  0.1186339E+00
        -11   -1    0    0    0    0  0.00000000000E+00  0.00000000000E+00  0.45593999997E+02  0.45594000000E+02  0.51100000000E-03 0. -1.
         11   -1    0    0    0    0 -0.00000000000E+00 -0.00000000000E+00 -0.45593999997E+02  0.45594000000E+02  0.51100000000E-03 0.  1.
    9900012    2    1    2    0    0 -0.63953715723E+00 -0.80369043079E-02 -0.99184671633E+00  0.90007816846E+02  0.90000079229E+02 0.  0.
        -12    1    1    2    0    0  0.63953715723E+00  0.80369043079E-02  0.99184671633E+00  0.11801831536E+01  0.00000000000E+00 0.  1.
         11    1    3    3    0    0 -0.11250940193E+02 -0.16375581490E+02  0.35939681544E+02  0.41065849974E+02  0.51100000000E-03 0. -1.
        -11    1    3    3    0    0  0.10328101483E+02 -0.24322163298E+01 -0.46514833557E+01  0.11585406949E+02  0.51100000000E-03 0.  1.
        -12    1    3    3    0    0  0.28330155350E+00  0.18799760915E+02 -0.32280044905E+02  0.37356559923E+02  0.00000000000E+00 0.  1.
</event>
<event>
 7    1  0.2349719E-015  0.9000775E+02  0.7816164E-02  0.1186339E+00
        -11   -1    0    0    0    0  0.00000000000E+00  0.00000000000E+00  0.45593999997E+02  0.45594000000E+02  0.51100000000E-03 0.  1.
         11   -1    0    0    0    0 -0.00000000000E+00 -0.00000000000E+00 -0.45593999997E+02  0.45594000000E+02  0.51100000000E-03 0. -1.
    9900012    2    1    2    0    0 -0.51117714389E+00 -0.87456407212E+00  0.60566472702E+00  0.90007748268E+02  0.90000009745E+02 0.  0.
        -12    1    1    2    0    0  0.51117714389E+00  0.87456407212E+00 -0.60566472702E+00  0.11802517317E+01  0.00000000000E+00 0.  1.
         11    1    3    3    0    0 -0.19801218962E+02 -0.21375961108E+02 -0.19147978674E+02  0.34866388876E+02  0.51100000000E-03 0. -1.
        -11    1    3    3    0    0 -0.10403206899E+02  0.35955663964E+00 -0.50029395960E+01  0.11549259700E+02  0.51100000000E-03 0.  1.
        -12    1    3    3    0    0  0.29693248717E+02  0.20141840396E+02  0.24756582997E+02  0.43592099693E+02  0.00000000000E+00 0.  1.
</event>
<event>
 7    1  0.2349719E-015  0.9000781E+02  0.7816164E-02  0.1186339E+00
        -11   -1    0    0    0    0  0.00000000000E+00  0.00000000000E+00  0.45593999997E+02  0.45594000000E+02  0.51100000000E-03 0. -1.
         11   -1    0    0    0    0 -0.00000000000E+00 -0.00000000000E+00 -0.45593999997E+02  0.45594000000E+02  0.51100000000E-03 0.  1.
    9900012    2    1    2    0    0  0.48224619437E+00  0.47153062067E+00  0.96847479943E+00  0.90007811051E+02  0.90000073357E+02 0.  0.
        -12    1    1    2    0    0 -0.48224619437E+00 -0.47153062067E+00 -0.96847479943E+00  0.11801889490E+01  0.00000000000E+00 0.  1.
         11    1    3    3    0    0  0.32340263288E+02  0.11557956035E+02  0.17580638527E+02  0.38581832882E+02  0.51100000000E-03 0. -1.
        -11    1    3    3    0    0 -0.32538910971E+01  0.10366731025E+02  0.21058803423E+01  0.11067594666E+02  0.51100000000E-03 0.  1.
        -12    1    3    3    0    0 -0.28604125997E+02 -0.21453156439E+02 -0.18718044070E+02  0.40358383503E+02  0.00000000000E+00 0.  1.
</event>
<event>
 7    1  0.2349719E-015  0.9000771E+02  0.7816164E-02  0.1186339E+00
        -11   -1    0    0    0    0  0.00000000000E+00  0.00000000000E+00  0.45593999997E+02  0.45594000000E+02  0.51100000000E-03 0.  1.
         11   -1    0    0    0    0 -0.00000000000E+00 -0.00000000000E+00 -0.45593999997E+02  0.45594000000E+02  0.51100000000E-03 0. -1.
    9900012    2    1    2    0    0  0.83299315366E+00  0.79974552137E+00  0.24415480658E+00  0.90007711026E+02  0.89999972011E+02 0.  0.
        -12    1    1    2    0    0 -0.83299315366E+00 -0.79974552137E+00 -0.24415480658E+00  0.11802889742E+01  0.00000000000E+00 0.  1.
         11    1    3    3    0    0  0.20527990099E+01  0.51297041216E+01 -0.90760757458E+01  0.10625582307E+02  0.51100000000E-03 0. -1.
        -11    1    3    3    0    0  0.34530508855E+02 -0.11748195198E+02  0.19658742904E+02  0.41434795825E+02  0.51100000000E-03 0.  1.
         12    1    3    3    0    0 -0.35750314711E+02  0.74182365976E+01 -0.10338512352E+02  0.37947332895E+02  0.00000000000E+00 0. -1.
</event>
<event>
 7    1  0.2349719E-015  0.9000760E+02  0.7816164E-02  0.1186339E+00
        -11   -1    0    0    0    0  0.00000000000E+00  0.00000000000E+00  0.45593999997E+02  0.45594000000E+02  0.51100000000E-03 0.  1.
         11   -1    0    0    0    0 -0.00000000000E+00 -0.00000000000E+00 -0.45593999997E+02  0.45594000000E+02  0.51100000000E-03 0. -1.
    9900012    2    1    2    0    0 -0.10772463313E+01  0.19408535207E+00 -0.44183759899E+00  0.90007597846E+02  0.89999857337E+02 0.  0.
        -12    1    1    2    0    0  0.10772463313E+01 -0.19408535207E+00  0.44183759899E+00  0.11804021543E+01  0.00000000000E+00 0.  1.
         11    1    3    3    0    0  0.11952431976E+02  0.34244820807E+02  0.72431945991E+01  0.36986919992E+02  0.51100000000E-03 0. -1.
        -11    1    3    3    0    0  0.67973825836E+01  0.40475994309E+01 -0.61914342863E+01  0.10045960876E+02  0.51100000000E-03 0.  1.
        -12    1    3    3    0    0 -0.19827060890E+02 -0.38098334885E+02 -0.14935979117E+01  0.42974716978E+02  0.00000000000E+00 0.  1.
</event>
<event>
 7    1  0.2349719E-015  0.9000782E+02  0.7816164E-02  0.1186339E+00
        -11   -1    0    0    0    0  0.00000000000E+00  0.00000000000E+00  0.45593999997E+02  0.45594000000E+02  0.51100000000E-03 0. -1.
         11   -1    0    0    0    0 -0.00000000000E+00 -0.00000000000E+00 -0.45593999997E+02  0.45594000000E+02  0.51100000000E-03 0.  1.
    9900012    2    1    2    0    0 -0.88020722481E+00 -0.72883870776E+00  0.29470955157E+00  0.90007820208E+02  0.90000082635E+02 0.  0.
        -12    1    1    2    0    0  0.88020722481E+00  0.72883870776E+00 -0.29470955157E+00  0.11801797915E+01  0.00000000000E+00 0.  1.
         11    1    3    3    0    0  0.42334579442E+01  0.57959861558E+01 -0.55010394307E+01  0.90430667787E+01  0.51100000000E-03 0. -1.
        -11    1    3    3    0    0 -0.28657446132E+02  0.13606962320E+02 -0.22593006307E+02  0.38946663229E+02  0.51100000000E-03 0.  1.
         12    1    3    3    0    0  0.23543780963E+02 -0.20131787183E+02  0.28388755290E+02  0.42018090201E+02  0.00000000000E+00 0. -1.
</event>
<event>
 7    1  0.2349719E-015  0.9000770E+02  0.7816164E-02  0.1186339E+00
        -11   -1    0    0    0    0  0.00000000000E+00  0.00000000000E+00  0.45593999997E+02  0.45594000000E+02  0.51100000000E-03 0.  1.
         11   -1    0    0    0    0 -0.00000000000E+00 -0.00000000000E+00 -0.45593999997E+02  0.45594000000E+02  0.51100000000E-03 0. -1.
    9900012    2    1    2    0    0  0.77116782271E+00  0.44633591555E+00 -0.77407942328E+00  0.90007697279E+02  0.89999958083E+02 0.  0.
        -12    1    1    2    0    0 -0.77116782271E+00 -0.44633591555E+00  0.77407942328E+00  0.11803027213E+01  0.00000000000E+00 0.  1.
         11    1    3    3    0    0 -0.91837630741E+01 -0.22933572507E+02 -0.16553536142E+02  0.29737347077E+02  0.51100000000E-03 0. -1.
        -11    1    3    3    0    0  0.41941784184E+00 -0.16793806457E+02  0.59978656641E+01  0.17837663508E+02  0.51100000000E-03 0.  1.
        -12    1    3    3    0    0  0.95355130550E+01  0.40173714879E+02  0.97815910548E+01  0.42432686693E+02  0.00000000000E+00 0.  1.
</event>
<event>
 7    1  0.2349719E-015  0.9000789E+02  0.7816164E-02  0.1186339E+00
        -11   -1    0    0    0    0  0.00000000000E+00  0.00000000000E+00  0.45593999997E+02  0.45594000000E+02  0.51100000000E-03 0.  1.
         11   -1    0    0    0    0 -0.00000000000E+00 -0.00000000000E+00 -0.45593999997E+02  0.45594000000E+02  0.51100000000E-03 0. -1.
    9900012    2    1    2    0    0  0.55081935742E+00  0.99471133662E+00  0.31593575431E+00  0.90007886443E+02  0.90000149743E+02 0.  0.
        -12    1    1    2    0    0 -0.55081935742E+00 -0.99471133662E+00 -0.31593575431E+00  0.11801135575E+01  0.00000000000E+00 0.  1.
         11    1    3    3    0    0 -0.67743812241E+01 -0.72594675761E+01 -0.14785401579E+01  0.10038834181E+02  0.51100000000E-03 0. -1.
        -11    1    3    3    0    0  0.14748320377E+02 -0.28926263320E+02 -0.18077909384E+02  0.37162514333E+02  0.51100000000E-03 0.  1.
         12    1    3    3    0    0 -0.74231197956E+01  0.37180442232E+02  0.19872385296E+02  0.42806537929E+02  0.00000000000E+00 0. -1.
</event>
<event>
 7    1  0.2349719E-015  0.9000817E+02  0.7816164E-02  0.1186338E+00
        -11   -1    0    0    0    0  0.00000000000E+00  0.00000000000E+00  0.45593999997E+02  0.45594000000E+02  0.51100000000E-03 0.  1.
         11   -1    0    0    0    0 -0.00000000000E+00 -0.00000000000E+00 -0.45593999997E+02  0.45594000000E+02  0.51100000000E-03 0. -1.
    9900012    2    1    2    0    0 -0.71391849729E-01  0.37053103547E+00  0.11178583606E+01  0.90008170623E+02  0.90000437674E+02 0.  0.
        -12    1    1    2    0    0  0.71391849729E-01 -0.37053103547E+00 -0.11178583606E+01  0.11798293770E+01  0.00000000000E+00 0.  1.
         11    1    3    3    0    0  0.10186536604E+02  0.21477046516E+01  0.21362321671E+01  0.10627400970E+02  0.51100000000E-03 0. -1.
        -11    1    3    3    0    0  0.26150580209E+02 -0.18403665372E+02 -0.17080218859E+02  0.36253022232E+02  0.51100000000E-03 0.  1.
         12    1    3    3    0    0 -0.36408508662E+02  0.16626491756E+02  0.16061845053E+02  0.43127747421E+02  0.00000000000E+00 0. -1.
</event>
<event>
 7    1  0.2349719E-015  0.9000779E+02  0.7816164E-02  0.1186339E+00
        -11   -1    0    0    0    0  0.00000000000E+00  0.00000000000E+00  0.45593999997E+02  0.45594000000E+02  0.51100000000E-03 0. -1.
         11   -1    0    0    0    0 -0.00000000000E+00 -0.00000000000E+00 -0.45593999997E+02  0.45594000000E+02  0.51100000000E-03 0.  1.
    9900012    2    1    2    0    0  0.87985162059E+00 -0.78425579524E+00  0.60779163006E-01  0.90007792335E+02  0.90000054393E+02 0.  0.
        -12    1    1    2    0    0 -0.87985162059E+00  0.78425579524E+00 -0.60779163006E-01  0.11802076653E+01  0.00000000000E+00 0.  1.
         11    1    3    3    0    0  0.77373492975E+01  0.52400741499E+01 -0.34489744326E+01  0.99609425330E+01  0.51100000000E-03 0. -1.
        -11    1    3    3    0    0  0.33681524354E+01  0.76676668203E+01 -0.36020309274E+02  0.36981079564E+02  0.51100000000E-03 0.  1.
         12    1    3    3    0    0 -0.10225650112E+02 -0.13691996766E+02  0.39530062870E+02  0.43065770237E+02  0.00000000000E+00 0. -1.
</event>
<event>
 7    1  0.2349719E-015  0.9000770E+02  0.7816164E-02  0.1186339E+00
        -11   -1    0    0    0    0  0.00000000000E+00  0.00000000000E+00  0.45593999997E+02  0.45594000000E+02  0.51100000000E-03 0. -1.
         11   -1    0    0    0    0 -0.00000000000E+00 -0.00000000000E+00 -0.45593999997E+02  0.45594000000E+02  0.51100000000E-03 0.  1.
    9900012    2    1    2    0    0 -0.59718178669E+00  0.10148593527E+01  0.80840140895E-01  0.90007703122E+02  0.89999964003E+02 0.  0.
        -12    1    1    2    0    0  0.59718178669E+00 -0.10148593527E+01 -0.80840140895E-01  0.11802968782E+01  0.00000000000E+00 0.  1.
         11    1    3    3    0    0  0.24945968536E+02  0.27591671328E+02  0.14470084238E+02  0.39912216313E+02  0.51100000000E-03 0. -1.
        -11    1    3    3    0    0  0.22528053503E+00 -0.63142248601E+01  0.81509560582E+01  0.10313014682E+02  0.51100000000E-03 0.  1.
        -12    1    3    3    0    0 -0.25768430858E+02 -0.20262587116E+02 -0.22540200155E+02  0.39782472127E+02  0.00000000000E+00 0.  1.
</event>
<event>
 7    1  0.2349719E-015  0.9000772E+02  0.7816164E-02  0.1186339E+00
        -11   -1    0    0    0    0  0.00000000000E+00  0.00000000000E+00  0.45593999997E+02  0.45594000000E+02  0.51100000000E-03 0. -1.
         11   -1    0    0    0    0 -0.00000000000E+00 -0.00000000000E+00 -0.45593999997E+02  0.45594000000E+02  0.51100000000E-03 0.  1.
    9900012    2    1    2    0    0 -0.69457173963E+00  0.23469930081E+00  0.92495190407E+00  0.90007724741E+02  0.89999985907E+02 0.  0.
        -12    1    1    2    0    0  0.69457173963E+00 -0.23469930081E+00 -0.92495190407E+00  0.11802752595E+01  0.00000000000E+00 0.  1.
         11    1    3    3    0    0 -0.50979501203E+01  0.60809772499E+01  0.48543196470E+01  0.93022469995E+01  0.51100000000E-03 0. -1.
        -11    1    3    3    0    0 -0.17813638921E+01  0.27356193244E+02 -0.28035578049E+02  0.39211327483E+02  0.51100000000E-03 0.  1.
         12    1    3    3    0    0  0.61847422727E+01 -0.33202471193E+02  0.24106210307E+02  0.41494150258E+02  0.00000000000E+00 0. -1.
</event>
<event>
 7    1  0.3177336E-015  0.9000764E+02  0.7816164E-02  0.1186339E+00
        -11   -1    0    0    0    0  0.00000000000E+00  0.00000000000E+00  0.45593999997E+02  0.45594000000E+02  0.51100000000E-03 0.  1.
         11   -1    0    0    0    0 -0.00000000000E+00 -0.00000000000E+00 -0.45593999997E+02  0.45594000000E+02  0.51100000000E-03 0. -1.
    9900012    2    1    2    0    0 -0.62148616749E-01  0.85367248295E+00 -0.81279592351E+00  0.90007637186E+02  0.89999897197E+02 0.  0.
        -12    1    1    2    0    0  0.62148616749E-01 -0.85367248295E+00  0.81279592351E+00  0.11803628137E+01  0.00000000000E+00 0.  1.
         11    1    3    3    0    0  0.14946428341E+02  0.89252311281E+01 -0.34317593782E+02  0.38480549816E+02  0.51100000000E-03 0. -1.
        -11    1    3    3    0    0 -0.16746675046E+01  0.91455067033E+01 -0.23384579003E+01  0.95871366802E+01  0.51100000000E-03 0.  1.
        -12    1    3    3    0    0 -0.13333909453E+02 -0.17217065349E+02  0.35843255759E+02  0.41939950691E+02  0.00000000000E+00 0.  1.
</event>
<event>
 7    1  0.2349719E-015  0.9000776E+02  0.7816164E-02  0.1186339E+00
        -11   -1    0    0    0    0  0.00000000000E+00  0.00000000000E+00  0.45593999997E+02  0.45594000000E+02  0.51100000000E-03 0.  1.
         11   -1    0    0    0    0 -0.00000000000E+00 -0.00000000000E+00 -0.45593999997E+02  0.45594000000E+02  0.51100000000E-03 0. -1.
    9900012    2    1    2    0    0 -0.31122068557E+00 -0.54795681845E+00 -0.99791905243E+00  0.90007763827E+02  0.90000025509E+02 0.  0.
        -12    1    1    2    0    0  0.31122068557E+00  0.54795681845E+00  0.99791905243E+00  0.11802361735E+01  0.00000000000E+00 0.  1.
         11    1    3    3    0    0  0.99429576648E+01 -0.16902664543E+01 -0.96878330300E+01  0.13984760166E+02  0.51100000000E-03 0. -1.
        -11    1    3    3    0    0  0.18982271978E+02  0.30273991279E+01 -0.24896957396E+02  0.31453939066E+02  0.51100000000E-03 0.  1.
         12    1    3    3    0    0 -0.29236450328E+02 -0.18850894921E+01  0.33586871374E+02  0.44569064595E+02  0.00000000000E+00 0. -1.
</event>
<event>
 7    1  0.2349719E-015  0.9000724E+02  0.7816164E-02  0.1186340E+00
        -11   -1    0    0    0    0  0.00000000000E+00  0.00000000000E+00  0.45593999997E+02  0.45594000000E+02  0.51100000000E-03 0.  1.
         11   -1    0    0    0    0 -0.00000000000E+00 -0.00000000000E+00 -0.45593999997E+02  0.45594000000E+02  0.51100000000E-03 0. -1.
    9900012    2    1    2    0    0  0.74050536220E+00 -0.95605320798E-01  0.91471067025E+00  0.90007244234E+02  0.89999499056E+02 0.  0.
        -12    1    1    2    0    0 -0.74050536220E+00  0.95605320798E-01 -0.91471067025E+00  0.11807557661E+01  0.00000000000E+00 0.  1.
         11    1    3    3    0    0  0.39713228409E+01 -0.65911164322E+01  0.64048140282E+01  0.10011786251E+02  0.51100000000E-03 0. -1.
        -11    1    3    3    0    0  0.45311382350E+00 -0.21274593184E+02  0.28742124455E+02  0.35762037774E+02  0.51100000000E-03 0.  1.
         12    1    3    3    0    0 -0.36839313022E+01  0.27770104295E+02 -0.34232227813E+02  0.44233420210E+02  0.00000000000E+00 0. -1.
</event>
<event>
 7    1  0.2349719E-015  0.9000775E+02  0.7816164E-02  0.1186339E+00
        -11   -1    0    0    0    0  0.00000000000E+00  0.00000000000E+00  0.45593999997E+02  0.45594000000E+02  0.51100000000E-03 0. -1.
         11   -1    0    0    0    0 -0.00000000000E+00 -0.00000000000E+00 -0.45593999997E+02  0.45594000000E+02  0.51100000000E-03 0.  1.
    9900012    2    1    2    0    0 -0.77790729537E+00  0.88729017106E+00  0.24036332755E-01  0.90007745217E+02  0.90000006654E+02 0.  0.
        -12    1    1    2    0    0  0.77790729537E+00 -0.88729017106E+00 -0.24036332755E-01  0.11802547831E+01  0.00000000000E+00 0.  1.
         11    1    3    3    0    0  0.35281755045E+01  0.50127990174E+01  0.39011956550E+01  0.72660514848E+01  0.51100000000E-03 0. -1.
        -11    1    3    3    0    0  0.13474636369E+02  0.26415583556E+02 -0.27330448260E+02  0.40327438330E+02  0.51100000000E-03 0.  1.
         12    1    3    3    0    0 -0.17780719169E+02 -0.30541092402E+02  0.23453288938E+02  0.42414255402E+02  0.00000000000E+00 0. -1.
</event>
<event>
 7    1  0.2349719E-015  0.9000770E+02  0.7816164E-02  0.1186339E+00
        -11   -1    0    0    0    0  0.00000000000E+00  0.00000000000E+00  0.45593999997E+02  0.45594000000E+02  0.51100000000E-03 0.  1.
         11   -1    0    0    0    0 -0.00000000000E+00 -0.00000000000E+00 -0.45593999997E+02  0.45594000000E+02  0.51100000000E-03 0. -1.
    9900012    2    1    2    0    0 -0.55944722770E+00 -0.65586670450E+00 -0.80621071332E+00  0.90007695781E+02  0.89999956565E+02 0.  0.
        -12    1    1    2    0    0  0.55944722770E+00  0.65586670450E+00  0.80621071332E+00  0.11803042188E+01  0.00000000000E+00 0.  1.
         11    1    3    3    0    0 -0.71471680188E+01 -0.19051642758E+01 -0.63898604466E+01  0.97745577084E+01  0.51100000000E-03 0. -1.
        -11    1    3    3    0    0  0.28581872782E+02 -0.29262714622E+02  0.10680581375E+02  0.42276527028E+02  0.51100000000E-03 0.  1.
         12    1    3    3    0    0 -0.21994151991E+02  0.30512012193E+02 -0.50969316416E+01  0.37956611045E+02  0.00000000000E+00 0. -1.
</event>
<event>
 7    1  0.2349719E-015  0.9000802E+02  0.7816164E-02  0.1186338E+00
        -11   -1    0    0    0    0  0.00000000000E+00  0.00000000000E+00  0.45593999997E+02  0.45594000000E+02  0.51100000000E-03 0.  1.
         11   -1    0    0    0    0 -0.00000000000E+00 -0.00000000000E+00 -0.45593999997E+02  0.45594000000E+02  0.51100000000E-03 0. -1.
    9900012    2    1    2    0    0 -0.25164714537E+00 -0.10976189106E+01 -0.35251159520E+00  0.90008017804E+02  0.90000282838E+02 0.  0.
        -12    1    1    2    0    0  0.25164714537E+00  0.10976189106E+01  0.35251159520E+00  0.11799821962E+01  0.00000000000E+00 0.  1.
         11    1    3    3    0    0 -0.24764528817E+02  0.85431877380E+01 -0.22748602993E+02  0.34695343818E+02  0.51100000000E-03 0. -1.
        -11    1    3    3    0    0 -0.32377397159E+01  0.17309096501E+01 -0.10306388036E+02  0.10940778825E+02  0.51100000000E-03 0.  1.
        -12    1    3    3    0    0  0.27750621388E+02 -0.11371716299E+02  0.32702479434E+02  0.44371895160E+02  0.00000000000E+00 0.  1.
</event>
<event>
 7    1  0.2349719E-015  0.9000779E+02  0.7816164E-02  0.1186339E+00
        -11   -1    0    0    0    0  0.00000000000E+00  0.00000000000E+00  0.45593999997E+02  0.45594000000E+02  0.51100000000E-03 0.  1.
         11   -1    0    0    0    0 -0.00000000000E+00 -0.00000000000E+00 -0.45593999997E+02  0.45594000000E+02  0.51100000000E-03 0. -1.
    9900012    2    1    2    0    0 -0.97539543802E+00  0.47335406269E+00 -0.46631113142E+00  0.90007785443E+02  0.90000047411E+02 0.  0.
        -12    1    1    2    0    0  0.97539543802E+00 -0.47335406269E+00  0.46631113142E+00  0.11802145570E+01  0.00000000000E+00 0.  1.
         11    1    3    3    0    0 -0.52343285389E+01  0.11154849858E+02 -0.77245343916E+00  0.12346074485E+02  0.51100000000E-03 0. -1.
        -11    1    3    3    0    0 -0.25521614981E+02  0.72244296011E+01  0.23864189699E+02  0.35679752866E+02  0.51100000000E-03 0.  1.
         12    1    3    3    0    0  0.29780548082E+02 -0.17905925396E+02 -0.23558047392E+02  0.41981958092E+02  0.00000000000E+00 0. -1.
</event>
<event>
 7    1  0.2349719E-015  0.9000763E+02  0.7816164E-02  0.1186339E+00
        -11   -1    0    0    0    0  0.00000000000E+00  0.00000000000E+00  0.45593999997E+02  0.45594000000E+02  0.51100000000E-03 0. -1.
         11   -1    0    0    0    0 -0.00000000000E+00 -0.00000000000E+00 -0.45593999997E+02  0.45594000000E+02  0.51100000000E-03 0.  1.
    9900012    2    1    2    0    0 -0.43778353647E+00  0.60449766997E+00  0.91443746094E+00  0.90007632376E+02  0.89999892323E+02 0.  0.
        -12    1    1    2    0    0  0.43778353647E+00 -0.60449766997E+00 -0.91443746094E+00  0.11803676240E+01  0.00000000000E+00 0.  1.
         11    1    3    3    0    0  0.15831934215E+02  0.70665754814E+01 -0.13884093667E+02  0.22211589030E+02  0.51100000000E-03 0. -1.
        -11    1    3    3    0    0 -0.33986397553E+00 -0.15344666499E+02 -0.21942051142E+02  0.26777376758E+02  0.51100000000E-03 0.  1.
         12    1    3    3    0    0 -0.15929853776E+02  0.88825886876E+01  0.36740582270E+02  0.41018666588E+02  0.00000000000E+00 0. -1.
</event>
<event>
 7    1  0.2349719E-015  0.9000759E+02  0.7816164E-02  0.1186339E+00
        -11   -1    0    0    0    0  0.00000000000E+00  0.00000000000E+00  0.45593999997E+02  0.45594000000E+02  0.51100000000E-03 0.  1.
         11   -1    0    0    0    0 -0.00000000000E+00 -0.00000000000E+00 -0.45593999997E+02  0.45594000000E+02  0.51100000000E-03 0. -1.
    9900012    2    1    2    0    0  0.30194107737E+00 -0.80041397873E+00 -0.81334552819E+00  0.90007592486E+02  0.89999851906E+02 0.  0.
        -12    1    1    2    0    0 -0.30194107737E+00  0.80041397873E+00  0.81334552819E+00  0.11804075143E+01  0.00000000000E+00 0.  1.
         11    1    3    3    0    0 -0.87948777667E+01 -0.19800675205E+01  0.86875358711E+00  0.90567806297E+01  0.51100000000E-03 0. -1.
        -11    1    3    3    0    0 -0.30237655113E+02 -0.93867783470E+01  0.17229275918E+02  0.36045462175E+02  0.51100000000E-03 0.  1.
         12    1    3    3    0    0  0.39334473957E+02  0.10566431889E+02 -0.18911375033E+02  0.44905349681E+02  0.00000000000E+00 0. -1.
</event>
<event>
 7    1  0.2349719E-015  0.9000775E+02  0.7816164E-02  0.1186339E+00
        -11   -1    0    0    0    0  0.00000000000E+00  0.00000000000E+00  0.45593999997E+02  0.45594000000E+02  0.51100000000E-03 0. -1.
         11   -1    0    0    0    0 -0.00000000000E+00 -0.00000000000E+00 -0.45593999997E+02  0.45594000000E+02  0.51100000000E-03 0.  1.
    9900012    2    1    2    0    0  0.26988568252E+00 -0.77399717327E+00  0.84917053492E+00  0.90007745577E+02  0.90000007019E+02 0.  0.
        -12    1    1    2    0    0 -0.26988568252E+00  0.77399717327E+00 -0.84917053492E+00  0.11802544231E+01  0.00000000000E+00 0.  1.
         11    1    3    3    0    0 -0.72456720153E+01  0.25373728463E+01 -0.74303570604E+01  0.10684017513E+02  0.51100000000E-03 0. -1.
        -11    1    3    3    0    0  0.78975670844E+01  0.25479304036E+02 -0.24131142443E+02  0.35970523153E+02  0.51100000000E-03 0.  1.
         12    1    3    3    0    0 -0.38200938656E+00 -0.28790674055E+02  0.32410670039E+02  0.43353204911E+02  0.00000000000E+00 0. -1.
</event>
<event>
 7    1  0.2349719E-015  0.9000775E+02  0.7816164E-02  0.1186339E+00
        -11   -1    0    0    0    0  0.00000000000E+00  0.00000000000E+00  0.45593999997E+02  0.45594000000E+02  0.51100000000E-03 0. -1.
         11   -1    0    0    0    0 -0.00000000000E+00 -0.00000000000E+00 -0.45593999997E+02  0.45594000000E+02  0.51100000000E-03 0.  1.
    9900012    2    1    2    0    0  0.27636778028E+00  0.11296815287E+01 -0.20109736722E+00  0.90007745935E+02  0.90000007382E+02 0.  0.
        -12    1    1    2    0    0 -0.27636778028E+00 -0.11296815287E+01  0.20109736722E+00  0.11802540647E+01  0.00000000000E+00 0.  1.
         11    1    3    3    0    0  0.74174516464E+01  0.23026499734E+02  0.31353721653E+02  0.39601693659E+02  0.51100000000E-03 0. -1.
        -11    1    3    3    0    0 -0.79981983223E+01  0.36955176377E+01  0.11323317086E+01  0.88831414699E+01  0.51100000000E-03 0.  1.
        -12    1    3    3    0    0  0.85711445617E+00 -0.25592335843E+02 -0.32687150729E+02  0.41522910806E+02  0.00000000000E+00 0.  1.
</event>
<event>
 7    1  0.2349719E-015  0.9000771E+02  0.7816164E-02  0.1186339E+00
        -11   -1    0    0    0    0  0.00000000000E+00  0.00000000000E+00  0.45593999997E+02  0.45594000000E+02  0.51100000000E-03 0.  1.
         11   -1    0    0    0    0 -0.00000000000E+00 -0.00000000000E+00 -0.45593999997E+02  0.45594000000E+02  0.51100000000E-03 0. -1.
    9900012    2    1    2    0    0  0.86964695936E+00 -0.77425611256E+00  0.19320533823E+00  0.90007709076E+02  0.89999970036E+02 0.  0.
        -12    1    1    2    0    0 -0.86964695936E+00  0.77425611256E+00 -0.19320533823E+00  0.11802909237E+01  0.00000000000E+00 0.  1.
         11    1    3    3    0    0 -0.64482215796E+01 -0.72497063968E+01 -0.38782070749E+02  0.39977328778E+02  0.51100000000E-03 0. -1.
        -11    1    3    3    0    0  0.11204604402E+01 -0.92241445012E+01  0.21736618081E+01  0.95428024864E+01  0.51100000000E-03 0.  1.
        -12    1    3    3    0    0  0.61974080988E+01  0.15699594785E+02  0.36801614279E+02  0.40487577812E+02  0.00000000000E+00 0.  1.
</event>
<event>
 7    1  0.2349719E-015  0.9000776E+02  0.7816164E-02  0.1186339E+00
        -11   -1    0    0    0    0  0.00000000000E+00  0.00000000000E+00  0.45593999997E+02  0.45594000000E+02  0.51100000000E-03 0. -1.
         11   -1    0    0    0    0 -0.00000000000E+00 -0.00000000000E+00 -0.45593999997E+02  0.45594000000E+02  0.51100000000E-03 0.  1.
    9900012    2    1    2    0    0 -0.60951904730E+00  0.94983329853E+00  0.34534018738E+00  0.90007764172E+02  0.90000025859E+02 0.  0.
        -12    1    1    2    0    0  0.60951904730E+00 -0.94983329853E+00 -0.34534018738E+00  0.11802358277E+01  0.00000000000E+00 0.  1.
         11    1    3    3    0    0 -0.48715003571E+01  0.32201459049E+01 -0.72025018857E+01  0.92723723530E+01  0.51100000000E-03 0. -1.
        -11    1    3    3    0    0  0.30649938260E+02  0.19298519583E+02 -0.15704412995E+02  0.39477590620E+02  0.51100000000E-03 0.  1.
         12    1    3    3    0    0 -0.26387956950E+02 -0.21568832190E+02  0.23252255068E+02  0.41257801199E+02  0.00000000000E+00 0. -1.
</event>
<event>
 7    1  0.2349719E-015  0.9000775E+02  0.7816164E-02  0.1186339E+00
        -11   -1    0    0    0    0  0.00000000000E+00  0.00000000000E+00  0.45593999997E+02  0.45594000000E+02  0.51100000000E-03 0.  1.
         11   -1    0    0    0    0 -0.00000000000E+00 -0.00000000000E+00 -0.45593999997E+02  0.45594000000E+02  0.51100000000E-03 0. -1.
    9900012    2    1    2    0    0  0.64971598564E-01 -0.10716337012E+01  0.49026703783E+00  0.90007753472E+02  0.90000015018E+02 0.  0.
        -12    1    1    2    0    0 -0.64971598564E-01  0.10716337012E+01 -0.49026703783E+00  0.11802465279E+01  0.00000000000E+00 0.  1.
         11    1    3    3    0    0 -0.91205993768E+01 -0.80678111263E+01 -0.33828635498E+02  0.35953462827E+02  0.51100000000E-03 0. -1.
        -11    1    3    3    0    0 -0.37035966121E+01  0.20436739884E+01 -0.82666991898E+01  0.92860942808E+01  0.51100000000E-03 0.  1.
        -12    1    3    3    0    0  0.12889167587E+02  0.49525034366E+01  0.42585601725E+02  0.44768196364E+02  0.00000000000E+00 0.  1.
</event>
<event>
 7    1  0.2349719E-015  0.9000782E+02  0.7816164E-02  0.1186339E+00
        -11   -1    0    0    0    0  0.00000000000E+00  0.00000000000E+00  0.45593999997E+02  0.45594000000E+02  0.51100000000E-03 0. -1.
         11   -1    0    0    0    0 -0.00000000000E+00 -0.00000000000E+00 -0.45593999997E+02  0.45594000000E+02  0.51100000000E-03 0.  1.
    9900012    2    1    2    0    0 -0.78078966436E+00  0.88009701715E+00 -0.92804910764E-01  0.90007823737E+02  0.90000086211E+02 0.  0.
        -12    1    1    2    0    0  0.78078966436E+00 -0.88009701715E+00  0.92804910764E-01  0.11801762627E+01  0.00000000000E+00 0.  1.
         11    1    3    3    0    0  0.11692078487E+02 -0.21301799759E+02  0.78456463662E+01  0.25534790767E+02  0.51100000000E-03 0. -1.
        -11    1    3    3    0    0 -0.83466103849E+01  0.70398180402E+01 -0.33079793066E+02  0.34835293203E+02  0.51100000000E-03 0.  1.
         12    1    3    3    0    0 -0.41262577666E+01  0.15142078736E+02  0.25141341789E+02  0.29637739768E+02  0.00000000000E+00 0. -1.
</event>
<event>
 7    1  0.2349719E-015  0.9000774E+02  0.7816164E-02  0.1186339E+00
        -11   -1    0    0    0    0  0.00000000000E+00  0.00000000000E+00  0.45593999997E+02  0.45594000000E+02  0.51100000000E-03 0.  1.
         11   -1    0    0    0    0 -0.00000000000E+00 -0.00000000000E+00 -0.45593999997E+02  0.45594000000E+02  0.51100000000E-03 0. -1.
    9900012    2    1    2    0    0 -0.10519511839E+01  0.51041088495E+00 -0.16092639366E+00  0.90007738220E+02  0.89999999565E+02 0.  0.
        -12    1    1    2    0    0  0.10519511839E+01 -0.51041088495E+00  0.16092639366E+00  0.11802617799E+01  0.00000000000E+00 0.  1.
         11    1    3    3    0    0 -0.20682933815E+02  0.23188418119E+02 -0.27626487472E+02  0.41577750016E+02  0.51100000000E-03 0. -1.
        -11    1    3    3    0    0 -0.56734179414E+01 -0.60027438055E+01  0.12381029733E+01  0.83518562946E+01  0.51100000000E-03 0.  1.
        -12    1    3    3    0    0  0.25304400572E+02 -0.16675263429E+02  0.26227458105E+02  0.40078131910E+02  0.00000000000E+00 0.  1.
</event>
<event>
 7    1  0.2349719E-015  0.9000689E+02  0.7816164E-02  0.1186341E+00
        -11   -1    0    0    0    0  0.00000000000E+00  0.00000000000E+00  0.45593999997E+02  0.45594000000E+02  0.51100000000E-03 0. -1.
         11   -1    0    0    0    0 -0.00000000000E+00 -0.00000000000E+00 -0.45593999997E+02  0.45594000000E+02  0.51100000000E-03 0.  1.
    9900012    2    1    2    0    0 -0.47301077141E+00  0.28917782359E+00  0.10429116322E+01  0.90006887103E+02  0.89999137208E+02 0.  0.
        -12    1    1    2    0    0  0.47301077141E+00 -0.28917782359E+00 -0.10429116322E+01  0.11811128973E+01  0.00000000000E+00 0.  1.
         11    1    3    3    0    0  0.42506227170E+02  0.38909473695E+01 -0.50493707831E+01  0.42981565412E+02  0.51100000000E-03 0. -1.
        -11    1    3    3    0    0 -0.85353065692E+01  0.44777932883E+01 -0.36871109729E+01  0.10319732484E+02  0.51100000000E-03 0.  1.
        -12    1    3    3    0    0 -0.34443931372E+02 -0.80795628342E+01  0.97793933883E+01  0.36705589207E+02  0.00000000000E+00 0.  1.
</event>
<event>
 7    1  0.2349719E-015  0.9000773E+02  0.7816164E-02  0.1186339E+00
        -11   -1    0    0    0    0  0.00000000000E+00  0.00000000000E+00  0.45593999997E+02  0.45594000000E+02  0.51100000000E-03 0.  1.
         11   -1    0    0    0    0 -0.00000000000E+00 -0.00000000000E+00 -0.45593999997E+02  0.45594000000E+02  0.51100000000E-03 0. -1.
    9900012    2    1    2    0    0 -0.30629134705E+00  0.11389912248E+01  0.43751028447E-01  0.90007733271E+02  0.89999994550E+02 0.  0.
        -12    1    1    2    0    0  0.30629134705E+00 -0.11389912248E+01 -0.43751028447E-01  0.11802667291E+01  0.00000000000E+00 0.  1.
         11    1    3    3    0    0  0.32117106007E+02  0.18215323378E+02  0.10405826128E+01  0.36937640916E+02  0.51100000000E-03 0. -1.
        -11    1    3    3    0    0  0.43208865380E+01  0.75706491678E+01 -0.13677749417E+01  0.88235819171E+01  0.51100000000E-03 0.  1.
        -12    1    3    3    0    0 -0.36744283892E+02 -0.24646981321E+02  0.37094335726E+00  0.44246510438E+02  0.00000000000E+00 0.  1.
</event>
<event>
 7    1  0.2349719E-015  0.9000778E+02  0.7816164E-02  0.1186339E+00
        -11   -1    0    0    0    0  0.00000000000E+00  0.00000000000E+00  0.45593999997E+02  0.45594000000E+02  0.51100000000E-03 0.  1.
         11   -1    0    0    0    0 -0.00000000000E+00 -0.00000000000E+00 -0.45593999997E+02  0.45594000000E+02  0.51100000000E-03 0. -1.
    9900012    2    1    2    0    0  0.88829124935E+00 -0.75645544866E+00 -0.17786799850E+00  0.90007778320E+02  0.90000040194E+02 0.  0.
        -12    1    1    2    0    0 -0.88829124935E+00  0.75645544866E+00  0.17786799850E+00  0.11802216802E+01  0.00000000000E+00 0.  1.
         11    1    3    3    0    0  0.26137517522E+00 -0.97949963491E+01  0.54622939116E+01  0.11218151608E+02  0.51100000000E-03 0. -1.
        -11    1    3    3    0    0 -0.27264148082E+02 -0.19166528883E+02  0.11940713351E+02  0.35401556967E+02  0.51100000000E-03 0.  1.
         12    1    3    3    0    0  0.27891064156E+02  0.28205069783E+02 -0.17580875262E+02  0.43388069745E+02  0.00000000000E+00 0. -1.
</event>
<event>
 7    1  0.2349719E-015  0.9000777E+02  0.7816164E-02  0.1186339E+00
        -11   -1    0    0    0    0  0.00000000000E+00  0.00000000000E+00  0.45593999997E+02  0.45594000000E+02  0.51100000000E-03 0. -1.
         11   -1    0    0    0    0 -0.00000000000E+00 -0.00000000000E+00 -0.45593999997E+02  0.45594000000E+02  0.51100000000E-03 0.  1.
    9900012    2    1    2    0    0 -0.75476870510E+00  0.66307443618E+00  0.61936142054E+00  0.90007766093E+02  0.90000027805E+02 0.  0.
        -12    1    1    2    0    0  0.75476870510E+00 -0.66307443618E+00 -0.61936142054E+00  0.11802339071E+01  0.00000000000E+00 0.  1.
         11    1    3    3    0    0  0.12811396078E+02 -0.20380209799E+01  0.11598882783E+02  0.17401709142E+02  0.51100000000E-03 0. -1.
        -11    1    3    3    0    0  0.25575273455E+02 -0.56015638721E+01 -0.18282022500E+02  0.31932811919E+02  0.51100000000E-03 0.  1.
         12    1    3    3    0    0 -0.39141438238E+02  0.83026592882E+01  0.73025011373E+01  0.40673245032E+02  0.00000000000E+00 0. -1.
</event>
<event>
 7    1  0.2349719E-015  0.9000768E+02  0.7816164E-02  0.1186339E+00
        -11   -1    0    0    0    0  0.00000000000E+00  0.00000000000E+00  0.45593999997E+02  0.45594000000E+02  0.51100000000E-03 0. -1.
         11   -1    0    0    0    0 -0.00000000000E+00 -0.00000000000E+00 -0.45593999997E+02  0.45594000000E+02  0.51100000000E-03 0.  1.
    9900012    2    1    2    0    0  0.88861507144E-01  0.72878576313E+00  0.92419544843E+00  0.90007677043E+02  0.89999937580E+02 0.  0.
        -12    1    1    2    0    0 -0.88861507144E-01 -0.72878576313E+00 -0.92419544843E+00  0.11803229570E+01  0.00000000000E+00 0.  1.
         11    1    3    3    0    0  0.42228640801E+00  0.48048494370E+01 -0.12250425886E+02  0.13165782870E+02  0.51100000000E-03 0. -1.
        -11    1    3    3    0    0 -0.13217148849E+02 -0.37542646717E+02  0.56537109265E+01  0.40200843196E+02  0.51100000000E-03 0.  1.
         12    1    3    3    0    0  0.12883723948E+02  0.33466583043E+02  0.75209104083E+01  0.36641050977E+02  0.00000000000E+00 0. -1.
</event>
<event>
 7    1  0.2349719E-015  0.9000771E+02  0.7816164E-02  0.1186339E+00
        -11   -1    0    0    0    0  0.00000000000E+00  0.00000000000E+00  0.45593999997E+02  0.45594000000E+02  0.51100000000E-03 0. -1.
         11   -1    0    0    0    0 -0.00000000000E+00 -0.00000000000E+00 -0.45593999997E+02  0.45594000000E+02  0.51100000000E-03 0.  1.
    9900012    2    1    2    0    0 -0.33964969298E+00  0.54605214963E+00  0.98972758302E+00  0.90007705311E+02  0.89999966221E+02 0.  0.
        -12    1    1    2    0    0  0.33964969298E+00 -0.54605214963E+00 -0.98972758302E+00  0.11802946889E+01  0.00000000000E+00 0.  1.
         11    1    3    3    0    0  0.70090747364E+01  0.30996709950E+01 -0.52817831547E+01  0.93076486017E+01  0.51100000000E-03 0. -1.
        -11    1    3    3    0    0  0.15291790932E+02 -0.36538087024E+02  0.24047466580E+01  0.39681903684E+02  0.51100000000E-03 0.  1.
         12    1    3    3    0    0 -0.22640515361E+02  0.33984468178E+02  0.38667640797E+01  0.41018153025E+02  0.00000000000E+00 0. -1.
</event>
<event>
 7    1  0.2349719E-015  0.9000872E+02  0.7816164E-02  0.1186337E+00
        -11   -1    0    0    0    0  0.00000000000E+00  0.00000000000E+00  0.45593999997E+02  0.45594000000E+02  0.51100000000E-03 0.  1.
         11   -1    0    0    0    0 -0.00000000000E+00 -0.00000000000E+00 -0.45593999997E+02  0.45594000000E+02  0.51100000000E-03 0. -1.
    9900012    2    1    2    0    0  0.10547823356E+01 -0.48675141351E+00  0.20299283780E+00  0.90008721065E+02  0.90000995378E+02 0.  0.
        -12    1    1    2    0    0 -0.10547823356E+01  0.48675141351E+00 -0.20299283780E+00  0.11792789349E+01  0.00000000000E+00 0.  1.
         11    1    3    3    0    0  0.30392737224E+02  0.78183837787E+01 -0.29381627927E+02  0.42989832063E+02  0.51100000000E-03 0. -1.
        -11    1    3    3    0    0 -0.85102268088E+01 -0.64827152822E+01 -0.11452046967E+00  0.10698722960E+02  0.51100000000E-03 0.  1.
        -12    1    3    3    0    0 -0.20827728080E+02 -0.18224199100E+01  0.29699141234E+02  0.36320166043E+02  0.00000000000E+00 0.  1.
</event>
<event>
 7    1  0.2349719E-015  0.9000776E+02  0.7816164E-02  0.1186339E+00
        -11   -1    0    0    0    0  0.00000000000E+00  0.00000000000E+00  0.45593999997E+02  0.45594000000E+02  0.51100000000E-03 0. -1.
         11   -1    0    0    0    0 -0.00000000000E+00 -0.00000000000E+00 -0.45593999997E+02  0.45594000000E+02  0.51100000000E-03 0.  1.
    9900012    2    1    2    0    0  0.59088257584E+00 -0.20286167283E+00  0.10013339817E+01  0.90007760694E+02  0.90000022335E+02 0.  0.
        -12    1    1    2    0    0 -0.59088257584E+00  0.20286167283E+00 -0.10013339817E+01  0.11802393061E+01  0.00000000000E+00 0.  1.
         11    1    3    3    0    0 -0.23492427717E+01 -0.34838270076E+02 -0.17478047438E+02  0.39047485784E+02  0.51100000000E-03 0. -1.
        -11    1    3    3    0    0 -0.96610651142E+01 -0.91229825120E+00  0.26614283999E+01  0.10062388813E+02  0.51100000000E-03 0.  1.
        -12    1    3    3    0    0  0.12601190462E+02  0.35547706655E+02  0.15817953020E+02  0.40897886097E+02  0.00000000000E+00 0.  1.
</event>
<event>
 7    1  0.2349719E-015  0.9000763E+02  0.7816164E-02  0.1186339E+00
        -11   -1    0    0    0    0  0.00000000000E+00  0.00000000000E+00  0.45593999997E+02  0.45594000000E+02  0.51100000000E-03 0. -1.
         11   -1    0    0    0    0 -0.00000000000E+00 -0.00000000000E+00 -0.45593999997E+02  0.45594000000E+02  0.51100000000E-03 0.  1.
    9900012    2    1    2    0    0  0.69848449377E+00  0.24510473722E+00  0.91941589236E+00  0.90007626117E+02  0.89999885982E+02 0.  0.
        -12    1    1    2    0    0 -0.69848449377E+00 -0.24510473722E+00 -0.91941589236E+00  0.11803738829E+01  0.00000000000E+00 0.  1.
         11    1    3    3    0    0 -0.33273404760E+02 -0.95039136789E+01 -0.19302267599E+02  0.39623495230E+02  0.51100000000E-03 0. -1.
        -11    1    3    3    0    0  0.41119291156E+01 -0.38296012007E+01 -0.61243015671E+01  0.83114906217E+01  0.51100000000E-03 0.  1.
        -12    1    3    3    0    0  0.29859960138E+02  0.13578619617E+02  0.26345985059E+02  0.42072640265E+02  0.00000000000E+00 0.  1.
</event>
<event>
 7    1  0.2349719E-015  0.9000771E+02  0.7816164E-02  0.1186339E+00
        -11   -1    0    0    0    0  0.00000000000E+00  0.00000000000E+00  0.45593999997E+02  0.45594000000E+02  0.51100000000E-03 0.  1.
         11   -1    0    0    0    0 -0.00000000000E+00 -0.00000000000E+00 -0.45593999997E+02  0.45594000000E+02  0.51100000000E-03 0. -1.
    9900012    2    1    2    0    0  0.31298828284E+00  0.11152961738E+01 -0.22634588975E+00  0.90007712034E+02  0.89999973033E+02 0.  0.
        -12    1    1    2    0    0 -0.31298828284E+00 -0.11152961738E+01  0.22634588975E+00  0.11802879659E+01  0.00000000000E+00 0.  1.
         11    1    3    3    0    0  0.26256548977E+02  0.43811433052E+01 -0.17548599089E+02  0.31883445721E+02  0.51100000000E-03 0. -1.
        -11    1    3    3    0    0  0.12253841211E+02  0.37682474547E+01 -0.44841034394E+01  0.13581733955E+02  0.51100000000E-03 0.  1.
        -12    1    3    3    0    0 -0.38197401905E+02 -0.70340945861E+01  0.21806356639E+02  0.44542532357E+02  0.00000000000E+00 0.  1.
</event>
<event>
 7    1  0.2349719E-015  0.9000775E+02  0.7816164E-02  0.1186339E+00
        -11   -1    0    0    0    0  0.00000000000E+00  0.00000000000E+00  0.45593999997E+02  0.45594000000E+02  0.51100000000E-03 0.  1.
         11   -1    0    0    0    0 -0.00000000000E+00 -0.00000000000E+00 -0.45593999997E+02  0.45594000000E+02  0.51100000000E-03 0. -1.
    9900012    2    1    2    0    0  0.11181272017E+01 -0.36709040002E+00  0.89618425817E-01  0.90007747797E+02  0.90000009268E+02 0.  0.
        -12    1    1    2    0    0 -0.11181272017E+01  0.36709040002E+00 -0.89618425817E-01  0.11802522032E+01  0.00000000000E+00 0.  1.
         11    1    3    3    0    0 -0.10079724891E+02 -0.17224411834E+02  0.27900695620E+02  0.34303498848E+02  0.51100000000E-03 0. -1.
        -11    1    3    3    0    0 -0.73141746416E+01 -0.34834390961E+01  0.74358029320E+01  0.10996484171E+02  0.51100000000E-03 0.  1.
        -12    1    3    3    0    0  0.18512026734E+02  0.20340760530E+02 -0.35246880126E+02  0.44707764777E+02  0.00000000000E+00 0.  1.
</event>
<event>
 7    1  0.2349719E-015  0.9000778E+02  0.7816164E-02  0.1186339E+00
        -11   -1    0    0    0    0  0.00000000000E+00  0.00000000000E+00  0.45593999997E+02  0.45594000000E+02  0.51100000000E-03 0. -1.
         11   -1    0    0    0    0 -0.00000000000E+00 -0.00000000000E+00 -0.45593999997E+02  0.45594000000E+02  0.51100000000E-03 0.  1.
    9900012    2    1    2    0    0  0.96618592766E+00  0.25300305160E+00  0.62880740228E+00  0.90007777758E+02  0.90000039625E+02 0.  0.
        -12    1    1    2    0    0 -0.96618592766E+00 -0.25300305160E+00 -0.62880740228E+00  0.11802222418E+01  0.00000000000E+00 0.  1.
         11    1    3    3    0    0  0.49065878485E-01 -0.13919370381E+01 -0.12632732610E+02  0.12709281240E+02  0.51100000000E-03 0. -1.
        -11    1    3    3    0    0 -0.14494129638E+02 -0.35230239890E+00 -0.28917104230E+02  0.32348150307E+02  0.51100000000E-03 0.  1.
         12    1    3    3    0    0  0.15411249687E+02  0.19972424886E+01  0.42178644242E+02  0.44950346212E+02  0.00000000000E+00 0. -1.
</event>
<event>
 7    1  0.2349719E-015  0.9000797E+02  0.7816164E-02  0.1186339E+00
        -11   -1    0    0    0    0  0.00000000000E+00  0.00000000000E+00  0.45593999997E+02  0.45594000000E+02  0.51100000000E-03 0. -1.
         11   -1    0    0    0    0 -0.00000000000E+00 -0.00000000000E+00 -0.45593999997E+02  0.45594000000E+02  0.51100000000E-03 0.  1.
    9900012    2    1    2    0    0  0.90765860537E+00 -0.91290510610E-01 -0.74853428692E+00  0.90007965390E+02  0.90000229733E+02 0.  0.
        -12    1    1    2    0    0 -0.90765860537E+00  0.91290510610E-01  0.74853428692E+00  0.11800346096E+01  0.00000000000E+00 0.  1.
         11    1    3    3    0    0 -0.28225290351E+02  0.11383636190E+02  0.25129375835E+02  0.39468211492E+02  0.51100000000E-03 0. -1.
        -11    1    3    3    0    0 -0.46901135823E+01  0.27750499717E+01 -0.80894683560E+01  0.97538487944E+01  0.51100000000E-03 0.  1.
        -12    1    3    3    0    0  0.33823062539E+02 -0.14249976673E+02 -0.17788441766E+02  0.40785905104E+02  0.00000000000E+00 0.  1.
</event>
<event>
 7    1  0.2349719E-015  0.9000782E+02  0.7816164E-02  0.1186339E+00
        -11   -1    0    0    0    0  0.00000000000E+00  0.00000000000E+00  0.45593999997E+02  0.45594000000E+02  0.51100000000E-03 0.  1.
         11   -1    0    0    0    0 -0.00000000000E+00 -0.00000000000E+00 -0.45593999997E+02  0.45594000000E+02  0.51100000000E-03 0. -1.
    9900012    2    1    2    0    0  0.75879129758E+00 -0.84403022266E+00  0.32351788950E+00  0.90007824134E+02  0.90000086612E+02 0.  0.
        -12    1    1    2    0    0 -0.75879129758E+00  0.84403022266E+00 -0.32351788950E+00  0.11801758661E+01  0.00000000000E+00 0.  1.
         11    1    3    3    0    0  0.38869612568E+01 -0.39257092357E+02  0.13652215720E+01  0.39472669004E+02  0.51100000000E-03 0. -1.
        -11    1    3    3    0    0  0.24812970057E+01 -0.11102411387E+01  0.89754982872E+01  0.93781149482E+01  0.51100000000E-03 0.  1.
        -12    1    3    3    0    0 -0.56094669649E+01  0.39523303273E+02 -0.10017201970E+02  0.41157040182E+02  0.00000000000E+00 0.  1.
</event>
<event>
 7    1  0.2349719E-015  0.9000766E+02  0.7816164E-02  0.1186339E+00
        -11   -1    0    0    0    0  0.00000000000E+00  0.00000000000E+00  0.45593999997E+02  0.45594000000E+02  0.51100000000E-03 0.  1.
         11   -1    0    0    0    0 -0.00000000000E+00 -0.00000000000E+00 -0.45593999997E+02  0.45594000000E+02  0.51100000000E-03 0. -1.
    9900012    2    1    2    0    0  0.64906837272E+00 -0.98579561530E+00  0.10762253281E-01  0.90007661670E+02  0.89999922004E+02 0.  0.
        -12    1    1    2    0    0 -0.64906837272E+00  0.98579561530E+00 -0.10762253281E-01  0.11803383302E+01  0.00000000000E+00 0.  1.
         11    1    3    3    0    0 -0.95423488729E+01 -0.13485411144E+01 -0.82391121845E+01  0.12679036044E+02  0.51100000000E-03 0. -1.
        -11    1    3    3    0    0 -0.54176582208E+00 -0.34543146542E+02 -0.10725744130E+02  0.36174080094E+02  0.51100000000E-03 0.  1.
         12    1    3    3    0    0  0.10733183068E+02  0.34905892041E+02  0.18975618568E+02  0.41154545532E+02  0.00000000000E+00 0. -1.
</event>
<event>
 7    1  0.2349719E-015  0.9000793E+02  0.7816164E-02  0.1186339E+00
        -11   -1    0    0    0    0  0.00000000000E+00  0.00000000000E+00  0.45593999997E+02  0.45594000000E+02  0.51100000000E-03 0. -1.
         11   -1    0    0    0    0 -0.00000000000E+00 -0.00000000000E+00 -0.45593999997E+02  0.45594000000E+02  0.51100000000E-03 0.  1.
    9900012    2    1    2    0    0 -0.23232258827E+00 -0.10660537261E+00  0.11520545081E+01  0.90007928782E+02  0.90000192641E+02 0.  0.
        -12    1    1    2    0    0  0.23232258827E+00  0.10660537261E+00 -0.11520545081E+01  0.11800712183E+01  0.00000000000E+00 0.  1.
         11    1    3    3    0    0 -0.24305209068E+02  0.26314628290E+02  0.62395679859E+01  0.36361175157E+02  0.51100000000E-03 0. -1.
        -11    1    3    3    0    0 -0.85036496442E+01  0.30478441433E+01  0.17167554082E+01  0.91950345614E+01  0.51100000000E-03 0.  1.
        -12    1    3    3    0    0  0.32576536124E+02 -0.29469077806E+02 -0.68042688860E+01  0.44451719063E+02  0.00000000000E+00 0.  1.
</event>
<event>
 7    1  0.2349719E-015  0.9000776E+02  0.7816164E-02  0.1186339E+00
        -11   -1    0    0    0    0  0.00000000000E+00  0.00000000000E+00  0.45593999997E+02  0.45594000000E+02  0.51100000000E-03 0.  1.
         11   -1    0    0    0    0 -0.00000000000E+00 -0.00000000000E+00 -0.45593999997E+02  0.45594000000E+02  0.51100000000E-03 0. -1.
    9900012    2    1    2    0    0  0.53590891968E+00  0.78869985844E+00 -0.69549819928E+00  0.90007761218E+02  0.90000022866E+02 0.  0.
        -12    1    1    2    0    0 -0.53590891968E+00 -0.78869985844E+00  0.69549819928E+00  0.11802387818E+01  0.00000000000E+00 0.  1.
         11    1    3    3    0    0 -0.88165650646E+01 -0.38190253837E+01  0.40295110095E+01  0.10418912307E+02  0.51100000000E-03 0. -1.
        -11    1    3    3    0    0  0.21358715007E+02 -0.29578751056E+02  0.13660408987E+02  0.38957720605E+02  0.51100000000E-03 0.  1.
         12    1    3    3    0    0 -0.12006241023E+02  0.34186476298E+02 -0.18385418195E+02  0.40631128306E+02  0.00000000000E+00 0. -1.
</event>
<event>
 7    1  0.2349719E-015  0.9000774E+02  0.7816164E-02  0.1186339E+00
        -11   -1    0    0    0    0  0.00000000000E+00  0.00000000000E+00  0.45593999997E+02  0.45594000000E+02  0.51100000000E-03 0.  1.
         11   -1    0    0    0    0 -0.00000000000E+00 -0.00000000000E+00 -0.45593999997E+02  0.45594000000E+02  0.51100000000E-03 0. -1.
    9900012    2    1    2    0    0  0.85310163650E+00  0.66141268272E+00 -0.47723951464E+00  0.90007742955E+02  0.90000004362E+02 0.  0.
        -12    1    1    2    0    0 -0.85310163650E+00 -0.66141268272E+00  0.47723951464E+00  0.11802570455E+01  0.00000000000E+00 0.  1.
         11    1    3    3    0    0  0.28421657771E+01  0.50496305824E+00  0.12053214235E+02  0.12394065824E+02  0.51100000000E-03 0. -1.
        -11    1    3    3    0    0  0.23246313102E+02 -0.26796630928E+02 -0.18822036469E+02  0.40158679747E+02  0.51100000000E-03 0.  1.
         12    1    3    3    0    0 -0.25235377243E+02  0.26953080553E+02  0.62915827194E+01  0.37454997383E+02  0.00000000000E+00 0. -1.
</event>
<event>
 7    1  0.2349719E-015  0.9000799E+02  0.7816164E-02  0.1186339E+00
        -11   -1    0    0    0    0  0.00000000000E+00  0.00000000000E+00  0.45593999997E+02  0.45594000000E+02  0.51100000000E-03 0. -1.
         11   -1    0    0    0    0 -0.00000000000E+00 -0.00000000000E+00 -0.45593999997E+02  0.45594000000E+02  0.51100000000E-03 0.  1.
    9900012    2    1    2    0    0  0.76045251354E+00  0.79547411111E+00  0.42585039797E+00  0.90007993369E+02  0.90000258082E+02 0.  0.
        -12    1    1    2    0    0 -0.76045251354E+00 -0.79547411111E+00 -0.42585039797E+00  0.11800066306E+01  0.00000000000E+00 0.  1.
         11    1    3    3    0    0  0.27100142771E+00  0.39737027235E+02 -0.38745458754E+01  0.39926393291E+02  0.51100000000E-03 0. -1.
        -11    1    3    3    0    0  0.17626243194E+01 -0.73022539267E+00 -0.93063853206E+01  0.94999411373E+01  0.51100000000E-03 0.  1.
        -12    1    3    3    0    0 -0.12731732336E+01 -0.38211327731E+02  0.13606781594E+02  0.40581658941E+02  0.00000000000E+00 0.  1.
</event>
<event>
 7    1  0.2349719E-015  0.9000781E+02  0.7816164E-02  0.1186339E+00
        -11   -1    0    0    0    0  0.00000000000E+00  0.00000000000E+00  0.45593999997E+02  0.45594000000E+02  0.51100000000E-03 0.  1.
         11   -1    0    0    0    0 -0.00000000000E+00 -0.00000000000E+00 -0.45593999997E+02  0.45594000000E+02  0.51100000000E-03 0. -1.
    9900012    2    1    2    0    0 -0.65136865574E+00  0.25928899554E+00 -0.94938347312E+00  0.90007813198E+02  0.90000075532E+02 0.  0.
        -12    1    1    2    0    0  0.65136865574E+00 -0.25928899554E+00  0.94938347312E+00  0.11801868021E+01  0.00000000000E+00 0.  1.
         11    1    3    3    0    0  0.26974055266E+01 -0.25931487041E+01 -0.69362222739E+01  0.78810910711E+01  0.51100000000E-03 0. -1.
        -11    1    3    3    0    0  0.24328491814E+02  0.32618546409E+02 -0.18438289277E+01  0.40733828560E+02  0.51100000000E-03 0.  1.
         12    1    3    3    0    0 -0.27677265997E+02 -0.29766108709E+02  0.78306677285E+01  0.41392893567E+02  0.00000000000E+00 0. -1.
</event>
<event>
 7    1  0.2349719E-015  0.9000785E+02  0.7816164E-02  0.1186339E+00
        -11   -1    0    0    0    0  0.00000000000E+00  0.00000000000E+00  0.45593999997E+02  0.45594000000E+02  0.51100000000E-03 0.  1.
         11   -1    0    0    0    0 -0.00000000000E+00 -0.00000000000E+00 -0.45593999997E+02  0.45594000000E+02  0.51100000000E-03 0. -1.
    9900012    2    1    2    0    0  0.10944792450E+01  0.41311830105E+00 -0.15556844363E+00  0.90007850395E+02  0.90000113221E+02 0.  0.
        -12    1    1    2    0    0 -0.10944792450E+01 -0.41311830105E+00  0.15556844363E+00  0.11801496045E+01  0.00000000000E+00 0.  1.
         11    1    3    3    0    0  0.32134470355E+02  0.24005560181E+02  0.15712464844E+02  0.43078679835E+02  0.51100000000E-03 0. -1.
        -11    1    3    3    0    0 -0.20336227971E+01 -0.11037471173E+01  0.44222758657E+01  0.49910323054E+01  0.51100000000E-03 0.  1.
        -12    1    3    3    0    0 -0.29006368313E+02 -0.22488694762E+02 -0.20290309153E+02  0.41938138255E+02  0.00000000000E+00 0.  1.
</event>
<event>
 7    1  0.2349719E-015  0.9000775E+02  0.7816164E-02  0.1186339E+00
        -11   -1    0    0    0    0  0.00000000000E+00  0.00000000000E+00  0.45593999997E+02  0.45594000000E+02  0.51100000000E-03 0. -1.
         11   -1    0    0    0    0 -0.00000000000E+00 -0.00000000000E+00 -0.45593999997E+02  0.45594000000E+02  0.51100000000E-03 0.  1.
    9900012    2    1    2    0    0 -0.11697656552E+01 -0.12155514767E+00  0.99346237961E-01  0.90007747054E+02  0.90000008515E+02 0.  0.
        -12    1    1    2    0    0  0.11697656552E+01  0.12155514767E+00 -0.99346237961E-01  0.11802529462E+01  0.00000000000E+00 0.  1.
         11    1    3    3    0    0 -0.49641362926E+01 -0.12104358305E+01 -0.33407863883E+01  0.61048061381E+01  0.51100000000E-03 0. -1.
        -11    1    3    3    0    0  0.15306498875E+02  0.16399681582E+02 -0.34643843076E+02  0.41272682577E+02  0.51100000000E-03 0.  1.
         12    1    3    3    0    0 -0.11512128238E+02 -0.15310800899E+02  0.38083975702E+02  0.42630258338E+02  0.00000000000E+00 0. -1.
</event>
<event>
 7    1  0.2349719E-015  0.9000788E+02  0.7816164E-02  0.1186339E+00
        -11   -1    0    0    0    0  0.00000000000E+00  0.00000000000E+00  0.45593999997E+02  0.45594000000E+02  0.51100000000E-03 0.  1.
         11   -1    0    0    0    0 -0.00000000000E+00 -0.00000000000E+00 -0.45593999997E+02  0.45594000000E+02  0.51100000000E-03 0. -1.
    9900012    2    1    2    0    0  0.41844205934E+00  0.94197548204E+00 -0.57470156999E+00  0.90007875659E+02  0.90000138818E+02 0.  0.
        -12    1    1    2    0    0 -0.41844205934E+00 -0.94197548204E+00  0.57470156999E+00  0.11801243411E+01  0.00000000000E+00 0.  1.
         11    1    3    3    0    0  0.40590614698E+01 -0.28730061509E+02 -0.23703281800E+02  0.37466491465E+02  0.51100000000E-03 0. -1.
        -11    1    3    3    0    0 -0.82283918410E+01 -0.58905513618E+01  0.48134693841E+00  0.10130978372E+02  0.51100000000E-03 0.  1.
        -12    1    3    3    0    0  0.45877724306E+01  0.35562588353E+02  0.22647233291E+02  0.42410405822E+02  0.00000000000E+00 0.  1.
</event>
<event>
 7    1  0.2349719E-015  0.9000644E+02  0.7816164E-02  0.1186342E+00
        -11   -1    0    0    0    0  0.00000000000E+00  0.00000000000E+00  0.45593999997E+02  0.45594000000E+02  0.51100000000E-03 0. -1.
         11   -1    0    0    0    0 -0.00000000000E+00 -0.00000000000E+00 -0.45593999997E+02  0.45594000000E+02  0.51100000000E-03 0.  1.
    9900012    2    1    2    0    0 -0.37010931734E+00 -0.10992634082E+01 -0.22522960707E+00  0.90006437762E+02  0.89998681930E+02 0.  0.
        -12    1    1    2    0    0  0.37010931734E+00  0.10992634082E+01  0.22522960707E+00  0.11815622384E+01  0.00000000000E+00 0.  1.
         11    1    3    3    0    0 -0.29149472809E+02 -0.35781834452E+01  0.22168993333E+02  0.36796187676E+02  0.51100000000E-03 0. -1.
        -11    1    3    3    0    0 -0.14221953273E+01 -0.10558882829E+01  0.91948701216E+01  0.93639295400E+01  0.51100000000E-03 0.  1.
        -12    1    3    3    0    0  0.30201558819E+02  0.35348083199E+01 -0.31589093062E+02  0.43846320546E+02  0.00000000000E+00 0.  1.
</event>
<event>
 7    1  0.2349719E-015  0.9000748E+02  0.7816164E-02  0.1186340E+00
        -11   -1    0    0    0    0  0.00000000000E+00  0.00000000000E+00  0.45593999997E+02  0.45594000000E+02  0.51100000000E-03 0. -1.
         11   -1    0    0    0    0 -0.00000000000E+00 -0.00000000000E+00 -0.45593999997E+02  0.45594000000E+02  0.51100000000E-03 0.  1.
    9900012    2    1    2    0    0 -0.85316216009E+00  0.70343381428E+00 -0.41343558626E+00  0.90007477325E+02  0.89999735225E+02 0.  0.
        -12    1    1    2    0    0  0.85316216009E+00 -0.70343381428E+00  0.41343558626E+00  0.11805226751E+01  0.00000000000E+00 0.  1.
         11    1    3    3    0    0 -0.35766139350E+02 -0.12242021959E+02 -0.10985279486E+02  0.39366993679E+02  0.51100000000E-03 0. -1.
        -11    1    3    3    0    0 -0.46845361041E+01  0.31306056774E+01  0.79718332166E+01  0.97619514193E+01  0.51100000000E-03 0.  1.
        -12    1    3    3    0    0  0.39597513294E+02  0.98148500960E+01  0.26000106827E+01  0.40878532227E+02  0.00000000000E+00 0.  1.
</event>
<event>
 7    1  0.2349719E-015  0.9000776E+02  0.7816164E-02  0.1186339E+00
        -11   -1    0    0    0    0  0.00000000000E+00  0.00000000000E+00  0.45593999997E+02  0.45594000000E+02  0.51100000000E-03 0. -1.
         11   -1    0    0    0    0 -0.00000000000E+00 -0.00000000000E+00 -0.45593999997E+02  0.45594000000E+02  0.51100000000E-03 0.  1.
    9900012    2    1    2    0    0  0.80978577732E+00 -0.80192485851E+00  0.30682203896E+00  0.90007755853E+02  0.90000017430E+02 0.  0.
        -12    1    1    2    0    0 -0.80978577732E+00  0.80192485851E+00 -0.30682203896E+00  0.11802441474E+01  0.00000000000E+00 0.  1.
         11    1    3    3    0    0  0.34253629910E+02  0.12847092593E+02  0.76735345976E+01  0.37379701492E+02  0.51100000000E-03 0. -1.
        -11    1    3    3    0    0  0.56319602812E+01  0.54886386029E+01  0.20136954273E+01  0.81178260549E+01  0.51100000000E-03 0.  1.
        -12    1    3    3    0    0 -0.39075804414E+02 -0.19137656055E+02 -0.93804079859E+01  0.44510228306E+02  0.00000000000E+00 0.  1.
</event>
<event>
 7    1  0.2349719E-015  0.9000764E+02  0.7816164E-02  0.1186339E+00
        -11   -1    0    0    0    0  0.00000000000E+00  0.00000000000E+00  0.45593999997E+02  0.45594000000E+02  0.51100000000E-03 0.  1.
         11   -1    0    0    0    0 -0.00000000000E+00 -0.00000000000E+00 -0.45593999997E+02  0.45594000000E+02  0.51100000000E-03 0. -1.
    9900012    2    1    2    0    0  0.92258219724E+00 -0.69421257788E+00  0.24525284611E+00  0.90007644980E+02  0.89999905094E+02 0.  0.
        -12    1    1    2    0    0 -0.92258219724E+00  0.69421257788E+00 -0.24525284611E+00  0.11803550197E+01  0.00000000000E+00 0.  1.
         11    1    3    3    0    0  0.12784423211E+02 -0.20227694568E+02 -0.27282978213E+02  0.36289971133E+02  0.51100000000E-03 0. -1.
        -11    1    3    3    0    0  0.26919178963E+01 -0.72902553204E+01 -0.49004457458E+01  0.91874160331E+01  0.51100000000E-03 0.  1.
        -12    1    3    3    0    0 -0.14553758910E+02  0.26823737311E+02  0.32428676805E+02  0.44530257815E+02  0.00000000000E+00 0.  1.
</event>
<event>
 7    1  0.2349719E-015  0.9000776E+02  0.7816164E-02  0.1186339E+00
        -11   -1    0    0    0    0  0.00000000000E+00  0.00000000000E+00  0.45593999997E+02  0.45594000000E+02  0.51100000000E-03 0.  1.
         11   -1    0    0    0    0 -0.00000000000E+00 -0.00000000000E+00 -0.45593999997E+02  0.45594000000E+02  0.51100000000E-03 0. -1.
    9900012    2    1    2    0    0 -0.13494421305E+00  0.21252875572E+00 -0.11530817749E+01  0.90007755961E+02  0.90000017539E+02 0.  0.
        -12    1    1    2    0    0  0.13494421305E+00 -0.21252875572E+00  0.11530817749E+01  0.11802440393E+01  0.00000000000E+00 0.  1.
         11    1    3    3    0    0  0.29706828080E+01 -0.20956823334E+01  0.73058225952E+01  0.81603850915E+01  0.51100000000E-03 0. -1.
        -11    1    3    3    0    0  0.18167131447E+02 -0.33865941087E+02  0.23802490981E+01  0.38504703826E+02  0.51100000000E-03 0.  1.
         12    1    3    3    0    0 -0.21272758468E+02  0.36174152176E+02 -0.10839153468E+02  0.43342667043E+02  0.00000000000E+00 0. -1.
</event>
<event>
 7    1  0.2349719E-015  0.9000759E+02  0.7816164E-02  0.1186339E+00
        -11   -1    0    0    0    0  0.00000000000E+00  0.00000000000E+00  0.45593999997E+02  0.45594000000E+02  0.51100000000E-03 0.  1.
         11   -1    0    0    0    0 -0.00000000000E+00 -0.00000000000E+00 -0.45593999997E+02  0.45594000000E+02  0.51100000000E-03 0. -1.
    9900012    2    1    2    0    0  0.43013120292E+00  0.64756633461E+00 -0.88825851208E+00  0.90007594056E+02  0.89999853497E+02 0.  0.
        -12    1    1    2    0    0 -0.43013120292E+00 -0.64756633461E+00  0.88825851208E+00  0.11804059445E+01  0.00000000000E+00 0.  1.
         11    1    3    3    0    0 -0.68563641036E+01 -0.12585589028E+02 -0.34340822373E+02  0.37211542045E+02  0.51100000000E-03 0. -1.
        -11    1    3    3    0    0 -0.16328195355E+01 -0.78493238798E+01 -0.39551757232E+01  0.89398769717E+01  0.51100000000E-03 0.  1.
        -12    1    3    3    0    0  0.89193148421E+01  0.21082479242E+02  0.37407739584E+02  0.43856175039E+02  0.00000000000E+00 0.  1.
</event>
<event>
 7    1  0.2349719E-015  0.9000768E+02  0.7816164E-02  0.1186339E+00
        -11   -1    0    0    0    0  0.00000000000E+00  0.00000000000E+00  0.45593999997E+02  0.45594000000E+02  0.51100000000E-03 0.  1.
         11   -1    0    0    0    0 -0.00000000000E+00 -0.00000000000E+00 -0.45593999997E+02  0.45594000000E+02  0.51100000000E-03 0. -1.
    9900012    2    1    2    0    0  0.79184630014E+00 -0.58974283382E+00  0.64678282344E+00  0.90007684282E+02  0.89999944915E+02 0.  0.
        -12    1    1    2    0    0 -0.79184630014E+00  0.58974283382E+00 -0.64678282344E+00  0.11803157178E+01  0.00000000000E+00 0.  1.
         11    1    3    3    0    0 -0.10895243880E+02 -0.15336364982E+02 -0.40535732831E+01  0.19244268931E+02  0.51100000000E-03 0. -1.
        -11    1    3    3    0    0  0.68030869645E+01 -0.27109309353E+02  0.60692714005E+01  0.28601270976E+02  0.51100000000E-03 0.  1.
        -12    1    3    3    0    0  0.48840032156E+01  0.41855931501E+02 -0.13689152940E+01  0.42162144375E+02  0.00000000000E+00 0.  1.
</event>
<event>
 7    1  0.2349719E-015  0.9000771E+02  0.7816164E-02  0.1186339E+00
        -11   -1    0    0    0    0  0.00000000000E+00  0.00000000000E+00  0.45593999997E+02  0.45594000000E+02  0.51100000000E-03 0. -1.
         11   -1    0    0    0    0 -0.00000000000E+00 -0.00000000000E+00 -0.45593999997E+02  0.45594000000E+02  0.51100000000E-03 0.  1.
    9900012    2    1    2    0    0  0.57903491891E+00  0.79491600957E+00 -0.65262298399E+00  0.90007707808E+02  0.89999968751E+02 0.  0.
        -12    1    1    2    0    0 -0.57903491891E+00 -0.79491600957E+00  0.65262298399E+00  0.11802921921E+01  0.00000000000E+00 0.  1.
         11    1    3    3    0    0  0.25994248656E+02 -0.29158742098E+02 -0.81876400658E+01  0.39912036456E+02  0.51100000000E-03 0. -1.
        -11    1    3    3    0    0  0.45826109164E+01  0.21554889552E+01  0.76782027763E+01  0.91978939754E+01  0.51100000000E-03 0.  1.
        -12    1    3    3    0    0 -0.29997824654E+02  0.27798169153E+02 -0.14318569453E+00  0.40897777376E+02  0.00000000000E+00 0.  1.
</event>
<event>
 7    1  0.2349719E-015  0.9000772E+02  0.7816164E-02  0.1186339E+00
        -11   -1    0    0    0    0  0.00000000000E+00  0.00000000000E+00  0.45593999997E+02  0.45594000000E+02  0.51100000000E-03 0. -1.
         11   -1    0    0    0    0 -0.00000000000E+00 -0.00000000000E+00 -0.45593999997E+02  0.45594000000E+02  0.51100000000E-03 0.  1.
    9900012    2    1    2    0    0  0.66942347238E+00  0.35497539267E+00  0.90494654471E+00  0.90007718862E+02  0.89999979951E+02 0.  0.
        -12    1    1    2    0    0 -0.66942347238E+00 -0.35497539267E+00 -0.90494654471E+00  0.11802811375E+01  0.00000000000E+00 0.  1.
         11    1    3    3    0    0 -0.86630676212E+01  0.32372473834E+02  0.19695227278E+02  0.38870654491E+02  0.51100000000E-03 0. -1.
        -11    1    3    3    0    0  0.55862954408E+00 -0.32283193698E+00  0.84250691781E+01  0.84497383595E+01  0.51100000000E-03 0.  1.
        -12    1    3    3    0    0  0.87738615495E+01 -0.31694666504E+02 -0.27215349911E+02  0.42687326012E+02  0.00000000000E+00 0.  1.
</event>
<event>
 7    1  0.2349719E-015  0.9000749E+02  0.7816164E-02  0.1186340E+00
        -11   -1    0    0    0    0  0.00000000000E+00  0.00000000000E+00  0.45593999997E+02  0.45594000000E+02  0.51100000000E-03 0.  1.
         11   -1    0    0    0    0 -0.00000000000E+00 -0.00000000000E+00 -0.45593999997E+02  0.45594000000E+02  0.51100000000E-03 0. -1.
    9900012    2    1    2    0    0  0.34635951563E+00  0.29616362419E+00 -0.10890013643E+01  0.90007490882E+02  0.89999748961E+02 0.  0.
        -12    1    1    2    0    0 -0.34635951563E+00 -0.29616362419E+00  0.10890013643E+01  0.11805091181E+01  0.00000000000E+00 0.  1.
         11    1    3    3    0    0 -0.12665050312E+01  0.83386530808E+01 -0.55089446711E+01  0.10074008231E+02  0.51100000000E-03 0. -1.
        -11    1    3    3    0    0  0.35153805506E+02  0.30258913528E+00  0.21677351802E+02  0.41301200747E+02  0.51100000000E-03 0.  1.
         12    1    3    3    0    0 -0.33540940959E+02 -0.83450785919E+01 -0.17257408495E+02  0.38632281904E+02  0.00000000000E+00 0. -1.
</event>
<event>
 7    1  0.2349719E-015  0.9000773E+02  0.7816164E-02  0.1186339E+00
        -11   -1    0    0    0    0  0.00000000000E+00  0.00000000000E+00  0.45593999997E+02  0.45594000000E+02  0.51100000000E-03 0.  1.
         11   -1    0    0    0    0 -0.00000000000E+00 -0.00000000000E+00 -0.45593999997E+02  0.45594000000E+02  0.51100000000E-03 0. -1.
    9900012    2    1    2    0    0  0.37216550589E+00 -0.70287062320E+00 -0.87206785159E+00  0.90007730279E+02  0.89999991519E+02 0.  0.
        -12    1    1    2    0    0 -0.37216550589E+00  0.70287062320E+00  0.87206785159E+00  0.11802697211E+01  0.00000000000E+00 0.  1.
         11    1    3    3    0    0 -0.35566577132E+01  0.76933545961E+01  0.32886818255E+01  0.90913666432E+01  0.51100000000E-03 0. -1.
        -11    1    3    3    0    0 -0.31263357586E+02  0.23523601532E+01  0.19730619373E+02  0.37043602241E+02  0.51100000000E-03 0.  1.
         12    1    3    3    0    0  0.35192180805E+02 -0.10748585373E+02 -0.23891369050E+02  0.43872761395E+02  0.00000000000E+00 0. -1.
</event>
<event>
 7    1  0.2349719E-015  0.9000774E+02  0.7816164E-02  0.1186339E+00
        -11   -1    0    0    0    0  0.00000000000E+00  0.00000000000E+00  0.45593999997E+02  0.45594000000E+02  0.51100000000E-03 0.  1.
         11   -1    0    0    0    0 -0.00000000000E+00 -0.00000000000E+00 -0.45593999997E+02  0.45594000000E+02  0.51100000000E-03 0. -1.
    9900012    2    1    2    0    0  0.74749405512E+00 -0.62354613603E+00  0.66742110674E+00  0.90007742367E+02  0.90000003766E+02 0.  0.
        -12    1    1    2    0    0 -0.74749405512E+00  0.62354613603E+00 -0.66742110674E+00  0.11802576329E+01  0.00000000000E+00 0.  1.
         11    1    3    3    0    0 -0.11736649944E+02  0.31146173962E+02 -0.12541191100E+02  0.35568449205E+02  0.51100000000E-03 0. -1.
        -11    1    3    3    0    0  0.48470533277E+01  0.93279495528E+01 -0.27942508105E+00  0.10515828425E+02  0.51100000000E-03 0.  1.
        -12    1    3    3    0    0  0.76370906711E+01 -0.41097669651E+02  0.13488037288E+02  0.43923464737E+02  0.00000000000E+00 0.  1.
</event>
<event>
 7    1  0.2924481E-015  0.9000765E+02  0.7816164E-02  0.1186339E+00
        -11   -1    0    0    0    0  0.00000000000E+00  0.00000000000E+00  0.45593999997E+02  0.45594000000E+02  0.51100000000E-03 0.  1.
         11   -1    0    0    0    0 -0.00000000000E+00 -0.00000000000E+00 -0.45593999997E+02  0.45594000000E+02  0.51100000000E-03 0. -1.
    9900012    2    1    2    0    0  0.93692662480E+00 -0.24391076300E+00 -0.67520343677E+00  0.90007651051E+02  0.89999911245E+02 0.  0.
        -12    1    1    2    0    0 -0.93692662480E+00  0.24391076300E+00  0.67520343677E+00  0.11803489491E+01  0.00000000000E+00 0.  1.
         11    1    3    3    0    0 -0.24663215930E+02 -0.50266895495E+01 -0.32183807960E+02  0.40857549155E+02  0.51100000000E-03 0. -1.
        -11    1    3    3    0    0  0.79120406618E+01  0.41458322673E+01 -0.37583107158E+01  0.96908829484E+01  0.51100000000E-03 0.  1.
        -12    1    3    3    0    0  0.17688101893E+02  0.63694651921E+00  0.35266915240E+02  0.39459218948E+02  0.00000000000E+00 0.  1.
</event>
<event>
 7    1  0.2349719E-015  0.9000661E+02  0.7816164E-02  0.1186341E+00
        -11   -1    0    0    0    0  0.00000000000E+00  0.00000000000E+00  0.45593999997E+02  0.45594000000E+02  0.51100000000E-03 0.  1.
         11   -1    0    0    0    0 -0.00000000000E+00 -0.00000000000E+00 -0.45593999997E+02  0.45594000000E+02  0.51100000000E-03 0. -1.
    9900012    2    1    2    0    0 -0.10796501481E+01 -0.47960136065E+00  0.34408073987E-02  0.90006613634E+02  0.89998860126E+02 0.  0.
        -12    1    1    2    0    0  0.10796501481E+01  0.47960136065E+00 -0.34408073987E-02  0.11813863664E+01  0.00000000000E+00 0.  1.
         11    1    3    3    0    0  0.22304716983E+01  0.19187621487E+01 -0.30369684041E+01  0.42284547448E+01  0.51100000000E-03 0. -1.
        -11    1    3    3    0    0  0.59484640939E+01  0.38443781539E+02  0.15817332783E+02  0.41994006485E+02  0.51100000000E-03 0.  1.
         12    1    3    3    0    0 -0.92585859403E+01 -0.40842145048E+02 -0.12776923572E+02  0.43784152403E+02  0.00000000000E+00 0. -1.
</event>
<event>
 7    1  0.2349719E-015  0.9000753E+02  0.7816164E-02  0.1186339E+00
        -11   -1    0    0    0    0  0.00000000000E+00  0.00000000000E+00  0.45593999997E+02  0.45594000000E+02  0.51100000000E-03 0.  1.
         11   -1    0    0    0    0 -0.00000000000E+00 -0.00000000000E+00 -0.45593999997E+02  0.45594000000E+02  0.51100000000E-03 0. -1.
    9900012    2    1    2    0    0 -0.51834895358E-01  0.65311358042E+00 -0.98196814596E+00  0.90007531599E+02  0.89999790216E+02 0.  0.
        -12    1    1    2    0    0  0.51834895358E-01 -0.65311358042E+00  0.98196814596E+00  0.11804684007E+01  0.00000000000E+00 0.  1.
         11    1    3    3    0    0 -0.90627290262E+01 -0.56041813226E+01 -0.39065766200E+02  0.40492888200E+02  0.51100000000E-03 0. -1.
        -11    1    3    3    0    0  0.26075960733E+01 -0.77715013192E+01 -0.24391267902E+00  0.82009318795E+01  0.51100000000E-03 0.  1.
        -12    1    3    3    0    0  0.64032980576E+01  0.14028796222E+02  0.38327710734E+02  0.41313711520E+02  0.00000000000E+00 0.  1.
</event>
<event>
 7    1  0.2349719E-015  0.9000772E+02  0.7816164E-02  0.1186339E+00
        -11   -1    0    0    0    0  0.00000000000E+00  0.00000000000E+00  0.45593999997E+02  0.45594000000E+02  0.51100000000E-03 0. -1.
         11   -1    0    0    0    0 -0.00000000000E+00 -0.00000000000E+00 -0.45593999997E+02  0.45594000000E+02  0.51100000000E-03 0.  1.
    9900012    2    1    2    0    0 -0.94367070750E+00 -0.69211631074E+00  0.15338122846E+00  0.90007718172E+02  0.89999979252E+02 0.  0.
        -12    1    1    2    0    0  0.94367070750E+00  0.69211631074E+00 -0.15338122846E+00  0.11802818278E+01  0.00000000000E+00 0.  1.
         11    1    3    3    0    0 -0.24692981084E+02  0.18412159029E+02  0.22055617748E+02  0.37884049274E+02  0.51100000000E-03 0. -1.
        -11    1    3    3    0    0  0.65751081843E+00  0.10026973677E+02 -0.34647092827E+01  0.10629051335E+02  0.51100000000E-03 0.  1.
        -12    1    3    3    0    0  0.23091799558E+02 -0.29131249017E+02 -0.18437527237E+02  0.41494617563E+02  0.00000000000E+00 0.  1.
</event>
<event>
 7    1  0.2349719E-015  0.9000771E+02  0.7816164E-02  0.1186339E+00
        -11   -1    0    0    0    0  0.00000000000E+00  0.00000000000E+00  0.45593999997E+02  0.45594000000E+02  0.51100000000E-03 0.  1.
         11   -1    0    0    0    0 -0.00000000000E+00 -0.00000000000E+00 -0.45593999997E+02  0.45594000000E+02  0.51100000000E-03 0. -1.
    9900012    2    1    2    0    0  0.10331146013E+01  0.35863595661E+00  0.44400269667E+00  0.90007710238E+02  0.89999971213E+02 0.  0.
        -12    1    1    2    0    0 -0.10331146013E+01 -0.35863595661E+00 -0.44400269667E+00  0.11802897624E+01  0.00000000000E+00 0.  1.
         11    1    3    3    0    0  0.67353690702E+00  0.94632050697E+01 -0.59459836759E+00  0.95057587617E+01  0.51100000000E-03 0. -1.
        -11    1    3    3    0    0 -0.53820091809E+01 -0.28088569302E+02  0.32511905609E+02  0.43300782381E+02  0.51100000000E-03 0.  1.
         12    1    3    3    0    0  0.57415868751E+01  0.18984000189E+02 -0.31473304545E+02  0.37201169094E+02  0.00000000000E+00 0. -1.
</event>
<event>
 7    1  0.2349719E-015  0.9000740E+02  0.7816164E-02  0.1186340E+00
        -11   -1    0    0    0    0  0.00000000000E+00  0.00000000000E+00  0.45593999997E+02  0.45594000000E+02  0.51100000000E-03 0.  1.
         11   -1    0    0    0    0 -0.00000000000E+00 -0.00000000000E+00 -0.45593999997E+02  0.45594000000E+02  0.51100000000E-03 0. -1.
    9900012    2    1    2    0    0  0.14587180153E-01  0.10735301484E+01 -0.49105046554E+00  0.90007402556E+02  0.89999659469E+02 0.  0.
        -12    1    1    2    0    0 -0.14587180153E-01 -0.10735301484E+01  0.49105046554E+00  0.11805974441E+01  0.00000000000E+00 0.  1.
         11    1    3    3    0    0  0.24321733995E+02 -0.26209559004E+02 -0.37334668350E+01  0.35950333831E+02  0.51100000000E-03 0. -1.
        -11    1    3    3    0    0  0.57346820389E+01 -0.63947033167E+01  0.24035243526E+01  0.89194023439E+01  0.51100000000E-03 0.  1.
        -12    1    3    3    0    0 -0.30041828853E+02  0.33677792470E+02  0.83889201683E+00  0.45137666381E+02  0.00000000000E+00 0.  1.
</event>
<event>
 7    1  0.2349719E-015  0.9000785E+02  0.7816164E-02  0.1186339E+00
        -11   -1    0    0    0    0  0.00000000000E+00  0.00000000000E+00  0.45593999997E+02  0.45594000000E+02  0.51100000000E-03 0.  1.
         11   -1    0    0    0    0 -0.00000000000E+00 -0.00000000000E+00 -0.45593999997E+02  0.45594000000E+02  0.51100000000E-03 0. -1.
    9900012    2    1    2    0    0  0.10218635380E+00  0.11754865084E+01  0.23177791874E-01  0.90007852640E+02  0.90000115494E+02 0.  0.
        -12    1    1    2    0    0 -0.10218635380E+00 -0.11754865084E+01 -0.23177791874E-01  0.11801473604E+01  0.00000000000E+00 0.  1.
         11    1    3    3    0    0  0.95557305634E+01  0.13963778556E+01  0.25734315116E+01  0.99942187150E+01  0.51100000000E-03 0. -1.
        -11    1    3    3    0    0 -0.31442679874E+01  0.21420395817E+02  0.32074503400E+02  0.38697461762E+02  0.51100000000E-03 0.  1.
         12    1    3    3    0    0 -0.63092762222E+01 -0.21641287164E+02 -0.34624757120E+02  0.41316172163E+02  0.00000000000E+00 0. -1.
</event>
<event>
 7    1  0.2349719E-015  0.9000767E+02  0.7816164E-02  0.1186339E+00
        -11   -1    0    0    0    0  0.00000000000E+00  0.00000000000E+00  0.45593999997E+02  0.45594000000E+02  0.51100000000E-03 0.  1.
         11   -1    0    0    0    0 -0.00000000000E+00 -0.00000000000E+00 -0.45593999997E+02  0.45594000000E+02  0.51100000000E-03 0. -1.
    9900012    2    1    2    0    0  0.22672813615E+00  0.10214256606E+01  0.54631552647E+00  0.90007670943E+02  0.89999931400E+02 0.  0.
        -12    1    1    2    0    0 -0.22672813615E+00 -0.10214256606E+01 -0.54631552647E+00  0.11803290568E+01  0.00000000000E+00 0.  1.
         11    1    3    3    0    0  0.20335690592E+02 -0.10932363955E+02 -0.13555815861E+02  0.26773439028E+02  0.51100000000E-03 0. -1.
        -11    1    3    3    0    0 -0.23214295054E+02 -0.18115985008E+02  0.14884203327E+02  0.32994422508E+02  0.51100000000E-03 0.  1.
         12    1    3    3    0    0  0.31053325986E+01  0.30069774624E+02 -0.78207193974E+00  0.30239809407E+02  0.00000000000E+00 0. -1.
</event>
<event>
 7    1  0.2349719E-015  0.9000778E+02  0.7816164E-02  0.1186339E+00
        -11   -1    0    0    0    0  0.00000000000E+00  0.00000000000E+00  0.45593999997E+02  0.45594000000E+02  0.51100000000E-03 0. -1.
         11   -1    0    0    0    0 -0.00000000000E+00 -0.00000000000E+00 -0.45593999997E+02  0.45594000000E+02  0.51100000000E-03 0.  1.
    9900012    2    1    2    0    0  0.68603347176E+00  0.20327850500E+00  0.93859449949E+00  0.90007778110E+02  0.90000039981E+02 0.  0.
        -12    1    1    2    0    0 -0.68603347176E+00 -0.20327850500E+00 -0.93859449949E+00  0.11802218899E+01  0.00000000000E+00 0.  1.
         11    1    3    3    0    0  0.15081283013E+02  0.35012471248E+02  0.75085690088E+01  0.38854817579E+02  0.51100000000E-03 0. -1.
        -11    1    3    3    0    0  0.90450168815E+01 -0.36650656276E+00 -0.70424020322E+00  0.90797914058E+01  0.51100000000E-03 0.  1.
        -12    1    3    3    0    0 -0.23440266423E+02 -0.34442686181E+02 -0.58657343061E+01  0.42073169126E+02  0.00000000000E+00 0.  1.
</event>
<event>
 7    1  0.2349719E-015  0.9000780E+02  0.7816164E-02  0.1186339E+00
        -11   -1    0    0    0    0  0.00000000000E+00  0.00000000000E+00  0.45593999997E+02  0.45594000000E+02  0.51100000000E-03 0. -1.
         11   -1    0    0    0    0 -0.00000000000E+00 -0.00000000000E+00 -0.45593999997E+02  0.45594000000E+02  0.51100000000E-03 0.  1.
    9900012    2    1    2    0    0  0.65598515257E+00 -0.15371855064E+00  0.96897884484E+00  0.90007802595E+02  0.90000064789E+02 0.  0.
        -12    1    1    2    0    0 -0.65598515257E+00  0.15371855064E+00 -0.96897884484E+00  0.11801974051E+01  0.00000000000E+00 0.  1.
         11    1    3    3    0    0  0.35913655313E+01  0.34438299453E+01 -0.26929325785E+01  0.56577166070E+01  0.51100000000E-03 0. -1.
        -11    1    3    3    0    0 -0.41297837069E+02 -0.18394865646E+01 -0.11740621720E+02  0.42973680969E+02  0.51100000000E-03 0.  1.
         12    1    3    3    0    0  0.38362456690E+02 -0.17580619314E+01  0.15402533143E+02  0.41376405019E+02  0.00000000000E+00 0. -1.
</event>
<event>
 7    1  0.2349719E-015  0.9000774E+02  0.7816164E-02  0.1186339E+00
        -11   -1    0    0    0    0  0.00000000000E+00  0.00000000000E+00  0.45593999997E+02  0.45594000000E+02  0.51100000000E-03 0.  1.
         11   -1    0    0    0    0 -0.00000000000E+00 -0.00000000000E+00 -0.45593999997E+02  0.45594000000E+02  0.51100000000E-03 0. -1.
    9900012    2    1    2    0    0  0.22034418610E+00 -0.52425552668E+00 -0.10342283201E+01  0.90007735777E+02  0.89999997089E+02 0.  0.
        -12    1    1    2    0    0 -0.22034418610E+00  0.52425552668E+00  0.10342283201E+01  0.11802642228E+01  0.00000000000E+00 0.  1.
         11    1    3    3    0    0 -0.20891355124E+01  0.82259211662E+01  0.68156722707E+01  0.10885019751E+02  0.51100000000E-03 0. -1.
        -11    1    3    3    0    0 -0.20175322067E+02 -0.32727000685E+02  0.12542934170E+02  0.40440393077E+02  0.51100000000E-03 0.  1.
         12    1    3    3    0    0  0.22484801765E+02  0.23976823992E+02 -0.20392834761E+02  0.38682322949E+02  0.00000000000E+00 0. -1.
</event>
<event>
 7    1  0.2349719E-015  0.9000769E+02  0.7816164E-02  0.1186339E+00
        -11   -1    0    0    0    0  0.00000000000E+00  0.00000000000E+00  0.45593999997E+02  0.45594000000E+02  0.51100000000E-03 0. -1.
         11   -1    0    0    0    0 -0.00000000000E+00 -0.00000000000E+00 -0.45593999997E+02  0.45594000000E+02  0.51100000000E-03 0.  1.
    9900012    2    1    2    0    0  0.22639903662E+00  0.91825708270E+00  0.70617619962E+00  0.90007687576E+02  0.89999948252E+02 0.  0.
        -12    1    1    2    0    0 -0.22639903662E+00 -0.91825708270E+00 -0.70617619962E+00  0.11803124242E+01  0.00000000000E+00 0.  1.
         11    1    3    3    0    0 -0.56875943113E+01 -0.41058747998E+01  0.65444849738E+01  0.95936031164E+01  0.51100000000E-03 0. -1.
        -11    1    3    3    0    0  0.33184879455E+02 -0.23548496471E+02 -0.36774884620E+01  0.40856967975E+02  0.51100000000E-03 0.  1.
         12    1    3    3    0    0 -0.27270886107E+02  0.28572628354E+02 -0.21608203122E+01  0.39557116484E+02  0.00000000000E+00 0. -1.
</event>
<event>
 7    1  0.2349719E-015  0.9000772E+02  0.7816164E-02  0.1186339E+00
        -11   -1    0    0    0    0  0.00000000000E+00  0.00000000000E+00  0.45593999997E+02  0.45594000000E+02  0.51100000000E-03 0.  1.
         11   -1    0    0    0    0 -0.00000000000E+00 -0.00000000000E+00 -0.45593999997E+02  0.45594000000E+02  0.51100000000E-03 0. -1.
    9900012    2    1    2    0    0  0.32395902148E+00 -0.15128648357E+00 -0.11248242332E+01  0.90007717575E+02  0.89999978647E+02 0.  0.
        -12    1    1    2    0    0 -0.32395902148E+00  0.15128648357E+00  0.11248242332E+01  0.11802824252E+01  0.00000000000E+00 0.  1.
         11    1    3    3    0    0 -0.11075988651E+02  0.35505896988E+01 -0.36973453931E+01  0.12204694794E+02  0.51100000000E-03 0. -1.
        -11    1    3    3    0    0 -0.65663393831E+01 -0.93318225247E+01  0.36914910715E+02  0.38638198171E+02  0.51100000000E-03 0.  1.
         12    1    3    3    0    0  0.17966287055E+02  0.56299463423E+01 -0.34342389555E+02  0.39164824610E+02  0.00000000000E+00 0. -1.
</event>
<event>
 7    1  0.2349719E-015  0.9000770E+02  0.7816164E-02  0.1186339E+00
        -11   -1    0    0    0    0  0.00000000000E+00  0.00000000000E+00  0.45593999997E+02  0.45594000000E+02  0.51100000000E-03 0.  1.
         11   -1    0    0    0    0 -0.00000000000E+00 -0.00000000000E+00 -0.45593999997E+02  0.45594000000E+02  0.51100000000E-03 0. -1.
    9900012    2    1    2    0    0  0.24210013396E+00 -0.10495811604E+01 -0.48255939013E+00  0.90007704845E+02  0.89999965749E+02 0.  0.
        -12    1    1    2    0    0 -0.24210013396E+00  0.10495811604E+01  0.48255939013E+00  0.11802951547E+01  0.00000000000E+00 0.  1.
         11    1    3    3    0    0 -0.89332978031E+01 -0.23962382492E+01 -0.40218857885E-01  0.92491829479E+01  0.51100000000E-03 0. -1.
        -11    1    3    3    0    0 -0.16360645067E+02 -0.25620931715E+02  0.21854935474E+02  0.37439832449E+02  0.51100000000E-03 0.  1.
         12    1    3    3    0    0  0.25536043004E+02  0.26967588804E+02 -0.22297276007E+02  0.43318689448E+02  0.00000000000E+00 0. -1.
</event>
<event>
 7    1  0.2349719E-015  0.9000772E+02  0.7816164E-02  0.1186339E+00
        -11   -1    0    0    0    0  0.00000000000E+00  0.00000000000E+00  0.45593999997E+02  0.45594000000E+02  0.51100000000E-03 0. -1.
         11   -1    0    0    0    0 -0.00000000000E+00 -0.00000000000E+00 -0.45593999997E+02  0.45594000000E+02  0.51100000000E-03 0.  1.
    9900012    2    1    2    0    0 -0.11102099869E+00 -0.75846559648E+00  0.89748277990E+00  0.90007715685E+02  0.89999976732E+02 0.  0.
        -12    1    1    2    0    0  0.11102099869E+00  0.75846559648E+00 -0.89748277990E+00  0.11802843147E+01  0.00000000000E+00 0.  1.
         11    1    3    3    0    0  0.26238245037E+02 -0.25985087264E+02 -0.69683250024E+01  0.37579619694E+02  0.51100000000E-03 0. -1.
        -11    1    3    3    0    0  0.47658889634E+01 -0.10830128858E+01 -0.74393217521E+01  0.89011304290E+01  0.51100000000E-03 0.  1.
        -12    1    3    3    0    0 -0.31115154999E+02  0.26309634554E+02  0.15305129534E+02  0.43526965562E+02  0.00000000000E+00 0.  1.
</event>
<event>
 7    1  0.2349719E-015  0.9000774E+02  0.7816164E-02  0.1186339E+00
        -11   -1    0    0    0    0  0.00000000000E+00  0.00000000000E+00  0.45593999997E+02  0.45594000000E+02  0.51100000000E-03 0.  1.
         11   -1    0    0    0    0 -0.00000000000E+00 -0.00000000000E+00 -0.45593999997E+02  0.45594000000E+02  0.51100000000E-03 0. -1.
    9900012    2    1    2    0    0 -0.54695931572E+00  0.31367909132E+00 -0.99772159270E+00  0.90007742637E+02  0.90000004040E+02 0.  0.
        -12    1    1    2    0    0  0.54695931572E+00 -0.31367909132E+00  0.99772159270E+00  0.11802573626E+01  0.00000000000E+00 0.  1.
         11    1    3    3    0    0 -0.33174462112E+01  0.20834324795E+01  0.12034526869E+01  0.40981018645E+01  0.51100000000E-03 0. -1.
        -11    1    3    3    0    0 -0.31870690822E+02  0.25797994362E+02 -0.61502349147E+01  0.41462065028E+02  0.51100000000E-03 0.  1.
         12    1    3    3    0    0  0.34641177718E+02 -0.27567747750E+02  0.39490606351E+01  0.44447575745E+02  0.00000000000E+00 0. -1.
</event>
<event>
 7    1  0.2349719E-015  0.9000776E+02  0.7816164E-02  0.1186339E+00
        -11   -1    0    0    0    0  0.00000000000E+00  0.00000000000E+00  0.45593999997E+02  0.45594000000E+02  0.51100000000E-03 0.  1.
         11   -1    0    0    0    0 -0.00000000000E+00 -0.00000000000E+00 -0.45593999997E+02  0.45594000000E+02  0.51100000000E-03 0. -1.
    9900012    2    1    2    0    0  0.58049681382E+00 -0.60191192082E+00 -0.83288353939E+00  0.90007758710E+02  0.90000020325E+02 0.  0.
        -12    1    1    2    0    0 -0.58049681382E+00  0.60191192082E+00  0.83288353939E+00  0.11802412895E+01  0.00000000000E+00 0.  1.
         11    1    3    3    0    0 -0.42243643891E+01  0.37016733967E+01 -0.82914252843E+01  0.10014757807E+02  0.51100000000E-03 0. -1.
        -11    1    3    3    0    0 -0.36931193015E+02  0.36719084112E+01  0.22132458662E+01  0.37179219819E+02  0.51100000000E-03 0.  1.
         12    1    3    3    0    0  0.41736054217E+02 -0.79754937287E+01  0.52452958787E+01  0.42813781084E+02  0.00000000000E+00 0. -1.
</event>
<event>
 7    1  0.2349719E-015  0.9000782E+02  0.7816164E-02  0.1186339E+00
        -11   -1    0    0    0    0  0.00000000000E+00  0.00000000000E+00  0.45593999997E+02  0.45594000000E+02  0.51100000000E-03 0. -1.
         11   -1    0    0    0    0 -0.00000000000E+00 -0.00000000000E+00 -0.45593999997E+02  0.45594000000E+02  0.51100000000E-03 0.  1.
    9900012    2    1    2    0    0  0.45826664395E+00 -0.10851783129E+01 -0.72196449550E-01  0.90007816703E+02  0.90000079083E+02 0.  0.
        -12    1    1    2    0    0 -0.45826664395E+00  0.10851783129E+01  0.72196449550E-01  0.11801832972E+01  0.00000000000E+00 0.  1.
         11    1    3    3    0    0 -0.26877846277E+02 -0.23735688677E+02  0.46944060921E+00  0.35861147670E+02  0.51100000000E-03 0. -1.
        -11    1    3    3    0    0  0.10272699984E+02  0.58722967207E+00 -0.18361785021E+02  0.21048238717E+02  0.51100000000E-03 0.  1.
        -12    1    3    3    0    0  0.17063412936E+02  0.22063280692E+02  0.17820147962E+02  0.33098430316E+02  0.00000000000E+00 0.  1.
</event>
<event>
 7    1  0.2349719E-015  0.9000776E+02  0.7816164E-02  0.1186339E+00
        -11   -1    0    0    0    0  0.00000000000E+00  0.00000000000E+00  0.45593999997E+02  0.45594000000E+02  0.51100000000E-03 0. -1.
         11   -1    0    0    0    0 -0.00000000000E+00 -0.00000000000E+00 -0.45593999997E+02  0.45594000000E+02  0.51100000000E-03 0.  1.
    9900012    2    1    2    0    0  0.38596747626E+00  0.90134955912E+00  0.65693378851E+00  0.90007761074E+02  0.90000022720E+02 0.  0.
        -12    1    1    2    0    0 -0.38596747626E+00 -0.90134955912E+00 -0.65693378851E+00  0.11802389262E+01  0.00000000000E+00 0.  1.
         11    1    3    3    0    0 -0.50301386834E-01 -0.74054442719E+00 -0.95580624258E+01  0.95868396187E+01  0.51100000000E-03 0. -1.
        -11    1    3    3    0    0  0.33928049528E+02  0.73083246026E+01 -0.15308611890E+02  0.37932542118E+02  0.51100000000E-03 0.  1.
         12    1    3    3    0    0 -0.33491780665E+02 -0.56664306163E+01  0.25523608104E+02  0.42488379337E+02  0.00000000000E+00 0. -1.
</event>
<event>
 7    1  0.2349719E-015  0.9000782E+02  0.7816164E-02  0.1186339E+00
        -11   -1    0    0    0    0  0.00000000000E+00  0.00000000000E+00  0.45593999997E+02  0.45594000000E+02  0.51100000000E-03 0. -1.
         11   -1    0    0    0    0 -0.00000000000E+00 -0.00000000000E+00 -0.45593999997E+02  0.45594000000E+02  0.51100000000E-03 0.  1.
    9900012    2    1    2    0    0 -0.22136748872E+00  0.27469169501E+00  0.11262209600E+01  0.90007816649E+02  0.90000079028E+02 0.  0.
        -12    1    1    2    0    0  0.22136748872E+00 -0.27469169501E+00 -0.11262209600E+01  0.11801833514E+01  0.00000000000E+00 0.  1.
         11    1    3    3    0    0  0.30727719496E+02  0.16480585260E+02  0.21524251455E+02  0.40976771919E+02  0.51100000000E-03 0. -1.
        -11    1    3    3    0    0 -0.38418471133E+01 -0.17605633387E+01  0.67986647143E+01  0.80050743076E+01  0.51100000000E-03 0.  1.
        -12    1    3    3    0    0 -0.27107239871E+02 -0.14445330226E+02 -0.27196695209E+02  0.41025970422E+02  0.00000000000E+00 0.  1.
</event>
<event>
 7    1  0.2349719E-015  0.9000773E+02  0.7816164E-02  0.1186339E+00
        -11   -1    0    0    0    0  0.00000000000E+00  0.00000000000E+00  0.45593999997E+02  0.45594000000E+02  0.51100000000E-03 0. -1.
         11   -1    0    0    0    0 -0.00000000000E+00 -0.00000000000E+00 -0.45593999997E+02  0.45594000000E+02  0.51100000000E-03 0.  1.
    9900012    2    1    2    0    0 -0.86202325289E+00  0.46839845450E+00  0.65616078323E+00  0.90007733855E+02  0.89999995141E+02 0.  0.
        -12    1    1    2    0    0  0.86202325289E+00 -0.46839845450E+00 -0.65616078323E+00  0.11802661455E+01  0.00000000000E+00 0.  1.
         11    1    3    3    0    0  0.30469941952E+01 -0.31702104689E+01 -0.56890467268E+01  0.71902476288E+01  0.51100000000E-03 0. -1.
        -11    1    3    3    0    0 -0.14119382019E+02 -0.10722341437E+02 -0.34247968532E+02  0.38564866178E+02  0.51100000000E-03 0.  1.
         12    1    3    3    0    0  0.10210364571E+02  0.14360950361E+02  0.40593176042E+02  0.44252620048E+02  0.00000000000E+00 0. -1.
</event>
<event>
 7    1  0.2349719E-015  0.9000765E+02  0.7816164E-02  0.1186339E+00
        -11   -1    0    0    0    0  0.00000000000E+00  0.00000000000E+00  0.45593999997E+02  0.45594000000E+02  0.51100000000E-03 0.  1.
         11   -1    0    0    0    0 -0.00000000000E+00 -0.00000000000E+00 -0.45593999997E+02  0.45594000000E+02  0.51100000000E-03 0. -1.
    9900012    2    1    2    0    0  0.25529528530E-02 -0.11515746843E+01 -0.25902369346E+00  0.90007650880E+02  0.89999911072E+02 0.  0.
        -12    1    1    2    0    0 -0.25529528530E-02  0.11515746843E+01  0.25902369346E+00  0.11803491199E+01  0.00000000000E+00 0.  1.
         11    1    3    3    0    0  0.33813880703E+02 -0.16160636084E+02 -0.18329043614E+02  0.41719282435E+02  0.51100000000E-03 0. -1.
        -11    1    3    3    0    0  0.11275231933E+01  0.30427158712E+01  0.99625530595E+01  0.10477685439E+02  0.51100000000E-03 0.  1.
        -12    1    3    3    0    0 -0.34938850943E+02  0.11966345528E+02  0.81074668611E+01  0.37810683007E+02  0.00000000000E+00 0.  1.
</event>
<event>
 7    1  0.2349719E-015  0.9000773E+02  0.7816164E-02  0.1186339E+00
        -11   -1    0    0    0    0  0.00000000000E+00  0.00000000000E+00  0.45593999997E+02  0.45594000000E+02  0.51100000000E-03 0.  1.
         11   -1    0    0    0    0 -0.00000000000E+00 -0.00000000000E+00 -0.45593999997E+02  0.45594000000E+02  0.51100000000E-03 0. -1.
    9900012    2    1    2    0    0  0.81553111639E+00  0.60635269708E+00  0.60023376063E+00  0.90007730894E+02  0.89999992142E+02 0.  0.
        -12    1    1    2    0    0 -0.81553111639E+00 -0.60635269708E+00 -0.60023376063E+00  0.11802691059E+01  0.00000000000E+00 0.  1.
         11    1    3    3    0    0  0.49070274306E+01  0.38059697768E+01 -0.51934675763E+01  0.80954573604E+01  0.51100000000E-03 0. -1.
        -11    1    3    3    0    0 -0.17848300042E+02  0.29480387019E+02  0.24056215170E+02  0.42028044467E+02  0.51100000000E-03 0.  1.
         12    1    3    3    0    0  0.13756803728E+02 -0.32680004098E+02 -0.18262513833E+02  0.39884229066E+02  0.00000000000E+00 0. -1.
</event>
<event>
 7    1  0.2349719E-015  0.9000771E+02  0.7816164E-02  0.1186339E+00
        -11   -1    0    0    0    0  0.00000000000E+00  0.00000000000E+00  0.45593999997E+02  0.45594000000E+02  0.51100000000E-03 0.  1.
         11   -1    0    0    0    0 -0.00000000000E+00 -0.00000000000E+00 -0.45593999997E+02  0.45594000000E+02  0.51100000000E-03 0. -1.
    9900012    2    1    2    0    0  0.20877164351E-01 -0.11111505949E+01  0.39748413036E+00  0.90007709724E+02  0.89999970693E+02 0.  0.
        -12    1    1    2    0    0 -0.20877164351E-01  0.11111505949E+01 -0.39748413036E+00  0.11802902755E+01  0.00000000000E+00 0.  1.
         11    1    3    3    0    0  0.22205703369E+01  0.11733285997E+02  0.23191969755E+01  0.12164686916E+02  0.51100000000E-03 0. -1.
        -11    1    3    3    0    0  0.14527534812E+02 -0.41391643854E+02  0.46399536301E+01  0.44111751479E+02  0.51100000000E-03 0.  1.
         12    1    3    3    0    0 -0.16727227984E+02  0.28547207262E+02 -0.65616664752E+01  0.33731271329E+02  0.00000000000E+00 0. -1.
</event>
<event>
 7    1  0.2349719E-015  0.9000773E+02  0.7816164E-02  0.1186339E+00
        -11   -1    0    0    0    0  0.00000000000E+00  0.00000000000E+00  0.45593999997E+02  0.45594000000E+02  0.51100000000E-03 0. -1.
         11   -1    0    0    0    0 -0.00000000000E+00 -0.00000000000E+00 -0.45593999997E+02  0.45594000000E+02  0.51100000000E-03 0.  1.
    9900012    2    1    2    0    0 -0.21811089959E+00 -0.11477303054E+01  0.16787351549E+00  0.90007729380E+02  0.89999990608E+02 0.  0.
        -12    1    1    2    0    0  0.21811089959E+00  0.11477303054E+01 -0.16787351549E+00  0.11802706197E+01  0.00000000000E+00 0.  1.
         11    1    3    3    0    0 -0.64286655087E+01  0.57501905663E+01  0.17467087137E+01  0.88001945072E+01  0.51100000000E-03 0. -1.
        -11    1    3    3    0    0 -0.21864723006E+02 -0.16265226522E+02 -0.29751696635E+02  0.40345844381E+02  0.51100000000E-03 0.  1.
         12    1    3    3    0    0  0.28075277615E+02  0.93673056499E+01  0.28172861437E+02  0.40861690492E+02  0.00000000000E+00 0. -1.
</event>
<event>
 7    1  0.2349719E-015  0.9000772E+02  0.7816164E-02  0.1186339E+00
        -11   -1    0    0    0    0  0.00000000000E+00  0.00000000000E+00  0.45593999997E+02  0.45594000000E+02  0.51100000000E-03 0.  1.
         11   -1    0    0    0    0 -0.00000000000E+00 -0.00000000000E+00 -0.45593999997E+02  0.45594000000E+02  0.51100000000E-03 0. -1.
    9900012    2    1    2    0    0 -0.39191291803E+00 -0.73178206944E+00 -0.83902546222E+00  0.90007718483E+02  0.89999979567E+02 0.  0.
        -12    1    1    2    0    0  0.39191291803E+00  0.73178206944E+00  0.83902546222E+00  0.11802815167E+01  0.00000000000E+00 0.  1.
         11    1    3    3    0    0  0.43067480042E+01 -0.23833074529E+01 -0.10823049428E+02  0.11889770055E+02  0.51100000000E-03 0. -1.
        -11    1    3    3    0    0  0.11559203455E+02 -0.18946096642E+02  0.35273186012E+02  0.41674541559E+02  0.51100000000E-03 0.  1.
         12    1    3    3    0    0 -0.16257864377E+02  0.20597622025E+02 -0.25289162046E+02  0.36443406869E+02  0.00000000000E+00 0. -1.
</event>
<event>
 7    1  0.2349719E-015  0.9000776E+02  0.7816164E-02  0.1186339E+00
        -11   -1    0    0    0    0  0.00000000000E+00  0.00000000000E+00  0.45593999997E+02  0.45594000000E+02  0.51100000000E-03 0.  1.
         11   -1    0    0    0    0 -0.00000000000E+00 -0.00000000000E+00 -0.45593999997E+02  0.45594000000E+02  0.51100000000E-03 0. -1.
    9900012    2    1    2    0    0 -0.10955868386E+01  0.42651899508E+00  0.10366159950E+00  0.90007756508E+02  0.90000018094E+02 0.  0.
        -12    1    1    2    0    0  0.10955868386E+01 -0.42651899508E+00 -0.10366159950E+00  0.11802434924E+01  0.00000000000E+00 0.  1.
         11    1    3    3    0    0  0.22112419031E+01  0.23049633900E+02 -0.35820853191E+02  0.42653355522E+02  0.51100000000E-03 0. -1.
        -11    1    3    3    0    0 -0.38819492926E+01 -0.85901020419E+01  0.72266698302E+00  0.94541859105E+01  0.51100000000E-03 0.  1.
        -12    1    3    3    0    0  0.57512055094E+00 -0.14033012863E+02  0.35201847808E+02  0.37900215075E+02  0.00000000000E+00 0.  1.
</event>
<event>
 7    1  0.2349719E-015  0.9000771E+02  0.7816164E-02  0.1186339E+00
        -11   -1    0    0    0    0  0.00000000000E+00  0.00000000000E+00  0.45593999997E+02  0.45594000000E+02  0.51100000000E-03 0.  1.
         11   -1    0    0    0    0 -0.00000000000E+00 -0.00000000000E+00 -0.45593999997E+02  0.45594000000E+02  0.51100000000E-03 0. -1.
    9900012    2    1    2    0    0 -0.12839440155E+00  0.10137146998E+01  0.59074199772E+00  0.90007712441E+02  0.89999973445E+02 0.  0.
        -12    1    1    2    0    0  0.12839440155E+00 -0.10137146998E+01 -0.59074199772E+00  0.11802875593E+01  0.00000000000E+00 0.  1.
         11    1    3    3    0    0 -0.22420293488E+02  0.11585969833E+01 -0.31015485180E+02  0.38288016771E+02  0.51100000000E-03 0. -1.
        -11    1    3    3    0    0 -0.39392581873E+01 -0.48520012873E+01 -0.38682294549E+01  0.73500252336E+01  0.51100000000E-03 0.  1.
        -12    1    3    3    0    0  0.26231157274E+02  0.47071190038E+01  0.35474456632E+02  0.44369670436E+02  0.00000000000E+00 0.  1.
</event>
<event>
 7    1  0.2349719E-015  0.9000773E+02  0.7816164E-02  0.1186339E+00
        -11   -1    0    0    0    0  0.00000000000E+00  0.00000000000E+00  0.45593999997E+02  0.45594000000E+02  0.51100000000E-03 0. -1.
         11   -1    0    0    0    0 -0.00000000000E+00 -0.00000000000E+00 -0.45593999997E+02  0.45594000000E+02  0.51100000000E-03 0.  1.
    9900012    2    1    2    0    0 -0.75940701608E-01  0.11732306947E+01 -0.10394174048E+00  0.90007728362E+02  0.89999989577E+02 0.  0.
        -12    1    1    2    0    0  0.75940701608E-01 -0.11732306947E+01  0.10394174048E+00  0.11802716376E+01  0.00000000000E+00 0.  1.
         11    1    3    3    0    0  0.26756879060E+02  0.42340612984E+00  0.28777375787E+02  0.39296910912E+02  0.51100000000E-03 0. -1.
        -11    1    3    3    0    0 -0.60739270427E+01 -0.45286863948E+01  0.60769056537E+01  0.97123824455E+01  0.51100000000E-03 0.  1.
        -12    1    3    3    0    0 -0.20758892719E+02  0.52785109597E+01 -0.34958223181E+02  0.40998435005E+02  0.00000000000E+00 0.  1.
</event>
<event>
 7    1  0.2349719E-015  0.9000774E+02  0.7816164E-02  0.1186339E+00
        -11   -1    0    0    0    0  0.00000000000E+00  0.00000000000E+00  0.45593999997E+02  0.45594000000E+02  0.51100000000E-03 0.  1.
         11   -1    0    0    0    0 -0.00000000000E+00 -0.00000000000E+00 -0.45593999997E+02  0.45594000000E+02  0.51100000000E-03 0. -1.
    9900012    2    1    2    0    0  0.27215363280E-01  0.24206460087E+00 -0.11548478257E+01  0.90007741788E+02  0.90000003179E+02 0.  0.
        -12    1    1    2    0    0 -0.27215363280E-01 -0.24206460087E+00  0.11548478257E+01  0.11802582122E+01  0.00000000000E+00 0.  1.
         11    1    3    3    0    0 -0.35667417144E+02 -0.96095700090E+01 -0.84642711116E+01  0.37896600998E+02  0.51100000000E-03 0. -1.
        -11    1    3    3    0    0 -0.11156494091E+01 -0.90559830525E+01  0.55743772290E+01  0.10692482612E+02  0.51100000000E-03 0.  1.
        -12    1    3    3    0    0  0.36810281917E+02  0.18907617662E+02  0.17350460570E+01  0.41418658178E+02  0.00000000000E+00 0.  1.
</event>
<event>
 7    1  0.2349719E-015  0.9000771E+02  0.7816164E-02  0.1186339E+00
        -11   -1    0    0    0    0  0.00000000000E+00  0.00000000000E+00  0.45593999997E+02  0.45594000000E+02  0.51100000000E-03 0.  1.
         11   -1    0    0    0    0 -0.00000000000E+00 -0.00000000000E+00 -0.45593999997E+02  0.45594000000E+02  0.51100000000E-03 0. -1.
    9900012    2    1    2    0    0 -0.12826379222E+00  0.58209203044E-01 -0.11718511095E+01  0.90007714045E+02  0.89999975071E+02 0.  0.
        -12    1    1    2    0    0  0.12826379222E+00 -0.58209203044E-01  0.11718511095E+01  0.11802859546E+01  0.00000000000E+00 0.  1.
         11    1    3    3    0    0 -0.34383747416E+02 -0.32742396338E+01  0.40608491756E+00  0.34541679704E+02  0.51100000000E-03 0. -1.
        -11    1    3    3    0    0 -0.59143783936E+01 -0.57646879883E+01  0.97224379849E+01  0.12756853061E+02  0.51100000000E-03 0.  1.
        -12    1    3    3    0    0  0.40169862017E+02  0.90971368252E+01 -0.11300374012E+02  0.42709181281E+02  0.00000000000E+00 0.  1.
</event>
<event>
 7    1  0.2349719E-015  0.9000799E+02  0.7816164E-02  0.1186339E+00
        -11   -1    0    0    0    0  0.00000000000E+00  0.00000000000E+00  0.45593999997E+02  0.45594000000E+02  0.51100000000E-03 0. -1.
         11   -1    0    0    0    0 -0.00000000000E+00 -0.00000000000E+00 -0.45593999997E+02  0.45594000000E+02  0.51100000000E-03 0.  1.
    9900012    2    1    2    0    0 -0.32005564289E+00  0.11287549879E+01  0.12611157771E+00  0.90007988319E+02  0.90000252964E+02 0.  0.
        -12    1    1    2    0    0  0.32005564289E+00 -0.11287549879E+01 -0.12611157771E+00  0.11800116810E+01  0.00000000000E+00 0.  1.
         11    1    3    3    0    0 -0.20996694828E+02 -0.36765168120E+02  0.59881815637E+01  0.42759760281E+02  0.51100000000E-03 0. -1.
        -11    1    3    3    0    0  0.68750094808E+01  0.61453320506E+01  0.55914011796E+01  0.10783998738E+02  0.51100000000E-03 0.  1.
        -12    1    3    3    0    0  0.13801629704E+02  0.31748591058E+02 -0.11453471166E+02  0.36464229299E+02  0.00000000000E+00 0.  1.
</event>
<event>
 7    1  0.2349719E-015  0.9000769E+02  0.7816164E-02  0.1186339E+00
        -11   -1    0    0    0    0  0.00000000000E+00  0.00000000000E+00  0.45593999997E+02  0.45594000000E+02  0.51100000000E-03 0.  1.
         11   -1    0    0    0    0 -0.00000000000E+00 -0.00000000000E+00 -0.45593999997E+02  0.45594000000E+02  0.51100000000E-03 0. -1.
    9900012    2    1    2    0    0 -0.24627233828E-01 -0.80876536723E+00 -0.85932024151E+00  0.90007686822E+02  0.89999947488E+02 0.  0.
        -12    1    1    2    0    0  0.24627233828E-01  0.80876536723E+00  0.85932024151E+00  0.11803131777E+01  0.00000000000E+00 0.  1.
         11    1    3    3    0    0 -0.62870058277E+01  0.69496829585E+01  0.41343501799E+01  0.10242918879E+02  0.51100000000E-03 0. -1.
        -11    1    3    3    0    0  0.77163306714E+01  0.99357762595E+01  0.34360619684E+02  0.36591168255E+02  0.51100000000E-03 0.  1.
         12    1    3    3    0    0 -0.14539520776E+01 -0.17694224585E+02 -0.39354290106E+02  0.43173599688E+02  0.00000000000E+00 0. -1.
</event>
<event>
 7    1  0.2349719E-015  0.9000782E+02  0.7816164E-02  0.1186339E+00
        -11   -1    0    0    0    0  0.00000000000E+00  0.00000000000E+00  0.45593999997E+02  0.45594000000E+02  0.51100000000E-03 0.  1.
         11   -1    0    0    0    0 -0.00000000000E+00 -0.00000000000E+00 -0.45593999997E+02  0.45594000000E+02  0.51100000000E-03 0. -1.
    9900012    2    1    2    0    0  0.68160530605E+00  0.76865981372E+00 -0.58086977593E+00  0.90007816371E+02  0.90000078747E+02 0.  0.
        -12    1    1    2    0    0 -0.68160530605E+00 -0.76865981372E+00  0.58086977593E+00  0.11801836294E+01  0.00000000000E+00 0.  1.
         11    1    3    3    0    0 -0.21482180175E+02 -0.25661130846E+02 -0.71077503838E+01  0.34212538888E+02  0.51100000000E-03 0. -1.
        -11    1    3    3    0    0 -0.56217465828E+01 -0.88540353557E+01  0.75643140114E+00  0.10515234921E+02  0.51100000000E-03 0.  1.
        -12    1    3    3    0    0  0.27785532064E+02  0.35283826015E+02  0.57704492067E+01  0.45280042562E+02  0.00000000000E+00 0.  1.
</event>
<event>
 7    1  0.2349719E-015  0.9000769E+02  0.7816164E-02  0.1186339E+00
        -11   -1    0    0    0    0  0.00000000000E+00  0.00000000000E+00  0.45593999997E+02  0.45594000000E+02  0.51100000000E-03 0.  1.
         11   -1    0    0    0    0 -0.00000000000E+00 -0.00000000000E+00 -0.45593999997E+02  0.45594000000E+02  0.51100000000E-03 0. -1.
    9900012    2    1    2    0    0  0.34039419489E+00  0.49958701243E+00 -0.10137406370E+01  0.90007692637E+02  0.89999953380E+02 0.  0.
        -12    1    1    2    0    0 -0.34039419489E+00 -0.49958701243E+00  0.10137406370E+01  0.11803073625E+01  0.00000000000E+00 0.  1.
         11    1    3    3    0    0 -0.14015620282E+01  0.50539443735E+01  0.80856957510E+01  0.96376971258E+01  0.51100000000E-03 0. -1.
        -11    1    3    3    0    0 -0.20233762008E+02 -0.15864398339E+02  0.26570649247E+02  0.36974094462E+02  0.51100000000E-03 0.  1.
         12    1    3    3    0    0  0.21975718231E+02  0.11310040977E+02 -0.35670085635E+02  0.43395901049E+02  0.00000000000E+00 0. -1.
</event>
<event>
 7    1  0.2349719E-015  0.9000775E+02  0.7816164E-02  0.1186339E+00
        -11   -1    0    0    0    0  0.00000000000E+00  0.00000000000E+00  0.45593999997E+02  0.45594000000E+02  0.51100000000E-03 0. -1.
         11   -1    0    0    0    0 -0.00000000000E+00 -0.00000000000E+00 -0.45593999997E+02  0.45594000000E+02  0.51100000000E-03 0.  1.
    9900012    2    1    2    0    0 -0.59743313828E+00  0.20746421118E+00  0.99650805258E+00  0.90007747462E+02  0.90000008929E+02 0.  0.
        -12    1    1    2    0    0  0.59743313828E+00 -0.20746421118E+00 -0.99650805258E+00  0.11802525376E+01  0.00000000000E+00 0.  1.
         11    1    3    3    0    0 -0.96647848080E+01  0.39673458676E+02 -0.72718961157E+01  0.41476160166E+02  0.51100000000E-03 0. -1.
        -11    1    3    3    0    0  0.74461321718E+00 -0.10649522488E+01  0.91374471332E+01  0.92293831055E+01  0.51100000000E-03 0.  1.
        -12    1    3    3    0    0  0.83227384525E+01 -0.38401042216E+02 -0.86904296485E+00  0.39302204191E+02  0.00000000000E+00 0.  1.
</event>
<event>
 7    1  0.2349719E-015  0.9000769E+02  0.7816164E-02  0.1186339E+00
        -11   -1    0    0    0    0  0.00000000000E+00  0.00000000000E+00  0.45593999997E+02  0.45594000000E+02  0.51100000000E-03 0.  1.
         11   -1    0    0    0    0 -0.00000000000E+00 -0.00000000000E+00 -0.45593999997E+02  0.45594000000E+02  0.51100000000E-03 0. -1.
    9900012    2    1    2    0    0  0.95626744328E-01 -0.84367918521E+00 -0.81987971071E+00  0.90007685728E+02  0.89999946379E+02 0.  0.
        -12    1    1    2    0    0 -0.95626744328E-01  0.84367918521E+00  0.81987971071E+00  0.11803142725E+01  0.00000000000E+00 0.  1.
         11    1    3    3    0    0 -0.12243601878E+02 -0.18325745299E+02  0.11639416549E+02  0.24924179938E+02  0.51100000000E-03 0. -1.
        -11    1    3    3    0    0 -0.90893659447E+01  0.25952015659E+02  0.13280671051E+02  0.30536861559E+02  0.51100000000E-03 0.  1.
         12    1    3    3    0    0  0.21428594567E+02 -0.84699495447E+01 -0.25739967311E+02  0.34546644230E+02  0.00000000000E+00 0. -1.
</event>
<event>
 7    1  0.2349719E-015  0.9000776E+02  0.7816164E-02  0.1186339E+00
        -11   -1    0    0    0    0  0.00000000000E+00  0.00000000000E+00  0.45593999997E+02  0.45594000000E+02  0.51100000000E-03 0. -1.
         11   -1    0    0    0    0 -0.00000000000E+00 -0.00000000000E+00 -0.45593999997E+02  0.45594000000E+02  0.51100000000E-03 0.  1.
    9900012    2    1    2    0    0  0.16086423779E+00 -0.15537261859E-02  0.11692231925E+01  0.90007761638E+02  0.90000023292E+02 0.  0.
        -12    1    1    2    0    0 -0.16086423779E+00  0.15537261859E-02 -0.11692231925E+01  0.11802383619E+01  0.00000000000E+00 0.  1.
         11    1    3    3    0    0  0.29491021515E+01 -0.19844681806E+02 -0.56447849408E+01  0.20841597750E+02  0.51100000000E-03 0. -1.
        -11    1    3    3    0    0 -0.18913790543E+02  0.29719346883E+02 -0.16705447245E+02  0.38987729092E+02  0.51100000000E-03 0.  1.
         12    1    3    3    0    0  0.16125552629E+02 -0.98762188029E+01  0.23519455378E+02  0.30178434796E+02  0.00000000000E+00 0. -1.
</event>
<event>
 7    1  0.2349719E-015  0.9000765E+02  0.7816164E-02  0.1186339E+00
        -11   -1    0    0    0    0  0.00000000000E+00  0.00000000000E+00  0.45593999997E+02  0.45594000000E+02  0.51100000000E-03 0. -1.
         11   -1    0    0    0    0 -0.00000000000E+00 -0.00000000000E+00 -0.45593999997E+02  0.45594000000E+02  0.51100000000E-03 0.  1.
    9900012    2    1    2    0    0  0.10613848501E+01  0.22883990657E+00 -0.46294690026E+00  0.90007650333E+02  0.89999910518E+02 0.  0.
        -12    1    1    2    0    0 -0.10613848501E+01 -0.22883990657E+00  0.46294690026E+00  0.11803496665E+01  0.00000000000E+00 0.  1.
         11    1    3    3    0    0 -0.14747800925E+02 -0.31497560709E+02 -0.61459681123E+01  0.35318081588E+02  0.51100000000E-03 0. -1.
        -11    1    3    3    0    0 -0.89030801575E+01 -0.33252326521E+01 -0.46421864773E+01  0.10576951547E+02  0.51100000000E-03 0.  1.
        -12    1    3    3    0    0  0.24712265932E+02  0.35051633268E+02  0.10325207689E+02  0.44112617198E+02  0.00000000000E+00 0.  1.
</event>
<event>
 7    1  0.2349719E-015  0.9000763E+02  0.7816164E-02  0.1186339E+00
        -11   -1    0    0    0    0  0.00000000000E+00  0.00000000000E+00  0.45593999997E+02  0.45594000000E+02  0.51100000000E-03 0. -1.
         11   -1    0    0    0    0 -0.00000000000E+00 -0.00000000000E+00 -0.45593999997E+02  0.45594000000E+02  0.51100000000E-03 0.  1.
    9900012    2    1    2    0    0 -0.11507428593E+01  0.26210496962E+00 -0.19105553853E-01  0.90007630073E+02  0.89999889990E+02 0.  0.
        -12    1    1    2    0    0  0.11507428593E+01 -0.26210496962E+00  0.19105553853E-01  0.11803699274E+01  0.00000000000E+00 0.  1.
         11    1    3    3    0    0 -0.31015241898E+02  0.18408561951E+02  0.99514943665E+01  0.37414604414E+02  0.51100000000E-03 0. -1.
        -11    1    3    3    0    0 -0.73209745289E+01  0.36397383723E+01  0.66411532210E+00  0.82027686115E+01  0.51100000000E-03 0.  1.
        -12    1    3    3    0    0  0.37185473567E+02 -0.21786195354E+02 -0.10634715242E+02  0.44390257047E+02  0.00000000000E+00 0.  1.
</event>
<event>
 7    1  0.2349719E-015  0.9000773E+02  0.7816164E-02  0.1186339E+00
        -11   -1    0    0    0    0  0.00000000000E+00  0.00000000000E+00  0.45593999997E+02  0.45594000000E+02  0.51100000000E-03 0. -1.
         11   -1    0    0    0    0 -0.00000000000E+00 -0.00000000000E+00 -0.45593999997E+02  0.45594000000E+02  0.51100000000E-03 0.  1.
    9900012    2    1    2    0    0  0.17095394331E+00  0.87200703397E+00 -0.77679826306E+00  0.90007730090E+02  0.89999991328E+02 0.  0.
        -12    1    1    2    0    0 -0.17095394331E+00 -0.87200703397E+00  0.77679826306E+00  0.11802699096E+01  0.00000000000E+00 0.  1.
         11    1    3    3    0    0  0.35855808733E+02 -0.13628658250E+02  0.16277156483E+02  0.41669235283E+02  0.51100000000E-03 0. -1.
        -11    1    3    3    0    0  0.23894411784E+01  0.21084572813E+01 -0.60108631641E+01  0.68033445812E+01  0.51100000000E-03 0.  1.
        -12    1    3    3    0    0 -0.38074295968E+02  0.12392208003E+02 -0.11043091582E+02  0.41535150227E+02  0.00000000000E+00 0.  1.
</event>
<event>
 7    1  0.2349719E-015  0.9000768E+02  0.7816164E-02  0.1186339E+00
        -11   -1    0    0    0    0  0.00000000000E+00  0.00000000000E+00  0.45593999997E+02  0.45594000000E+02  0.51100000000E-03 0.  1.
         11   -1    0    0    0    0 -0.00000000000E+00 -0.00000000000E+00 -0.45593999997E+02  0.45594000000E+02  0.51100000000E-03 0. -1.
    9900012    2    1    2    0    0 -0.54984903365E+00  0.28468974130E+00 -0.10048731531E+01  0.90007681288E+02  0.89999941881E+02 0.  0.
        -12    1    1    2    0    0  0.54984903365E+00 -0.28468974130E+00  0.10048731531E+01  0.11803187122E+01  0.00000000000E+00 0.  1.
         11    1    3    3    0    0 -0.74478364770E+01 -0.56569901808E+00  0.56584490108E+01  0.93706098540E+01  0.51100000000E-03 0. -1.
        -11    1    3    3    0    0  0.42192609454E+02  0.62225150799E+01  0.53176489387E+01  0.42979220292E+02  0.51100000000E-03 0.  1.
         12    1    3    3    0    0 -0.35294622010E+02 -0.53721263205E+01 -0.11980971103E+02  0.37657851142E+02  0.00000000000E+00 0. -1.
</event>
<event>
 7    1  0.2349719E-015  0.9000770E+02  0.7816164E-02  0.1186339E+00
        -11   -1    0    0    0    0  0.00000000000E+00  0.00000000000E+00  0.45593999997E+02  0.45594000000E+02  0.51100000000E-03 0. -1.
         11   -1    0    0    0    0 -0.00000000000E+00 -0.00000000000E+00 -0.45593999997E+02  0.45594000000E+02  0.51100000000E-03 0.  1.
    9900012    2    1    2    0    0 -0.10585264692E+01  0.13644037673E+00  0.50399478472E+00  0.90007701307E+02  0.89999962164E+02 0.  0.
        -12    1    1    2    0    0  0.10585264692E+01 -0.13644037673E+00 -0.50399478472E+00  0.11802986933E+01  0.00000000000E+00 0.  1.
         11    1    3    3    0    0  0.35655367625E+02 -0.52105018692E+01  0.11952781943E+01  0.36053893832E+02  0.51100000000E-03 0. -1.
        -11    1    3    3    0    0  0.59426883701E+01  0.93716951210E+01 -0.47578224467E+00  0.11107231136E+02  0.51100000000E-03 0.  1.
        -12    1    3    3    0    0 -0.42656582464E+02 -0.40247528750E+01 -0.21550116488E+00  0.42846576339E+02  0.00000000000E+00 0.  1.
</event>
<event>
 7    1  0.2349719E-015  0.9000777E+02  0.7816164E-02  0.1186339E+00
        -11   -1    0    0    0    0  0.00000000000E+00  0.00000000000E+00  0.45593999997E+02  0.45594000000E+02  0.51100000000E-03 0. -1.
         11   -1    0    0    0    0 -0.00000000000E+00 -0.00000000000E+00 -0.45593999997E+02  0.45594000000E+02  0.51100000000E-03 0.  1.
    9900012    2    1    2    0    0  0.24518102184E+00 -0.34960387503E+00  0.11002765755E+01  0.90007769029E+02  0.90000030780E+02 0.  0.
        -12    1    1    2    0    0 -0.24518102184E+00  0.34960387503E+00 -0.11002765755E+01  0.11802309712E+01  0.00000000000E+00 0.  1.
         11    1    3    3    0    0 -0.23891184650E+02 -0.22998511797E+02  0.24793217419E+02  0.41405602026E+02  0.51100000000E-03 0. -1.
        -11    1    3    3    0    0 -0.48049098560E+01  0.32860829370E+01  0.10104996240E+01  0.59081815768E+01  0.51100000000E-03 0.  1.
        -12    1    3    3    0    0  0.28941275528E+02  0.19362824985E+02 -0.24703440468E+02  0.42693985426E+02  0.00000000000E+00 0.  1.
</event>
<event>
 7    1  0.2349719E-015  0.9000773E+02  0.7816164E-02  0.1186339E+00
        -11   -1    0    0    0    0  0.00000000000E+00  0.00000000000E+00  0.45593999997E+02  0.45594000000E+02  0.51100000000E-03 0.  1.
         11   -1    0    0    0    0 -0.00000000000E+00 -0.00000000000E+00 -0.45593999997E+02  0.45594000000E+02  0.51100000000E-03 0. -1.
    9900012    2    1    2    0    0 -0.27149872865E+00  0.71514499828E-01 -0.11463950467E+01  0.90007725673E+02  0.89999986852E+02 0.  0.
        -12    1    1    2    0    0  0.27149872865E+00 -0.71514499828E-01  0.11463950467E+01  0.11802743268E+01  0.00000000000E+00 0.  1.
         11    1    3    3    0    0 -0.15043092917E+02 -0.14668272413E+02 -0.28092823838E+02  0.35080758423E+02  0.51100000000E-03 0. -1.
        -11    1    3    3    0    0  0.16342540297E+01  0.36535552978E+01 -0.11842022663E+02  0.12500110142E+02  0.51100000000E-03 0.  1.
        -12    1    3    3    0    0  0.13137340159E+02  0.11086231615E+02  0.38788451454E+02  0.42426857108E+02  0.00000000000E+00 0.  1.
</event>
<event>
 7    1  0.2349719E-015  0.9000745E+02  0.7816164E-02  0.1186340E+00
        -11   -1    0    0    0    0  0.00000000000E+00  0.00000000000E+00  0.45593999997E+02  0.45594000000E+02  0.51100000000E-03 0. -1.
         11   -1    0    0    0    0 -0.00000000000E+00 -0.00000000000E+00 -0.45593999997E+02  0.45594000000E+02  0.51100000000E-03 0.  1.
    9900012    2    1    2    0    0 -0.10904175023E+01 -0.10368443445E+00 -0.44037752453E+00  0.90007452180E+02  0.89999709748E+02 0.  0.
        -12    1    1    2    0    0  0.10904175023E+01  0.10368443445E+00  0.44037752453E+00  0.11805478200E+01  0.00000000000E+00 0.  1.
         11    1    3    3    0    0  0.64450422130E+00  0.88222000402E+01 -0.15246921865E+01  0.89761509437E+01  0.51100000000E-03 0. -1.
        -11    1    3    3    0    0 -0.26742645507E+02  0.26503834265E+02  0.21586071267E-02  0.37651325666E+02  0.51100000000E-03 0.  1.
         12    1    3    3    0    0  0.25007723784E+02 -0.35429718739E+02  0.10821560548E+01  0.43379975571E+02  0.00000000000E+00 0. -1.
</event>
<event>
 7    1  0.2349719E-015  0.9000760E+02  0.7816164E-02  0.1186339E+00
        -11   -1    0    0    0    0  0.00000000000E+00  0.00000000000E+00  0.45593999997E+02  0.45594000000E+02  0.51100000000E-03 0.  1.
         11   -1    0    0    0    0 -0.00000000000E+00 -0.00000000000E+00 -0.45593999997E+02  0.45594000000E+02  0.51100000000E-03 0. -1.
    9900012    2    1    2    0    0  0.80229695351E+00  0.86330072073E+00 -0.66144742330E-01  0.90007600211E+02  0.89999859733E+02 0.  0.
        -12    1    1    2    0    0 -0.80229695351E+00 -0.86330072073E+00  0.66144742330E-01  0.11803997895E+01  0.00000000000E+00 0.  1.
         11    1    3    3    0    0  0.12216219210E+02  0.37075461706E+01 -0.56372272193E+01  0.13955652667E+02  0.51100000000E-03 0. -1.
        -11    1    3    3    0    0  0.74910849742E+01 -0.25876021848E+02  0.27926011647E+02  0.38801378680E+02  0.51100000000E-03 0.  1.
         12    1    3    3    0    0 -0.18905007230E+02  0.23031776398E+02 -0.22354929170E+02  0.37250568863E+02  0.00000000000E+00 0. -1.
</event>
<event>
 7    1  0.2349719E-015  0.9000772E+02  0.7816164E-02  0.1186339E+00
        -11   -1    0    0    0    0  0.00000000000E+00  0.00000000000E+00  0.45593999997E+02  0.45594000000E+02  0.51100000000E-03 0.  1.
         11   -1    0    0    0    0 -0.00000000000E+00 -0.00000000000E+00 -0.45593999997E+02  0.45594000000E+02  0.51100000000E-03 0. -1.
    9900012    2    1    2    0    0 -0.92713555979E+00 -0.14966764334E+00  0.71489927607E+00  0.90007719642E+02  0.89999980741E+02 0.  0.
        -12    1    1    2    0    0  0.92713555979E+00  0.14966764334E+00 -0.71489927607E+00  0.11802803585E+01  0.00000000000E+00 0.  1.
         11    1    3    3    0    0 -0.15254895656E+01  0.75241794333E+01 -0.78313555580E+01  0.10966791905E+02  0.51100000000E-03 0. -1.
        -11    1    3    3    0    0 -0.31947293943E+02  0.31683090468E+01  0.25289916595E+02  0.40868663473E+02  0.51100000000E-03 0.  1.
         12    1    3    3    0    0  0.32545647949E+02 -0.10842156123E+02 -0.16743661760E+02  0.38172264263E+02  0.00000000000E+00 0. -1.
</event>
<event>
 7    1  0.2349719E-015  0.9000754E+02  0.7816164E-02  0.1186339E+00
        -11   -1    0    0    0    0  0.00000000000E+00  0.00000000000E+00  0.45593999997E+02  0.45594000000E+02  0.51100000000E-03 0.  1.
         11   -1    0    0    0    0 -0.00000000000E+00 -0.00000000000E+00 -0.45593999997E+02  0.45594000000E+02  0.51100000000E-03 0. -1.
    9900012    2    1    2    0    0 -0.22529422284E+00 -0.10819028580E+01 -0.41497733143E+00  0.90007543535E+02  0.89999802309E+02 0.  0.
        -12    1    1    2    0    0  0.22529422284E+00  0.10819028580E+01  0.41497733143E+00  0.11804564654E+01  0.00000000000E+00 0.  1.
         11    1    3    3    0    0  0.17780435885E+01 -0.96458625773E+01 -0.13187739756E+01  0.98966291697E+01  0.51100000000E-03 0. -1.
        -11    1    3    3    0    0 -0.11596665086E+02 -0.33948694078E+02 -0.46578682809E+01  0.36175851171E+02  0.51100000000E-03 0.  1.
         12    1    3    3    0    0  0.95933272750E+01  0.42512653798E+02  0.55616649251E+01  0.43935063194E+02  0.00000000000E+00 0. -1.
</event>
<event>
 7    1  0.2531746E-015  0.9000811E+02  0.7816164E-02  0.1186338E+00
        -11   -1    0    0    0    0  0.00000000000E+00  0.00000000000E+00  0.45593999997E+02  0.45594000000E+02  0.51100000000E-03 0. -1.
         11   -1    0    0    0    0 -0.00000000000E+00 -0.00000000000E+00 -0.45593999997E+02  0.45594000000E+02  0.51100000000E-03 0.  1.
    9900012    2    1    2    0    0  0.25964882165E+00 -0.11495372572E+01  0.57271334379E-01  0.90008112962E+02  0.90000379252E+02 0.  0.
        -12    1    1    2    0    0 -0.25964882165E+00  0.11495372572E+01 -0.57271334379E-01  0.11798870378E+01  0.00000000000E+00 0.  1.
         11    1    3    3    0    0 -0.31765486147E+01  0.36346218779E+02  0.13610229803E+02  0.38940678425E+02  0.51100000000E-03 0. -1.
        -11    1    3    3    0    0 -0.51700736258E+01 -0.27662108313E+01  0.75255330002E+01  0.95401902946E+01  0.51100000000E-03 0.  1.
        -12    1    3    3    0    0  0.86062710622E+01 -0.34729545205E+02 -0.21078491469E+02  0.41527244242E+02  0.00000000000E+00 0.  1.
</event>
<event>
 7    1  0.2349719E-015  0.9000781E+02  0.7816164E-02  0.1186339E+00
        -11   -1    0    0    0    0  0.00000000000E+00  0.00000000000E+00  0.45593999997E+02  0.45594000000E+02  0.51100000000E-03 0.  1.
         11   -1    0    0    0    0 -0.00000000000E+00 -0.00000000000E+00 -0.45593999997E+02  0.45594000000E+02  0.51100000000E-03 0. -1.
    9900012    2    1    2    0    0 -0.47612391430E-01  0.10506841105E+01 -0.53540033602E+00  0.90007806135E+02  0.90000068376E+02 0.  0.
        -12    1    1    2    0    0  0.47612391430E-01 -0.10506841105E+01  0.53540033602E+00  0.11801938653E+01  0.00000000000E+00 0.  1.
         11    1    3    3    0    0  0.34502794271E+01  0.69343345780E+01 -0.32425744050E+01  0.83966489267E+01  0.51100000000E-03 0. -1.
        -11    1    3    3    0    0  0.37950472296E+01 -0.39817409070E+02  0.17779207019E+02  0.43771322244E+02  0.51100000000E-03 0.  1.
         12    1    3    3    0    0 -0.72929390481E+01  0.33933758603E+02 -0.15072032950E+02  0.37839834964E+02  0.00000000000E+00 0. -1.
</event>
<event>
 7    1  0.2349719E-015  0.9000773E+02  0.7816164E-02  0.1186339E+00
        -11   -1    0    0    0    0  0.00000000000E+00  0.00000000000E+00  0.45593999997E+02  0.45594000000E+02  0.51100000000E-03 0.  1.
         11   -1    0    0    0    0 -0.00000000000E+00 -0.00000000000E+00 -0.45593999997E+02  0.45594000000E+02  0.51100000000E-03 0. -1.
    9900012    2    1    2    0    0  0.11042245596E+01 -0.32767689361E+00  0.25759269980E+00  0.90007729682E+02  0.89999990914E+02 0.  0.
        -12    1    1    2    0    0 -0.11042245596E+01  0.32767689361E+00 -0.25759269980E+00  0.11802703181E+01  0.00000000000E+00 0.  1.
         11    1    3    3    0    0  0.14107718453E+01  0.77138477385E+01 -0.55766551292E+01  0.96225156183E+01  0.51100000000E-03 0. -1.
        -11    1    3    3    0    0  0.20379264186E+02  0.13226615665E+02  0.32443451004E+02  0.40531904520E+02  0.51100000000E-03 0.  1.
         12    1    3    3    0    0 -0.20685811472E+02 -0.21268140298E+02 -0.26609203175E+02  0.39853309543E+02  0.00000000000E+00 0. -1.
</event>
<event>
 7    1  0.2349719E-015  0.9000768E+02  0.7816164E-02  0.1186339E+00
        -11   -1    0    0    0    0  0.00000000000E+00  0.00000000000E+00  0.45593999997E+02  0.45594000000E+02  0.51100000000E-03 0.  1.
         11   -1    0    0    0    0 -0.00000000000E+00 -0.00000000000E+00 -0.45593999997E+02  0.45594000000E+02  0.51100000000E-03 0. -1.
    9900012    2    1    2    0    0  0.20110012244E+00 -0.10854938363E+01 -0.41762951255E+00  0.90007681171E+02  0.89999941763E+02 0.  0.
        -12    1    1    2    0    0 -0.20110012244E+00  0.10854938363E+01  0.41762951255E+00  0.11803188288E+01  0.00000000000E+00 0.  1.
         11    1    3    3    0    0 -0.12357118246E+01  0.24560174812E+02 -0.27660465773E+02  0.37011221779E+02  0.51100000000E-03 0. -1.
        -11    1    3    3    0    0  0.64844330910E+01  0.66980989866E+01 -0.14886557196E+01  0.94407890910E+01  0.51100000000E-03 0.  1.
        -12    1    3    3    0    0 -0.50476211440E+01 -0.32343767635E+02  0.28731491980E+02  0.43555670302E+02  0.00000000000E+00 0.  1.
</event>
<event>
 7    1  0.2349719E-015  0.9000774E+02  0.7816164E-02  0.1186339E+00
        -11   -1    0    0    0    0  0.00000000000E+00  0.00000000000E+00  0.45593999997E+02  0.45594000000E+02  0.51100000000E-03 0.  1.
         11   -1    0    0    0    0 -0.00000000000E+00 -0.00000000000E+00 -0.45593999997E+02  0.45594000000E+02  0.51100000000E-03 0. -1.
    9900012    2    1    2    0    0  0.57619934172E+00  0.42616665846E+00 -0.93776075590E+00  0.90007737767E+02  0.89999999106E+02 0.  0.
        -12    1    1    2    0    0 -0.57619934172E+00 -0.42616665846E+00  0.93776075590E+00  0.11802622325E+01  0.00000000000E+00 0.  1.
         11    1    3    3    0    0  0.66856669936E+01 -0.42532906422E+01 -0.60275260836E+01  0.99558874736E+01  0.51100000000E-03 0. -1.
        -11    1    3    3    0    0 -0.16201276727E+02 -0.32761813251E+02 -0.10851151625E+02  0.38125651036E+02  0.51100000000E-03 0.  1.
         12    1    3    3    0    0  0.10091809075E+02  0.37441270552E+02  0.15940916953E+02  0.41926199258E+02  0.00000000000E+00 0. -1.
</event>
<event>
 7    1  0.2349719E-015  0.9000766E+02  0.7816164E-02  0.1186339E+00
        -11   -1    0    0    0    0  0.00000000000E+00  0.00000000000E+00  0.45593999997E+02  0.45594000000E+02  0.51100000000E-03 0. -1.
         11   -1    0    0    0    0 -0.00000000000E+00 -0.00000000000E+00 -0.45593999997E+02  0.45594000000E+02  0.51100000000E-03 0.  1.
    9900012    2    1    2    0    0 -0.45821513978E+00  0.61722987666E+00  0.89569093529E+00  0.90007662723E+02  0.89999923071E+02 0.  0.
        -12    1    1    2    0    0  0.45821513978E+00 -0.61722987666E+00 -0.89569093529E+00  0.11803372766E+01  0.00000000000E+00 0.  1.
         11    1    3    3    0    0 -0.84092352567E+01  0.42706619555E+01  0.22586894984E+01  0.96982199218E+01  0.51100000000E-03 0. -1.
        -11    1    3    3    0    0  0.13693164756E+02  0.22994382863E+02 -0.30386540932E+02  0.40491805028E+02  0.51100000000E-03 0.  1.
         12    1    3    3    0    0 -0.57421446391E+01 -0.26647814942E+02  0.29023542369E+02  0.39817637774E+02  0.00000000000E+00 0. -1.
</event>
<event>
 7    1  0.2349719E-015  0.9000775E+02  0.7816164E-02  0.1186339E+00
        -11   -1    0    0    0    0  0.00000000000E+00  0.00000000000E+00  0.45593999997E+02  0.45594000000E+02  0.51100000000E-03 0. -1.
         11   -1    0    0    0    0 -0.00000000000E+00 -0.00000000000E+00 -0.45593999997E+02  0.45594000000E+02  0.51100000000E-03 0.  1.
    9900012    2    1    2    0    0  0.11575109622E+01  0.17269280573E+00 -0.15274952779E+00  0.90007751361E+02  0.90000012878E+02 0.  0.
        -12    1    1    2    0    0 -0.11575109622E+01 -0.17269280573E+00  0.15274952779E+00  0.11802486395E+01  0.00000000000E+00 0.  1.
         11    1    3    3    0    0 -0.68894546564E+01 -0.11249082027E+02  0.93259713115E+01  0.16154880782E+02  0.51100000000E-03 0. -1.
        -11    1    3    3    0    0 -0.17738573642E+02  0.28319861852E+02 -0.22606407846E+02  0.40345027527E+02  0.51100000000E-03 0.  1.
         12    1    3    3    0    0  0.25785539260E+02 -0.16898087019E+02  0.13127687006E+02  0.33507843052E+02  0.00000000000E+00 0. -1.
</event>
<event>
 7    1  0.2349719E-015  0.9000767E+02  0.7816164E-02  0.1186339E+00
        -11   -1    0    0    0    0  0.00000000000E+00  0.00000000000E+00  0.45593999997E+02  0.45594000000E+02  0.51100000000E-03 0.  1.
         11   -1    0    0    0    0 -0.00000000000E+00 -0.00000000000E+00 -0.45593999997E+02  0.45594000000E+02  0.51100000000E-03 0. -1.
    9900012    2    1    2    0    0 -0.10055169870E+01 -0.61055389345E+00  0.96691300250E-01  0.90007665439E+02  0.89999925823E+02 0.  0.
        -12    1    1    2    0    0  0.10055169870E+01  0.61055389345E+00 -0.96691300250E-01  0.11803345608E+01  0.00000000000E+00 0.  1.
         11    1    3    3    0    0  0.63040350443E+01 -0.16748599382E+01  0.84251253682E+01  0.10654987160E+02  0.51100000000E-03 0. -1.
        -11    1    3    3    0    0  0.18764778847E+02 -0.29932066582E+02  0.70543766447E+01  0.36025126858E+02  0.51100000000E-03 0.  1.
         12    1    3    3    0    0 -0.26074330878E+02  0.30996372626E+02 -0.15382810713E+02  0.43327551421E+02  0.00000000000E+00 0. -1.
</event>
<event>
 7    1  0.2349719E-015  0.9000775E+02  0.7816164E-02  0.1186339E+00
        -11   -1    0    0    0    0  0.00000000000E+00  0.00000000000E+00  0.45593999997E+02  0.45594000000E+02  0.51100000000E-03 0. -1.
         11   -1    0    0    0    0 -0.00000000000E+00 -0.00000000000E+00 -0.45593999997E+02  0.45594000000E+02  0.51100000000E-03 0.  1.
    9900012    2    1    2    0    0  0.96850337571E+00  0.61001109122E+00 -0.28789649058E+00  0.90007747184E+02  0.90000008647E+02 0.  0.
        -12    1    1    2    0    0 -0.96850337571E+00 -0.61001109122E+00  0.28789649058E+00  0.11802528159E+01  0.00000000000E+00 0.  1.
         11    1    3    3    0    0  0.44609678567E+01 -0.82745210728E+01 -0.44793832988E+01  0.10413107519E+02  0.51100000000E-03 0. -1.
        -11    1    3    3    0    0  0.28098147781E+02  0.64033747115E+01 -0.23752463058E+02  0.37345530094E+02  0.51100000000E-03 0.  1.
         12    1    3    3    0    0 -0.31590612262E+02  0.24811574525E+01  0.27943949866E+02  0.42249109571E+02  0.00000000000E+00 0. -1.
</event>
<event>
 7    1  0.2349719E-015  0.9000768E+02  0.7816164E-02  0.1186339E+00
        -11   -1    0    0    0    0  0.00000000000E+00  0.00000000000E+00  0.45593999997E+02  0.45594000000E+02  0.51100000000E-03 0. -1.
         11   -1    0    0    0    0 -0.00000000000E+00 -0.00000000000E+00 -0.45593999997E+02  0.45594000000E+02  0.51100000000E-03 0.  1.
    9900012    2    1    2    0    0  0.90780584714E+00 -0.32504837052E+00 -0.68072698733E+00  0.90007679226E+02  0.89999939791E+02 0.  0.
        -12    1    1    2    0    0 -0.90780584714E+00  0.32504837052E+00  0.68072698733E+00  0.11803207744E+01  0.00000000000E+00 0.  1.
         11    1    3    3    0    0 -0.56182160845E+01 -0.11092641047E+01 -0.66305170402E+01  0.87611971390E+01  0.51100000000E-03 0. -1.
        -11    1    3    3    0    0 -0.12946374534E+02  0.24893811846E+02 -0.24902922122E+02  0.37516209993E+02  0.51100000000E-03 0.  1.
         12    1    3    3    0    0  0.19472396466E+02 -0.24109596112E+02  0.30852712174E+02  0.43730272093E+02  0.00000000000E+00 0. -1.
</event>
<event>
 7    1  0.2349719E-015  0.9000778E+02  0.7816164E-02  0.1186339E+00
        -11   -1    0    0    0    0  0.00000000000E+00  0.00000000000E+00  0.45593999997E+02  0.45594000000E+02  0.51100000000E-03 0. -1.
         11   -1    0    0    0    0 -0.00000000000E+00 -0.00000000000E+00 -0.45593999997E+02  0.45594000000E+02  0.51100000000E-03 0.  1.
    9900012    2    1    2    0    0 -0.37273665271E+00  0.85202570136E+00 -0.72666280067E+00  0.90007780006E+02  0.90000041902E+02 0.  0.
        -12    1    1    2    0    0  0.37273665271E+00 -0.85202570136E+00  0.72666280067E+00  0.11802199939E+01  0.00000000000E+00 0.  1.
         11    1    3    3    0    0 -0.22917704542E+01  0.70151327277E+01 -0.79252642327E+01  0.10829317265E+02  0.51100000000E-03 0. -1.
        -11    1    3    3    0    0 -0.33308664416E+02  0.14918876379E+02 -0.37506186644E+01  0.36689332758E+02  0.51100000000E-03 0.  1.
         12    1    3    3    0    0  0.35227698218E+02 -0.21081983406E+02  0.10949220096E+02  0.42489129983E+02  0.00000000000E+00 0. -1.
</event>
<event>
 7    1  0.2349719E-015  0.9000774E+02  0.7816164E-02  0.1186339E+00
        -11   -1    0    0    0    0  0.00000000000E+00  0.00000000000E+00  0.45593999997E+02  0.45594000000E+02  0.51100000000E-03 0.  1.
         11   -1    0    0    0    0 -0.00000000000E+00 -0.00000000000E+00 -0.45593999997E+02  0.45594000000E+02  0.51100000000E-03 0. -1.
    9900012    2    1    2    0    0  0.28149597155E+00 -0.93724814226E+00 -0.65981134296E+00  0.90007735169E+02  0.89999996474E+02 0.  0.
        -12    1    1    2    0    0 -0.28149597155E+00  0.93724814226E+00  0.65981134296E+00  0.11802648306E+01  0.00000000000E+00 0.  1.
         11    1    3    3    0    0  0.73688294477E+01  0.17246724542E+01  0.44277252696E+01  0.87680610073E+01  0.51100000000E-03 0. -1.
        -11    1    3    3    0    0 -0.41332095989E+01  0.19284096772E+02  0.32265790640E+02  0.37815883644E+02  0.51100000000E-03 0.  1.
         12    1    3    3    0    0 -0.29541238773E+01 -0.21946017368E+02 -0.37353327252E+02  0.43423790519E+02  0.00000000000E+00 0. -1.
</event>
<event>
 7    1  0.3170348E-015  0.9000795E+02  0.7816164E-02  0.1186339E+00
        -11   -1    0    0    0    0  0.00000000000E+00  0.00000000000E+00  0.45593999997E+02  0.45594000000E+02  0.51100000000E-03 0. -1.
         11   -1    0    0    0    0 -0.00000000000E+00 -0.00000000000E+00 -0.45593999997E+02  0.45594000000E+02  0.51100000000E-03 0.  1.
    9900012    2    1    2    0    0  0.10726323622E+00 -0.69942339831E+00  0.94435883332E+00  0.90007952502E+02  0.90000216675E+02 0.  0.
        -12    1    1    2    0    0 -0.10726323622E+00  0.69942339831E+00 -0.94435883332E+00  0.11800474982E+01  0.00000000000E+00 0.  1.
         11    1    3    3    0    0 -0.93727569080E+01  0.53626214462E+01  0.36540196985E+02  0.38102392009E+02  0.51100000000E-03 0. -1.
        -11    1    3    3    0    0  0.43282697489E+01  0.80951895799E+01  0.36413634652E+01  0.98755020885E+01  0.51100000000E-03 0.  1.
        -12    1    3    3    0    0  0.51517503954E+01 -0.14157234424E+02 -0.39237201617E+02  0.42030058404E+02  0.00000000000E+00 0.  1.
</event>
<event>
 7    1  0.2349719E-015  0.9000769E+02  0.7816164E-02  0.1186339E+00
        -11   -1    0    0    0    0  0.00000000000E+00  0.00000000000E+00  0.45593999997E+02  0.45594000000E+02  0.51100000000E-03 0.  1.
         11   -1    0    0    0    0 -0.00000000000E+00 -0.00000000000E+00 -0.45593999997E+02  0.45594000000E+02  0.51100000000E-03 0. -1.
    9900012    2    1    2    0    0  0.10712208926E+01  0.47748979411E+00  0.13276995917E+00  0.90007687090E+02  0.89999947759E+02 0.  0.
        -12    1    1    2    0    0 -0.10712208926E+01 -0.47748979411E+00 -0.13276995917E+00  0.11803129104E+01  0.00000000000E+00 0.  1.
         11    1    3    3    0    0 -0.34125253010E+02  0.49919403557E+01 -0.18950839695E+02  0.39352086182E+02  0.51100000000E-03 0. -1.
        -11    1    3    3    0    0  0.11819829764E+01  0.41388682894E+01 -0.60940804027E+01  0.74609068276E+01  0.51100000000E-03 0.  1.
        -12    1    3    3    0    0  0.34014490926E+02 -0.86533188511E+01  0.25177690056E+02  0.43194694080E+02  0.00000000000E+00 0.  1.
</event>
<event>
 7    1  0.2349719E-015  0.9000770E+02  0.7816164E-02  0.1186339E+00
        -11   -1    0    0    0    0  0.00000000000E+00  0.00000000000E+00  0.45593999997E+02  0.45594000000E+02  0.51100000000E-03 0.  1.
         11   -1    0    0    0    0 -0.00000000000E+00 -0.00000000000E+00 -0.45593999997E+02  0.45594000000E+02  0.51100000000E-03 0. -1.
    9900012    2    1    2    0    0 -0.20831069256E+00 -0.19499061843E+00 -0.11452951263E+01  0.90007696813E+02  0.89999957611E+02 0.  0.
        -12    1    1    2    0    0  0.20831069256E+00  0.19499061843E+00  0.11452951263E+01  0.11803031865E+01  0.00000000000E+00 0.  1.
         11    1    3    3    0    0  0.39434405994E+00  0.14304322091E+02 -0.38114400866E+02  0.40712119710E+02  0.51100000000E-03 0. -1.
        -11    1    3    3    0    0 -0.64941537926E+01 -0.97457517528E+01  0.15611541431E+00  0.11712304769E+02  0.51100000000E-03 0.  1.
        -12    1    3    3    0    0  0.58914990401E+01 -0.47535609562E+01  0.36812990325E+02  0.37583272335E+02  0.00000000000E+00 0.  1.
</event>
<event>
 7    1  0.2605892E-015  0.9000687E+02  0.7816164E-02  0.1186341E+00
        -11   -1    0    0    0    0  0.00000000000E+00  0.00000000000E+00  0.45593999997E+02  0.45594000000E+02  0.51100000000E-03 0. -1.
         11   -1    0    0    0    0 -0.00000000000E+00 -0.00000000000E+00 -0.45593999997E+02  0.45594000000E+02  0.51100000000E-03 0.  1.
    9900012    2    1    2    0    0  0.33221799412E+00 -0.26388448485E+00  0.11022977386E+01  0.90006871674E+02  0.89999121576E+02 0.  0.
        -12    1    1    2    0    0 -0.33221799412E+00  0.26388448485E+00 -0.11022977386E+01  0.11811283256E+01  0.00000000000E+00 0.  1.
         11    1    3    3    0    0  0.19725137097E+02 -0.69012435260E+01  0.30119082159E+02  0.36658795753E+02  0.51100000000E-03 0. -1.
        -11    1    3    3    0    0  0.82502494023E+00 -0.82785092093E+01  0.59948702812E+01  0.10254406410E+02  0.51100000000E-03 0.  1.
        -12    1    3    3    0    0 -0.20217944043E+02  0.14915868250E+02 -0.35011654702E+02  0.43093669511E+02  0.00000000000E+00 0.  1.
</event>
<event>
 7    1  0.2349719E-015  0.9000776E+02  0.7816164E-02  0.1186339E+00
        -11   -1    0    0    0    0  0.00000000000E+00  0.00000000000E+00  0.45593999997E+02  0.45594000000E+02  0.51100000000E-03 0.  1.
         11   -1    0    0    0    0 -0.00000000000E+00 -0.00000000000E+00 -0.45593999997E+02  0.45594000000E+02  0.51100000000E-03 0. -1.
    9900012    2    1    2    0    0 -0.11326971944E+01 -0.26080195077E+00  0.20480950664E+00  0.90007759547E+02  0.90000021173E+02 0.  0.
        -12    1    1    2    0    0  0.11326971944E+01  0.26080195077E+00 -0.20480950664E+00  0.11802404525E+01  0.00000000000E+00 0.  1.
         11    1    3    3    0    0  0.34033333224E+01  0.74731306238E+01 -0.16644272792E+01  0.83785844540E+01  0.51100000000E-03 0. -1.
        -11    1    3    3    0    0  0.29421173473E+02 -0.10438012488E+02 -0.23567717909E+02  0.39115148995E+02  0.51100000000E-03 0.  1.
         12    1    3    3    0    0 -0.33957203990E+02  0.27040799134E+01  0.25436954695E+02  0.42514026098E+02  0.00000000000E+00 0. -1.
</event>
<event>
 7    1  0.2349719E-015  0.9000783E+02  0.7816164E-02  0.1186339E+00
        -11   -1    0    0    0    0  0.00000000000E+00  0.00000000000E+00  0.45593999997E+02  0.45594000000E+02  0.51100000000E-03 0.  1.
         11   -1    0    0    0    0 -0.00000000000E+00 -0.00000000000E+00 -0.45593999997E+02  0.45594000000E+02  0.51100000000E-03 0. -1.
    9900012    2    1    2    0    0  0.26451850197E+00 -0.60138856667E+00 -0.98039455319E+00  0.90007825553E+02  0.90000088050E+02 0.  0.
        -12    1    1    2    0    0 -0.26451850197E+00  0.60138856667E+00  0.98039455319E+00  0.11801744472E+01  0.00000000000E+00 0.  1.
         11    1    3    3    0    0 -0.77154405682E+01 -0.65472125282E+01 -0.23149218420E+01  0.10380408395E+02  0.51100000000E-03 0. -1.
        -11    1    3    3    0    0  0.61778606802E+01 -0.17635444281E+01  0.39820544749E+02  0.40335491021E+02  0.51100000000E-03 0.  1.
         12    1    3    3    0    0  0.18020983899E+01  0.77093683896E+01 -0.38486017460E+02  0.39291926137E+02  0.00000000000E+00 0. -1.
</event>
<event>
 7    1  0.2349719E-015  0.9000760E+02  0.7816164E-02  0.1186339E+00
        -11   -1    0    0    0    0  0.00000000000E+00  0.00000000000E+00  0.45593999997E+02  0.45594000000E+02  0.51100000000E-03 0.  1.
         11   -1    0    0    0    0 -0.00000000000E+00 -0.00000000000E+00 -0.45593999997E+02  0.45594000000E+02  0.51100000000E-03 0. -1.
    9900012    2    1    2    0    0  0.11696594303E+01 -0.10898123476E+00 -0.11564028879E+00  0.90007596353E+02  0.89999855825E+02 0.  0.
        -12    1    1    2    0    0 -0.11696594303E+01  0.10898123476E+00  0.11564028879E+00  0.11804036466E+01  0.00000000000E+00 0.  1.
         11    1    3    3    0    0 -0.57390265307E+01  0.70858905608E+01 -0.21899175186E+01  0.93777401094E+01  0.51100000000E-03 0. -1.
        -11    1    3    3    0    0 -0.28299407923E+02 -0.15184267159E+01  0.25366565749E+02  0.38034520723E+02  0.51100000000E-03 0.  1.
         12    1    3    3    0    0  0.35208093884E+02 -0.56764450797E+01 -0.23292288519E+02  0.42595335521E+02  0.00000000000E+00 0. -1.
</event>
<event>
 7    1  0.2349719E-015  0.9000794E+02  0.7816164E-02  0.1186339E+00
        -11   -1    0    0    0    0  0.00000000000E+00  0.00000000000E+00  0.45593999997E+02  0.45594000000E+02  0.51100000000E-03 0.  1.
         11   -1    0    0    0    0 -0.00000000000E+00 -0.00000000000E+00 -0.45593999997E+02  0.45594000000E+02  0.51100000000E-03 0. -1.
    9900012    2    1    2    0    0 -0.45982440116E+00  0.81456040866E+00 -0.71944595592E+00  0.90007936602E+02  0.90000200565E+02 0.  0.
        -12    1    1    2    0    0  0.45982440116E+00 -0.81456040866E+00  0.71944595592E+00  0.11800633978E+01  0.00000000000E+00 0.  1.
         11    1    3    3    0    0  0.16732082956E+02 -0.10370989412E+02  0.81826597498E+01  0.21318441366E+02  0.51100000000E-03 0. -1.
        -11    1    3    3    0    0  0.18374925539E+02 -0.12251475615E+02 -0.13441705515E+02  0.25853742296E+02  0.51100000000E-03 0.  1.
        -12    1    3    3    0    0 -0.35566832896E+02  0.23437025436E+02  0.45395998092E+01  0.42835752940E+02  0.00000000000E+00 0.  1.
</event>
<event>
 7    1  0.2349719E-015  0.9000772E+02  0.7816164E-02  0.1186339E+00
        -11   -1    0    0    0    0  0.00000000000E+00  0.00000000000E+00  0.45593999997E+02  0.45594000000E+02  0.51100000000E-03 0.  1.
         11   -1    0    0    0    0 -0.00000000000E+00 -0.00000000000E+00 -0.45593999997E+02  0.45594000000E+02  0.51100000000E-03 0. -1.
    9900012    2    1    2    0    0 -0.64556088847E+00  0.21125369792E+00 -0.96523785646E+00  0.90007719904E+02  0.89999981007E+02 0.  0.
        -12    1    1    2    0    0  0.64556088847E+00 -0.21125369792E+00  0.96523785646E+00  0.11802800961E+01  0.00000000000E+00 0.  1.
         11    1    3    3    0    0  0.22247450084E+02 -0.32151525740E+02 -0.13126936614E+02  0.41243012836E+02  0.51100000000E-03 0. -1.
        -11    1    3    3    0    0  0.57197892062E+01  0.49109221757E+01  0.26152909700E+01  0.79795295788E+01  0.51100000000E-03 0.  1.
        -12    1    3    3    0    0 -0.28612800179E+02  0.27451857262E+02  0.95464077876E+01  0.40785177489E+02  0.00000000000E+00 0.  1.
</event>
<event>
 7    1  0.2349719E-015  0.9000763E+02  0.7816164E-02  0.1186339E+00
        -11   -1    0    0    0    0  0.00000000000E+00  0.00000000000E+00  0.45593999997E+02  0.45594000000E+02  0.51100000000E-03 0. -1.
         11   -1    0    0    0    0 -0.00000000000E+00 -0.00000000000E+00 -0.45593999997E+02  0.45594000000E+02  0.51100000000E-03 0.  1.
    9900012    2    1    2    0    0 -0.74588175110E+00  0.88786307232E+00  0.22051563964E+00  0.90007632443E+02  0.89999892391E+02 0.  0.
        -12    1    1    2    0    0  0.74588175110E+00 -0.88786307232E+00 -0.22051563964E+00  0.11803675568E+01  0.00000000000E+00 0.  1.
         11    1    3    3    0    0  0.59812585338E+01  0.62841490959E+01 -0.53627601201E+01  0.10199273497E+02  0.51100000000E-03 0. -1.
        -11    1    3    3    0    0  0.22141473610E+02 -0.16810103871E+02 -0.24148866270E+02  0.36823799209E+02  0.51100000000E-03 0.  1.
         12    1    3    3    0    0 -0.28868613895E+02  0.11413817847E+02  0.29732142030E+02  0.42984559737E+02  0.00000000000E+00 0. -1.
</event>
<event>
 7    1  0.2349719E-015  0.9000776E+02  0.7816164E-02  0.1186339E+00
        -11   -1    0    0    0    0  0.00000000000E+00  0.00000000000E+00  0.45593999997E+02  0.45594000000E+02  0.51100000000E-03 0.  1.
         11   -1    0    0    0    0 -0.00000000000E+00 -0.00000000000E+00 -0.45593999997E+02  0.45594000000E+02  0.51100000000E-03 0. -1.
    9900012    2    1    2    0    0 -0.58344047456E-01  0.18312627600E+00 -0.11644866366E+01  0.90007759182E+02  0.90000020804E+02 0.  0.
        -12    1    1    2    0    0  0.58344047456E-01 -0.18312627600E+00  0.11644866366E+01  0.11802408176E+01  0.00000000000E+00 0.  1.
         11    1    3    3    0    0  0.61897951966E+01 -0.18574028530E+02 -0.39410164119E+02  0.44005330774E+02  0.51100000000E-03 0. -1.
        -11    1    3    3    0    0  0.18917586814E+01  0.19439389826E+01 -0.70626502992E+00  0.28029377857E+01  0.51100000000E-03 0.  1.
        -12    1    3    3    0    0 -0.81398979255E+01  0.16813215823E+02  0.38951942512E+02  0.43199490622E+02  0.00000000000E+00 0.  1.
</event>
<event>
 7    1  0.2349719E-015  0.9000784E+02  0.7816164E-02  0.1186339E+00
        -11   -1    0    0    0    0  0.00000000000E+00  0.00000000000E+00  0.45593999997E+02  0.45594000000E+02  0.51100000000E-03 0. -1.
         11   -1    0    0    0    0 -0.00000000000E+00 -0.00000000000E+00 -0.45593999997E+02  0.45594000000E+02  0.51100000000E-03 0.  1.
    9900012    2    1    2    0    0 -0.10666408821E+01 -0.39562250022E+00  0.31389990518E+00  0.90007841924E+02  0.90000104637E+02 0.  0.
        -12    1    1    2    0    0  0.10666408821E+01  0.39562250022E+00 -0.31389990518E+00  0.11801580761E+01  0.00000000000E+00 0.  1.
         11    1    3    3    0    0  0.62890964149E+01 -0.23780334473E+02  0.32547076951E+02  0.40796681969E+02  0.51100000000E-03 0. -1.
        -11    1    3    3    0    0  0.76109734301E+01  0.59639248946E+01 -0.45224976333E-01  0.96694034078E+01  0.51100000000E-03 0.  1.
        -12    1    3    3    0    0 -0.14966710727E+02  0.17420787079E+02 -0.32187952069E+02  0.39541756547E+02  0.00000000000E+00 0.  1.
</event>
<event>
 7    1  0.2349719E-015  0.9000770E+02  0.7816164E-02  0.1186339E+00
        -11   -1    0    0    0    0  0.00000000000E+00  0.00000000000E+00  0.45593999997E+02  0.45594000000E+02  0.51100000000E-03 0. -1.
         11   -1    0    0    0    0 -0.00000000000E+00 -0.00000000000E+00 -0.45593999997E+02  0.45594000000E+02  0.51100000000E-03 0.  1.
    9900012    2    1    2    0    0 -0.19604834095E+00  0.79325141550E+00  0.85172285887E+00  0.90007697247E+02  0.89999958051E+02 0.  0.
        -12    1    1    2    0    0  0.19604834095E+00 -0.79325141550E+00 -0.85172285887E+00  0.11803027529E+01  0.00000000000E+00 0.  1.
         11    1    3    3    0    0 -0.64266164458E+01  0.17475118254E+01 -0.67589348739E+01  0.94888564860E+01  0.51100000000E-03 0. -1.
        -11    1    3    3    0    0  0.44867360745E+01 -0.21720174287E+02 -0.30126645514E+02  0.37410046001E+02  0.51100000000E-03 0.  1.
         12    1    3    3    0    0  0.17438320303E+01  0.20765913877E+02  0.37737303246E+02  0.43108794760E+02  0.00000000000E+00 0. -1.
</event>
<event>
 7    1  0.2349719E-015  0.9000777E+02  0.7816164E-02  0.1186339E+00
        -11   -1    0    0    0    0  0.00000000000E+00  0.00000000000E+00  0.45593999997E+02  0.45594000000E+02  0.51100000000E-03 0.  1.
         11   -1    0    0    0    0 -0.00000000000E+00 -0.00000000000E+00 -0.45593999997E+02  0.45594000000E+02  0.51100000000E-03 0. -1.
    9900012    2    1    2    0    0  0.53949776978E+00  0.10166035121E+01  0.26154998753E+00  0.90007767421E+02  0.90000029151E+02 0.  0.
        -12    1    1    2    0    0 -0.53949776978E+00 -0.10166035121E+01 -0.26154998753E+00  0.11802325789E+01  0.00000000000E+00 0.  1.
         11    1    3    3    0    0  0.57895429529E+01 -0.33837646249E+01  0.52925365026E+01  0.85428106343E+01  0.51100000000E-03 0. -1.
        -11    1    3    3    0    0 -0.32099559778E+02  0.22750367986E+02  0.16284351038E+02  0.42580994239E+02  0.51100000000E-03 0.  1.
         12    1    3    3    0    0  0.26849514595E+02 -0.18349999849E+02 -0.21315337553E+02  0.38883962548E+02  0.00000000000E+00 0. -1.
</event>
<event>
 7    1  0.2349719E-015  0.9000694E+02  0.7816164E-02  0.1186341E+00
        -11   -1    0    0    0    0  0.00000000000E+00  0.00000000000E+00  0.45593999997E+02  0.45594000000E+02  0.51100000000E-03 0. -1.
         11   -1    0    0    0    0 -0.00000000000E+00 -0.00000000000E+00 -0.45593999997E+02  0.45594000000E+02  0.51100000000E-03 0.  1.
    9900012    2    1    2    0    0 -0.51914597863E+00 -0.86803943198E+00  0.60983389003E+00  0.90006940147E+02  0.89999190953E+02 0.  0.
        -12    1    1    2    0    0  0.51914597863E+00  0.86803943198E+00 -0.60983389003E+00  0.11810598529E+01  0.00000000000E+00 0.  1.
         11    1    3    3    0    0 -0.25663412401E+02  0.23947936757E+01  0.23695154378E+02  0.35011514021E+02  0.51100000000E-03 0. -1.
        -11    1    3    3    0    0 -0.10139745916E+02  0.57532812177E+01  0.39408068244E+00  0.11664904279E+02  0.51100000000E-03 0.  1.
        -12    1    3    3    0    0  0.35284012338E+02 -0.90161143254E+01 -0.23479401170E+02  0.43330521847E+02  0.00000000000E+00 0.  1.
</event>
<event>
 7    1  0.2349719E-015  0.9000772E+02  0.7816164E-02  0.1186339E+00
        -11   -1    0    0    0    0  0.00000000000E+00  0.00000000000E+00  0.45593999997E+02  0.45594000000E+02  0.51100000000E-03 0.  1.
         11   -1    0    0    0    0 -0.00000000000E+00 -0.00000000000E+00 -0.45593999997E+02  0.45594000000E+02  0.51100000000E-03 0. -1.
    9900012    2    1    2    0    0  0.10311090270E+01  0.51928206452E+00 -0.24541979587E+00  0.90007715897E+02  0.89999976947E+02 0.  0.
        -12    1    1    2    0    0 -0.10311090270E+01 -0.51928206452E+00  0.24541979587E+00  0.11802841032E+01  0.00000000000E+00 0.  1.
         11    1    3    3    0    0 -0.13480022239E+01 -0.44688832663E+00 -0.36159089525E+02  0.36186966918E+02  0.51100000000E-03 0. -1.
        -11    1    3    3    0    0 -0.11125847893E+02  0.44814645694E+01 -0.30981094660E+01  0.12388151539E+02  0.51100000000E-03 0.  1.
        -12    1    3    3    0    0  0.13504959144E+02 -0.35152941782E+01  0.39011779195E+02  0.41432597440E+02  0.00000000000E+00 0.  1.
</event>
<event>
 7    1  0.2349719E-015  0.9000810E+02  0.7816164E-02  0.1186338E+00
        -11   -1    0    0    0    0  0.00000000000E+00  0.00000000000E+00  0.45593999997E+02  0.45594000000E+02  0.51100000000E-03 0. -1.
         11   -1    0    0    0    0 -0.00000000000E+00 -0.00000000000E+00 -0.45593999997E+02  0.45594000000E+02  0.51100000000E-03 0.  1.
    9900012    2    1    2    0    0  0.85838110935E+00 -0.74092758955E+00  0.32616195425E+00  0.90008096003E+02  0.90000362069E+02 0.  0.
        -12    1    1    2    0    0 -0.85838110935E+00  0.74092758955E+00 -0.32616195425E+00  0.11799039971E+01  0.00000000000E+00 0.  1.
         11    1    3    3    0    0 -0.40867067372E+01 -0.16438234310E+02 -0.12087550833E+01  0.16981690384E+02  0.51100000000E-03 0. -1.
        -11    1    3    3    0    0  0.94757032191E+01 -0.14331473306E+02 -0.26574944888E+02  0.31645027646E+02  0.51100000000E-03 0.  1.
         12    1    3    3    0    0 -0.45306153726E+01  0.30028780026E+02  0.28109861926E+02  0.41381377974E+02  0.00000000000E+00 0. -1.
</event>
<event>
 7    1  0.2349719E-015  0.9000789E+02  0.7816164E-02  0.1186339E+00
        -11   -1    0    0    0    0  0.00000000000E+00  0.00000000000E+00  0.45593999997E+02  0.45594000000E+02  0.51100000000E-03 0.  1.
         11   -1    0    0    0    0 -0.00000000000E+00 -0.00000000000E+00 -0.45593999997E+02  0.45594000000E+02  0.51100000000E-03 0. -1.
    9900012    2    1    2    0    0 -0.50899160976E+00 -0.10635773751E+01 -0.48981628694E-01  0.90007886238E+02  0.90000149536E+02 0.  0.
        -12    1    1    2    0    0  0.50899160976E+00  0.10635773751E+01  0.48981628694E-01  0.11801137622E+01  0.00000000000E+00 0.  1.
         11    1    3    3    0    0  0.67699581342E+01  0.70937938335E+01 -0.32271411338E+02  0.33728300196E+02  0.51100000000E-03 0. -1.
        -11    1    3    3    0    0 -0.58246506084E+01 -0.29304218046E+01 -0.10962589328E+02  0.12755088855E+02  0.51100000000E-03 0.  1.
        -12    1    3    3    0    0 -0.14542991356E+01 -0.52269494040E+01  0.43185019038E+02  0.43524497187E+02  0.00000000000E+00 0.  1.
</event>
<event>
 7    1  0.2349719E-015  0.9000785E+02  0.7816164E-02  0.1186339E+00
        -11   -1    0    0    0    0  0.00000000000E+00  0.00000000000E+00  0.45593999997E+02  0.45594000000E+02  0.51100000000E-03 0. -1.
         11   -1    0    0    0    0 -0.00000000000E+00 -0.00000000000E+00 -0.45593999997E+02  0.45594000000E+02  0.51100000000E-03 0.  1.
    9900012    2    1    2    0    0 -0.10659229355E+01 -0.24816991734E+00 -0.44156553401E+00  0.90007847411E+02  0.90000110197E+02 0.  0.
        -12    1    1    2    0    0  0.10659229355E+01  0.24816991734E+00  0.44156553401E+00  0.11801525889E+01  0.00000000000E+00 0.  1.
         11    1    3    3    0    0  0.52256874465E+01  0.23913530384E+02  0.33981273979E+02  0.41879490520E+02  0.51100000000E-03 0. -1.
        -11    1    3    3    0    0 -0.81517364116E+01 -0.66601696117E+01 -0.12824828594E+01  0.10604406081E+02  0.51100000000E-03 0.  1.
        -12    1    3    3    0    0  0.18601260296E+01 -0.17501530690E+02 -0.33140356653E+02  0.37523950811E+02  0.00000000000E+00 0.  1.
</event>
<event>
 7    1  0.2349719E-015  0.9000767E+02  0.7816164E-02  0.1186339E+00
        -11   -1    0    0    0    0  0.00000000000E+00  0.00000000000E+00  0.45593999997E+02  0.45594000000E+02  0.51100000000E-03 0.  1.
         11   -1    0    0    0    0 -0.00000000000E+00 -0.00000000000E+00 -0.45593999997E+02  0.45594000000E+02  0.51100000000E-03 0. -1.
    9900012    2    1    2    0    0 -0.42238788763E+00  0.10999489099E+01 -0.69839844450E-01  0.90007670921E+02  0.89999931377E+02 0.  0.
        -12    1    1    2    0    0  0.42238788763E+00 -0.10999489099E+01  0.69839844450E-01  0.11803290795E+01  0.00000000000E+00 0.  1.
         11    1    3    3    0    0 -0.29498541480E+01 -0.61334263476E+01 -0.53634023575E+01  0.86652549510E+01  0.51100000000E-03 0. -1.
        -11    1    3    3    0    0  0.13930529736E+02  0.98257678648E+01  0.40662014090E+02  0.44090869384E+02  0.51100000000E-03 0.  1.
         12    1    3    3    0    0 -0.11403063476E+02 -0.25923926073E+01 -0.35368451577E+02  0.37251546586E+02  0.00000000000E+00 0. -1.
</event>
<event>
 7    1  0.2349719E-015  0.9000774E+02  0.7816164E-02  0.1186339E+00
        -11   -1    0    0    0    0  0.00000000000E+00  0.00000000000E+00  0.45593999997E+02  0.45594000000E+02  0.51100000000E-03 0.  1.
         11   -1    0    0    0    0 -0.00000000000E+00 -0.00000000000E+00 -0.45593999997E+02  0.45594000000E+02  0.51100000000E-03 0. -1.
    9900012    2    1    2    0    0  0.35567448347E+00 -0.92062412346E+00 -0.64727991228E+00  0.90007735453E+02  0.89999996761E+02 0.  0.
        -12    1    1    2    0    0 -0.35567448347E+00  0.92062412346E+00  0.64727991228E+00  0.11802645465E+01  0.00000000000E+00 0.  1.
         11    1    3    3    0    0 -0.90975959881E+01 -0.26601847658E+02 -0.27568148576E+02  0.39375466572E+02  0.51100000000E-03 0. -1.
        -11    1    3    3    0    0  0.59140549922E+01  0.39615243862E+01 -0.71392011785E+01  0.10081563155E+02  0.51100000000E-03 0.  1.
        -12    1    3    3    0    0  0.35392154794E+01  0.21719699149E+02  0.34060069842E+02  0.40550705727E+02  0.00000000000E+00 0.  1.
</event>
<event>
 7    1  0.2349719E-015  0.9000773E+02  0.7816164E-02  0.1186339E+00
        -11   -1    0    0    0    0  0.00000000000E+00  0.00000000000E+00  0.45593999997E+02  0.45594000000E+02  0.51100000000E-03 0.  1.
         11   -1    0    0    0    0 -0.00000000000E+00 -0.00000000000E+00 -0.45593999997E+02  0.45594000000E+02  0.51100000000E-03 0. -1.
    9900012    2    1    2    0    0  0.10792749179E+01  0.43165781575E+00  0.20461409778E+00  0.90007733188E+02  0.89999994466E+02 0.  0.
        -12    1    1    2    0    0 -0.10792749179E+01 -0.43165781575E+00 -0.20461409778E+00  0.11802668119E+01  0.00000000000E+00 0.  1.
         11    1    3    3    0    0 -0.14783119312E+02  0.20944588968E+01 -0.49260564473E+01  0.15722385539E+02  0.51100000000E-03 0. -1.
        -11    1    3    3    0    0 -0.25470596036E+02 -0.22041359681E+01  0.17682610904E+02  0.31085112296E+02  0.51100000000E-03 0.  1.
         12    1    3    3    0    0  0.41332990266E+02  0.54133488709E+00 -0.12551940359E+02  0.43200235353E+02  0.00000000000E+00 0. -1.
</event>
<event>
 7    1  0.2349719E-015  0.9000752E+02  0.7816164E-02  0.1186339E+00
        -11   -1    0    0    0    0  0.00000000000E+00  0.00000000000E+00  0.45593999997E+02  0.45594000000E+02  0.51100000000E-03 0. -1.
         11   -1    0    0    0    0 -0.00000000000E+00 -0.00000000000E+00 -0.45593999997E+02  0.45594000000E+02  0.51100000000E-03 0.  1.
    9900012    2    1    2    0    0 -0.60192210001E+00  0.87769163827E+00 -0.51075373664E+00  0.90007524585E+02  0.89999783109E+02 0.  0.
        -12    1    1    2    0    0  0.60192210001E+00 -0.87769163827E+00  0.51075373664E+00  0.11804754152E+01  0.00000000000E+00 0.  1.
         11    1    3    3    0    0  0.30942373826E+02 -0.15495556725E+02  0.87461801861E+00  0.34616581765E+02  0.51100000000E-03 0. -1.
        -11    1    3    3    0    0  0.10225955971E+02  0.47866677044E+01 -0.39650439932E+01  0.11966784754E+02  0.51100000000E-03 0.  1.
        -12    1    3    3    0    0 -0.41770251896E+02  0.11586580658E+02  0.25796722380E+01  0.43424158065E+02  0.00000000000E+00 0.  1.
</event>
<event>
 7    1  0.2349719E-015  0.9000774E+02  0.7816164E-02  0.1186339E+00
        -11   -1    0    0    0    0  0.00000000000E+00  0.00000000000E+00  0.45593999997E+02  0.45594000000E+02  0.51100000000E-03 0.  1.
         11   -1    0    0    0    0 -0.00000000000E+00 -0.00000000000E+00 -0.45593999997E+02  0.45594000000E+02  0.51100000000E-03 0. -1.
    9900012    2    1    2    0    0  0.50495127561E+00  0.96020722504E+00  0.46479868135E+00  0.90007740910E+02  0.90000002290E+02 0.  0.
        -12    1    1    2    0    0 -0.50495127561E+00 -0.96020722504E+00 -0.46479868135E+00  0.11802590902E+01  0.00000000000E+00 0.  1.
         11    1    3    3    0    0 -0.71216608730E+01 -0.12005632716E+01 -0.90260330266E+01  0.11559787118E+02  0.51100000000E-03 0. -1.
        -11    1    3    3    0    0 -0.16535297024E+02  0.78312702121E+01  0.37074078515E+02  0.41342860795E+02  0.51100000000E-03 0.  1.
         12    1    3    3    0    0  0.24161909172E+02 -0.56704997154E+01 -0.27583246807E+02  0.37105092996E+02  0.00000000000E+00 0. -1.
</event>
<event>
 7    1  0.2349719E-015  0.9000702E+02  0.7816164E-02  0.1186340E+00
        -11   -1    0    0    0    0  0.00000000000E+00  0.00000000000E+00  0.45593999997E+02  0.45594000000E+02  0.51100000000E-03 0. -1.
         11   -1    0    0    0    0 -0.00000000000E+00 -0.00000000000E+00 -0.45593999997E+02  0.45594000000E+02  0.51100000000E-03 0.  1.
    9900012    2    1    2    0    0  0.49581210834E+00  0.10023340983E+01 -0.37975170194E+00  0.90007019625E+02  0.89999271481E+02 0.  0.
        -12    1    1    2    0    0 -0.49581210834E+00 -0.10023340983E+01  0.37975170194E+00  0.11809803751E+01  0.00000000000E+00 0.  1.
         11    1    3    3    0    0 -0.22324370555E+02  0.10133721206E+02  0.30014483233E+02  0.38754858149E+02  0.51100000000E-03 0. -1.
        -11    1    3    3    0    0 -0.54618655085E+01  0.64839086325E+01 -0.33335733899E+01  0.91096519031E+01  0.51100000000E-03 0.  1.
        -12    1    3    3    0    0  0.28282048172E+02 -0.15615295740E+02 -0.27060661545E+02  0.42142509573E+02  0.00000000000E+00 0.  1.
</event>
<event>
 7    1  0.2349719E-015  0.9000772E+02  0.7816164E-02  0.1186339E+00
        -11   -1    0    0    0    0  0.00000000000E+00  0.00000000000E+00  0.45593999997E+02  0.45594000000E+02  0.51100000000E-03 0.  1.
         11   -1    0    0    0    0 -0.00000000000E+00 -0.00000000000E+00 -0.45593999997E+02  0.45594000000E+02  0.51100000000E-03 0. -1.
    9900012    2    1    2    0    0  0.10371597838E+01  0.56335541556E+00 -0.62009188873E-03  0.90007716083E+02  0.89999977135E+02 0.  0.
        -12    1    1    2    0    0 -0.10371597838E+01 -0.56335541556E+00  0.62009188874E-03  0.11802839175E+01  0.00000000000E+00 0.  1.
         11    1    3    3    0    0  0.39001110439E+00 -0.69490195388E+01  0.70963327382E+01  0.99397645749E+01  0.51100000000E-03 0. -1.
        -11    1    3    3    0    0  0.18281901863E+02 -0.20425439087E+02  0.22690012711E+02  0.35584591816E+02  0.51100000000E-03 0.  1.
         12    1    3    3    0    0 -0.17634753183E+02  0.27937814042E+02 -0.29786965541E+02  0.44483359691E+02  0.00000000000E+00 0. -1.
</event>
<event>
 7    1  0.2349719E-015  0.9000780E+02  0.7816164E-02  0.1186339E+00
        -11   -1    0    0    0    0  0.00000000000E+00  0.00000000000E+00  0.45593999997E+02  0.45594000000E+02  0.51100000000E-03 0. -1.
         11   -1    0    0    0    0 -0.00000000000E+00 -0.00000000000E+00 -0.45593999997E+02  0.45594000000E+02  0.51100000000E-03 0.  1.
    9900012    2    1    2    0    0  0.33534981011E+00  0.10774689634E+01 -0.34565081988E+00  0.90007799444E+02  0.90000061597E+02 0.  0.
        -12    1    1    2    0    0 -0.33534981011E+00 -0.10774689634E+01  0.34565081988E+00  0.11802005556E+01  0.00000000000E+00 0.  1.
         11    1    3    3    0    0  0.39784214599E+01  0.13617922516E+02  0.15346161752E+02  0.20899290221E+02  0.51100000000E-03 0. -1.
        -11    1    3    3    0    0  0.23971067269E+02 -0.12877786474E+02  0.12233004024E+02  0.29834473989E+02  0.51100000000E-03 0.  1.
         12    1    3    3    0    0 -0.27614138919E+02  0.33733292046E+00 -0.27924816595E+02  0.39274035235E+02  0.00000000000E+00 0. -1.
</event>
<event>
 7    1  0.2349719E-015  0.9000784E+02  0.7816164E-02  0.1186339E+00
        -11   -1    0    0    0    0  0.00000000000E+00  0.00000000000E+00  0.45593999997E+02  0.45594000000E+02  0.51100000000E-03 0.  1.
         11   -1    0    0    0    0 -0.00000000000E+00 -0.00000000000E+00 -0.45593999997E+02  0.45594000000E+02  0.51100000000E-03 0. -1.
    9900012    2    1    2    0    0 -0.26766274785E+00  0.29676892807E+00 -0.11104314569E+01  0.90007841890E+02  0.90000104603E+02 0.  0.
        -12    1    1    2    0    0  0.26766274785E+00 -0.29676892807E+00  0.11104314569E+01  0.11801581096E+01  0.00000000000E+00 0.  1.
         11    1    3    3    0    0  0.53647356912E+00 -0.14355041884E+01 -0.93488643324E+01  0.94736339771E+01  0.51100000000E-03 0. -1.
        -11    1    3    3    0    0  0.26512135691E+02  0.29621528666E+01  0.33829823279E+02  0.43082764905E+02  0.51100000000E-03 0.  1.
         12    1    3    3    0    0 -0.27316272008E+02 -0.12298797502E+01 -0.25591390404E+02  0.37451443008E+02  0.00000000000E+00 0. -1.
</event>
<event>
 7    1  0.2349719E-015  0.9000774E+02  0.7816164E-02  0.1186339E+00
        -11   -1    0    0    0    0  0.00000000000E+00  0.00000000000E+00  0.45593999997E+02  0.45594000000E+02  0.51100000000E-03 0. -1.
         11   -1    0    0    0    0 -0.00000000000E+00 -0.00000000000E+00 -0.45593999997E+02  0.45594000000E+02  0.51100000000E-03 0.  1.
    9900012    2    1    2    0    0 -0.88351985641E+00  0.12730351195E+00  0.77214597672E+00  0.90007736076E+02  0.89999997392E+02 0.  0.
        -12    1    1    2    0    0  0.88351985641E+00 -0.12730351195E+00 -0.77214597672E+00  0.11802639240E+01  0.00000000000E+00 0.  1.
         11    1    3    3    0    0 -0.19649369420E+02  0.17281749252E+02  0.28398250295E+02  0.38616281487E+02  0.51100000000E-03 0. -1.
        -11    1    3    3    0    0 -0.61990888055E+01 -0.98381099030E+01  0.21780993194E+01  0.11830520926E+02  0.51100000000E-03 0.  1.
        -12    1    3    3    0    0  0.24964938369E+02 -0.73163358369E+01 -0.29804203638E+02  0.39560933663E+02  0.00000000000E+00 0.  1.
</event>
<event>
 7    1  0.2349719E-015  0.9000766E+02  0.7816164E-02  0.1186339E+00
        -11   -1    0    0    0    0  0.00000000000E+00  0.00000000000E+00  0.45593999997E+02  0.45594000000E+02  0.51100000000E-03 0. -1.
         11   -1    0    0    0    0 -0.00000000000E+00 -0.00000000000E+00 -0.45593999997E+02  0.45594000000E+02  0.51100000000E-03 0.  1.
    9900012    2    1    2    0    0 -0.14327950956E+00 -0.10994577449E+01 -0.40480422017E+00  0.90007659876E+02  0.89999920187E+02 0.  0.
        -12    1    1    2    0    0  0.14327950956E+00  0.10994577449E+01  0.40480422017E+00  0.11803401236E+01  0.00000000000E+00 0.  1.
         11    1    3    3    0    0 -0.50529573327E+01 -0.26897467184E+02  0.20037222399E+02  0.33918968152E+02  0.51100000000E-03 0. -1.
        -11    1    3    3    0    0  0.90535940274E+01  0.40312868265E+01  0.12769524667E+02  0.16164145470E+02  0.51100000000E-03 0.  1.
        -12    1    3    3    0    0 -0.41439162043E+01  0.21766722613E+02 -0.33211551286E+02  0.39924546255E+02  0.00000000000E+00 0.  1.
</event>
<event>
 7    1  0.2349719E-015  0.9000775E+02  0.7816164E-02  0.1186339E+00
        -11   -1    0    0    0    0  0.00000000000E+00  0.00000000000E+00  0.45593999997E+02  0.45594000000E+02  0.51100000000E-03 0. -1.
         11   -1    0    0    0    0 -0.00000000000E+00 -0.00000000000E+00 -0.45593999997E+02  0.45594000000E+02  0.51100000000E-03 0.  1.
    9900012    2    1    2    0    0  0.77697879631E+00 -0.56210045673E+00  0.68799587139E+00  0.90007749479E+02  0.90000010972E+02 0.  0.
        -12    1    1    2    0    0 -0.77697879631E+00  0.56210045673E+00 -0.68799587139E+00  0.11802505210E+01  0.00000000000E+00 0.  1.
         11    1    3    3    0    0 -0.19727908337E+01  0.74395863621E+01  0.46912235419E+01  0.90137077551E+01  0.51100000000E-03 0. -1.
        -11    1    3    3    0    0 -0.30332892825E+02 -0.26847871263E+02  0.75502116023E+01  0.41205561202E+02  0.51100000000E-03 0.  1.
         12    1    3    3    0    0  0.33082662455E+02  0.18846184444E+02 -0.11553439273E+02  0.39788480522E+02  0.00000000000E+00 0. -1.
</event>
<event>
 7    1  0.2349719E-015  0.9000756E+02  0.7816164E-02  0.1186339E+00
        -11   -1    0    0    0    0  0.00000000000E+00  0.00000000000E+00  0.45593999997E+02  0.45594000000E+02  0.51100000000E-03 0. -1.
         11   -1    0    0    0    0 -0.00000000000E+00 -0.00000000000E+00 -0.45593999997E+02  0.45594000000E+02  0.51100000000E-03 0.  1.
    9900012    2    1    2    0    0 -0.79825682465E+00  0.39774805573E+00 -0.77331863997E+00  0.90007559746E+02  0.89999818735E+02 0.  0.
        -12    1    1    2    0    0  0.79825682465E+00 -0.39774805573E+00  0.77331863997E+00  0.11804402538E+01  0.00000000000E+00 0.  1.
         11    1    3    3    0    0 -0.43301627226E+00 -0.31625900140E+02  0.21548390249E+02  0.38271636826E+02  0.51100000000E-03 0. -1.
        -11    1    3    3    0    0  0.25005986971E+01  0.46086409016E+01  0.87494362434E+01  0.10200254881E+02  0.51100000000E-03 0.  1.
        -12    1    3    3    0    0 -0.28658392495E+01  0.27415007295E+02 -0.31071145132E+02  0.41535668039E+02  0.00000000000E+00 0.  1.
</event>
<event>
 7    1  0.2349719E-015  0.9000773E+02  0.7816164E-02  0.1186339E+00
        -11   -1    0    0    0    0  0.00000000000E+00  0.00000000000E+00  0.45593999997E+02  0.45594000000E+02  0.51100000000E-03 0. -1.
         11   -1    0    0    0    0 -0.00000000000E+00 -0.00000000000E+00 -0.45593999997E+02  0.45594000000E+02  0.51100000000E-03 0.  1.
    9900012    2    1    2    0    0 -0.10529123396E+01  0.78494678312E-01  0.52749015763E+00  0.90007732371E+02  0.89999993638E+02 0.  0.
        -12    1    1    2    0    0  0.10529123396E+01 -0.78494678312E-01 -0.52749015763E+00  0.11802676289E+01  0.00000000000E+00 0.  1.
         11    1    3    3    0    0 -0.17456329609E+01  0.36057775145E+01  0.53095989363E+01  0.66513688097E+01  0.51100000000E-03 0. -1.
        -11    1    3    3    0    0 -0.32777509127E+02 -0.10118924269E+02  0.21331657593E+02  0.40395511494E+02  0.51100000000E-03 0.  1.
         12    1    3    3    0    0  0.33470229749E+02  0.65916414330E+01 -0.26113766372E+02  0.42960852067E+02  0.00000000000E+00 0. -1.
</event>
<event>
 7    1  0.2349719E-015  0.9000795E+02  0.7816164E-02  0.1186339E+00
        -11   -1    0    0    0    0  0.00000000000E+00  0.00000000000E+00  0.45593999997E+02  0.45594000000E+02  0.51100000000E-03 0. -1.
         11   -1    0    0    0    0 -0.00000000000E+00 -0.00000000000E+00 -0.45593999997E+02  0.45594000000E+02  0.51100000000E-03 0.  1.
    9900012    2    1    2    0    0 -0.46351725530E+00  0.93362743599E+00  0.55317954652E+00  0.90007950829E+02  0.90000214980E+02 0.  0.
        -12    1    1    2    0    0  0.46351725530E+00 -0.93362743599E+00 -0.55317954652E+00  0.11800491710E+01  0.00000000000E+00 0.  1.
         11    1    3    3    0    0 -0.57269790967E+01  0.15583507054E+01 -0.11840042680E+01  0.60521577031E+01  0.51100000000E-03 0. -1.
        -11    1    3    3    0    0 -0.35086089816E+02  0.10074332951E+02  0.15980905396E+02  0.39848653936E+02  0.51100000000E-03 0.  1.
         12    1    3    3    0    0  0.40349551658E+02 -0.10699056220E+02 -0.14243721581E+02  0.44107139190E+02  0.00000000000E+00 0. -1.
</event>
<event>
 7    1  0.2349719E-015  0.9000770E+02  0.7816164E-02  0.1186339E+00
        -11   -1    0    0    0    0  0.00000000000E+00  0.00000000000E+00  0.45593999997E+02  0.45594000000E+02  0.51100000000E-03 0. -1.
         11   -1    0    0    0    0 -0.00000000000E+00 -0.00000000000E+00 -0.45593999997E+02  0.45594000000E+02  0.51100000000E-03 0.  1.
    9900012    2    1    2    0    0  0.37322964141E+00 -0.87061427321E+00  0.70415385823E+00  0.90007702481E+02  0.89999963353E+02 0.  0.
        -12    1    1    2    0    0 -0.37322964141E+00  0.87061427321E+00 -0.70415385823E+00  0.11802975193E+01  0.00000000000E+00 0.  1.
         11    1    3    3    0    0 -0.38398736569E+01  0.36168079646E+02  0.26640381274E+01  0.36468777254E+02  0.51100000000E-03 0. -1.
        -11    1    3    3    0    0 -0.16589818992E+00  0.80261284747E+01 -0.19523919008E+01  0.82618457319E+01  0.51100000000E-03 0.  1.
        -12    1    3    3    0    0  0.43790014882E+01 -0.45064822394E+02 -0.74923682984E-02  0.45277079495E+02  0.00000000000E+00 0.  1.
</event>
<event>
 7    1  0.2349719E-015  0.9000731E+02  0.7816164E-02  0.1186340E+00
        -11   -1    0    0    0    0  0.00000000000E+00  0.00000000000E+00  0.45593999997E+02  0.45594000000E+02  0.51100000000E-03 0. -1.
         11   -1    0    0    0    0 -0.00000000000E+00 -0.00000000000E+00 -0.45593999997E+02  0.45594000000E+02  0.51100000000E-03 0.  1.
    9900012    2    1    2    0    0 -0.87434405343E+00 -0.17417730249E+00  0.77408338062E+00  0.90007313616E+02  0.89999569355E+02 0.  0.
        -12    1    1    2    0    0  0.87434405343E+00  0.17417730249E+00 -0.77408338062E+00  0.11806863837E+01  0.00000000000E+00 0.  1.
         11    1    3    3    0    0 -0.26819382389E+01 -0.31856126316E+02  0.13185150161E+02  0.34581118571E+02  0.51100000000E-03 0. -1.
        -11    1    3    3    0    0  0.14912844448E+01 -0.88266110432E+01  0.61559789151E+01  0.10864118393E+02  0.51100000000E-03 0.  1.
        -12    1    3    3    0    0  0.31630974069E+00  0.40508560057E+02 -0.18567045695E+02  0.44562076652E+02  0.00000000000E+00 0.  1.
</event>
<event>
 7    1  0.2349719E-015  0.9000789E+02  0.7816164E-02  0.1186339E+00
        -11   -1    0    0    0    0  0.00000000000E+00  0.00000000000E+00  0.45593999997E+02  0.45594000000E+02  0.51100000000E-03 0. -1.
         11   -1    0    0    0    0 -0.00000000000E+00 -0.00000000000E+00 -0.45593999997E+02  0.45594000000E+02  0.51100000000E-03 0.  1.
    9900012    2    1    2    0    0  0.40817447799E+00  0.35254109307E+00  0.10496527680E+01  0.90007888751E+02  0.90000152082E+02 0.  0.
        -12    1    1    2    0    0 -0.40817447799E+00 -0.35254109307E+00 -0.10496527680E+01  0.11801112491E+01  0.00000000000E+00 0.  1.
         11    1    3    3    0    0  0.95317618691E+01  0.50785436198E+00  0.27717727824E+00  0.95493050997E+01  0.51100000000E-03 0. -1.
        -11    1    3    3    0    0 -0.28904497908E+02  0.94712263630E+01 -0.29940128298E+02  0.42680035273E+02  0.51100000000E-03 0.  1.
         12    1    3    3    0    0  0.19780910517E+02 -0.96265396319E+01  0.30712603788E+02  0.37778548378E+02  0.00000000000E+00 0. -1.
</event>
<event>
 7    1  0.2349719E-015  0.9000780E+02  0.7816164E-02  0.1186339E+00
        -11   -1    0    0    0    0  0.00000000000E+00  0.00000000000E+00  0.45593999997E+02  0.45594000000E+02  0.51100000000E-03 0. -1.
         11   -1    0    0    0    0 -0.00000000000E+00 -0.00000000000E+00 -0.45593999997E+02  0.45594000000E+02  0.51100000000E-03 0.  1.
    9900012    2    1    2    0    0  0.53116616310E+00 -0.99796013707E+00 -0.33884854414E+00  0.90007796516E+02  0.90000058630E+02 0.  0.
        -12    1    1    2    0    0 -0.53116616310E+00  0.99796013707E+00  0.33884854414E+00  0.11802034841E+01  0.00000000000E+00 0.  1.
         11    1    3    3    0    0  0.88085502403E+01  0.48080133881E+01 -0.83081982748E+00  0.10069648054E+02  0.51100000000E-03 0. -1.
        -11    1    3    3    0    0  0.18236171432E+02  0.25784358696E+02  0.16580037966E+02  0.35669157000E+02  0.51100000000E-03 0.  1.
         12    1    3    3    0    0 -0.26513555509E+02 -0.31590332221E+02 -0.16088066683E+02  0.44268991463E+02  0.00000000000E+00 0. -1.
</event>
<event>
 7    1  0.2349719E-015  0.9000772E+02  0.7816164E-02  0.1186339E+00
        -11   -1    0    0    0    0  0.00000000000E+00  0.00000000000E+00  0.45593999997E+02  0.45594000000E+02  0.51100000000E-03 0. -1.
         11   -1    0    0    0    0 -0.00000000000E+00 -0.00000000000E+00 -0.45593999997E+02  0.45594000000E+02  0.51100000000E-03 0.  1.
    9900012    2    1    2    0    0 -0.10988526923E+01  0.29589968247E+00  0.31311055775E+00  0.90007715253E+02  0.89999976295E+02 0.  0.
        -12    1    1    2    0    0  0.10988526923E+01 -0.29589968247E+00 -0.31311055775E+00  0.11802847465E+01  0.00000000000E+00 0.  1.
         11    1    3    3    0    0  0.14414578774E+02  0.25753037137E+02  0.30362408714E+02  0.42342353102E+02  0.51100000000E-03 0. -1.
        -11    1    3    3    0    0  0.18050861687E+01 -0.25561537233E+01 -0.14854393144E+02  0.15180423376E+02  0.51100000000E-03 0.  1.
        -12    1    3    3    0    0 -0.17318517635E+02 -0.22900983732E+02 -0.15194905012E+02  0.32484938776E+02  0.00000000000E+00 0.  1.
</event>
<event>
 7    1  0.2349719E-015  0.9000770E+02  0.7816164E-02  0.1186339E+00
        -11   -1    0    0    0    0  0.00000000000E+00  0.00000000000E+00  0.45593999997E+02  0.45594000000E+02  0.51100000000E-03 0. -1.
         11   -1    0    0    0    0 -0.00000000000E+00 -0.00000000000E+00 -0.45593999997E+02  0.45594000000E+02  0.51100000000E-03 0.  1.
    9900012    2    1    2    0    0  0.22754453554E+00 -0.11319580396E+01 -0.24494098337E+00  0.90007702747E+02  0.89999963624E+02 0.  0.
        -12    1    1    2    0    0 -0.22754453554E+00  0.11319580396E+01  0.24494098337E+00  0.11802972525E+01  0.00000000000E+00 0.  1.
         11    1    3    3    0    0 -0.46090416067E+01  0.54307673539E+01  0.57331345949E+01  0.91435950878E+01  0.51100000000E-03 0. -1.
        -11    1    3    3    0    0 -0.28935287408E+02  0.17916737847E+02 -0.16536156755E+02  0.37837875640E+02  0.51100000000E-03 0.  1.
         12    1    3    3    0    0  0.33771873551E+02 -0.24479463240E+02  0.10558081177E+02  0.43026232019E+02  0.00000000000E+00 0. -1.
</event>
<event>
 7    1  0.2349719E-015  0.9000786E+02  0.7816164E-02  0.1186339E+00
        -11   -1    0    0    0    0  0.00000000000E+00  0.00000000000E+00  0.45593999997E+02  0.45594000000E+02  0.51100000000E-03 0.  1.
         11   -1    0    0    0    0 -0.00000000000E+00 -0.00000000000E+00 -0.45593999997E+02  0.45594000000E+02  0.51100000000E-03 0. -1.
    9900012    2    1    2    0    0  0.21801859550E+00 -0.10101198212E+01 -0.56995397155E+00  0.90007863698E+02  0.90000126699E+02 0.  0.
        -12    1    1    2    0    0 -0.21801859550E+00  0.10101198212E+01  0.56995397155E+00  0.11801363018E+01  0.00000000000E+00 0.  1.
         11    1    3    3    0    0 -0.59686310761E+01 -0.83105666561E+01  0.15533620480E+00  0.10232995879E+02  0.51100000000E-03 0. -1.
        -11    1    3    3    0    0 -0.21245605395E+02  0.37941408880E+01  0.30946141463E+02  0.37728436561E+02  0.51100000000E-03 0.  1.
         12    1    3    3    0    0  0.27432255067E+02  0.35063059469E+01 -0.31671431639E+02  0.42046431258E+02  0.00000000000E+00 0. -1.
</event>
<event>
 7    1  0.2349719E-015  0.9000769E+02  0.7816164E-02  0.1186339E+00
        -11   -1    0    0    0    0  0.00000000000E+00  0.00000000000E+00  0.45593999997E+02  0.45594000000E+02  0.51100000000E-03 0. -1.
         11   -1    0    0    0    0 -0.00000000000E+00 -0.00000000000E+00 -0.45593999997E+02  0.45594000000E+02  0.51100000000E-03 0.  1.
    9900012    2    1    2    0    0 -0.58656531444E+00  0.23101481910E+00 -0.99785385092E+00  0.90007686896E+02  0.89999947563E+02 0.  0.
        -12    1    1    2    0    0  0.58656531444E+00 -0.23101481910E+00  0.99785385092E+00  0.11803131036E+01  0.00000000000E+00 0.  1.
         11    1    3    3    0    0  0.73833453883E+01 -0.48034066759E+01 -0.14690201863E+01  0.89299790249E+01  0.51100000000E-03 0. -1.
        -11    1    3    3    0    0 -0.18493087007E+02 -0.59093534549E+01 -0.36371935542E+02  0.41229024008E+02  0.51100000000E-03 0.  1.
         12    1    3    3    0    0  0.10523176304E+02  0.10943774950E+02  0.36843101878E+02  0.39848683863E+02  0.00000000000E+00 0. -1.
</event>
<event>
 7    1  0.3022537E-015  0.9000781E+02  0.7816164E-02  0.1186339E+00
        -11   -1    0    0    0    0  0.00000000000E+00  0.00000000000E+00  0.45593999997E+02  0.45594000000E+02  0.51100000000E-03 0. -1.
         11   -1    0    0    0    0 -0.00000000000E+00 -0.00000000000E+00 -0.45593999997E+02  0.45594000000E+02  0.51100000000E-03 0.  1.
    9900012    2    1    2    0    0 -0.24471358973E+00  0.88107081133E+00  0.74610138856E+00  0.90007814507E+02  0.90000076859E+02 0.  0.
        -12    1    1    2    0    0  0.24471358973E+00 -0.88107081133E+00 -0.74610138856E+00  0.11801854929E+01  0.00000000000E+00 0.  1.
         11    1    3    3    0    0 -0.38017161219E+01  0.32179614277E+02  0.27652949804E+02  0.42598899676E+02  0.51100000000E-03 0. -1.
        -11    1    3    3    0    0  0.82198798184E+01 -0.10090356581E+01 -0.43368313847E+01  0.93484054206E+01  0.51100000000E-03 0.  1.
        -12    1    3    3    0    0 -0.46628772862E+01 -0.30289507808E+02 -0.22570017031E+02  0.38060509410E+02  0.00000000000E+00 0.  1.
</event>
<event>
 7    1  0.2349719E-015  0.9000792E+02  0.7816164E-02  0.1186339E+00
        -11   -1    0    0    0    0  0.00000000000E+00  0.00000000000E+00  0.45593999997E+02  0.45594000000E+02  0.51100000000E-03 0.  1.
         11   -1    0    0    0    0 -0.00000000000E+00 -0.00000000000E+00 -0.45593999997E+02  0.45594000000E+02  0.51100000000E-03 0. -1.
    9900012    2    1    2    0    0  0.10206128925E+01  0.58597179993E+00 -0.87018469554E-01  0.90007921257E+02  0.90000185017E+02 0.  0.
        -12    1    1    2    0    0 -0.10206128925E+01 -0.58597179993E+00  0.87018469554E-01  0.11800787434E+01  0.00000000000E+00 0.  1.
         11    1    3    3    0    0  0.12913158505E+02 -0.91009757002E+01 -0.33990635883E+02  0.37482539259E+02  0.51100000000E-03 0. -1.
        -11    1    3    3    0    0 -0.58614846925E+01 -0.62477929077E+01 -0.50949340795E+01  0.99674606873E+01  0.51100000000E-03 0.  1.
        -12    1    3    3    0    0 -0.60310609205E+01  0.15934740408E+02  0.38998551493E+02  0.42557921310E+02  0.00000000000E+00 0.  1.
</event>
<event>
 7    1  0.2349719E-015  0.9000773E+02  0.7816164E-02  0.1186339E+00
        -11   -1    0    0    0    0  0.00000000000E+00  0.00000000000E+00  0.45593999997E+02  0.45594000000E+02  0.51100000000E-03 0.  1.
         11   -1    0    0    0    0 -0.00000000000E+00 -0.00000000000E+00 -0.45593999997E+02  0.45594000000E+02  0.51100000000E-03 0. -1.
    9900012    2    1    2    0    0 -0.77027260180E+00  0.43423216700E+00 -0.78176149806E+00  0.90007733718E+02  0.89999995003E+02 0.  0.
        -12    1    1    2    0    0  0.77027260180E+00 -0.43423216700E+00  0.78176149806E+00  0.11802662817E+01  0.00000000000E+00 0.  1.
         11    1    3    3    0    0  0.91419514620E+01  0.23629143498E+01 -0.87441760914E+00  0.94827868886E+01  0.51100000000E-03 0. -1.
        -11    1    3    3    0    0  0.24924107920E+02 -0.19992622051E+02  0.18779019193E+02  0.37061673657E+02  0.51100000000E-03 0.  1.
         12    1    3    3    0    0 -0.34836331984E+02  0.18063939868E+02 -0.18686363082E+02  0.43463273173E+02  0.00000000000E+00 0. -1.
</event>
<event>
 7    1  0.2349719E-015  0.9000779E+02  0.7816164E-02  0.1186339E+00
        -11   -1    0    0    0    0  0.00000000000E+00  0.00000000000E+00  0.45593999997E+02  0.45594000000E+02  0.51100000000E-03 0.  1.
         11   -1    0    0    0    0 -0.00000000000E+00 -0.00000000000E+00 -0.45593999997E+02  0.45594000000E+02  0.51100000000E-03 0. -1.
    9900012    2    1    2    0    0  0.24297431051E-01  0.64770618512E+00 -0.98629139252E+00  0.90007794773E+02  0.90000056864E+02 0.  0.
        -12    1    1    2    0    0 -0.24297431051E-01 -0.64770618512E+00  0.98629139252E+00  0.11802052272E+01  0.00000000000E+00 0.  1.
         11    1    3    3    0    0  0.20585062925E+01  0.46359638301E+01 -0.86710193708E+01  0.10045704852E+02  0.51100000000E-03 0. -1.
        -11    1    3    3    0    0  0.32199097753E+02 -0.21172032836E+02 -0.65687566429E+01  0.39092012414E+02  0.51100000000E-03 0.  1.
         12    1    3    3    0    0 -0.34233306614E+02  0.17183775191E+02  0.14253484621E+02  0.40870077506E+02  0.00000000000E+00 0. -1.
</event>
<event>
 7    1  0.2349719E-015  0.9000785E+02  0.7816164E-02  0.1186339E+00
        -11   -1    0    0    0    0  0.00000000000E+00  0.00000000000E+00  0.45593999997E+02  0.45594000000E+02  0.51100000000E-03 0.  1.
         11   -1    0    0    0    0 -0.00000000000E+00 -0.00000000000E+00 -0.45593999997E+02  0.45594000000E+02  0.51100000000E-03 0. -1.
    9900012    2    1    2    0    0 -0.89275593119E+00  0.73614269277E+00 -0.23201705021E+00  0.90007851226E+02  0.90000114062E+02 0.  0.
        -12    1    1    2    0    0  0.89275593119E+00 -0.73614269277E+00  0.23201705021E+00  0.11801487738E+01  0.00000000000E+00 0.  1.
         11    1    3    3    0    0  0.14301092065E+01  0.19503224746E+02 -0.18626451178E+02  0.27006770847E+02  0.51100000000E-03 0. -1.
        -11    1    3    3    0    0  0.18916687729E+02  0.11903147804E+02  0.11230032347E+02  0.25012789310E+02  0.51100000000E-03 0.  1.
         12    1    3    3    0    0 -0.21239552867E+02 -0.30670229857E+02  0.71644017810E+01  0.37988291069E+02  0.00000000000E+00 0. -1.
</event>
<event>
 7    1  0.2349719E-015  0.9000780E+02  0.7816164E-02  0.1186339E+00
        -11   -1    0    0    0    0  0.00000000000E+00  0.00000000000E+00  0.45593999997E+02  0.45594000000E+02  0.51100000000E-03 0.  1.
         11   -1    0    0    0    0 -0.00000000000E+00 -0.00000000000E+00 -0.45593999997E+02  0.45594000000E+02  0.51100000000E-03 0. -1.
    9900012    2    1    2    0    0  0.84391427459E+00 -0.70014559226E+00 -0.43643841264E+00  0.90007799322E+02  0.90000061473E+02 0.  0.
        -12    1    1    2    0    0 -0.84391427459E+00  0.70014559226E+00  0.43643841264E+00  0.11802006784E+01  0.00000000000E+00 0.  1.
         11    1    3    3    0    0 -0.29542999596E+02 -0.22762452917E+02  0.19998848011E+02  0.42318695750E+02  0.51100000000E-03 0. -1.
        -11    1    3    3    0    0  0.25913833485E+01  0.76628453112E+01  0.29547111382E+01  0.86118978219E+01  0.51100000000E-03 0.  1.
        -12    1    3    3    0    0  0.27795530522E+02  0.14399462014E+02 -0.23389997562E+02  0.39077205750E+02  0.00000000000E+00 0.  1.
</event>
<event>
 7    1  0.2349719E-015  0.9000768E+02  0.7816164E-02  0.1186339E+00
        -11   -1    0    0    0    0  0.00000000000E+00  0.00000000000E+00  0.45593999997E+02  0.45594000000E+02  0.51100000000E-03 0.  1.
         11   -1    0    0    0    0 -0.00000000000E+00 -0.00000000000E+00 -0.45593999997E+02  0.45594000000E+02  0.51100000000E-03 0. -1.
    9900012    2    1    2    0    0 -0.11092035611E+01 -0.14236638758E+00 -0.37756363723E+00  0.90007680116E+02  0.89999940694E+02 0.  0.
        -12    1    1    2    0    0  0.11092035611E+01  0.14236638758E+00  0.37756363723E+00  0.11803198840E+01  0.00000000000E+00 0.  1.
         11    1    3    3    0    0  0.19087672554E+02 -0.31189182133E+02 -0.20395092691E+02  0.41869608689E+02  0.51100000000E-03 0. -1.
        -11    1    3    3    0    0  0.10586988721E+01  0.22733427234E+00  0.90663535884E+01  0.91307881272E+01  0.51100000000E-03 0.  1.
        -12    1    3    3    0    0 -0.21255574987E+02  0.30819481473E+02  0.10951175465E+02  0.39007283299E+02  0.00000000000E+00 0.  1.
</event>
<event>
 7    1  0.2349719E-015  0.9000776E+02  0.7816164E-02  0.1186339E+00
        -11   -1    0    0    0    0  0.00000000000E+00  0.00000000000E+00  0.45593999997E+02  0.45594000000E+02  0.51100000000E-03 0.  1.
         11   -1    0    0    0    0 -0.00000000000E+00 -0.00000000000E+00 -0.45593999997E+02  0.45594000000E+02  0.51100000000E-03 0. -1.
    9900012    2    1    2    0    0  0.82796988660E+00  0.67022922222E+00 -0.50816024789E+00  0.90007759270E+02  0.90000020892E+02 0.  0.
        -12    1    1    2    0    0 -0.82796988660E+00 -0.67022922222E+00  0.50816024789E+00  0.11802407301E+01  0.00000000000E+00 0.  1.
         11    1    3    3    0    0  0.29279731608E+01  0.62379620171E+01 -0.74227817876E+01  0.10128321020E+02  0.51100000000E-03 0. -1.
        -11    1    3    3    0    0  0.15170419514E+02  0.82698859463E+01  0.37987006608E+02  0.41731826142E+02  0.51100000000E-03 0.  1.
         12    1    3    3    0    0 -0.17270422788E+02 -0.13837618741E+02 -0.31072385069E+02  0.38147612108E+02  0.00000000000E+00 0. -1.
</event>
<event>
 7    1  0.2349719E-015  0.9000779E+02  0.7816164E-02  0.1186339E+00
        -11   -1    0    0    0    0  0.00000000000E+00  0.00000000000E+00  0.45593999997E+02  0.45594000000E+02  0.51100000000E-03 0. -1.
         11   -1    0    0    0    0 -0.00000000000E+00 -0.00000000000E+00 -0.45593999997E+02  0.45594000000E+02  0.51100000000E-03 0.  1.
    9900012    2    1    2    0    0 -0.10701066124E+00 -0.22847428122E+00  0.11529270996E+01  0.90007791258E+02  0.90000053302E+02 0.  0.
        -12    1    1    2    0    0  0.10701066124E+00  0.22847428122E+00 -0.11529270996E+01  0.11802087424E+01  0.00000000000E+00 0.  1.
         11    1    3    3    0    0  0.22420534535E+00  0.26154749414E+01 -0.90963147287E+01  0.94675191635E+01  0.51100000000E-03 0. -1.
        -11    1    3    3    0    0  0.18720087139E+02 -0.27875100637E+02  0.28613411151E+02  0.44115645705E+02  0.51100000000E-03 0.  1.
         12    1    3    3    0    0 -0.19051303146E+02  0.25031151415E+02 -0.18364169322E+02  0.36424626389E+02  0.00000000000E+00 0. -1.
</event>
<event>
 7    1  0.2349719E-015  0.9000785E+02  0.7816164E-02  0.1186339E+00
        -11   -1    0    0    0    0  0.00000000000E+00  0.00000000000E+00  0.45593999997E+02  0.45594000000E+02  0.51100000000E-03 0. -1.
         11   -1    0    0    0    0 -0.00000000000E+00 -0.00000000000E+00 -0.45593999997E+02  0.45594000000E+02  0.51100000000E-03 0.  1.
    9900012    2    1    2    0    0 -0.10095175902E+01 -0.47177588013E+00  0.38864537167E+00  0.90007854470E+02  0.90000117349E+02 0.  0.
        -12    1    1    2    0    0  0.10095175902E+01  0.47177588013E+00 -0.38864537167E+00  0.11801455296E+01  0.00000000000E+00 0.  1.
         11    1    3    3    0    0  0.33259888003E+02 -0.10849068794E+02  0.15061177028E+02  0.38088863168E+02  0.51100000000E-03 0. -1.
        -11    1    3    3    0    0  0.12598960097E+01 -0.28055585935E+01 -0.13667772895E+02  0.14009515093E+02  0.51100000000E-03 0.  1.
        -12    1    3    3    0    0 -0.35529301603E+02  0.13182851507E+02 -0.10047587617E+01  0.37909476209E+02  0.00000000000E+00 0.  1.
</event>
<event>
 7    1  0.2349719E-015  0.9000786E+02  0.7816164E-02  0.1186339E+00
        -11   -1    0    0    0    0  0.00000000000E+00  0.00000000000E+00  0.45593999997E+02  0.45594000000E+02  0.51100000000E-03 0.  1.
         11   -1    0    0    0    0 -0.00000000000E+00 -0.00000000000E+00 -0.45593999997E+02  0.45594000000E+02  0.51100000000E-03 0. -1.
    9900012    2    1    2    0    0  0.10513648866E+01 -0.42300426344E+00 -0.32929611828E+00  0.90007857354E+02  0.90000120271E+02 0.  0.
        -12    1    1    2    0    0 -0.10513648866E+01  0.42300426344E+00  0.32929611828E+00  0.11801426461E+01  0.00000000000E+00 0.  1.
         11    1    3    3    0    0 -0.10124618638E+02  0.21151673241E+02  0.23244342113E+02  0.33018186262E+02  0.51100000000E-03 0. -1.
        -11    1    3    3    0    0 -0.81739558878E+01  0.96867674209E+01  0.10844250927E+01  0.12720966786E+02  0.51100000000E-03 0.  1.
        -12    1    3    3    0    0  0.19349939412E+02 -0.31261444926E+02 -0.24658063324E+02  0.44268704307E+02  0.00000000000E+00 0.  1.
</event>
<event>
 7    1  0.2349719E-015  0.9000769E+02  0.7816164E-02  0.1186339E+00
        -11   -1    0    0    0    0  0.00000000000E+00  0.00000000000E+00  0.45593999997E+02  0.45594000000E+02  0.51100000000E-03 0. -1.
         11   -1    0    0    0    0 -0.00000000000E+00 -0.00000000000E+00 -0.45593999997E+02  0.45594000000E+02  0.51100000000E-03 0.  1.
    9900012    2    1    2    0    0  0.86832537265E+00 -0.62601914748E+00  0.49722633240E+00  0.90007693704E+02  0.89999954461E+02 0.  0.
        -12    1    1    2    0    0 -0.86832537265E+00  0.62601914748E+00 -0.49722633240E+00  0.11803062956E+01  0.00000000000E+00 0.  1.
         11    1    3    3    0    0 -0.36392288991E+01 -0.18667900713E+02 -0.10616545618E+02  0.21781770936E+02  0.51100000000E-03 0. -1.
        -11    1    3    3    0    0  0.20764783086E+02 -0.18026245048E+02  0.16504150008E+01  0.27547152250E+02  0.51100000000E-03 0.  1.
         12    1    3    3    0    0 -0.16257228814E+02  0.36068126613E+02  0.94633569498E+01  0.40678770518E+02  0.00000000000E+00 0. -1.
</event>
<event>
 7    1  0.2349719E-015  0.9000776E+02  0.7816164E-02  0.1186339E+00
        -11   -1    0    0    0    0  0.00000000000E+00  0.00000000000E+00  0.45593999997E+02  0.45594000000E+02  0.51100000000E-03 0.  1.
         11   -1    0    0    0    0 -0.00000000000E+00 -0.00000000000E+00 -0.45593999997E+02  0.45594000000E+02  0.51100000000E-03 0. -1.
    9900012    2    1    2    0    0  0.72057860953E+00  0.77068121466E+00  0.52895618246E+00  0.90007755233E+02  0.90000016802E+02 0.  0.
        -12    1    1    2    0    0 -0.72057860953E+00 -0.77068121466E+00 -0.52895618246E+00  0.11802447670E+01  0.00000000000E+00 0.  1.
         11    1    3    3    0    0  0.11317207430E+02 -0.30641652134E+01  0.12108466516E+02  0.16854769476E+02  0.51100000000E-03 0. -1.
        -11    1    3    3    0    0 -0.21043449234E+02 -0.54592305658E+01  0.25508979732E+02  0.33516234891E+02  0.51100000000E-03 0.  1.
         12    1    3    3    0    0  0.10446820414E+02  0.92940769939E+01 -0.37088490065E+02  0.39636750866E+02  0.00000000000E+00 0. -1.
</event>
<event>
 7    1  0.2349719E-015  0.9000773E+02  0.7816164E-02  0.1186339E+00
        -11   -1    0    0    0    0  0.00000000000E+00  0.00000000000E+00  0.45593999997E+02  0.45594000000E+02  0.51100000000E-03 0. -1.
         11   -1    0    0    0    0 -0.00000000000E+00 -0.00000000000E+00 -0.45593999997E+02  0.45594000000E+02  0.51100000000E-03 0.  1.
    9900012    2    1    2    0    0  0.25222864461E+00 -0.31785524723E+00  0.11083304129E+01  0.90007725646E+02  0.89999986824E+02 0.  0.
        -12    1    1    2    0    0 -0.25222864461E+00  0.31785524723E+00 -0.11083304129E+01  0.11802743543E+01  0.00000000000E+00 0.  1.
         11    1    3    3    0    0  0.23491896287E+02  0.14503380749E+02  0.25200274166E+02  0.37380089120E+02  0.51100000000E-03 0. -1.
        -11    1    3    3    0    0  0.50104195468E+01  0.81508052049E-01  0.66299487274E+01  0.83106659172E+01  0.51100000000E-03 0.  1.
        -12    1    3    3    0    0 -0.28250087189E+02 -0.14902744048E+02 -0.30721892480E+02  0.44316970609E+02  0.00000000000E+00 0.  1.
</event>
<event>
 7    1  0.2349719E-015  0.9000775E+02  0.7816164E-02  0.1186339E+00
        -11   -1    0    0    0    0  0.00000000000E+00  0.00000000000E+00  0.45593999997E+02  0.45594000000E+02  0.51100000000E-03 0. -1.
         11   -1    0    0    0    0 -0.00000000000E+00 -0.00000000000E+00 -0.45593999997E+02  0.45594000000E+02  0.51100000000E-03 0.  1.
    9900012    2    1    2    0    0 -0.32846594455E+00 -0.10744412409E+01  0.36147722147E+00  0.90007754416E+02  0.90000015974E+02 0.  0.
        -12    1    1    2    0    0  0.32846594455E+00  0.10744412409E+01 -0.36147722147E+00  0.11802455840E+01  0.00000000000E+00 0.  1.
         11    1    3    3    0    0  0.18358129815E+02 -0.26351437138E+02  0.18195865487E+02  0.36912175371E+02  0.51100000000E-03 0. -1.
        -11    1    3    3    0    0  0.20916452219E+01  0.36522924301E+00  0.10078668698E+02  0.10299899763E+02  0.51100000000E-03 0.  1.
        -12    1    3    3    0    0 -0.20778240981E+02  0.24911766654E+02 -0.27913056964E+02  0.42795679282E+02  0.00000000000E+00 0.  1.
</event>
<event>
 7    1  0.2688467E-015  0.9000773E+02  0.7816164E-02  0.1186339E+00
        -11   -1    0    0    0    0  0.00000000000E+00  0.00000000000E+00  0.45593999997E+02  0.45594000000E+02  0.51100000000E-03 0.  1.
         11   -1    0    0    0    0 -0.00000000000E+00 -0.00000000000E+00 -0.45593999997E+02  0.45594000000E+02  0.51100000000E-03 0. -1.
    9900012    2    1    2    0    0  0.31935650309E+00  0.62461435347E+00 -0.94915949793E+00  0.90007730785E+02  0.89999992032E+02 0.  0.
        -12    1    1    2    0    0 -0.31935650309E+00 -0.62461435347E+00  0.94915949793E+00  0.11802692147E+01  0.00000000000E+00 0.  1.
         11    1    3    3    0    0  0.60621012109E+01  0.34461368688E+02 -0.18482829210E+02  0.39572085854E+02  0.51100000000E-03 0. -1.
        -11    1    3    3    0    0 -0.18256484194E+01 -0.33141438800E+01 -0.90254028963E+01  0.97864416163E+01  0.51100000000E-03 0.  1.
        -12    1    3    3    0    0 -0.39170962885E+01 -0.30522610455E+02  0.26559072609E+02  0.40649203315E+02  0.00000000000E+00 0.  1.
</event>
<event>
 7    1  0.2349719E-015  0.9000789E+02  0.7816164E-02  0.1186339E+00
        -11   -1    0    0    0    0  0.00000000000E+00  0.00000000000E+00  0.45593999997E+02  0.45594000000E+02  0.51100000000E-03 0.  1.
         11   -1    0    0    0    0 -0.00000000000E+00 -0.00000000000E+00 -0.45593999997E+02  0.45594000000E+02  0.51100000000E-03 0. -1.
    9900012    2    1    2    0    0 -0.59329365796E+00 -0.98808878705E+00  0.25367262254E+00  0.90007887033E+02  0.90000150342E+02 0.  0.
        -12    1    1    2    0    0  0.59329365796E+00  0.98808878705E+00 -0.25367262254E+00  0.11801129671E+01  0.00000000000E+00 0.  1.
         11    1    3    3    0    0  0.24865993745E+02  0.20980374293E+01 -0.31227909292E+02  0.39973762958E+02  0.51100000000E-03 0. -1.
        -11    1    3    3    0    0  0.60533357394E+01 -0.41807468692E+01  0.60249544905E+01  0.95090270181E+01  0.51100000000E-03 0.  1.
        -12    1    3    3    0    0 -0.31512623142E+02  0.10946206528E+01  0.25456627425E+02  0.40525097057E+02  0.00000000000E+00 0.  1.
</event>
<event>
 7    1  0.2349719E-015  0.9000780E+02  0.7816164E-02  0.1186339E+00
        -11   -1    0    0    0    0  0.00000000000E+00  0.00000000000E+00  0.45593999997E+02  0.45594000000E+02  0.51100000000E-03 0. -1.
         11   -1    0    0    0    0 -0.00000000000E+00 -0.00000000000E+00 -0.45593999997E+02  0.45594000000E+02  0.51100000000E-03 0.  1.
    9900012    2    1    2    0    0  0.31045228842E-01  0.11778509593E+01  0.67590772909E-01  0.90007802897E+02  0.90000065096E+02 0.  0.
        -12    1    1    2    0    0 -0.31045228842E-01 -0.11778509593E+01 -0.67590772909E-01  0.11801971027E+01  0.00000000000E+00 0.  1.
         11    1    3    3    0    0 -0.19284694430E+01  0.39234823896E+01 -0.40403293629E+01  0.59528959403E+01  0.51100000000E-03 0. -1.
        -11    1    3    3    0    0 -0.21301591390E+02  0.86391270554E+00 -0.33487685386E+02  0.39697974932E+02  0.51100000000E-03 0.  1.
         12    1    3    3    0    0  0.23261106062E+02 -0.36095441358E+01  0.37595605522E+02  0.44356932025E+02  0.00000000000E+00 0. -1.
</event>
<event>
 7    1  0.2349719E-015  0.9000778E+02  0.7816164E-02  0.1186339E+00
        -11   -1    0    0    0    0  0.00000000000E+00  0.00000000000E+00  0.45593999997E+02  0.45594000000E+02  0.51100000000E-03 0. -1.
         11   -1    0    0    0    0 -0.00000000000E+00 -0.00000000000E+00 -0.45593999997E+02  0.45594000000E+02  0.51100000000E-03 0.  1.
    9900012    2    1    2    0    0 -0.11790260089E+01 -0.52932751832E-01  0.30845935665E-02  0.90007782342E+02  0.90000044269E+02 0.  0.
        -12    1    1    2    0    0  0.11790260089E+01  0.52932751832E-01 -0.30845935665E-02  0.11802176581E+01  0.00000000000E+00 0.  1.
         11    1    3    3    0    0  0.82911745794E+01 -0.43301041076E+01  0.26280357955E+01  0.97159636626E+01  0.51100000000E-03 0. -1.
        -11    1    3    3    0    0 -0.12999322434E+01 -0.88992910736E+01 -0.39383525782E+02  0.40397392350E+02  0.51100000000E-03 0.  1.
         12    1    3    3    0    0 -0.81702683449E+01  0.13176462429E+02  0.36758574580E+02  0.39894426329E+02  0.00000000000E+00 0. -1.
</event>
<event>
 7    1  0.2349719E-015  0.9000773E+02  0.7816164E-02  0.1186339E+00
        -11   -1    0    0    0    0  0.00000000000E+00  0.00000000000E+00  0.45593999997E+02  0.45594000000E+02  0.51100000000E-03 0. -1.
         11   -1    0    0    0    0 -0.00000000000E+00 -0.00000000000E+00 -0.45593999997E+02  0.45594000000E+02  0.51100000000E-03 0.  1.
    9900012    2    1    2    0    0  0.50465777571E+00 -0.10394706535E+01  0.24053555023E+00  0.90007730513E+02  0.89999991756E+02 0.  0.
        -12    1    1    2    0    0 -0.50465777571E+00  0.10394706535E+01 -0.24053555023E+00  0.11802694866E+01  0.00000000000E+00 0.  1.
         11    1    3    3    0    0  0.29935062550E+01  0.32254947429E+01  0.44712181205E+01  0.62734908765E+01  0.51100000000E-03 0. -1.
        -11    1    3    3    0    0  0.77435693660E+01  0.30148642955E+02  0.22975223204E+02  0.38688039755E+02  0.51100000000E-03 0.  1.
         12    1    3    3    0    0 -0.10232417845E+02 -0.34413608352E+02 -0.27205905774E+02  0.45046199881E+02  0.00000000000E+00 0. -1.
</event>
<event>
 7    1  0.2349719E-015  0.9000758E+02  0.7816164E-02  0.1186339E+00
        -11   -1    0    0    0    0  0.00000000000E+00  0.00000000000E+00  0.45593999997E+02  0.45594000000E+02  0.51100000000E-03 0. -1.
         11   -1    0    0    0    0 -0.00000000000E+00 -0.00000000000E+00 -0.45593999997E+02  0.45594000000E+02  0.51100000000E-03 0.  1.
    9900012    2    1    2    0    0 -0.10628453945E+01  0.31952327394E+00  0.40205827147E+00  0.90007582147E+02  0.89999841431E+02 0.  0.
        -12    1    1    2    0    0  0.10628453945E+01 -0.31952327394E+00 -0.40205827147E+00  0.11804178535E+01  0.00000000000E+00 0.  1.
         11    1    3    3    0    0  0.45196524683E+00 -0.24312254521E+02  0.12320725166E+01  0.24347648664E+02  0.51100000000E-03 0. -1.
        -11    1    3    3    0    0  0.23400914942E+02  0.13691125101E+02 -0.18851403420E+02  0.33021585937E+02  0.51100000000E-03 0.  1.
         12    1    3    3    0    0 -0.24915725584E+02  0.10940652694E+02  0.18021389174E+02  0.32638347546E+02  0.00000000000E+00 0. -1.
</event>
<event>
 7    1  0.2349719E-015  0.9000775E+02  0.7816164E-02  0.1186339E+00
        -11   -1    0    0    0    0  0.00000000000E+00  0.00000000000E+00  0.45593999997E+02  0.45594000000E+02  0.51100000000E-03 0.  1.
         11   -1    0    0    0    0 -0.00000000000E+00 -0.00000000000E+00 -0.45593999997E+02  0.45594000000E+02  0.51100000000E-03 0. -1.
    9900012    2    1    2    0    0 -0.58239274343E+00 -0.14770446276E+00 -0.10158722611E+01  0.90007748177E+02  0.90000009652E+02 0.  0.
        -12    1    1    2    0    0  0.58239274343E+00  0.14770446276E+00  0.10158722611E+01  0.11802518235E+01  0.00000000000E+00 0.  1.
         11    1    3    3    0    0 -0.22107177163E+02  0.61705453803E+01 -0.27450786140E+02  0.35781958755E+02  0.51100000000E-03 0. -1.
        -11    1    3    3    0    0 -0.26437152231E+01  0.17494959868E+01 -0.95903255421E+01  0.10100708423E+02  0.51100000000E-03 0.  1.
        -12    1    3    3    0    0  0.24168499642E+02 -0.80677458298E+01  0.36025239421E+02  0.44125080998E+02  0.00000000000E+00 0.  1.
</event>
<event>
 7    1  0.2538524E-015  0.9000779E+02  0.7816164E-02  0.1186339E+00
        -11   -1    0    0    0    0  0.00000000000E+00  0.00000000000E+00  0.45593999997E+02  0.45594000000E+02  0.51100000000E-03 0. -1.
         11   -1    0    0    0    0 -0.00000000000E+00 -0.00000000000E+00 -0.45593999997E+02  0.45594000000E+02  0.51100000000E-03 0.  1.
    9900012    2    1    2    0    0 -0.77694489980E+00 -0.12168649330E+00  0.88001948867E+00  0.90007794391E+02  0.90000056477E+02 0.  0.
        -12    1    1    2    0    0  0.77694489980E+00  0.12168649330E+00 -0.88001948867E+00  0.11802056094E+01  0.00000000000E+00 0.  1.
         11    1    3    3    0    0 -0.31121979035E+02  0.36144430367E+01  0.22755540055E+02  0.38722814735E+02  0.51100000000E-03 0. -1.
        -11    1    3    3    0    0  0.33745412663E+01  0.62019531277E+01  0.74207391423E+01  0.10243003516E+02  0.51100000000E-03 0.  1.
        -12    1    3    3    0    0  0.26970492869E+02 -0.99380826576E+01 -0.29296259709E+02  0.41041976139E+02  0.00000000000E+00 0.  1.
</event>
<event>
 7    1  0.2444672E-015  0.9000775E+02  0.7816164E-02  0.1186339E+00
        -11   -1    0    0    0    0  0.00000000000E+00  0.00000000000E+00  0.45593999997E+02  0.45594000000E+02  0.51100000000E-03 0. -1.
         11   -1    0    0    0    0 -0.00000000000E+00 -0.00000000000E+00 -0.45593999997E+02  0.45594000000E+02  0.51100000000E-03 0.  1.
    9900012    2    1    2    0    0  0.85113363960E+00  0.74233010619E+00  0.34280443386E+00  0.90007746917E+02  0.90000008377E+02 0.  0.
        -12    1    1    2    0    0 -0.85113363960E+00 -0.74233010619E+00 -0.34280443386E+00  0.11802530826E+01  0.00000000000E+00 0.  1.
         11    1    3    3    0    0  0.26898360262E+02  0.14290044815E+01  0.25301330172E+02  0.36955664617E+02  0.51100000000E-03 0. -1.
        -11    1    3    3    0    0 -0.98652690751E-01 -0.11114964147E+00  0.97284035914E+01  0.97295386989E+01  0.51100000000E-03 0.  1.
        -12    1    3    3    0    0 -0.25948573931E+02 -0.57552473384E+00 -0.34686929329E+02  0.43322543601E+02  0.00000000000E+00 0.  1.
</event>
<event>
 7    1  0.2349719E-015  0.9000784E+02  0.7816164E-02  0.1186339E+00
        -11   -1    0    0    0    0  0.00000000000E+00  0.00000000000E+00  0.45593999997E+02  0.45594000000E+02  0.51100000000E-03 0.  1.
         11   -1    0    0    0    0 -0.00000000000E+00 -0.00000000000E+00 -0.45593999997E+02  0.45594000000E+02  0.51100000000E-03 0. -1.
    9900012    2    1    2    0    0 -0.36807048024E+00  0.23168875797E+00 -0.10970929461E+01  0.90007843870E+02  0.90000106609E+02 0.  0.
        -12    1    1    2    0    0  0.36807048024E+00 -0.23168875797E+00  0.10970929461E+01  0.11801561301E+01  0.00000000000E+00 0.  1.
         11    1    3    3    0    0  0.28095878767E+02  0.24081538564E+02  0.11558118886E+01  0.37022085364E+02  0.51100000000E-03 0. -1.
        -11    1    3    3    0    0  0.19498819394E+01  0.23245933376E+01  0.10462207713E+02  0.10893280693E+02  0.51100000000E-03 0.  1.
        -12    1    3    3    0    0 -0.30413831187E+02 -0.26174443143E+02 -0.12715112548E+02  0.42092477813E+02  0.00000000000E+00 0.  1.
</event>
<event>
 7    1  0.2349719E-015  0.9000775E+02  0.7816164E-02  0.1186339E+00
        -11   -1    0    0    0    0  0.00000000000E+00  0.00000000000E+00  0.45593999997E+02  0.45594000000E+02  0.51100000000E-03 0. -1.
         11   -1    0    0    0    0 -0.00000000000E+00 -0.00000000000E+00 -0.45593999997E+02  0.45594000000E+02  0.51100000000E-03 0.  1.
    9900012    2    1    2    0    0  0.10910381422E+01 -0.20913685617E+00  0.39860951918E+00  0.90007749179E+02  0.90000010668E+02 0.  0.
        -12    1    1    2    0    0 -0.10910381422E+01  0.20913685617E+00 -0.39860951918E+00  0.11802508213E+01  0.00000000000E+00 0.  1.
         11    1    3    3    0    0  0.81579281371E+01  0.12758883057E+02 -0.33161905423E+02  0.36456177253E+02  0.51100000000E-03 0. -1.
        -11    1    3    3    0    0 -0.81640038634E+01 -0.90876710415E+01 -0.61222116762E+01  0.13664486822E+02  0.51100000000E-03 0.  1.
         12    1    3    3    0    0  0.10971138685E+01 -0.38803488719E+01  0.39682726618E+02  0.39887085104E+02  0.00000000000E+00 0. -1.
</event>
<event>
 7    1  0.2349719E-015  0.9000771E+02  0.7816164E-02  0.1186339E+00
        -11   -1    0    0    0    0  0.00000000000E+00  0.00000000000E+00  0.45593999997E+02  0.45594000000E+02  0.51100000000E-03 0.  1.
         11   -1    0    0    0    0 -0.00000000000E+00 -0.00000000000E+00 -0.45593999997E+02  0.45594000000E+02  0.51100000000E-03 0. -1.
    9900012    2    1    2    0    0  0.92728424485E+00 -0.44734734518E+00  0.57714588744E+00  0.90007714825E+02  0.89999975861E+02 0.  0.
        -12    1    1    2    0    0 -0.92728424485E+00  0.44734734518E+00 -0.57714588744E+00  0.11802851746E+01  0.00000000000E+00 0.  1.
         11    1    3    3    0    0  0.77496150660E+01  0.12808800201E+02 -0.36130638788E+02  0.39109397281E+02  0.51100000000E-03 0. -1.
        -11    1    3    3    0    0  0.59920183900E+01 -0.11055801478E+02  0.67698084961E+00  0.12593384535E+02  0.51100000000E-03 0.  1.
        -12    1    3    3    0    0 -0.12814349211E+02 -0.22003460679E+01  0.36030803825E+02  0.38304933009E+02  0.00000000000E+00 0.  1.
</event>
<event>
 7    1  0.2349719E-015  0.9000763E+02  0.7816164E-02  0.1186339E+00
        -11   -1    0    0    0    0  0.00000000000E+00  0.00000000000E+00  0.45593999997E+02  0.45594000000E+02  0.51100000000E-03 0.  1.
         11   -1    0    0    0    0 -0.00000000000E+00 -0.00000000000E+00 -0.45593999997E+02  0.45594000000E+02  0.51100000000E-03 0. -1.
    9900012    2    1    2    0    0  0.44094891091E+00  0.19561387789E+00 -0.10772982126E+01  0.90007630494E+02  0.89999890417E+02 0.  0.
        -12    1    1    2    0    0 -0.44094891091E+00 -0.19561387789E+00  0.10772982126E+01  0.11803695057E+01  0.00000000000E+00 0.  1.
         11    1    3    3    0    0  0.27172694004E+02  0.33530433308E+02 -0.14513810073E+01  0.43182771615E+02  0.51100000000E-03 0. -1.
        -11    1    3    3    0    0 -0.85725910223E+01 -0.65017209152E+00 -0.33986598705E+01  0.92446162582E+01  0.51100000000E-03 0.  1.
        -12    1    3    3    0    0 -0.18159154071E+02 -0.32684647339E+02  0.37727426651E+01  0.37580242621E+02  0.00000000000E+00 0.  1.
</event>
<event>
 7    1  0.2349719E-015  0.9000773E+02  0.7816164E-02  0.1186339E+00
        -11   -1    0    0    0    0  0.00000000000E+00  0.00000000000E+00  0.45593999997E+02  0.45594000000E+02  0.51100000000E-03 0.  1.
         11   -1    0    0    0    0 -0.00000000000E+00 -0.00000000000E+00 -0.45593999997E+02  0.45594000000E+02  0.51100000000E-03 0. -1.
    9900012    2    1    2    0    0  0.57783309437E+00  0.76173479752E+00  0.69202916358E+00  0.90007730815E+02  0.89999992061E+02 0.  0.
        -12    1    1    2    0    0 -0.57783309437E+00 -0.76173479752E+00 -0.69202916358E+00  0.11802691854E+01  0.00000000000E+00 0.  1.
         11    1    3    3    0    0 -0.30695571866E+02 -0.14424740327E+02 -0.71249667221E+01  0.34656260859E+02  0.51100000000E-03 0. -1.
        -11    1    3    3    0    0 -0.96249355468E+01 -0.23110226536E+01 -0.11738677321E+01  0.99678571267E+01  0.51100000000E-03 0.  1.
        -12    1    3    3    0    0  0.40898340508E+02  0.17497497778E+02  0.89908636177E+01  0.45383612828E+02  0.00000000000E+00 0.  1.
</event>
<event>
 7    1  0.2349719E-015  0.9000774E+02  0.7816164E-02  0.1186339E+00
        -11   -1    0    0    0    0  0.00000000000E+00  0.00000000000E+00  0.45593999997E+02  0.45594000000E+02  0.51100000000E-03 0.  1.
         11   -1    0    0    0    0 -0.00000000000E+00 -0.00000000000E+00 -0.45593999997E+02  0.45594000000E+02  0.51100000000E-03 0. -1.
    9900012    2    1    2    0    0  0.91221362646E-02 -0.29856087956E+00 -0.11418325383E+01  0.90007744368E+02  0.90000005793E+02 0.  0.
        -12    1    1    2    0    0 -0.91221362646E-02  0.29856087956E+00  0.11418325383E+01  0.11802556323E+01  0.00000000000E+00 0.  1.
         11    1    3    3    0    0  0.51582869351E+01  0.66622145147E+01  0.27056117925E+01  0.88494837012E+01  0.51100000000E-03 0. -1.
        -11    1    3    3    0    0  0.23633765088E+00 -0.99871512739E+01  0.37778186079E+02  0.39076724399E+02  0.51100000000E-03 0.  1.
         12    1    3    3    0    0 -0.53855024498E+01  0.30263758797E+01 -0.41625630410E+02  0.42081536268E+02  0.00000000000E+00 0. -1.
</event>
<event>
 7    1  0.2349719E-015  0.9000735E+02  0.7816164E-02  0.1186340E+00
        -11   -1    0    0    0    0  0.00000000000E+00  0.00000000000E+00  0.45593999997E+02  0.45594000000E+02  0.51100000000E-03 0. -1.
         11   -1    0    0    0    0 -0.00000000000E+00 -0.00000000000E+00 -0.45593999997E+02  0.45594000000E+02  0.51100000000E-03 0.  1.
    9900012    2    1    2    0    0 -0.10567575036E+01 -0.47973518665E+00 -0.21690099441E+00  0.90007352588E+02  0.89999608841E+02 0.  0.
        -12    1    1    2    0    0  0.10567575036E+01  0.47973518665E+00  0.21690099441E+00  0.11806474123E+01  0.00000000000E+00 0.  1.
         11    1    3    3    0    0  0.76608543291E+01 -0.43809772685E+01  0.15982985967E+01  0.89686236148E+01  0.51100000000E-03 0. -1.
        -11    1    3    3    0    0 -0.54470718466E+00 -0.36748485265E+02 -0.11404124433E+02  0.38481189295E+02  0.51100000000E-03 0.  1.
         12    1    3    3    0    0 -0.81729046480E+01  0.40649727347E+02  0.95889248423E+01  0.42557539678E+02  0.00000000000E+00 0. -1.
</event>
<event>
 7    1  0.2349719E-015  0.9000774E+02  0.7816164E-02  0.1186339E+00
        -11   -1    0    0    0    0  0.00000000000E+00  0.00000000000E+00  0.45593999997E+02  0.45594000000E+02  0.51100000000E-03 0.  1.
         11   -1    0    0    0    0 -0.00000000000E+00 -0.00000000000E+00 -0.45593999997E+02  0.45594000000E+02  0.51100000000E-03 0. -1.
    9900012    2    1    2    0    0 -0.11275725278E+01 -0.93752140280E-02 -0.34858300354E+00  0.90007738245E+02  0.89999999590E+02 0.  0.
        -12    1    1    2    0    0  0.11275725278E+01  0.93752140280E-02  0.34858300354E+00  0.11802617550E+01  0.00000000000E+00 0.  1.
         11    1    3    3    0    0  0.67187499401E+01 -0.21602639708E+02 -0.19736351919E+02  0.30022312211E+02  0.51100000000E-03 0. -1.
        -11    1    3    3    0    0  0.31181157991E+00 -0.98851165847E+01 -0.11477794102E+02  0.15150990531E+02  0.51100000000E-03 0.  1.
        -12    1    3    3    0    0 -0.81581340478E+01  0.31478381079E+02  0.30865563018E+02  0.44834435503E+02  0.00000000000E+00 0.  1.
</event>
<event>
 7    1  0.2349719E-015  0.9000783E+02  0.7816164E-02  0.1186339E+00
        -11   -1    0    0    0    0  0.00000000000E+00  0.00000000000E+00  0.45593999997E+02  0.45594000000E+02  0.51100000000E-03 0.  1.
         11   -1    0    0    0    0 -0.00000000000E+00 -0.00000000000E+00 -0.45593999997E+02  0.45594000000E+02  0.51100000000E-03 0. -1.
    9900012    2    1    2    0    0  0.43400872142E+00  0.93867942797E+00 -0.56861068932E+00  0.90007830201E+02  0.90000092759E+02 0.  0.
        -12    1    1    2    0    0 -0.43400872142E+00 -0.93867942797E+00  0.56861068932E+00  0.11801697991E+01  0.00000000000E+00 0.  1.
         11    1    3    3    0    0  0.68625781493E+01 -0.38103509571E+01  0.43946944348E+01  0.89959486830E+01  0.51100000000E-03 0. -1.
        -11    1    3    3    0    0  0.29943580052E+01 -0.28041164965E+02  0.23399844484E+02  0.36644588067E+02  0.51100000000E-03 0.  1.
         12    1    3    3    0    0 -0.94229274331E+01  0.32790195350E+02 -0.28363149608E+02  0.44367293451E+02  0.00000000000E+00 0. -1.
</event>
<event>
 7    1  0.2349719E-015  0.9000771E+02  0.7816164E-02  0.1186339E+00
        -11   -1    0    0    0    0  0.00000000000E+00  0.00000000000E+00  0.45593999997E+02  0.45594000000E+02  0.51100000000E-03 0. -1.
         11   -1    0    0    0    0 -0.00000000000E+00 -0.00000000000E+00 -0.45593999997E+02  0.45594000000E+02  0.51100000000E-03 0.  1.
    9900012    2    1    2    0    0 -0.17993013159E+00 -0.11593840222E+01 -0.12860292469E+00  0.90007709834E+02  0.89999970804E+02 0.  0.
        -12    1    1    2    0    0  0.17993013159E+00  0.11593840222E+01  0.12860292469E+00  0.11802901658E+01  0.00000000000E+00 0.  1.
         11    1    3    3    0    0 -0.11416099424E+02 -0.40504845099E+02  0.11348434762E+02  0.43586199357E+02  0.51100000000E-03 0. -1.
        -11    1    3    3    0    0 -0.51270950687E+01  0.64613983336E+01 -0.22562073153E+01  0.85514468939E+01  0.51100000000E-03 0.  1.
        -12    1    3    3    0    0  0.16363264362E+02  0.32884062743E+02 -0.92208303717E+01  0.37870063583E+02  0.00000000000E+00 0.  1.
</event>
<event>
 7    1  0.2349719E-015  0.9000774E+02  0.7816164E-02  0.1186339E+00
        -11   -1    0    0    0    0  0.00000000000E+00  0.00000000000E+00  0.45593999997E+02  0.45594000000E+02  0.51100000000E-03 0.  1.
         11   -1    0    0    0    0 -0.00000000000E+00 -0.00000000000E+00 -0.45593999997E+02  0.45594000000E+02  0.51100000000E-03 0. -1.
    9900012    2    1    2    0    0 -0.80126458478E+00  0.86537019628E+00 -0.46110835395E-01  0.90007738707E+02  0.90000000058E+02 0.  0.
        -12    1    1    2    0    0  0.80126458478E+00 -0.86537019628E+00  0.46110835395E-01  0.11802612934E+01  0.00000000000E+00 0.  1.
         11    1    3    3    0    0  0.78976984590E+01  0.45410657925E+01 -0.37112563166E+00  0.91177110054E+01  0.51100000000E-03 0. -1.
        -11    1    3    3    0    0  0.15431710001E+02 -0.26768588233E+02 -0.24369804298E+02  0.39352031095E+02  0.51100000000E-03 0.  1.
         12    1    3    3    0    0 -0.24130673044E+02  0.23092892637E+02  0.24694819095E+02  0.41537996606E+02  0.00000000000E+00 0. -1.
</event>
<event>
 7    1  0.2349719E-015  0.9000771E+02  0.7816164E-02  0.1186339E+00
        -11   -1    0    0    0    0  0.00000000000E+00  0.00000000000E+00  0.45593999997E+02  0.45594000000E+02  0.51100000000E-03 0. -1.
         11   -1    0    0    0    0 -0.00000000000E+00 -0.00000000000E+00 -0.45593999997E+02  0.45594000000E+02  0.51100000000E-03 0.  1.
    9900012    2    1    2    0    0 -0.84601557449E+00  0.36492545577E+00  0.73768768861E+00  0.90007705093E+02  0.89999966001E+02 0.  0.
        -12    1    1    2    0    0  0.84601557449E+00 -0.36492545577E+00 -0.73768768861E+00  0.11802949066E+01  0.00000000000E+00 0.  1.
         11    1    3    3    0    0 -0.88341835790E+01 -0.29645592546E+02  0.25200277400E+02  0.39899347591E+02  0.51100000000E-03 0. -1.
        -11    1    3    3    0    0  0.16302525168E+01 -0.64355001548E+01 -0.49542451083E+01  0.82835940488E+01  0.51100000000E-03 0.  1.
        -12    1    3    3    0    0  0.63579154877E+01  0.36446018156E+02 -0.19508344603E+02  0.41824763454E+02  0.00000000000E+00 0.  1.
</event>
<event>
 7    1  0.2349719E-015  0.9000769E+02  0.7816164E-02  0.1186339E+00
        -11   -1    0    0    0    0  0.00000000000E+00  0.00000000000E+00  0.45593999997E+02  0.45594000000E+02  0.51100000000E-03 0. -1.
         11   -1    0    0    0    0 -0.00000000000E+00 -0.00000000000E+00 -0.45593999997E+02  0.45594000000E+02  0.51100000000E-03 0.  1.
    9900012    2    1    2    0    0 -0.40103829729E+00  0.11086913932E+01  0.55663096057E-01  0.90007692116E+02  0.89999952852E+02 0.  0.
        -12    1    1    2    0    0  0.40103829729E+00 -0.11086913932E+01 -0.55663096057E-01  0.11803078842E+01  0.00000000000E+00 0.  1.
         11    1    3    3    0    0  0.63638538845E+01 -0.10134355197E+02  0.30347081696E+02  0.32621299166E+02  0.51100000000E-03 0. -1.
        -11    1    3    3    0    0  0.73551972216E+01 -0.14988454748E+02 -0.29569993967E+01  0.16955723151E+02  0.51100000000E-03 0.  1.
        -12    1    3    3    0    0 -0.14120089403E+02  0.26231501338E+02 -0.27334419203E+02  0.40430669799E+02  0.00000000000E+00 0.  1.
</event>
<event>
 7    1  0.2349719E-015  0.9000788E+02  0.7816164E-02  0.1186339E+00
        -11   -1    0    0    0    0  0.00000000000E+00  0.00000000000E+00  0.45593999997E+02  0.45594000000E+02  0.51100000000E-03 0.  1.
         11   -1    0    0    0    0 -0.00000000000E+00 -0.00000000000E+00 -0.45593999997E+02  0.45594000000E+02  0.51100000000E-03 0. -1.
    9900012    2    1    2    0    0  0.80113852891E+00 -0.80198242811E+00  0.32816594979E+00  0.90007876427E+02  0.90000139595E+02 0.  0.
        -12    1    1    2    0    0 -0.80113852891E+00  0.80198242811E+00 -0.32816594979E+00  0.11801235732E+01  0.00000000000E+00 0.  1.
         11    1    3    3    0    0  0.23940541998E+02  0.27583982085E+02 -0.11255925030E+02  0.38219386015E+02  0.51100000000E-03 0. -1.
        -11    1    3    3    0    0  0.88192120163E+01 -0.22370263195E+01  0.94916785788E+00  0.91478799307E+01  0.51100000000E-03 0.  1.
        -12    1    3    3    0    0 -0.31958615486E+02 -0.26148938193E+02  0.10634923122E+02  0.42640610481E+02  0.00000000000E+00 0.  1.
</event>
<event>
 7    1  0.2349719E-015  0.9000776E+02  0.7816164E-02  0.1186339E+00
        -11   -1    0    0    0    0  0.00000000000E+00  0.00000000000E+00  0.45593999997E+02  0.45594000000E+02  0.51100000000E-03 0.  1.
         11   -1    0    0    0    0 -0.00000000000E+00 -0.00000000000E+00 -0.45593999997E+02  0.45594000000E+02  0.51100000000E-03 0. -1.
    9900012    2    1    2    0    0  0.10510958752E+01  0.15872371541E+00 -0.51281044488E+00  0.90007758368E+02  0.90000019979E+02 0.  0.
        -12    1    1    2    0    0 -0.10510958752E+01 -0.15872371541E+00  0.51281044488E+00  0.11802416316E+01  0.00000000000E+00 0.  1.
         11    1    3    3    0    0  0.10376617854E+02  0.26496055369E+01 -0.46035679943E+01  0.11657077084E+02  0.51100000000E-03 0. -1.
        -11    1    3    3    0    0 -0.93001437152E+01 -0.39788671671E+02  0.31584488454E+00  0.40862339932E+02  0.51100000000E-03 0.  1.
         12    1    3    3    0    0 -0.25378263831E-01  0.37297789850E+02  0.37749126648E+01  0.37488341353E+02  0.00000000000E+00 0. -1.
</event>
<event>
 7    1  0.2652361E-015  0.9000823E+02  0.7816164E-02  0.1186338E+00
        -11   -1    0    0    0    0  0.00000000000E+00  0.00000000000E+00  0.45593999997E+02  0.45594000000E+02  0.51100000000E-03 0. -1.
         11   -1    0    0    0    0 -0.00000000000E+00 -0.00000000000E+00 -0.45593999997E+02  0.45594000000E+02  0.51100000000E-03 0.  1.
    9900012    2    1    2    0    0 -0.53527994098E-01 -0.10339893991E+01  0.56555543753E+00  0.90008232109E+02  0.90000499971E+02 0.  0.
        -12    1    1    2    0    0  0.53527994098E-01  0.10339893991E+01 -0.56555543753E+00  0.11797678910E+01  0.00000000000E+00 0.  1.
         11    1    3    3    0    0  0.69903003550E+01 -0.41083786790E+02  0.13968096390E+02  0.43952810526E+02  0.51100000000E-03 0. -1.
        -11    1    3    3    0    0 -0.63785316832E+01  0.69251236963E+01  0.18281864639E+01  0.95908951955E+01  0.51100000000E-03 0.  1.
        -12    1    3    3    0    0 -0.66529666595E+00  0.33124673695E+02 -0.15230727417E+02  0.36464526388E+02  0.00000000000E+00 0.  1.
</event>
<event>
 7    1  0.2349719E-015  0.9000778E+02  0.7816164E-02  0.1186339E+00
        -11   -1    0    0    0    0  0.00000000000E+00  0.00000000000E+00  0.45593999997E+02  0.45594000000E+02  0.51100000000E-03 0.  1.
         11   -1    0    0    0    0 -0.00000000000E+00 -0.00000000000E+00 -0.45593999997E+02  0.45594000000E+02  0.51100000000E-03 0. -1.
    9900012    2    1    2    0    0 -0.78051274040E+00  0.44082206972E+00 -0.76772660627E+00  0.90007776133E+02  0.90000037978E+02 0.  0.
        -12    1    1    2    0    0  0.78051274040E+00 -0.44082206972E+00  0.76772660627E+00  0.11802238673E+01  0.00000000000E+00 0.  1.
         11    1    3    3    0    0  0.19567849758E+01 -0.50799747325E+01  0.58013601121E+01  0.79555596998E+01  0.51100000000E-03 0. -1.
        -11    1    3    3    0    0  0.19954602391E+02 -0.20036153611E+02  0.23316890143E+02  0.36651206996E+02  0.51100000000E-03 0.  1.
         12    1    3    3    0    0 -0.22691900107E+02  0.25556950414E+02 -0.29885976861E+02  0.45401009436E+02  0.00000000000E+00 0. -1.
</event>
<event>
 7    1  0.2349719E-015  0.9000785E+02  0.7816164E-02  0.1186339E+00
        -11   -1    0    0    0    0  0.00000000000E+00  0.00000000000E+00  0.45593999997E+02  0.45594000000E+02  0.51100000000E-03 0.  1.
         11   -1    0    0    0    0 -0.00000000000E+00 -0.00000000000E+00 -0.45593999997E+02  0.45594000000E+02  0.51100000000E-03 0. -1.
    9900012    2    1    2    0    0  0.11445108438E+01 -0.28658810622E+00 -0.26850606648E-01  0.90007847989E+02  0.90000110782E+02 0.  0.
        -12    1    1    2    0    0 -0.11445108438E+01  0.28658810622E+00  0.26850606648E-01  0.11801520111E+01  0.00000000000E+00 0.  1.
         11    1    3    3    0    0  0.26713993481E+02  0.30961374738E+02 -0.51876396069E+01  0.41220817293E+02  0.51100000000E-03 0. -1.
        -11    1    3    3    0    0 -0.68132638451E+01  0.35347454822E+01  0.51970148555E+01  0.92695174371E+01  0.51100000000E-03 0.  1.
        -12    1    3    3    0    0 -0.18756218792E+02 -0.34782708326E+02 -0.36225855287E-01  0.39517513259E+02  0.00000000000E+00 0.  1.
</event>
<event>
 7    1  0.2349719E-015  0.9000769E+02  0.7816164E-02  0.1186339E+00
        -11   -1    0    0    0    0  0.00000000000E+00  0.00000000000E+00  0.45593999997E+02  0.45594000000E+02  0.51100000000E-03 0. -1.
         11   -1    0    0    0    0 -0.00000000000E+00 -0.00000000000E+00 -0.45593999997E+02  0.45594000000E+02  0.51100000000E-03 0.  1.
    9900012    2    1    2    0    0  0.10865627859E+01  0.45827625395E+00  0.49978381720E-01  0.90007689172E+02  0.89999949869E+02 0.  0.
        -12    1    1    2    0    0 -0.10865627859E+01 -0.45827625395E+00 -0.49978381720E-01  0.11803108282E+01  0.00000000000E+00 0.  1.
         11    1    3    3    0    0  0.34773560750E+02 -0.75752108265E+01 -0.16247567462E+01  0.35626172698E+02  0.51100000000E-03 0. -1.
        -11    1    3    3    0    0  0.49632820880E+01  0.14356648888E+02  0.63347979145E+00  0.15203579621E+02  0.51100000000E-03 0.  1.
        -12    1    3    3    0    0 -0.38650280053E+02 -0.63231618080E+01  0.10412553364E+01  0.39177936853E+02  0.00000000000E+00 0.  1.
</event>
<event>
 7    1  0.2349719E-015  0.9000783E+02  0.7816164E-02  0.1186339E+00
        -11   -1    0    0    0    0  0.00000000000E+00  0.00000000000E+00  0.45593999997E+02  0.45594000000E+02  0.51100000000E-03 0.  1.
         11   -1    0    0    0    0 -0.00000000000E+00 -0.00000000000E+00 -0.45593999997E+02  0.45594000000E+02  0.51100000000E-03 0. -1.
    9900012    2    1    2    0    0 -0.17675120614E+00 -0.40214608690E+00 -0.10953712426E+01  0.90007830257E+02  0.90000092816E+02 0.  0.
        -12    1    1    2    0    0  0.17675120614E+00  0.40214608690E+00  0.10953712426E+01  0.11801697434E+01  0.00000000000E+00 0.  1.
         11    1    3    3    0    0  0.16431212392E+02  0.37501755045E+02 -0.88400700639E+01  0.41886909783E+02  0.51100000000E-03 0. -1.
        -11    1    3    3    0    0  0.28623115683E+01 -0.51025748413E+01 -0.52123228976E+01  0.78356497992E+01  0.51100000000E-03 0.  1.
        -12    1    3    3    0    0 -0.19470275166E+02 -0.32801326291E+02  0.12957021719E+02  0.40285270675E+02  0.00000000000E+00 0.  1.
</event>
<event>
 7    1  0.2349719E-015  0.9000818E+02  0.7816164E-02  0.1186338E+00
        -11   -1    0    0    0    0  0.00000000000E+00  0.00000000000E+00  0.45593999997E+02  0.45594000000E+02  0.51100000000E-03 0. -1.
         11   -1    0    0    0    0 -0.00000000000E+00 -0.00000000000E+00 -0.45593999997E+02  0.45594000000E+02  0.51100000000E-03 0.  1.
    9900012    2    1    2    0    0  0.19038242621E+00 -0.15564538430E+00  0.11539107526E+01  0.90008177565E+02  0.90000444707E+02 0.  0.
        -12    1    1    2    0    0 -0.19038242621E+00  0.15564538430E+00 -0.11539107526E+01  0.11798224353E+01  0.00000000000E+00 0.  1.
         11    1    3    3    0    0 -0.96692440023E+01  0.54275609281E+01 -0.10835427437E+01  0.11141219069E+02  0.51100000000E-03 0. -1.
        -11    1    3    3    0    0 -0.14973587142E+02 -0.36076213005E+01 -0.32590483201E+02  0.36046675837E+02  0.51100000000E-03 0.  1.
         12    1    3    3    0    0  0.24833213571E+02 -0.19755850119E+01  0.34827936697E+02  0.42820282659E+02  0.00000000000E+00 0. -1.
</event>
<event>
 7    1  0.2349719E-015  0.9000776E+02  0.7816164E-02  0.1186339E+00
        -11   -1    0    0    0    0  0.00000000000E+00  0.00000000000E+00  0.45593999997E+02  0.45594000000E+02  0.51100000000E-03 0. -1.
         11   -1    0    0    0    0 -0.00000000000E+00 -0.00000000000E+00 -0.45593999997E+02  0.45594000000E+02  0.51100000000E-03 0.  1.
    9900012    2    1    2    0    0 -0.73781662269E+00 -0.91288962122E+00  0.12340636840E+00  0.90007758516E+02  0.90000020128E+02 0.  0.
        -12    1    1    2    0    0  0.73781662269E+00  0.91288962122E+00 -0.12340636840E+00  0.11802414842E+01  0.00000000000E+00 0.  1.
         11    1    3    3    0    0  0.86454148584E+01  0.42538940866E+01 -0.12630262017E+01  0.97177182724E+01  0.51100000000E-03 0. -1.
        -11    1    3    3    0    0 -0.21058583959E+02  0.10669157884E+02 -0.33058477524E+02  0.40622134665E+02  0.51100000000E-03 0.  1.
         12    1    3    3    0    0  0.11675352478E+02 -0.15835941592E+02  0.34444910094E+02  0.39667905578E+02  0.00000000000E+00 0. -1.
</event>
<event>
 7    1  0.2349719E-015  0.9000812E+02  0.7816164E-02  0.1186338E+00
        -11   -1    0    0    0    0  0.00000000000E+00  0.00000000000E+00  0.45593999997E+02  0.45594000000E+02  0.51100000000E-03 0. -1.
         11   -1    0    0    0    0 -0.00000000000E+00 -0.00000000000E+00 -0.45593999997E+02  0.45594000000E+02  0.51100000000E-03 0.  1.
    9900012    2    1    2    0    0 -0.70386401439E+00 -0.24422331701E+00 -0.91489829936E+00  0.90008123533E+02  0.90000389963E+02 0.  0.
        -12    1    1    2    0    0  0.70386401439E+00  0.24422331701E+00  0.91489829936E+00  0.11798764670E+01  0.00000000000E+00 0.  1.
         11    1    3    3    0    0  0.13495525958E+02  0.14420767525E+02  0.32890081725E+02  0.38364635187E+02  0.51100000000E-03 0. -1.
        -11    1    3    3    0    0  0.28616467408E+01 -0.86590680610E+01  0.38272605523E+01  0.98902176594E+01  0.51100000000E-03 0.  1.
        -12    1    3    3    0    0 -0.17061036714E+02 -0.60059227815E+01 -0.37632240577E+02  0.41753270686E+02  0.00000000000E+00 0.  1.
</event>
<event>
 7    1  0.2349719E-015  0.9000767E+02  0.7816164E-02  0.1186339E+00
        -11   -1    0    0    0    0  0.00000000000E+00  0.00000000000E+00  0.45593999997E+02  0.45594000000E+02  0.51100000000E-03 0. -1.
         11   -1    0    0    0    0 -0.00000000000E+00 -0.00000000000E+00 -0.45593999997E+02  0.45594000000E+02  0.51100000000E-03 0.  1.
    9900012    2    1    2    0    0 -0.12202936241E+00 -0.82231266839E+00  0.83790743624E+00  0.90007670317E+02  0.89999930765E+02 0.  0.
        -12    1    1    2    0    0  0.12202936241E+00  0.82231266839E+00 -0.83790743624E+00  0.11803296834E+01  0.00000000000E+00 0.  1.
         11    1    3    3    0    0  0.13465404484E+02 -0.42969827742E+01 -0.44279438580E+01  0.14811747566E+02  0.51100000000E-03 0. -1.
        -11    1    3    3    0    0  0.97405028421E+01 -0.14853641580E+01 -0.30587227030E+02  0.32135061225E+02  0.51100000000E-03 0.  1.
         12    1    3    3    0    0 -0.23327936689E+02  0.49600342638E+01  0.35853078324E+02  0.43060861526E+02  0.00000000000E+00 0. -1.
</event>
<event>
 7    1  0.2349719E-015  0.9000782E+02  0.7816164E-02  0.1186339E+00
        -11   -1    0    0    0    0  0.00000000000E+00  0.00000000000E+00  0.45593999997E+02  0.45594000000E+02  0.51100000000E-03 0. -1.
         11   -1    0    0    0    0 -0.00000000000E+00 -0.00000000000E+00 -0.45593999997E+02  0.45594000000E+02  0.51100000000E-03 0.  1.
    9900012    2    1    2    0    0  0.39302886556E+00 -0.89597293888E+00  0.65998672194E+00  0.90007821340E+02  0.90000083782E+02 0.  0.
        -12    1    1    2    0    0 -0.39302886556E+00  0.89597293888E+00 -0.65998672194E+00  0.11801786600E+01  0.00000000000E+00 0.  1.
         11    1    3    3    0    0 -0.32643280027E+01  0.20167428589E+02  0.31196250268E+02  0.37290575810E+02  0.51100000000E-03 0. -1.
        -11    1    3    3    0    0  0.47732259476E+01  0.90381133531E+01 -0.58363420995E+00  0.10237763822E+02  0.51100000000E-03 0.  1.
        -12    1    3    3    0    0 -0.11158690793E+01 -0.30101514881E+02 -0.29952629336E+02  0.42479481707E+02  0.00000000000E+00 0.  1.
</event>
<event>
 7    1  0.2349719E-015  0.9000705E+02  0.7816164E-02  0.1186340E+00
        -11   -1    0    0    0    0  0.00000000000E+00  0.00000000000E+00  0.45593999997E+02  0.45594000000E+02  0.51100000000E-03 0.  1.
         11   -1    0    0    0    0 -0.00000000000E+00 -0.00000000000E+00 -0.45593999997E+02  0.45594000000E+02  0.51100000000E-03 0. -1.
    9900012    2    1    2    0    0  0.86447181504E+00  0.50002744128E-01 -0.80301621642E+00  0.90007048334E+02  0.89999300569E+02 0.  0.
        -12    1    1    2    0    0 -0.86447181504E+00 -0.50002744128E-01  0.80301621642E+00  0.11809516659E+01  0.00000000000E+00 0.  1.
         11    1    3    3    0    0  0.60213527969E+01 -0.65318376528E+01 -0.36244997862E+02  0.37317843760E+02  0.51100000000E-03 0. -1.
        -11    1    3    3    0    0  0.22506555049E+01 -0.57770876706E+01 -0.61131222216E+01  0.87069199901E+01  0.51100000000E-03 0.  1.
        -12    1    3    3    0    0 -0.74075364868E+01  0.12358928068E+02  0.41555103867E+02  0.43982284584E+02  0.00000000000E+00 0.  1.
</event>
<event>
 7    1  0.2349719E-015  0.9000767E+02  0.7816164E-02  0.1186339E+00
        -11   -1    0    0    0    0  0.00000000000E+00  0.00000000000E+00  0.45593999997E+02  0.45594000000E+02  0.51100000000E-03 0. -1.
         11   -1    0    0    0    0 -0.00000000000E+00 -0.00000000000E+00 -0.45593999997E+02  0.45594000000E+02  0.51100000000E-03 0.  1.
    9900012    2    1    2    0    0  0.49898409312E+00 -0.74981978574E+00  0.76286140309E+00  0.90007672776E+02  0.89999933256E+02 0.  0.
        -12    1    1    2    0    0 -0.49898409312E+00  0.74981978574E+00 -0.76286140309E+00  0.11803272244E+01  0.00000000000E+00 0.  1.
         11    1    3    3    0    0  0.18466820706E+01 -0.35941117034E+01 -0.92035105271E+01  0.10051491426E+02  0.51100000000E-03 0. -1.
        -11    1    3    3    0    0  0.20065665792E+02  0.29810740645E+02 -0.13389498941E+02  0.38348270935E+02  0.51100000000E-03 0.  1.
         12    1    3    3    0    0 -0.21413363770E+02 -0.26966448728E+02  0.23355870872E+02  0.41607910415E+02  0.00000000000E+00 0. -1.
</event>
<event>
 7    1  0.2349719E-015  0.9000776E+02  0.7816164E-02  0.1186339E+00
        -11   -1    0    0    0    0  0.00000000000E+00  0.00000000000E+00  0.45593999997E+02  0.45594000000E+02  0.51100000000E-03 0. -1.
         11   -1    0    0    0    0 -0.00000000000E+00 -0.00000000000E+00 -0.45593999997E+02  0.45594000000E+02  0.51100000000E-03 0.  1.
    9900012    2    1    2    0    0  0.10926252075E+00  0.11742876002E+01  0.45555438377E-01  0.90007760633E+02  0.90000022273E+02 0.  0.
        -12    1    1    2    0    0 -0.10926252075E+00 -0.11742876002E+01 -0.45555438377E-01  0.11802393674E+01  0.00000000000E+00 0.  1.
         11    1    3    3    0    0  0.16761459756E+02  0.22504635999E+02 -0.14475218821E+02  0.31574311311E+02  0.51100000000E-03 0. -1.
        -11    1    3    3    0    0  0.10879068592E+02  0.52815296500E+01 -0.75314099897E+01  0.14246782990E+02  0.51100000000E-03 0.  1.
        -12    1    3    3    0    0 -0.27531265827E+02 -0.26611878049E+02  0.22052184249E+02  0.44186666331E+02  0.00000000000E+00 0.  1.
</event>
<event>
 7    1  0.2349719E-015  0.9000773E+02  0.7816164E-02  0.1186339E+00
        -11   -1    0    0    0    0  0.00000000000E+00  0.00000000000E+00  0.45593999997E+02  0.45594000000E+02  0.51100000000E-03 0.  1.
         11   -1    0    0    0    0 -0.00000000000E+00 -0.00000000000E+00 -0.45593999997E+02  0.45594000000E+02  0.51100000000E-03 0. -1.
    9900012    2    1    2    0    0  0.32308011094E+00  0.10609443512E+01 -0.40379433747E+00  0.90007731581E+02  0.89999992838E+02 0.  0.
        -12    1    1    2    0    0 -0.32308011094E+00 -0.10609443512E+01  0.40379433747E+00  0.11802684192E+01  0.00000000000E+00 0.  1.
         11    1    3    3    0    0  0.99973749795E+01  0.10403705478E+01 -0.34256114284E+02  0.35700297526E+02  0.51100000000E-03 0. -1.
        -11    1    3    3    0    0  0.92550039161E+01 -0.54702326226E+01 -0.41292408196E+01  0.11516473959E+02  0.51100000000E-03 0.  1.
        -12    1    3    3    0    0 -0.18929298785E+02  0.54908064260E+01  0.37981560766E+02  0.42790960096E+02  0.00000000000E+00 0.  1.
</event>
<event>
 7    1  0.2349719E-015  0.9000778E+02  0.7816164E-02  0.1186339E+00
        -11   -1    0    0    0    0  0.00000000000E+00  0.00000000000E+00  0.45593999997E+02  0.45594000000E+02  0.51100000000E-03 0. -1.
         11   -1    0    0    0    0 -0.00000000000E+00 -0.00000000000E+00 -0.45593999997E+02  0.45594000000E+02  0.51100000000E-03 0.  1.
    9900012    2    1    2    0    0 -0.33387747063E+00  0.61958573390E+00  0.94740063699E+00  0.90007776032E+02  0.90000037876E+02 0.  0.
        -12    1    1    2    0    0  0.33387747063E+00 -0.61958573390E+00 -0.94740063699E+00  0.11802239677E+01  0.00000000000E+00 0.  1.
         11    1    3    3    0    0 -0.32623741081E+01  0.41659486009E+01  0.76844575602E+01  0.93300107622E+01  0.51100000000E-03 0. -1.
        -11    1    3    3    0    0 -0.28716404442E+02  0.18201960896E+02 -0.20717522784E+02  0.39814055496E+02  0.51100000000E-03 0.  1.
         12    1    3    3    0    0  0.31644901079E+02 -0.21748323763E+02  0.13980465861E+02  0.40863709774E+02  0.00000000000E+00 0. -1.
</event>
<event>
 7    1  0.2555440E-015  0.9000804E+02  0.7816164E-02  0.1186338E+00
        -11   -1    0    0    0    0  0.00000000000E+00  0.00000000000E+00  0.45593999997E+02  0.45594000000E+02  0.51100000000E-03 0.  1.
         11   -1    0    0    0    0 -0.00000000000E+00 -0.00000000000E+00 -0.45593999997E+02  0.45594000000E+02  0.51100000000E-03 0. -1.
    9900012    2    1    2    0    0 -0.44930029006E-01  0.99865710962E+00 -0.62687325314E+00  0.90008040337E+02  0.90000305669E+02 0.  0.
        -12    1    1    2    0    0  0.44930029006E-01 -0.99865710962E+00  0.62687325314E+00  0.11799596627E+01  0.00000000000E+00 0.  1.
         11    1    3    3    0    0 -0.26995482583E+01  0.37869151352E+02 -0.17154488381E+02  0.41660972825E+02  0.51100000000E-03 0. -1.
        -11    1    3    3    0    0  0.89688976453E+01 -0.25303046966E+01 -0.82777175245E+00  0.93556813308E+01  0.51100000000E-03 0.  1.
        -12    1    3    3    0    0 -0.63142794159E+01 -0.34340189545E+02  0.17355386880E+02  0.38991386181E+02  0.00000000000E+00 0.  1.
</event>
<event>
 7    1  0.2349719E-015  0.9000776E+02  0.7816164E-02  0.1186339E+00
        -11   -1    0    0    0    0  0.00000000000E+00  0.00000000000E+00  0.45593999997E+02  0.45594000000E+02  0.51100000000E-03 0. -1.
         11   -1    0    0    0    0 -0.00000000000E+00 -0.00000000000E+00 -0.45593999997E+02  0.45594000000E+02  0.51100000000E-03 0.  1.
    9900012    2    1    2    0    0 -0.47341726787E+00 -0.88470014009E+00  0.62140050684E+00  0.90007764076E+02  0.90000025761E+02 0.  0.
        -12    1    1    2    0    0  0.47341726787E+00  0.88470014009E+00 -0.62140050684E+00  0.11802359244E+01  0.00000000000E+00 0.  1.
         11    1    3    3    0    0  0.37293117738E+02  0.28349100665E+01  0.15245514402E+02  0.40388600562E+02  0.51100000000E-03 0. -1.
        -11    1    3    3    0    0 -0.87686063357E+00  0.79721253574E+01  0.58059066040E+00  0.80411910225E+01  0.51100000000E-03 0.  1.
        -12    1    3    3    0    0 -0.36889674373E+02 -0.11691735564E+02 -0.15204704556E+02  0.41577972491E+02  0.00000000000E+00 0.  1.
</event>
<event>
 7    1  0.2349719E-015  0.9000772E+02  0.7816164E-02  0.1186339E+00
        -11   -1    0    0    0    0  0.00000000000E+00  0.00000000000E+00  0.45593999997E+02  0.45594000000E+02  0.51100000000E-03 0. -1.
         11   -1    0    0    0    0 -0.00000000000E+00 -0.00000000000E+00 -0.45593999997E+02  0.45594000000E+02  0.51100000000E-03 0.  1.
    9900012    2    1    2    0    0  0.72197693694E+00 -0.79276528724E+00  0.49327645426E+00  0.90007724965E+02  0.89999986134E+02 0.  0.
        -12    1    1    2    0    0 -0.72197693694E+00  0.79276528724E+00 -0.49327645426E+00  0.11802750351E+01  0.00000000000E+00 0.  1.
         11    1    3    3    0    0 -0.37765704561E+01  0.44950966996E+01 -0.95396994217E+01  0.11201528649E+02  0.51100000000E-03 0. -1.
        -11    1    3    3    0    0  0.11100339596E+02  0.35318047108E+02  0.43309264549E+01  0.37273836868E+02  0.51100000000E-03 0.  1.
         12    1    3    3    0    0 -0.66017922034E+01 -0.40605909095E+02  0.57020494210E+01  0.41532359448E+02  0.00000000000E+00 0. -1.
</event>
<event>
 7    1  0.2349719E-015  0.9000758E+02  0.7816164E-02  0.1186339E+00
        -11   -1    0    0    0    0  0.00000000000E+00  0.00000000000E+00  0.45593999997E+02  0.45594000000E+02  0.51100000000E-03 0.  1.
         11   -1    0    0    0    0 -0.00000000000E+00 -0.00000000000E+00 -0.45593999997E+02  0.45594000000E+02  0.51100000000E-03 0. -1.
    9900012    2    1    2    0    0 -0.42713387090E+00 -0.97639168045E+00 -0.50755947334E+00  0.90007576061E+02  0.89999835265E+02 0.  0.
        -12    1    1    2    0    0  0.42713387090E+00  0.97639168045E+00  0.50755947334E+00  0.11804239392E+01  0.00000000000E+00 0.  1.
         11    1    3    3    0    0  0.65247884282E+01 -0.30130534743E+02  0.22710702979E+02  0.38290965226E+02  0.51100000000E-03 0. -1.
        -11    1    3    3    0    0 -0.23213493840E+01 -0.71109559402E+01 -0.10735956464E+02  0.13084919518E+02  0.51100000000E-03 0.  1.
        -12    1    3    3    0    0 -0.46305729151E+01  0.36265099002E+02 -0.12482305988E+02  0.38631691316E+02  0.00000000000E+00 0.  1.
</event>
<event>
 7    1  0.2349719E-015  0.9000772E+02  0.7816164E-02  0.1186339E+00
        -11   -1    0    0    0    0  0.00000000000E+00  0.00000000000E+00  0.45593999997E+02  0.45594000000E+02  0.51100000000E-03 0.  1.
         11   -1    0    0    0    0 -0.00000000000E+00 -0.00000000000E+00 -0.45593999997E+02  0.45594000000E+02  0.51100000000E-03 0. -1.
    9900012    2    1    2    0    0  0.11510811421E+01  0.15413801429E+00 -0.21049263043E+00  0.90007723138E+02  0.89999984284E+02 0.  0.
        -12    1    1    2    0    0 -0.11510811421E+01 -0.15413801429E+00  0.21049263043E+00  0.11802768619E+01  0.00000000000E+00 0.  1.
         11    1    3    3    0    0  0.69856678782E+00 -0.11841836128E+02 -0.17515769298E+02  0.21154650856E+02  0.51100000000E-03 0. -1.
        -11    1    3    3    0    0  0.14563877895E+02 -0.23946946442E+02  0.70741046706E+01  0.28906845908E+02  0.51100000000E-03 0.  1.
         12    1    3    3    0    0 -0.14111363541E+02  0.35942920584E+02  0.10231171997E+02  0.39946226374E+02  0.00000000000E+00 0. -1.
</event>
<event>
 7    1  0.2349719E-015  0.9000774E+02  0.7816164E-02  0.1186339E+00
        -11   -1    0    0    0    0  0.00000000000E+00  0.00000000000E+00  0.45593999997E+02  0.45594000000E+02  0.51100000000E-03 0. -1.
         11   -1    0    0    0    0 -0.00000000000E+00 -0.00000000000E+00 -0.45593999997E+02  0.45594000000E+02  0.51100000000E-03 0.  1.
    9900012    2    1    2    0    0  0.18016479382E+00 -0.14476008316E-01  0.11663405699E+01  0.90007737642E+02  0.89999998979E+02 0.  0.
        -12    1    1    2    0    0 -0.18016479382E+00  0.14476008316E-01 -0.11663405699E+01  0.11802623576E+01  0.00000000000E+00 0.  1.
         11    1    3    3    0    0  0.35376099289E+02  0.13875238201E+02  0.13647118415E+01  0.38024374745E+02  0.51100000000E-03 0. -1.
        -11    1    3    3    0    0  0.42232429230E+01 -0.19557210508E+01 -0.87574613369E+01  0.99173461644E+01  0.51100000000E-03 0.  1.
        -12    1    3    3    0    0 -0.39419177418E+02 -0.11933993159E+02  0.85590900653E+01  0.42066016733E+02  0.00000000000E+00 0.  1.
</event>
<event>
 7    1  0.2349719E-015  0.9000768E+02  0.7816164E-02  0.1186339E+00
        -11   -1    0    0    0    0  0.00000000000E+00  0.00000000000E+00  0.45593999997E+02  0.45594000000E+02  0.51100000000E-03 0.  1.
         11   -1    0    0    0    0 -0.00000000000E+00 -0.00000000000E+00 -0.45593999997E+02  0.45594000000E+02  0.51100000000E-03 0. -1.
    9900012    2    1    2    0    0 -0.53994564984E+00  0.85386718316E+00 -0.61034452293E+00  0.90007681862E+02  0.89999942462E+02 0.  0.
        -12    1    1    2    0    0  0.53994564984E+00 -0.85386718316E+00  0.61034452293E+00  0.11803181384E+01  0.00000000000E+00 0.  1.
         11    1    3    3    0    0 -0.87152114980E+01 -0.29188910819E+02 -0.27143008059E+02  0.40800616577E+02  0.51100000000E-03 0. -1.
        -11    1    3    3    0    0 -0.84242472611E+01  0.19177045732E+01  0.39402379443E+01  0.94958416196E+01  0.51100000000E-03 0.  1.
        -12    1    3    3    0    0  0.16599513109E+02  0.28125073429E+02  0.22592425592E+02  0.39711223665E+02  0.00000000000E+00 0.  1.
</event>
<event>
 7    1  0.2349719E-015  0.9000792E+02  0.7816164E-02  0.1186339E+00
        -11   -1    0    0    0    0  0.00000000000E+00  0.00000000000E+00  0.45593999997E+02  0.45594000000E+02  0.51100000000E-03 0. -1.
         11   -1    0    0    0    0 -0.00000000000E+00 -0.00000000000E+00 -0.45593999997E+02  0.45594000000E+02  0.51100000000E-03 0.  1.
    9900012    2    1    2    0    0 -0.75045512033E+00  0.88126410018E+00  0.22974829012E+00  0.90007917978E+02  0.90000181695E+02 0.  0.
        -12    1    1    2    0    0  0.75045512033E+00 -0.88126410018E+00 -0.22974829012E+00  0.11800820220E+01  0.00000000000E+00 0.  1.
         11    1    3    3    0    0  0.94746180144E+01  0.54797900917E+01  0.20593537300E+01  0.11137208987E+02  0.51100000000E-03 0. -1.
        -11    1    3    3    0    0  0.20467708645E+02  0.19795225198E+02  0.19237007524E+02  0.34363359797E+02  0.51100000000E-03 0.  1.
         12    1    3    3    0    0 -0.30692781780E+02 -0.24393751189E+02 -0.21066612964E+02  0.44507349194E+02  0.00000000000E+00 0. -1.
</event>
<event>
 7    1  0.2349719E-015  0.9000778E+02  0.7816164E-02  0.1186339E+00
        -11   -1    0    0    0    0  0.00000000000E+00  0.00000000000E+00  0.45593999997E+02  0.45594000000E+02  0.51100000000E-03 0.  1.
         11   -1    0    0    0    0 -0.00000000000E+00 -0.00000000000E+00 -0.45593999997E+02  0.45594000000E+02  0.51100000000E-03 0. -1.
    9900012    2    1    2    0    0 -0.66470054644E+00 -0.96804745760E+00  0.11817581339E+00  0.90007784672E+02  0.90000046630E+02 0.  0.
        -12    1    1    2    0    0  0.66470054644E+00  0.96804745760E+00 -0.11817581339E+00  0.11802153276E+01  0.00000000000E+00 0.  1.
         11    1    3    3    0    0  0.22065325050E+02  0.14814469905E+02 -0.19521506720E+02  0.32976299262E+02  0.51100000000E-03 0. -1.
        -11    1    3    3    0    0  0.10980164007E+02  0.23557172351E+00 -0.52480908820E+01  0.12172179502E+02  0.51100000000E-03 0.  1.
        -12    1    3    3    0    0 -0.33710189603E+02 -0.16018089087E+02  0.24887773416E+02  0.44859305909E+02  0.00000000000E+00 0.  1.
</event>
<event>
 7    1  0.2349719E-015  0.9000752E+02  0.7816164E-02  0.1186339E+00
        -11   -1    0    0    0    0  0.00000000000E+00  0.00000000000E+00  0.45593999997E+02  0.45594000000E+02  0.51100000000E-03 0.  1.
         11   -1    0    0    0    0 -0.00000000000E+00 -0.00000000000E+00 -0.45593999997E+02  0.45594000000E+02  0.51100000000E-03 0. -1.
    9900012    2    1    2    0    0 -0.54313891175E+00 -0.10393590804E+01 -0.13514127617E+00  0.90007521140E+02  0.89999779618E+02 0.  0.
        -12    1    1    2    0    0  0.54313891175E+00  0.10393590804E+01  0.13514127617E+00  0.11804788605E+01  0.00000000000E+00 0.  1.
         11    1    3    3    0    0 -0.48772522847E+00  0.89205694929E+01  0.87401658260E+01  0.12498197266E+02  0.51100000000E-03 0. -1.
        -11    1    3    3    0    0 -0.72682181002E+00  0.28445029990E+02  0.15117437400E+02  0.32220877004E+02  0.51100000000E-03 0.  1.
         12    1    3    3    0    0  0.67140812673E+00 -0.38404958564E+02 -0.23992744502E+02  0.45288446870E+02  0.00000000000E+00 0. -1.
</event>
<event>
 7    1  0.2349719E-015  0.9000784E+02  0.7816164E-02  0.1186339E+00
        -11   -1    0    0    0    0  0.00000000000E+00  0.00000000000E+00  0.45593999997E+02  0.45594000000E+02  0.51100000000E-03 0. -1.
         11   -1    0    0    0    0 -0.00000000000E+00 -0.00000000000E+00 -0.45593999997E+02  0.45594000000E+02  0.51100000000E-03 0.  1.
    9900012    2    1    2    0    0  0.95195323482E+00 -0.69222173636E+00  0.85947451065E-01  0.90007842020E+02  0.90000104735E+02 0.  0.
        -12    1    1    2    0    0 -0.95195323482E+00  0.69222173636E+00 -0.85947451065E-01  0.11801579801E+01  0.00000000000E+00 0.  1.
         11    1    3    3    0    0 -0.36995432960E+02 -0.57577964764E+01  0.19992932160E+02  0.42444453310E+02  0.51100000000E-03 0. -1.
        -11    1    3    3    0    0  0.72416802137E+01  0.66809300058E+01  0.16789144222E+01  0.99947742324E+01  0.51100000000E-03 0.  1.
        -12    1    3    3    0    0  0.30705705981E+02 -0.16153552657E+01 -0.21585899131E+02  0.37568614477E+02  0.00000000000E+00 0.  1.
</event>
<event>
 7    1  0.2349719E-015  0.9000769E+02  0.7816164E-02  0.1186339E+00
        -11   -1    0    0    0    0  0.00000000000E+00  0.00000000000E+00  0.45593999997E+02  0.45594000000E+02  0.51100000000E-03 0.  1.
         11   -1    0    0    0    0 -0.00000000000E+00 -0.00000000000E+00 -0.45593999997E+02  0.45594000000E+02  0.51100000000E-03 0. -1.
    9900012    2    1    2    0    0 -0.67917912920E-01 -0.10790683612E+01 -0.47343258543E+00  0.90007686574E+02  0.89999947237E+02 0.  0.
        -12    1    1    2    0    0  0.67917912920E-01  0.10790683612E+01  0.47343258543E+00  0.11803134261E+01  0.00000000000E+00 0.  1.
         11    1    3    3    0    0  0.27782749666E+02  0.87795565904E+01 -0.21532602201E+02  0.36230025542E+02  0.51100000000E-03 0. -1.
        -11    1    3    3    0    0  0.99746720723E+01 -0.50150761805E+00  0.12477489184E+01  0.10064912839E+02  0.51100000000E-03 0.  1.
        -12    1    3    3    0    0 -0.37825339651E+02 -0.93571173335E+01  0.19811420698E+02  0.43712748193E+02  0.00000000000E+00 0.  1.
</event>
<event>
 7    1  0.2349719E-015  0.9000770E+02  0.7816164E-02  0.1186339E+00
        -11   -1    0    0    0    0  0.00000000000E+00  0.00000000000E+00  0.45593999997E+02  0.45594000000E+02  0.51100000000E-03 0. -1.
         11   -1    0    0    0    0 -0.00000000000E+00 -0.00000000000E+00 -0.45593999997E+02  0.45594000000E+02  0.51100000000E-03 0.  1.
    9900012    2    1    2    0    0  0.12495031932E+00 -0.11571455303E+01 -0.19622140186E+00  0.90007702919E+02  0.89999963798E+02 0.  0.
        -12    1    1    2    0    0 -0.12495031932E+00  0.11571455303E+01  0.19622140186E+00  0.11802970809E+01  0.00000000000E+00 0.  1.
         11    1    3    3    0    0  0.29052049773E+02  0.98915738108E+01  0.25386678513E+02  0.39828987869E+02  0.51100000000E-03 0. -1.
        -11    1    3    3    0    0  0.55054631032E+01  0.26448560642E+01 -0.33852076339E+01  0.69831954410E+01  0.51100000000E-03 0.  1.
        -12    1    3    3    0    0 -0.34432562557E+02 -0.13693575405E+02 -0.22197692281E+02  0.43195519609E+02  0.00000000000E+00 0.  1.
</event>
<event>
 7    1  0.2349719E-015  0.9000707E+02  0.7816164E-02  0.1186340E+00
        -11   -1    0    0    0    0  0.00000000000E+00  0.00000000000E+00  0.45593999997E+02  0.45594000000E+02  0.51100000000E-03 0.  1.
         11   -1    0    0    0    0 -0.00000000000E+00 -0.00000000000E+00 -0.45593999997E+02  0.45594000000E+02  0.51100000000E-03 0. -1.
    9900012    2    1    2    0    0 -0.93507251892E+00 -0.70373366470E+00  0.15809165590E+00  0.90007070426E+02  0.89999322953E+02 0.  0.
        -12    1    1    2    0    0  0.93507251892E+00  0.70373366470E+00 -0.15809165590E+00  0.11809295737E+01  0.00000000000E+00 0.  1.
         11    1    3    3    0    0  0.59391027191E+01 -0.32393903498E+00 -0.78719686485E+01  0.98663959109E+01  0.51100000000E-03 0. -1.
        -11    1    3    3    0    0  0.14504390950E+02 -0.48836160107E+00  0.39508012742E+02  0.42089178241E+02  0.51100000000E-03 0.  1.
         12    1    3    3    0    0 -0.21378566188E+02  0.10856697136E+00 -0.31477952438E+02  0.38051496274E+02  0.00000000000E+00 0. -1.
</event>
<event>
 7    1  0.2349719E-015  0.9000771E+02  0.7816164E-02  0.1186339E+00
        -11   -1    0    0    0    0  0.00000000000E+00  0.00000000000E+00  0.45593999997E+02  0.45594000000E+02  0.51100000000E-03 0.  1.
         11   -1    0    0    0    0 -0.00000000000E+00 -0.00000000000E+00 -0.45593999997E+02  0.45594000000E+02  0.51100000000E-03 0. -1.
    9900012    2    1    2    0    0  0.22360510659E+00  0.88751843684E+00 -0.74525650301E+00  0.90007705344E+02  0.89999966255E+02 0.  0.
        -12    1    1    2    0    0 -0.22360510659E+00 -0.88751843684E+00  0.74525650301E+00  0.11802946559E+01  0.00000000000E+00 0.  1.
         11    1    3    3    0    0 -0.99635839079E+01  0.15034415031E+01  0.26810977036E+00  0.10079941654E+02  0.51100000000E-03 0. -1.
        -11    1    3    3    0    0  0.34140717609E+02  0.45914227909E+01  0.26216641574E+02  0.43289514409E+02  0.51100000000E-03 0.  1.
         12    1    3    3    0    0 -0.23953528594E+02 -0.52073458571E+01 -0.27230007847E+02  0.36638249281E+02  0.00000000000E+00 0. -1.
</event>
<event>
 7    1  0.2349719E-015  0.9000765E+02  0.7816164E-02  0.1186339E+00
        -11   -1    0    0    0    0  0.00000000000E+00  0.00000000000E+00  0.45593999997E+02  0.45594000000E+02  0.51100000000E-03 0.  1.
         11   -1    0    0    0    0 -0.00000000000E+00 -0.00000000000E+00 -0.45593999997E+02  0.45594000000E+02  0.51100000000E-03 0. -1.
    9900012    2    1    2    0    0  0.44042544650E+00 -0.96448659340E+00  0.51865906809E+00  0.90007654207E+02  0.89999914442E+02 0.  0.
        -12    1    1    2    0    0 -0.44042544650E+00  0.96448659340E+00 -0.51865906809E+00  0.11803457933E+01  0.00000000000E+00 0.  1.
         11    1    3    3    0    0 -0.36106890894E+01 -0.35681551106E+01 -0.94341916620E+00  0.51632205626E+01  0.51100000000E-03 0. -1.
        -11    1    3    3    0    0 -0.38792165139E+02 -0.69171563685E+01  0.87267679711E+01  0.40358835561E+02  0.51100000000E-03 0.  1.
         12    1    3    3    0    0  0.42843279675E+02  0.95208248857E+01 -0.72646897368E+01  0.44485598083E+02  0.00000000000E+00 0. -1.
</event>
<event>
 7    1  0.2349719E-015  0.9000771E+02  0.7816164E-02  0.1186339E+00
        -11   -1    0    0    0    0  0.00000000000E+00  0.00000000000E+00  0.45593999997E+02  0.45594000000E+02  0.51100000000E-03 0. -1.
         11   -1    0    0    0    0 -0.00000000000E+00 -0.00000000000E+00 -0.45593999997E+02  0.45594000000E+02  0.51100000000E-03 0.  1.
    9900012    2    1    2    0    0  0.67441625707E+00  0.54443564551E+00  0.80115403574E+00  0.90007705440E+02  0.89999966352E+02 0.  0.
        -12    1    1    2    0    0 -0.67441625707E+00 -0.54443564551E+00 -0.80115403574E+00  0.11802945602E+01  0.00000000000E+00 0.  1.
         11    1    3    3    0    0 -0.61066239635E+01 -0.58841865069E+01  0.19077598023E+00  0.84823878015E+01  0.51100000000E-03 0. -1.
        -11    1    3    3    0    0  0.36375202415E+02 -0.11023554599E+02 -0.18434067712E+02  0.42243211992E+02  0.51100000000E-03 0.  1.
         12    1    3    3    0    0 -0.29594162195E+02  0.17452176752E+02  0.19044445767E+02  0.39282105646E+02  0.00000000000E+00 0. -1.
</event>
<event>
 7    1  0.2349719E-015  0.9000765E+02  0.7816164E-02  0.1186339E+00
        -11   -1    0    0    0    0  0.00000000000E+00  0.00000000000E+00  0.45593999997E+02  0.45594000000E+02  0.51100000000E-03 0. -1.
         11   -1    0    0    0    0 -0.00000000000E+00 -0.00000000000E+00 -0.45593999997E+02  0.45594000000E+02  0.51100000000E-03 0.  1.
    9900012    2    1    2    0    0 -0.68527098026E+00  0.68423878914E+00 -0.67486492238E+00  0.90007651873E+02  0.89999912078E+02 0.  0.
        -12    1    1    2    0    0  0.68527098026E+00 -0.68423878914E+00  0.67486492238E+00  0.11803481268E+01  0.00000000000E+00 0.  1.
         11    1    3    3    0    0 -0.18357000738E+01  0.91003843683E+01 -0.24730826186E+01  0.96074412989E+01  0.51100000000E-03 0. -1.
        -11    1    3    3    0    0 -0.23473559951E+02 -0.36210100538E+02  0.29078262249E+01  0.43250836424E+02  0.51100000000E-03 0.  1.
         12    1    3    3    0    0  0.24623989045E+02  0.27793954958E+02 -0.11096085287E+01  0.37149374151E+02  0.00000000000E+00 0. -1.
</event>
<event>
 7    1  0.2349719E-015  0.9000766E+02  0.7816164E-02  0.1186339E+00
        -11   -1    0    0    0    0  0.00000000000E+00  0.00000000000E+00  0.45593999997E+02  0.45594000000E+02  0.51100000000E-03 0. -1.
         11   -1    0    0    0    0 -0.00000000000E+00 -0.00000000000E+00 -0.45593999997E+02  0.45594000000E+02  0.51100000000E-03 0.  1.
    9900012    2    1    2    0    0 -0.62872767507E+00 -0.98327169943E+00 -0.17629100185E+00  0.90007660963E+02  0.89999921288E+02 0.  0.
        -12    1    1    2    0    0  0.62872767507E+00  0.98327169943E+00  0.17629100185E+00  0.11803390367E+01  0.00000000000E+00 0.  1.
         11    1    3    3    0    0 -0.68590798271E+01  0.34105281195E+02 -0.40628245896E+01  0.35024615992E+02  0.51100000000E-03 0. -1.
        -11    1    3    3    0    0  0.55955871593E+00  0.85243631722E+01 -0.53007537760E+01  0.10053649303E+02  0.51100000000E-03 0.  1.
        -12    1    3    3    0    0  0.56707934361E+01 -0.43612916067E+02  0.91872873637E+01  0.44929395669E+02  0.00000000000E+00 0.  1.
</event>
<event>
 7    1  0.2349719E-015  0.9000787E+02  0.7816164E-02  0.1186339E+00
        -11   -1    0    0    0    0  0.00000000000E+00  0.00000000000E+00  0.45593999997E+02  0.45594000000E+02  0.51100000000E-03 0. -1.
         11   -1    0    0    0    0 -0.00000000000E+00 -0.00000000000E+00 -0.45593999997E+02  0.45594000000E+02  0.51100000000E-03 0.  1.
    9900012    2    1    2    0    0  0.93387043832E+00  0.65610294624E+00  0.30019922980E+00  0.90007870918E+02  0.90000134014E+02 0.  0.
        -12    1    1    2    0    0 -0.93387043832E+00 -0.65610294624E+00 -0.30019922980E+00  0.11801290816E+01  0.00000000000E+00 0.  1.
         11    1    3    3    0    0  0.99065901005E+01  0.30313879327E+02 -0.17665976441E+01  0.31940455144E+02  0.51100000000E-03 0. -1.
        -11    1    3    3    0    0  0.80648644690E+01  0.10375754273E+02  0.58708604454E+01  0.14393238630E+02  0.51100000000E-03 0.  1.
        -12    1    3    3    0    0 -0.17037584131E+02 -0.40033530654E+02 -0.38040635715E+01  0.43674177145E+02  0.00000000000E+00 0.  1.
</event>
<event>
 7    1  0.2349719E-015  0.9000776E+02  0.7816164E-02  0.1186339E+00
        -11   -1    0    0    0    0  0.00000000000E+00  0.00000000000E+00  0.45593999997E+02  0.45594000000E+02  0.51100000000E-03 0.  1.
         11   -1    0    0    0    0 -0.00000000000E+00 -0.00000000000E+00 -0.45593999997E+02  0.45594000000E+02  0.51100000000E-03 0. -1.
    9900012    2    1    2    0    0 -0.10723559706E+01  0.15254702238E+00 -0.46876336374E+00  0.90007764001E+02  0.90000025686E+02 0.  0.
        -12    1    1    2    0    0  0.10723559706E+01 -0.15254702238E+00  0.46876336374E+00  0.11802359988E+01  0.00000000000E+00 0.  1.
         11    1    3    3    0    0  0.27187354870E+02  0.80834558006E+01 -0.24911141853E+02  0.37749960413E+02  0.51100000000E-03 0. -1.
        -11    1    3    3    0    0  0.82210131344E+01 -0.17790285682E+01  0.10249837264E+01  0.84735229688E+01  0.51100000000E-03 0.  1.
        -12    1    3    3    0    0 -0.36480723975E+02 -0.61518802100E+01  0.23417394762E+02  0.43784280619E+02  0.00000000000E+00 0.  1.
</event>
<event>
 7    1  0.2349719E-015  0.9000768E+02  0.7816164E-02  0.1186339E+00
        -11   -1    0    0    0    0  0.00000000000E+00  0.00000000000E+00  0.45593999997E+02  0.45594000000E+02  0.51100000000E-03 0. -1.
         11   -1    0    0    0    0 -0.00000000000E+00 -0.00000000000E+00 -0.45593999997E+02  0.45594000000E+02  0.51100000000E-03 0.  1.
    9900012    2    1    2    0    0  0.97477291861E-01  0.11168172607E+01  0.36928274854E+00  0.90007681244E+02  0.89999941837E+02 0.  0.
        -12    1    1    2    0    0 -0.97477291861E-01 -0.11168172607E+01 -0.36928274854E+00  0.11803187555E+01  0.00000000000E+00 0.  1.
         11    1    3    3    0    0  0.57543419235E+01  0.66892241449E+01 -0.25350449977E+01  0.91806657730E+01  0.51100000000E-03 0. -1.
        -11    1    3    3    0    0  0.34224780227E+02  0.13024768365E+02 -0.11389194148E+01  0.36637102918E+02  0.51100000000E-03 0.  1.
         12    1    3    3    0    0 -0.39881644858E+02 -0.18597175250E+02  0.40432471610E+01  0.44189912553E+02  0.00000000000E+00 0. -1.
</event>
<event>
 7    1  0.2349719E-015  0.9000772E+02  0.7816164E-02  0.1186339E+00
        -11   -1    0    0    0    0  0.00000000000E+00  0.00000000000E+00  0.45593999997E+02  0.45594000000E+02  0.51100000000E-03 0.  1.
         11   -1    0    0    0    0 -0.00000000000E+00 -0.00000000000E+00 -0.45593999997E+02  0.45594000000E+02  0.51100000000E-03 0. -1.
    9900012    2    1    2    0    0  0.99574115325E-01 -0.11186116814E+01 -0.36310742742E+00  0.90007722871E+02  0.89999984013E+02 0.  0.
        -12    1    1    2    0    0 -0.99574115325E-01  0.11186116814E+01  0.36310742742E+00  0.11802771293E+01  0.00000000000E+00 0.  1.
         11    1    3    3    0    0 -0.27290383764E+01 -0.20065054147E+00  0.11847081814E+02  0.12158999090E+02  0.51100000000E-03 0. -1.
        -11    1    3    3    0    0  0.30776124351E+02  0.20446530784E+02  0.72397894161E+01  0.37651626820E+02  0.51100000000E-03 0.  1.
         12    1    3    3    0    0 -0.27947511860E+02 -0.21364491923E+02 -0.19449978657E+02  0.40197096961E+02  0.00000000000E+00 0. -1.
</event>
<event>
 7    1  0.2349719E-015  0.9000775E+02  0.7816164E-02  0.1186339E+00
        -11   -1    0    0    0    0  0.00000000000E+00  0.00000000000E+00  0.45593999997E+02  0.45594000000E+02  0.51100000000E-03 0. -1.
         11   -1    0    0    0    0 -0.00000000000E+00 -0.00000000000E+00 -0.45593999997E+02  0.45594000000E+02  0.51100000000E-03 0.  1.
    9900012    2    1    2    0    0 -0.13853955875E+00  0.16366696612E+00  0.11606033627E+01  0.90007754157E+02  0.90000015712E+02 0.  0.
        -12    1    1    2    0    0  0.13853955875E+00 -0.16366696612E+00 -0.11606033627E+01  0.11802458434E+01  0.00000000000E+00 0.  1.
         11    1    3    3    0    0 -0.33352574343E+02 -0.75465627031E+01  0.92817354777E+01  0.35432971054E+02  0.51100000000E-03 0. -1.
        -11    1    3    3    0    0 -0.66619459206E+01  0.11917399049E+02 -0.42088399876E+01  0.14287066103E+02  0.51100000000E-03 0.  1.
        -12    1    3    3    0    0  0.39875980705E+02 -0.42071693795E+01 -0.39122921274E+01  0.40287717000E+02  0.00000000000E+00 0.  1.
</event>
<event>
 7    1  0.2349719E-015  0.9000769E+02  0.7816164E-02  0.1186339E+00
        -11   -1    0    0    0    0  0.00000000000E+00  0.00000000000E+00  0.45593999997E+02  0.45594000000E+02  0.51100000000E-03 0. -1.
         11   -1    0    0    0    0 -0.00000000000E+00 -0.00000000000E+00 -0.45593999997E+02  0.45594000000E+02  0.51100000000E-03 0.  1.
    9900012    2    1    2    0    0 -0.75177106079E+00 -0.62850619613E+00  0.65798920863E+00  0.90007690903E+02  0.89999951623E+02 0.  0.
        -12    1    1    2    0    0  0.75177106079E+00  0.62850619613E+00 -0.65798920863E+00  0.11803090973E+01  0.00000000000E+00 0.  1.
         11    1    3    3    0    0 -0.52751652613E+01  0.21192404607E+01 -0.78417955506E+01  0.96856753189E+01  0.51100000000E-03 0. -1.
        -11    1    3    3    0    0 -0.28777291789E+02  0.12474410093E+02  0.25050103912E+02  0.40140392825E+02  0.51100000000E-03 0.  1.
         12    1    3    3    0    0  0.33300685990E+02 -0.15222156750E+02 -0.16550319152E+02  0.40181622759E+02  0.00000000000E+00 0. -1.
</event>
<event>
 7    1  0.2349719E-015  0.9000769E+02  0.7816164E-02  0.1186339E+00
        -11   -1    0    0    0    0  0.00000000000E+00  0.00000000000E+00  0.45593999997E+02  0.45594000000E+02  0.51100000000E-03 0. -1.
         11   -1    0    0    0    0 -0.00000000000E+00 -0.00000000000E+00 -0.45593999997E+02  0.45594000000E+02  0.51100000000E-03 0.  1.
    9900012    2    1    2    0    0 -0.23736083539E+00  0.11561389795E+01 -0.11771693753E-01  0.90007688143E+02  0.89999948827E+02 0.  0.
        -12    1    1    2    0    0  0.23736083539E+00 -0.11561389795E+01  0.11771693753E-01  0.11803118566E+01  0.00000000000E+00 0.  1.
         11    1    3    3    0    0  0.36039502858E+01 -0.14316568044E+01  0.85971665760E+01  0.94312974858E+01  0.51100000000E-03 0. -1.
        -11    1    3    3    0    0 -0.17415642928E+02 -0.30117029047E+02 -0.23688730501E+02  0.42089143615E+02  0.51100000000E-03 0.  1.
         12    1    3    3    0    0  0.13574331807E+02  0.32704824831E+02  0.15079792232E+02  0.38487247043E+02  0.00000000000E+00 0. -1.
</event>
<event>
 7    1  0.2349719E-015  0.9000780E+02  0.7816164E-02  0.1186339E+00
        -11   -1    0    0    0    0  0.00000000000E+00  0.00000000000E+00  0.45593999997E+02  0.45594000000E+02  0.51100000000E-03 0. -1.
         11   -1    0    0    0    0 -0.00000000000E+00 -0.00000000000E+00 -0.45593999997E+02  0.45594000000E+02  0.51100000000E-03 0.  1.
    9900012    2    1    2    0    0  0.41579477236E+00  0.10775238189E+01  0.24277685908E+00  0.90007795155E+02  0.90000057251E+02 0.  0.
        -12    1    1    2    0    0 -0.41579477236E+00 -0.10775238189E+01 -0.24277685908E+00  0.11802048451E+01  0.00000000000E+00 0.  1.
         11    1    3    3    0    0 -0.12541805888E+02 -0.37465294590E+02  0.10075373146E+02  0.40773255180E+02  0.51100000000E-03 0. -1.
        -11    1    3    3    0    0  0.79783722833E+01 -0.38504950025E+00  0.20192890497E+01  0.82389450742E+01  0.51100000000E-03 0.  1.
        -12    1    3    3    0    0  0.49792283774E+01  0.38927867910E+02 -0.11851885336E+02  0.40995594901E+02  0.00000000000E+00 0.  1.
</event>
<event>
 7    1  0.2349719E-015  0.9000788E+02  0.7816164E-02  0.1186339E+00
        -11   -1    0    0    0    0  0.00000000000E+00  0.00000000000E+00  0.45593999997E+02  0.45594000000E+02  0.51100000000E-03 0. -1.
         11   -1    0    0    0    0 -0.00000000000E+00 -0.00000000000E+00 -0.45593999997E+02  0.45594000000E+02  0.51100000000E-03 0.  1.
    9900012    2    1    2    0    0  0.58464270999E+00  0.50704800214E-01  0.10238692515E+01  0.90007878684E+02  0.90000141883E+02 0.  0.
        -12    1    1    2    0    0 -0.58464270999E+00 -0.50704800214E-01 -0.10238692515E+01  0.11801213155E+01  0.00000000000E+00 0.  1.
         11    1    3    3    0    0  0.47238741671E+01 -0.13259068971E+02  0.31469929840E+01  0.14422949152E+02  0.51100000000E-03 0. -1.
        -11    1    3    3    0    0  0.45925351080E+01 -0.30349886109E+02 -0.43653588854E+01  0.31004246870E+02  0.51100000000E-03 0.  1.
         12    1    3    3    0    0 -0.87317665651E+01  0.43659659880E+02  0.22422351530E+01  0.44580682663E+02  0.00000000000E+00 0. -1.
</event>
<event>
 7    1  0.2845113E-015  0.9000772E+02  0.7816164E-02  0.1186339E+00
        -11   -1    0    0    0    0  0.00000000000E+00  0.00000000000E+00  0.45593999997E+02  0.45594000000E+02  0.51100000000E-03 0. -1.
         11   -1    0    0    0    0 -0.00000000000E+00 -0.00000000000E+00 -0.45593999997E+02  0.45594000000E+02  0.51100000000E-03 0.  1.
    9900012    2    1    2    0    0 -0.60695538293E+00 -0.71059186422E+00  0.72091783097E+00  0.90007721154E+02  0.89999982274E+02 0.  0.
        -12    1    1    2    0    0  0.60695538293E+00  0.71059186422E+00 -0.72091783097E+00  0.11802788456E+01  0.00000000000E+00 0.  1.
         11    1    3    3    0    0 -0.11840060995E+02 -0.22279829561E+01  0.35168546729E+02  0.37174959740E+02  0.51100000000E-03 0. -1.
        -11    1    3    3    0    0  0.22564240493E+01 -0.49479224213E+00  0.85528082367E+01  0.88592775015E+01  0.51100000000E-03 0.  1.
        -12    1    3    3    0    0  0.89766815628E+01  0.20121833340E+01 -0.43000437135E+02  0.43973483913E+02  0.00000000000E+00 0.  1.
</event>
<event>
 7    1  0.2349719E-015  0.9000777E+02  0.7816164E-02  0.1186339E+00
        -11   -1    0    0    0    0  0.00000000000E+00  0.00000000000E+00  0.45593999997E+02  0.45594000000E+02  0.51100000000E-03 0.  1.
         11   -1    0    0    0    0 -0.00000000000E+00 -0.00000000000E+00 -0.45593999997E+02  0.45594000000E+02  0.51100000000E-03 0. -1.
    9900012    2    1    2    0    0 -0.10694201115E+01 -0.46857415059E+00 -0.17238744572E+00  0.90007771827E+02  0.90000033615E+02 0.  0.
        -12    1    1    2    0    0  0.10694201115E+01  0.46857415059E+00  0.17238744572E+00  0.11802281732E+01  0.00000000000E+00 0.  1.
         11    1    3    3    0    0 -0.76520384247E+01 -0.38909243120E+00  0.44925661509E+01  0.88819049676E+01  0.51100000000E-03 0. -1.
        -11    1    3    3    0    0 -0.22105358103E+01 -0.31111556675E+02  0.22903109873E+02  0.38695837883E+02  0.51100000000E-03 0.  1.
         12    1    3    3    0    0  0.87931541235E+01  0.31032074955E+02 -0.27568063470E+02  0.42430028977E+02  0.00000000000E+00 0. -1.
</event>
<event>
 7    1  0.2349719E-015  0.9000773E+02  0.7816164E-02  0.1186339E+00
        -11   -1    0    0    0    0  0.00000000000E+00  0.00000000000E+00  0.45593999997E+02  0.45594000000E+02  0.51100000000E-03 0.  1.
         11   -1    0    0    0    0 -0.00000000000E+00 -0.00000000000E+00 -0.45593999997E+02  0.45594000000E+02  0.51100000000E-03 0. -1.
    9900012    2    1    2    0    0 -0.10835699803E+01  0.76639841084E-01 -0.46154974590E+00  0.90007734888E+02  0.89999996188E+02 0.  0.
        -12    1    1    2    0    0  0.10835699803E+01 -0.76639841084E-01  0.46154974590E+00  0.11802651124E+01  0.00000000000E+00 0.  1.
         11    1    3    3    0    0  0.12212856142E+02 -0.24702475755E+02 -0.27836040386E+02  0.39169009539E+02  0.51100000000E-03 0. -1.
        -11    1    3    3    0    0  0.55895696630E+01 -0.45272295861E+01  0.13172405441E+01  0.73126068987E+01  0.51100000000E-03 0.  1.
        -12    1    3    3    0    0 -0.18885995786E+02  0.29306345182E+02  0.26057250096E+02  0.43526118450E+02  0.00000000000E+00 0.  1.
</event>
<event>
 7    1  0.2349719E-015  0.9000765E+02  0.7816164E-02  0.1186339E+00
        -11   -1    0    0    0    0  0.00000000000E+00  0.00000000000E+00  0.45593999997E+02  0.45594000000E+02  0.51100000000E-03 0.  1.
         11   -1    0    0    0    0 -0.00000000000E+00 -0.00000000000E+00 -0.45593999997E+02  0.45594000000E+02  0.51100000000E-03 0. -1.
    9900012    2    1    2    0    0  0.43115432280E+00  0.10963787799E+01  0.72777147768E-01  0.90007645396E+02  0.89999905515E+02 0.  0.
        -12    1    1    2    0    0 -0.43115432280E+00 -0.10963787799E+01 -0.72777147768E-01  0.11803546045E+01  0.00000000000E+00 0.  1.
         11    1    3    3    0    0  0.47289829698E+01 -0.38631404943E+01  0.84817719777E+01  0.10451200436E+02  0.51100000000E-03 0. -1.
        -11    1    3    3    0    0  0.25224524354E+02 -0.10230229499E+02  0.21642044498E+02  0.34775168077E+02  0.51100000000E-03 0.  1.
         12    1    3    3    0    0 -0.29522353001E+02  0.15189748773E+02 -0.30051039328E+02  0.44781276882E+02  0.00000000000E+00 0. -1.
</event>
<event>
 7    1  0.2590158E-015  0.9000794E+02  0.7816164E-02  0.1186339E+00
        -11   -1    0    0    0    0  0.00000000000E+00  0.00000000000E+00  0.45593999997E+02  0.45594000000E+02  0.51100000000E-03 0.  1.
         11   -1    0    0    0    0 -0.00000000000E+00 -0.00000000000E+00 -0.45593999997E+02  0.45594000000E+02  0.51100000000E-03 0. -1.
    9900012    2    1    2    0    0  0.95268138637E+00  0.54617287461E+00  0.43200509664E+00  0.90007942783E+02  0.90000206827E+02 0.  0.
        -12    1    1    2    0    0 -0.95268138637E+00 -0.54617287461E+00 -0.43200509664E+00  0.11800572174E+01  0.00000000000E+00 0.  1.
         11    1    3    3    0    0 -0.23653763554E+02 -0.32638970073E+02  0.14260759245E+02  0.42757129841E+02  0.51100000000E-03 0. -1.
        -11    1    3    3    0    0  0.88132722673E+01  0.75774530610E+00 -0.48209269498E+01  0.10074188946E+02  0.51100000000E-03 0.  1.
        -12    1    3    3    0    0  0.15793172673E+02  0.32427397642E+02 -0.90078271987E+01  0.37176623996E+02  0.00000000000E+00 0.  1.
</event>
<event>
 7    1  0.2349719E-015  0.9000766E+02  0.7816164E-02  0.1186339E+00
        -11   -1    0    0    0    0  0.00000000000E+00  0.00000000000E+00  0.45593999997E+02  0.45594000000E+02  0.51100000000E-03 0.  1.
         11   -1    0    0    0    0 -0.00000000000E+00 -0.00000000000E+00 -0.45593999997E+02  0.45594000000E+02  0.51100000000E-03 0. -1.
    9900012    2    1    2    0    0  0.94605420144E+00 -0.26672683809E+00  0.65347764252E+00  0.90007663274E+02  0.89999923629E+02 0.  0.
        -12    1    1    2    0    0 -0.94605420144E+00  0.26672683809E+00 -0.65347764252E+00  0.11803367263E+01  0.00000000000E+00 0.  1.
         11    1    3    3    0    0 -0.44850991698E+01  0.78180931118E+01  0.96585401574E+00  0.90648534852E+01  0.51100000000E-03 0. -1.
        -11    1    3    3    0    0 -0.26433800849E+02  0.17499927276E+02  0.17672963479E+02  0.36294998558E+02  0.51100000000E-03 0.  1.
         12    1    3    3    0    0  0.31864954220E+02 -0.25584747225E+02 -0.17985339852E+02  0.44647811230E+02  0.00000000000E+00 0. -1.
</event>
<event>
 7    1  0.2349719E-015  0.9000821E+02  0.7816164E-02  0.1186338E+00
        -11   -1    0    0    0    0  0.00000000000E+00  0.00000000000E+00  0.45593999997E+02  0.45594000000E+02  0.51100000000E-03 0.  1.
         11   -1    0    0    0    0 -0.00000000000E+00 -0.00000000000E+00 -0.45593999997E+02  0.45594000000E+02  0.51100000000E-03 0. -1.
    9900012    2    1    2    0    0 -0.68547356291E+00 -0.85635315787E+00  0.43437244078E+00  0.90008214361E+02  0.90000481989E+02 0.  0.
        -12    1    1    2    0    0  0.68547356291E+00  0.85635315787E+00 -0.43437244078E+00  0.11797856389E+01  0.00000000000E+00 0.  1.
         11    1    3    3    0    0  0.18750423521E+00  0.67834219009E+01 -0.14939319371E+01  0.69485108777E+01  0.51100000000E-03 0. -1.
        -11    1    3    3    0    0  0.98938546896E+01  0.32722193508E+02 -0.15824912813E+02  0.37670388562E+02  0.51100000000E-03 0.  1.
         12    1    3    3    0    0 -0.10766832488E+02 -0.40361968567E+02  0.17753217191E+02  0.45389314921E+02  0.00000000000E+00 0. -1.
</event>
<event>
 7    1  0.2349719E-015  0.9000780E+02  0.7816164E-02  0.1186339E+00
        -11   -1    0    0    0    0  0.00000000000E+00  0.00000000000E+00  0.45593999997E+02  0.45594000000E+02  0.51100000000E-03 0.  1.
         11   -1    0    0    0    0 -0.00000000000E+00 -0.00000000000E+00 -0.45593999997E+02  0.45594000000E+02  0.51100000000E-03 0. -1.
    9900012    2    1    2    0    0 -0.89516390291E+00  0.57276377591E+00 -0.51331856334E+00  0.90007799719E+02  0.90000061875E+02 0.  0.
        -12    1    1    2    0    0  0.89516390291E+00 -0.57276377591E+00  0.51331856334E+00  0.11802002811E+01  0.00000000000E+00 0.  1.
         11    1    3    3    0    0 -0.29651822843E+02 -0.58634762206E+01  0.25699186060E+02  0.39674413867E+02  0.51100000000E-03 0. -1.
        -11    1    3    3    0    0 -0.47372122318E+01  0.68150197419E+01 -0.89918676851E+00  0.83483058711E+01  0.51100000000E-03 0.  1.
        -12    1    3    3    0    0  0.33493871172E+02 -0.37877974536E+00 -0.25313317855E+02  0.41985079981E+02  0.00000000000E+00 0.  1.
</event>
<event>
 7    1  0.2349719E-015  0.9000778E+02  0.7816164E-02  0.1186339E+00
        -11   -1    0    0    0    0  0.00000000000E+00  0.00000000000E+00  0.45593999997E+02  0.45594000000E+02  0.51100000000E-03 0. -1.
         11   -1    0    0    0    0 -0.00000000000E+00 -0.00000000000E+00 -0.45593999997E+02  0.45594000000E+02  0.51100000000E-03 0.  1.
    9900012    2    1    2    0    0  0.20387284403E+00 -0.10247934230E+01  0.54877716142E+00  0.90007778805E+02  0.90000040685E+02 0.  0.
        -12    1    1    2    0    0 -0.20387284403E+00  0.10247934230E+01 -0.54877716142E+00  0.11802211950E+01  0.00000000000E+00 0.  1.
         11    1    3    3    0    0 -0.57727450286E+01  0.17982935501E+02  0.38220829561E+02  0.42632644382E+02  0.51100000000E-03 0. -1.
        -11    1    3    3    0    0  0.65498239297E+01  0.19031874906E+01 -0.45456824926E+01  0.81966789445E+01  0.51100000000E-03 0.  1.
        -12    1    3    3    0    0 -0.57320605704E+00 -0.20910916415E+02 -0.33126369907E+02  0.39178455479E+02  0.00000000000E+00 0.  1.
</event>
<event>
 7    1  0.2349719E-015  0.9000772E+02  0.7816164E-02  0.1186339E+00
        -11   -1    0    0    0    0  0.00000000000E+00  0.00000000000E+00  0.45593999997E+02  0.45594000000E+02  0.51100000000E-03 0. -1.
         11   -1    0    0    0    0 -0.00000000000E+00 -0.00000000000E+00 -0.45593999997E+02  0.45594000000E+02  0.51100000000E-03 0.  1.
    9900012    2    1    2    0    0 -0.54052116510E+00  0.65580305607E+00  0.81903893263E+00  0.90007718020E+02  0.89999979098E+02 0.  0.
        -12    1    1    2    0    0  0.54052116510E+00 -0.65580305607E+00 -0.81903893263E+00  0.11802819796E+01  0.00000000000E+00 0.  1.
         11    1    3    3    0    0  0.39685696329E+01  0.17931509624E+01  0.40718121523E+02  0.40950340120E+02  0.51100000000E-03 0. -1.
        -11    1    3    3    0    0 -0.40286828871E+01 -0.56768920403E+01  0.17347531530E+01  0.71740335799E+01  0.51100000000E-03 0.  1.
        -12    1    3    3    0    0 -0.48040791087E+00  0.45395441340E+01 -0.41633835744E+02  0.41883344320E+02  0.00000000000E+00 0.  1.
</event>
<event>
 7    1  0.2349719E-015  0.9000792E+02  0.7816164E-02  0.1186339E+00
        -11   -1    0    0    0    0  0.00000000000E+00  0.00000000000E+00  0.45593999997E+02  0.45594000000E+02  0.51100000000E-03 0. -1.
         11   -1    0    0    0    0 -0.00000000000E+00 -0.00000000000E+00 -0.45593999997E+02  0.45594000000E+02  0.51100000000E-03 0.  1.
    9900012    2    1    2    0    0  0.92075489787E-01 -0.11764608432E+01 -0.66224622426E-02  0.90007922940E+02  0.90000186722E+02 0.  0.
        -12    1    1    2    0    0 -0.92075489787E-01  0.11764608432E+01  0.66224622426E-02  0.11800770603E+01  0.00000000000E+00 0.  1.
         11    1    3    3    0    0  0.10473569760E+02  0.99947985340E+01  0.45235838740E+01  0.15167546690E+02  0.51100000000E-03 0. -1.
        -11    1    3    3    0    0  0.41567595869E+00 -0.60751138176E+01 -0.38424858068E+02  0.38904363665E+02  0.51100000000E-03 0.  1.
         12    1    3    3    0    0 -0.10797170229E+02 -0.50961455595E+01  0.33894651731E+02  0.35936012585E+02  0.00000000000E+00 0. -1.
</event>
<event>
 7    1  0.2349719E-015  0.9000784E+02  0.7816164E-02  0.1186339E+00
        -11   -1    0    0    0    0  0.00000000000E+00  0.00000000000E+00  0.45593999997E+02  0.45594000000E+02  0.51100000000E-03 0. -1.
         11   -1    0    0    0    0 -0.00000000000E+00 -0.00000000000E+00 -0.45593999997E+02  0.45594000000E+02  0.51100000000E-03 0.  1.
    9900012    2    1    2    0    0 -0.92964743416E-01  0.11633544488E+01 -0.17534857610E+00  0.90007837664E+02  0.90000100321E+02 0.  0.
        -12    1    1    2    0    0  0.92964743416E-01 -0.11633544488E+01  0.17534857610E+00  0.11801623364E+01  0.00000000000E+00 0.  1.
         11    1    3    3    0    0 -0.19160602848E+01 -0.43454483411E+01  0.93729919189E+01  0.10507482385E+02  0.51100000000E-03 0. -1.
        -11    1    3    3    0    0 -0.18080937517E+02  0.11362291070E+02 -0.38415028019E+02  0.43951522588E+02  0.51100000000E-03 0.  1.
         12    1    3    3    0    0  0.19904033058E+02 -0.58534882804E+01  0.28866687524E+02  0.35548832690E+02  0.00000000000E+00 0. -1.
</event>
<event>
 7    1  0.2349719E-015  0.9000769E+02  0.7816164E-02  0.1186339E+00
        -11   -1    0    0    0    0  0.00000000000E+00  0.00000000000E+00  0.45593999997E+02  0.45594000000E+02  0.51100000000E-03 0.  1.
         11   -1    0    0    0    0 -0.00000000000E+00 -0.00000000000E+00 -0.45593999997E+02  0.45594000000E+02  0.51100000000E-03 0. -1.
    9900012    2    1    2    0    0  0.89779522326E+00 -0.18027961080E+00 -0.74471765595E+00  0.90007685894E+02  0.89999946548E+02 0.  0.
        -12    1    1    2    0    0 -0.89779522326E+00  0.18027961080E+00  0.74471765595E+00  0.11803141057E+01  0.00000000000E+00 0.  1.
         11    1    3    3    0    0  0.41424284717E+01 -0.35280597824E+02  0.12393264232E+02  0.37622776281E+02  0.51100000000E-03 0. -1.
        -11    1    3    3    0    0 -0.61581066919E+01 -0.58765079735E+01  0.17498803420E+01  0.86900923737E+01  0.51100000000E-03 0.  1.
        -12    1    3    3    0    0  0.29134734435E+01  0.40976826187E+02 -0.14887862230E+02  0.43694817240E+02  0.00000000000E+00 0.  1.
</event>
<event>
 7    1  0.2349719E-015  0.9000792E+02  0.7816164E-02  0.1186339E+00
        -11   -1    0    0    0    0  0.00000000000E+00  0.00000000000E+00  0.45593999997E+02  0.45594000000E+02  0.51100000000E-03 0.  1.
         11   -1    0    0    0    0 -0.00000000000E+00 -0.00000000000E+00 -0.45593999997E+02  0.45594000000E+02  0.51100000000E-03 0. -1.
    9900012    2    1    2    0    0 -0.69191611098E+00 -0.92313222994E+00  0.24835227325E+00  0.90007915312E+02  0.90000178994E+02 0.  0.
        -12    1    1    2    0    0  0.69191611098E+00  0.92313222994E+00 -0.24835227325E+00  0.11800846877E+01  0.00000000000E+00 0.  1.
         11    1    3    3    0    0 -0.21734882980E+02  0.20810389871E+02  0.52877653464E+00  0.30095798206E+02  0.51100000000E-03 0. -1.
        -11    1    3    3    0    0  0.34608892369E+01  0.14615463929E+02  0.10249721429E+02  0.18183683065E+02  0.51100000000E-03 0.  1.
        -12    1    3    3    0    0  0.17582077633E+02 -0.36348986030E+02 -0.10530145691E+02  0.41728434041E+02  0.00000000000E+00 0.  1.
</event>
<event>
 7    1  0.2349719E-015  0.9000779E+02  0.7816164E-02  0.1186339E+00
        -11   -1    0    0    0    0  0.00000000000E+00  0.00000000000E+00  0.45593999997E+02  0.45594000000E+02  0.51100000000E-03 0. -1.
         11   -1    0    0    0    0 -0.00000000000E+00 -0.00000000000E+00 -0.45593999997E+02  0.45594000000E+02  0.51100000000E-03 0.  1.
    9900012    2    1    2    0    0 -0.42453071010E+00 -0.10838958878E+01 -0.19450227020E+00  0.90007793343E+02  0.90000055415E+02 0.  0.
        -12    1    1    2    0    0  0.42453071010E+00  0.10838958878E+01  0.19450227020E+00  0.11802066567E+01  0.00000000000E+00 0.  1.
         11    1    3    3    0    0  0.76183640836E+01 -0.12687081513E+02  0.63853403242E+01  0.16117508490E+02  0.51100000000E-03 0. -1.
        -11    1    3    3    0    0 -0.96343670428E+01 -0.20964478728E+02  0.20989141547E+02  0.31190935539E+02  0.51100000000E-03 0.  1.
         12    1    3    3    0    0  0.15914722491E+01  0.32567664353E+02 -0.27568984141E+02  0.42699349314E+02  0.00000000000E+00 0. -1.
</event>
<event>
 7    1  0.2742091E-015  0.9000778E+02  0.7816164E-02  0.1186339E+00
        -11   -1    0    0    0    0  0.00000000000E+00  0.00000000000E+00  0.45593999997E+02  0.45594000000E+02  0.51100000000E-03 0. -1.
         11   -1    0    0    0    0 -0.00000000000E+00 -0.00000000000E+00 -0.45593999997E+02  0.45594000000E+02  0.51100000000E-03 0.  1.
    9900012    2    1    2    0    0 -0.49096082606E+00  0.53696229897E+00  0.92927808399E+00  0.90007775953E+02  0.90000037796E+02 0.  0.
        -12    1    1    2    0    0  0.49096082606E+00 -0.53696229897E+00 -0.92927808399E+00  0.11802240468E+01  0.00000000000E+00 0.  1.
         11    1    3    3    0    0 -0.31795824100E+02  0.22432856987E+02  0.32378180618E+01  0.39047291441E+02  0.51100000000E-03 0. -1.
        -11    1    3    3    0    0 -0.70531997388E+01 -0.61554770560E+01  0.71217122877E+00  0.93885415514E+01  0.51100000000E-03 0.  1.
        -12    1    3    3    0    0  0.38358063013E+02 -0.15740417632E+02 -0.30207112065E+01  0.41571942961E+02  0.00000000000E+00 0.  1.
</event>
<event>
 7    1  0.2349719E-015  0.9000773E+02  0.7816164E-02  0.1186339E+00
        -11   -1    0    0    0    0  0.00000000000E+00  0.00000000000E+00  0.45593999997E+02  0.45594000000E+02  0.51100000000E-03 0.  1.
         11   -1    0    0    0    0 -0.00000000000E+00 -0.00000000000E+00 -0.45593999997E+02  0.45594000000E+02  0.51100000000E-03 0. -1.
    9900012    2    1    2    0    0  0.53184632466E+00  0.97256908152E+00  0.40532063352E+00  0.90007730562E+02  0.89999991805E+02 0.  0.
        -12    1    1    2    0    0 -0.53184632466E+00 -0.97256908152E+00 -0.40532063352E+00  0.11802694384E+01  0.00000000000E+00 0.  1.
         11    1    3    3    0    0 -0.20556682315E+02 -0.12510677186E+02 -0.27192918791E+02  0.36311830910E+02  0.51100000000E-03 0. -1.
        -11    1    3    3    0    0  0.50198537277E+01 -0.35958389569E+01 -0.85870037717E+01  0.10576654636E+02  0.51100000000E-03 0.  1.
        -12    1    3    3    0    0  0.16068674912E+02  0.17079085224E+02  0.36185243196E+02  0.43119245015E+02  0.00000000000E+00 0.  1.
</event>
<event>
 7    1  0.2349719E-015  0.9000759E+02  0.7816164E-02  0.1186339E+00
        -11   -1    0    0    0    0  0.00000000000E+00  0.00000000000E+00  0.45593999997E+02  0.45594000000E+02  0.51100000000E-03 0.  1.
         11   -1    0    0    0    0 -0.00000000000E+00 -0.00000000000E+00 -0.45593999997E+02  0.45594000000E+02  0.51100000000E-03 0. -1.
    9900012    2    1    2    0    0 -0.82097852895E+00 -0.30252100166E-01 -0.84761079047E+00  0.90007591178E+02  0.89999850582E+02 0.  0.
        -12    1    1    2    0    0  0.82097852895E+00  0.30252100166E-01  0.84761079047E+00  0.11804088218E+01  0.00000000000E+00 0.  1.
         11    1    3    3    0    0  0.53510642704E+01  0.41122245481E+01 -0.65685773646E+01  0.94175627641E+01  0.51100000000E-03 0. -1.
        -11    1    3    3    0    0 -0.40233339109E+02 -0.18479794015E+01  0.18259761282E+02  0.44221663086E+02  0.51100000000E-03 0.  1.
         12    1    3    3    0    0  0.34061296310E+02 -0.22944972468E+01 -0.12538794708E+02  0.36368365328E+02  0.00000000000E+00 0. -1.
</event>
<event>
 7    1  0.2349719E-015  0.9000769E+02  0.7816164E-02  0.1186339E+00
        -11   -1    0    0    0    0  0.00000000000E+00  0.00000000000E+00  0.45593999997E+02  0.45594000000E+02  0.51100000000E-03 0.  1.
         11   -1    0    0    0    0 -0.00000000000E+00 -0.00000000000E+00 -0.45593999997E+02  0.45594000000E+02  0.51100000000E-03 0. -1.
    9900012    2    1    2    0    0 -0.57458987202E+00  0.69896870318E+00  0.75790455267E+00  0.90007690685E+02  0.89999951402E+02 0.  0.
        -12    1    1    2    0    0  0.57458987202E+00 -0.69896870318E+00 -0.75790455267E+00  0.11803093154E+01  0.00000000000E+00 0.  1.
         11    1    3    3    0    0  0.51846078920E+01  0.81041548888E+01 -0.39355274121E+01  0.10394511135E+02  0.51100000000E-03 0. -1.
        -11    1    3    3    0    0  0.36163424272E+00  0.32619243658E+02 -0.13398018445E+02  0.35265460931E+02  0.51100000000E-03 0.  1.
         12    1    3    3    0    0 -0.61208320067E+01 -0.40024429844E+02  0.18091450410E+02  0.44347718619E+02  0.00000000000E+00 0. -1.
</event>
<event>
 7    1  0.2349719E-015  0.9000722E+02  0.7816164E-02  0.1186340E+00
        -11   -1    0    0    0    0  0.00000000000E+00  0.00000000000E+00  0.45593999997E+02  0.45594000000E+02  0.51100000000E-03 0.  1.
         11   -1    0    0    0    0 -0.00000000000E+00 -0.00000000000E+00 -0.45593999997E+02  0.45594000000E+02  0.51100000000E-03 0. -1.
    9900012    2    1    2    0    0  0.79267895070E+00 -0.83756406645E+00  0.25377063134E+00  0.90007215084E+02  0.89999469522E+02 0.  0.
        -12    1    1    2    0    0 -0.79267895070E+00  0.83756406645E+00 -0.25377063134E+00  0.11807849159E+01  0.00000000000E+00 0.  1.
         11    1    3    3    0    0  0.22256845077E+02 -0.25283442975E+02 -0.16710928368E+02  0.37601526147E+02  0.51100000000E-03 0. -1.
        -11    1    3    3    0    0  0.89973895220E+01  0.10059067955E+02 -0.21599647385E+01  0.13667600896E+02  0.51100000000E-03 0.  1.
        -12    1    3    3    0    0 -0.30461555648E+02  0.14386810953E+02  0.19124663738E+02  0.38738088040E+02  0.00000000000E+00 0.  1.
</event>
<event>
 7    1  0.2349719E-015  0.9000774E+02  0.7816164E-02  0.1186339E+00
        -11   -1    0    0    0    0  0.00000000000E+00  0.00000000000E+00  0.45593999997E+02  0.45594000000E+02  0.51100000000E-03 0. -1.
         11   -1    0    0    0    0 -0.00000000000E+00 -0.00000000000E+00 -0.45593999997E+02  0.45594000000E+02  0.51100000000E-03 0.  1.
    9900012    2    1    2    0    0  0.55271408333E+00 -0.67881126151E+00 -0.79166763491E+00  0.90007739338E+02  0.90000000697E+02 0.  0.
        -12    1    1    2    0    0 -0.55271408333E+00  0.67881126151E+00  0.79166763491E+00  0.11802606622E+01  0.00000000000E+00 0.  1.
         11    1    3    3    0    0  0.74926399677E+01  0.39635865893E+01  0.25567171094E+01  0.88536136676E+01  0.51100000000E-03 0. -1.
        -11    1    3    3    0    0  0.25256535099E+02 -0.21589817043E+02 -0.22411209272E+02  0.40078361574E+02  0.51100000000E-03 0.  1.
         12    1    3    3    0    0 -0.32196460983E+02  0.16947419192E+02  0.19062824527E+02  0.41075764096E+02  0.00000000000E+00 0. -1.
</event>
<event>
 7    1  0.2349719E-015  0.9000781E+02  0.7816164E-02  0.1186339E+00
        -11   -1    0    0    0    0  0.00000000000E+00  0.00000000000E+00  0.45593999997E+02  0.45594000000E+02  0.51100000000E-03 0.  1.
         11   -1    0    0    0    0 -0.00000000000E+00 -0.00000000000E+00 -0.45593999997E+02  0.45594000000E+02  0.51100000000E-03 0. -1.
    9900012    2    1    2    0    0  0.43397775466E+00  0.10941044530E+01  0.86273171575E-01  0.90007811750E+02  0.90000074065E+02 0.  0.
        -12    1    1    2    0    0 -0.43397775466E+00 -0.10941044530E+01 -0.86273171575E-01  0.11801882501E+01  0.00000000000E+00 0.  1.
         11    1    3    3    0    0  0.25012432052E+02  0.64397255828E+01 -0.31379376799E+02  0.40641814813E+02  0.51100000000E-03 0. -1.
        -11    1    3    3    0    0 -0.85639426379E+01  0.35977012629E+00 -0.44296120309E+01  0.96484201325E+01  0.51100000000E-03 0.  1.
        -12    1    3    3    0    0 -0.16014511659E+02 -0.57053912561E+01  0.35895262002E+02  0.39717576805E+02  0.00000000000E+00 0.  1.
</event>
<event>
 7    1  0.2349719E-015  0.9000772E+02  0.7816164E-02  0.1186339E+00
        -11   -1    0    0    0    0  0.00000000000E+00  0.00000000000E+00  0.45593999997E+02  0.45594000000E+02  0.51100000000E-03 0.  1.
         11   -1    0    0    0    0 -0.00000000000E+00 -0.00000000000E+00 -0.45593999997E+02  0.45594000000E+02  0.51100000000E-03 0. -1.
    9900012    2    1    2    0    0 -0.56644969661E+00 -0.64229711438E+00 -0.81219371415E+00  0.90007716360E+02  0.89999977416E+02 0.  0.
        -12    1    1    2    0    0  0.56644969661E+00  0.64229711438E+00  0.81219371415E+00  0.11802836402E+01  0.00000000000E+00 0.  1.
         11    1    3    3    0    0  0.12536955778E+02  0.35271919263E+02 -0.90340820398E+01  0.38508417096E+02  0.51100000000E-03 0. -1.
        -11    1    3    3    0    0 -0.74990858739E+01  0.45217257540E+01  0.60023851646E+01  0.10616539957E+02  0.51100000000E-03 0.  1.
        -12    1    3    3    0    0 -0.56043196007E+01 -0.40435942131E+02  0.22195031610E+01  0.40882759307E+02  0.00000000000E+00 0.  1.
</event>
<event>
 7    1  0.2349719E-015  0.9000781E+02  0.7816164E-02  0.1186339E+00
        -11   -1    0    0    0    0  0.00000000000E+00  0.00000000000E+00  0.45593999997E+02  0.45594000000E+02  0.51100000000E-03 0. -1.
         11   -1    0    0    0    0 -0.00000000000E+00 -0.00000000000E+00 -0.45593999997E+02  0.45594000000E+02  0.51100000000E-03 0.  1.
    9900012    2    1    2    0    0 -0.10925223384E+01  0.15688635738E+00  0.41789071730E+00  0.90007808897E+02  0.90000071174E+02 0.  0.
        -12    1    1    2    0    0  0.10925223384E+01 -0.15688635738E+00 -0.41789071730E+00  0.11801911035E+01  0.00000000000E+00 0.  1.
         11    1    3    3    0    0 -0.90628812775E+01  0.65768427171E-01  0.85841677033E+00  0.91036817909E+01  0.51100000000E-03 0. -1.
        -11    1    3    3    0    0  0.60280969995E+01  0.39125375583E+02 -0.96605827688E+01  0.40748740197E+02  0.51100000000E-03 0.  1.
         12    1    3    3    0    0  0.19422619395E+01 -0.39034257653E+02  0.92200567157E+01  0.40155386909E+02  0.00000000000E+00 0. -1.
</event>
<event>
 7    1  0.2349719E-015  0.9000779E+02  0.7816164E-02  0.1186339E+00
        -11   -1    0    0    0    0  0.00000000000E+00  0.00000000000E+00  0.45593999997E+02  0.45594000000E+02  0.51100000000E-03 0.  1.
         11   -1    0    0    0    0 -0.00000000000E+00 -0.00000000000E+00 -0.45593999997E+02  0.45594000000E+02  0.51100000000E-03 0. -1.
    9900012    2    1    2    0    0  0.11369345807E+00  0.47372102131E+00 -0.10749648997E+01  0.90007793516E+02  0.90000055591E+02 0.  0.
        -12    1    1    2    0    0 -0.11369345807E+00 -0.47372102131E+00  0.10749648997E+01  0.11802064837E+01  0.00000000000E+00 0.  1.
         11    1    3    3    0    0  0.35462201689E+01 -0.52684698043E+01  0.81423237130E+01  0.10326174862E+02  0.51100000000E-03 0. -1.
        -11    1    3    3    0    0  0.30918592648E+02  0.22279527271E+02  0.61008501237E+01  0.38594780467E+02  0.51100000000E-03 0.  1.
         12    1    3    3    0    0 -0.34351119359E+02 -0.16537336445E+02 -0.15318138736E+02  0.41086838188E+02  0.00000000000E+00 0. -1.
</event>
<event>
 7    1  0.2349719E-015  0.9000776E+02  0.7816164E-02  0.1186339E+00
        -11   -1    0    0    0    0  0.00000000000E+00  0.00000000000E+00  0.45593999997E+02  0.45594000000E+02  0.51100000000E-03 0.  1.
         11   -1    0    0    0    0 -0.00000000000E+00 -0.00000000000E+00 -0.45593999997E+02  0.45594000000E+02  0.51100000000E-03 0. -1.
    9900012    2    1    2    0    0  0.45431189257E+00 -0.10644050072E+01  0.23153181967E+00  0.90007760915E+02  0.90000022559E+02 0.  0.
        -12    1    1    2    0    0 -0.45431189257E+00  0.10644050072E+01 -0.23153181967E+00  0.11802390854E+01  0.00000000000E+00 0.  1.
         11    1    3    3    0    0 -0.15184731382E+02 -0.64982776445E+01 -0.35456735458E+02  0.39115006955E+02  0.51100000000E-03 0. -1.
        -11    1    3    3    0    0 -0.56691391986E+01  0.67091789532E+01 -0.58659427697E+00  0.88031991109E+01  0.51100000000E-03 0.  1.
        -12    1    3    3    0    0  0.21308182473E+02 -0.12753063159E+01  0.36274861555E+02  0.42089554848E+02  0.00000000000E+00 0.  1.
</event>
<event>
 7    1  0.2349719E-015  0.9000771E+02  0.7816164E-02  0.1186339E+00
        -11   -1    0    0    0    0  0.00000000000E+00  0.00000000000E+00  0.45593999997E+02  0.45594000000E+02  0.51100000000E-03 0. -1.
         11   -1    0    0    0    0 -0.00000000000E+00 -0.00000000000E+00 -0.45593999997E+02  0.45594000000E+02  0.51100000000E-03 0.  1.
    9900012    2    1    2    0    0 -0.56869601273E+00 -0.39603107022E+00  0.95541724304E+00  0.90007712801E+02  0.89999973810E+02 0.  0.
        -12    1    1    2    0    0  0.56869601273E+00  0.39603107022E+00 -0.95541724304E+00  0.11802871989E+01  0.00000000000E+00 0.  1.
         11    1    3    3    0    0  0.99182504260E+01 -0.28041951597E+01 -0.37915223364E+01  0.10982296841E+02  0.51100000000E-03 0. -1.
        -11    1    3    3    0    0  0.14906175043E+02  0.24097430003E+02 -0.22294758667E+02  0.36054631484E+02  0.51100000000E-03 0.  1.
         12    1    3    3    0    0 -0.25393121482E+02 -0.21689265913E+02  0.27041698247E+02  0.42970784477E+02  0.00000000000E+00 0. -1.
</event>
<event>
 7    1  0.2486049E-015  0.9000809E+02  0.7816164E-02  0.1186338E+00
        -11   -1    0    0    0    0  0.00000000000E+00  0.00000000000E+00  0.45593999997E+02  0.45594000000E+02  0.51100000000E-03 0.  1.
         11   -1    0    0    0    0 -0.00000000000E+00 -0.00000000000E+00 -0.45593999997E+02  0.45594000000E+02  0.51100000000E-03 0. -1.
    9900012    2    1    2    0    0  0.88075612654E+00  0.65793036586E+00 -0.42846344742E+00  0.90008091255E+02  0.90000357259E+02 0.  0.
        -12    1    1    2    0    0 -0.88075612654E+00 -0.65793036586E+00  0.42846344742E+00  0.11799087450E+01  0.00000000000E+00 0.  1.
         11    1    3    3    0    0 -0.10328635134E+02  0.32441631070E+02  0.11364506460E+02  0.35892786706E+02  0.51100000000E-03 0. -1.
        -11    1    3    3    0    0 -0.46969209507E+01  0.53066504591E+01  0.66730433614E+01  0.97340183622E+01  0.51100000000E-03 0.  1.
        -12    1    3    3    0    0  0.15906312211E+02 -0.37090351163E+02 -0.18466013268E+02  0.44381286187E+02  0.00000000000E+00 0.  1.
</event>
<event>
 7    1  0.2349719E-015  0.9000742E+02  0.7816164E-02  0.1186340E+00
        -11   -1    0    0    0    0  0.00000000000E+00  0.00000000000E+00  0.45593999997E+02  0.45594000000E+02  0.51100000000E-03 0.  1.
         11   -1    0    0    0    0 -0.00000000000E+00 -0.00000000000E+00 -0.45593999997E+02  0.45594000000E+02  0.51100000000E-03 0. -1.
    9900012    2    1    2    0    0 -0.48744424353E+00 -0.10436375497E+01 -0.25881729469E+00  0.90007420643E+02  0.89999677795E+02 0.  0.
        -12    1    1    2    0    0  0.48744424353E+00  0.10436375497E+01  0.25881729469E+00  0.11805793568E+01  0.00000000000E+00 0.  1.
         11    1    3    3    0    0 -0.58053247796E+01 -0.80125124706E+01  0.60440354581E+01  0.11594503731E+02  0.51100000000E-03 0. -1.
        -11    1    3    3    0    0  0.47801139306E+01  0.26666327584E+02  0.27932184799E+02  0.38912073497E+02  0.51100000000E-03 0.  1.
         12    1    3    3    0    0  0.53776660548E+00 -0.19697452663E+02 -0.34235037551E+02  0.39500843415E+02  0.00000000000E+00 0. -1.
</event>
<event>
 7    1  0.2349719E-015  0.9000775E+02  0.7816164E-02  0.1186339E+00
        -11   -1    0    0    0    0  0.00000000000E+00  0.00000000000E+00  0.45593999997E+02  0.45594000000E+02  0.51100000000E-03 0. -1.
         11   -1    0    0    0    0 -0.00000000000E+00 -0.00000000000E+00 -0.45593999997E+02  0.45594000000E+02  0.51100000000E-03 0.  1.
    9900012    2    1    2    0    0 -0.11138888926E+01 -0.14513354314E+00  0.36218386639E+00  0.90007750296E+02  0.90000011800E+02 0.  0.
        -12    1    1    2    0    0  0.11138888926E+01  0.14513354314E+00 -0.36218386639E+00  0.11802497038E+01  0.00000000000E+00 0.  1.
         11    1    3    3    0    0 -0.28893441239E+01 -0.65020549480E+01 -0.26348590019E+01  0.75873256312E+01  0.51100000000E-03 0. -1.
        -11    1    3    3    0    0 -0.16478962983E+02  0.25594639713E+02 -0.28185383179E+02  0.41485631588E+02  0.51100000000E-03 0.  1.
         12    1    3    3    0    0  0.18254418214E+02 -0.19237718308E+02  0.31182426048E+02  0.40934793077E+02  0.00000000000E+00 0. -1.
</event>
<event>
 7    1  0.2349719E-015  0.9000771E+02  0.7816164E-02  0.1186339E+00
        -11   -1    0    0    0    0  0.00000000000E+00  0.00000000000E+00  0.45593999997E+02  0.45594000000E+02  0.51100000000E-03 0.  1.
         11   -1    0    0    0    0 -0.00000000000E+00 -0.00000000000E+00 -0.45593999997E+02  0.45594000000E+02  0.51100000000E-03 0. -1.
    9900012    2    1    2    0    0  0.93015868925E+00 -0.69745392548E+00  0.20360393216E+00  0.90007706932E+02  0.89999967863E+02 0.  0.
        -12    1    1    2    0    0 -0.93015868925E+00  0.69745392548E+00 -0.20360393216E+00  0.11802930681E+01  0.00000000000E+00 0.  1.
         11    1    3    3    0    0  0.19338680046E+02  0.18685441414E+02 -0.15427088881E+02  0.31002021521E+02  0.51100000000E-03 0. -1.
        -11    1    3    3    0    0  0.34595305834E+01  0.15383502126E+02  0.31505918450E+01  0.16079388010E+02  0.51100000000E-03 0.  1.
        -12    1    3    3    0    0 -0.21868051940E+02 -0.34766397466E+02  0.12480100968E+02  0.42926297402E+02  0.00000000000E+00 0.  1.
</event>
<event>
 7    1  0.2349719E-015  0.9000779E+02  0.7816164E-02  0.1186339E+00
        -11   -1    0    0    0    0  0.00000000000E+00  0.00000000000E+00  0.45593999997E+02  0.45594000000E+02  0.51100000000E-03 0.  1.
         11   -1    0    0    0    0 -0.00000000000E+00 -0.00000000000E+00 -0.45593999997E+02  0.45594000000E+02  0.51100000000E-03 0. -1.
    9900012    2    1    2    0    0  0.88143358966E+00 -0.45419765924E+00  0.64006263819E+00  0.90007787787E+02  0.90000049786E+02 0.  0.
        -12    1    1    2    0    0 -0.88143358966E+00  0.45419765924E+00 -0.64006263819E+00  0.11802122129E+01  0.00000000000E+00 0.  1.
         11    1    3    3    0    0  0.21459754541E+01 -0.93010679303E+01  0.24930583878E+00  0.95486768171E+01  0.51100000000E-03 0. -1.
        -11    1    3    3    0    0  0.28611207347E+01 -0.10094608528E+02  0.37311396655E+02  0.38758579099E+02  0.51100000000E-03 0.  1.
         12    1    3    3    0    0 -0.41256625992E+01  0.18941478799E+02 -0.36920639855E+02  0.41700531871E+02  0.00000000000E+00 0. -1.
</event>
<event>
 7    1  0.2349719E-015  0.9000779E+02  0.7816164E-02  0.1186339E+00
        -11   -1    0    0    0    0  0.00000000000E+00  0.00000000000E+00  0.45593999997E+02  0.45594000000E+02  0.51100000000E-03 0. -1.
         11   -1    0    0    0    0 -0.00000000000E+00 -0.00000000000E+00 -0.45593999997E+02  0.45594000000E+02  0.51100000000E-03 0.  1.
    9900012    2    1    2    0    0 -0.59832392574E+00  0.21137060620E+00  0.99510095641E+00  0.90007790287E+02  0.90000052319E+02 0.  0.
        -12    1    1    2    0    0  0.59832392574E+00 -0.21137060620E+00 -0.99510095641E+00  0.11802097130E+01  0.00000000000E+00 0.  1.
         11    1    3    3    0    0  0.23747841370E+02 -0.30869633299E+02  0.80029252584E+01  0.39761049316E+02  0.51100000000E-03 0. -1.
        -11    1    3    3    0    0 -0.61877344990E+01 -0.47130067734E+01  0.38338473558E+01  0.86717285984E+01  0.51100000000E-03 0.  1.
        -12    1    3    3    0    0 -0.18158430796E+02  0.35794010679E+02 -0.10841671658E+02  0.41575012373E+02  0.00000000000E+00 0.  1.
</event>
<event>
 7    1  0.2349719E-015  0.9000772E+02  0.7816164E-02  0.1186339E+00
        -11   -1    0    0    0    0  0.00000000000E+00  0.00000000000E+00  0.45593999997E+02  0.45594000000E+02  0.51100000000E-03 0. -1.
         11   -1    0    0    0    0 -0.00000000000E+00 -0.00000000000E+00 -0.45593999997E+02  0.45594000000E+02  0.51100000000E-03 0.  1.
    9900012    2    1    2    0    0 -0.38110934484E+00  0.75116894093E+00 -0.82678483521E+00  0.90007715172E+02  0.89999976213E+02 0.  0.
        -12    1    1    2    0    0  0.38110934484E+00 -0.75116894093E+00  0.82678483521E+00  0.11802848276E+01  0.00000000000E+00 0.  1.
         11    1    3    3    0    0 -0.10076259111E+01 -0.97363353628E+01 -0.35864158839E+01  0.10424678193E+02  0.51100000000E-03 0. -1.
        -11    1    3    3    0    0  0.27152612164E+02  0.61294072957E+01  0.30267508980E+02  0.41121236378E+02  0.51100000000E-03 0.  1.
         12    1    3    3    0    0 -0.26526095598E+02  0.43580970080E+01 -0.27507877931E+02  0.38461800601E+02  0.00000000000E+00 0. -1.
</event>
<event>
 7    1  0.2349719E-015  0.9000778E+02  0.7816164E-02  0.1186339E+00
        -11   -1    0    0    0    0  0.00000000000E+00  0.00000000000E+00  0.45593999997E+02  0.45594000000E+02  0.51100000000E-03 0. -1.
         11   -1    0    0    0    0 -0.00000000000E+00 -0.00000000000E+00 -0.45593999997E+02  0.45594000000E+02  0.51100000000E-03 0.  1.
    9900012    2    1    2    0    0  0.48344502538E+00 -0.90463169410E+00  0.58381317417E+00  0.90007781623E+02  0.90000043541E+02 0.  0.
        -12    1    1    2    0    0 -0.48344502538E+00  0.90463169410E+00 -0.58381317417E+00  0.11802183768E+01  0.00000000000E+00 0.  1.
         11    1    3    3    0    0  0.76121422529E+01 -0.66476497400E+00 -0.11878099162E+01  0.77328852835E+01  0.51100000000E-03 0. -1.
        -11    1    3    3    0    0  0.29559946958E+02  0.95734035964E+01 -0.21453082083E+02  0.37758115045E+02  0.51100000000E-03 0.  1.
         12    1    3    3    0    0 -0.36688644186E+02 -0.98132703165E+01  0.23224705173E+02  0.44516781295E+02  0.00000000000E+00 0. -1.
</event>
<event>
 7    1  0.2349719E-015  0.9000769E+02  0.7816164E-02  0.1186339E+00
        -11   -1    0    0    0    0  0.00000000000E+00  0.00000000000E+00  0.45593999997E+02  0.45594000000E+02  0.51100000000E-03 0.  1.
         11   -1    0    0    0    0 -0.00000000000E+00 -0.00000000000E+00 -0.45593999997E+02  0.45594000000E+02  0.51100000000E-03 0. -1.
    9900012    2    1    2    0    0 -0.71968653340E-01  0.10362229054E+01 -0.56053961130E+00  0.90007685613E+02  0.89999946263E+02 0.  0.
        -12    1    1    2    0    0  0.71968653340E-01 -0.10362229054E+01  0.56053961130E+00  0.11803143872E+01  0.00000000000E+00 0.  1.
         11    1    3    3    0    0 -0.50945638617E+00 -0.60031544436E+01  0.87416317140E+01  0.10616663052E+02  0.51100000000E-03 0. -1.
        -11    1    3    3    0    0 -0.95420996025E+01 -0.20202994742E+02  0.25617005082E+02  0.33991816824E+02  0.51100000000E-03 0.  1.
         12    1    3    3    0    0  0.99795873353E+01  0.27242372091E+02 -0.34919176408E+02  0.45399205736E+02  0.00000000000E+00 0. -1.
</event>
<event>
 7    1  0.2349719E-015  0.9000766E+02  0.7816164E-02  0.1186339E+00
        -11   -1    0    0    0    0  0.00000000000E+00  0.00000000000E+00  0.45593999997E+02  0.45594000000E+02  0.51100000000E-03 0. -1.
         11   -1    0    0    0    0 -0.00000000000E+00 -0.00000000000E+00 -0.45593999997E+02  0.45594000000E+02  0.51100000000E-03 0.  1.
    9900012    2    1    2    0    0 -0.27160945766E+00  0.19099247066E+00  0.11326703890E+01  0.90007664441E+02  0.89999924812E+02 0.  0.
        -12    1    1    2    0    0  0.27160945766E+00 -0.19099247066E+00 -0.11326703890E+01  0.11803355588E+01  0.00000000000E+00 0.  1.
         11    1    3    3    0    0 -0.33328114450E+01  0.34141306054E+01  0.24631381520E+02  0.25089218317E+02  0.51100000000E-03 0. -1.
        -11    1    3    3    0    0 -0.13268682285E+02 -0.27449603878E+02 -0.66957058253E+01  0.31214918860E+02  0.51100000000E-03 0.  1.
         12    1    3    3    0    0  0.16329884273E+02  0.24226465744E+02 -0.16803005305E+02  0.33703527265E+02  0.00000000000E+00 0. -1.
</event>
<event>
 7    1  0.2349719E-015  0.9000770E+02  0.7816164E-02  0.1186339E+00
        -11   -1    0    0    0    0  0.00000000000E+00  0.00000000000E+00  0.45593999997E+02  0.45594000000E+02  0.51100000000E-03 0.  1.
         11   -1    0    0    0    0 -0.00000000000E+00 -0.00000000000E+00 -0.45593999997E+02  0.45594000000E+02  0.51100000000E-03 0. -1.
    9900012    2    1    2    0    0  0.11067354749E+01 -0.81547119274E-01 -0.40199199605E+00  0.90007698806E+02  0.89999959630E+02 0.  0.
        -12    1    1    2    0    0 -0.11067354749E+01  0.81547119274E-01  0.40199199605E+00  0.11803011942E+01  0.00000000000E+00 0.  1.
         11    1    3    3    0    0 -0.42489282294E+01 -0.60657341850E+01  0.64332010168E+01  0.98098215012E+01  0.51100000000E-03 0. -1.
        -11    1    3    3    0    0  0.14668170532E+02  0.26960524776E+02  0.25940114061E+02  0.40186000556E+02  0.51100000000E-03 0.  1.
         12    1    3    3    0    0 -0.93125068280E+01 -0.20976337710E+02 -0.32775307074E+02  0.40011876748E+02  0.00000000000E+00 0. -1.
</event>
<event>
 7    1  0.2349719E-015  0.9000733E+02  0.7816164E-02  0.1186340E+00
        -11   -1    0    0    0    0  0.00000000000E+00  0.00000000000E+00  0.45593999997E+02  0.45594000000E+02  0.51100000000E-03 0.  1.
         11   -1    0    0    0    0 -0.00000000000E+00 -0.00000000000E+00 -0.45593999997E+02  0.45594000000E+02  0.51100000000E-03 0. -1.
    9900012    2    1    2    0    0 -0.41747683730E+00  0.19483158489E+00 -0.10870751575E+01  0.90007331268E+02  0.89999587240E+02 0.  0.
        -12    1    1    2    0    0  0.41747683730E+00 -0.19483158489E+00  0.10870751575E+01  0.11806687318E+01  0.00000000000E+00 0.  1.
         11    1    3    3    0    0 -0.22698722366E+01  0.77119996235E+00 -0.73907951635E+01  0.77698727636E+01  0.51100000000E-03 0. -1.
        -11    1    3    3    0    0 -0.38472206504E+02  0.10237332267E+02  0.73072287709E+01  0.40476032881E+02  0.51100000000E-03 0.  1.
         12    1    3    3    0    0  0.40324601903E+02 -0.10813700645E+02 -0.10035087649E+01  0.41761425624E+02  0.00000000000E+00 0. -1.
</event>
<event>
 7    1  0.2349719E-015  0.9000775E+02  0.7816164E-02  0.1186339E+00
        -11   -1    0    0    0    0  0.00000000000E+00  0.00000000000E+00  0.45593999997E+02  0.45594000000E+02  0.51100000000E-03 0.  1.
         11   -1    0    0    0    0 -0.00000000000E+00 -0.00000000000E+00 -0.45593999997E+02  0.45594000000E+02  0.51100000000E-03 0. -1.
    9900012    2    1    2    0    0  0.19256333354E+00  0.15846414176E+00 -0.11536005198E+01  0.90007751856E+02  0.90000013381E+02 0.  0.
        -12    1    1    2    0    0 -0.19256333354E+00 -0.15846414176E+00  0.11536005198E+01  0.11802481438E+01  0.00000000000E+00 0.  1.
         11    1    3    3    0    0  0.11804146060E+02  0.23183291343E+02 -0.64869967566E+01  0.26812012026E+02  0.51100000000E-03 0. -1.
        -11    1    3    3    0    0  0.98637514068E+01 -0.15706496124E+01  0.25071044725E+02  0.26987364004E+02  0.51100000000E-03 0.  1.
         12    1    3    3    0    0 -0.21475334133E+02 -0.21454177589E+02 -0.19737648488E+02  0.36208375826E+02  0.00000000000E+00 0. -1.
</event>
<event>
 7    1  0.2349719E-015  0.9000763E+02  0.7816164E-02  0.1186339E+00
        -11   -1    0    0    0    0  0.00000000000E+00  0.00000000000E+00  0.45593999997E+02  0.45594000000E+02  0.51100000000E-03 0.  1.
         11   -1    0    0    0    0 -0.00000000000E+00 -0.00000000000E+00 -0.45593999997E+02  0.45594000000E+02  0.51100000000E-03 0. -1.
    9900012    2    1    2    0    0 -0.69239194354E+00 -0.87223453002E+00  0.39124792834E+00  0.90007629456E+02  0.89999889365E+02 0.  0.
        -12    1    1    2    0    0  0.69239194354E+00  0.87223453002E+00 -0.39124792834E+00  0.11803705436E+01  0.00000000000E+00 0.  1.
         11    1    3    3    0    0 -0.15819457919E+02 -0.12518081777E+02 -0.30723929226E+02  0.36754828901E+02  0.51100000000E-03 0. -1.
        -11    1    3    3    0    0  0.36160521542E+00 -0.13674100335E+01 -0.87129957327E+01  0.88270529301E+01  0.51100000000E-03 0.  1.
        -12    1    3    3    0    0  0.14765460760E+02  0.13013257281E+02  0.39828172887E+02  0.44425747625E+02  0.00000000000E+00 0.  1.
</event>
<event>
 7    1  0.2349719E-015  0.9000756E+02  0.7816164E-02  0.1186339E+00
        -11   -1    0    0    0    0  0.00000000000E+00  0.00000000000E+00  0.45593999997E+02  0.45594000000E+02  0.51100000000E-03 0. -1.
         11   -1    0    0    0    0 -0.00000000000E+00 -0.00000000000E+00 -0.45593999997E+02  0.45594000000E+02  0.51100000000E-03 0.  1.
    9900012    2    1    2    0    0 -0.38035754506E+00  0.15258136877E+00  0.11070170717E+01  0.90007559517E+02  0.89999818503E+02 0.  0.
        -12    1    1    2    0    0  0.38035754506E+00 -0.15258136877E+00 -0.11070170717E+01  0.11804404827E+01  0.00000000000E+00 0.  1.
         11    1    3    3    0    0 -0.32534656600E+01  0.28299630223E+02  0.19127544436E+02  0.34312054238E+02  0.51100000000E-03 0. -1.
        -11    1    3    3    0    0 -0.12611193108E+02 -0.21059739431E+01  0.85638072047E+01  0.15388830753E+02  0.51100000000E-03 0.  1.
        -12    1    3    3    0    0  0.15484301223E+02 -0.26041074912E+02 -0.26584334569E+02  0.40306674527E+02  0.00000000000E+00 0.  1.
</event>
<event>
 7    1  0.2349719E-015  0.9000774E+02  0.7816164E-02  0.1186339E+00
        -11   -1    0    0    0    0  0.00000000000E+00  0.00000000000E+00  0.45593999997E+02  0.45594000000E+02  0.51100000000E-03 0. -1.
         11   -1    0    0    0    0 -0.00000000000E+00 -0.00000000000E+00 -0.45593999997E+02  0.45594000000E+02  0.51100000000E-03 0.  1.
    9900012    2    1    2    0    0 -0.92822470351E+00 -0.69671474481E+00 -0.21449569588E+00  0.90007736919E+02  0.89999998247E+02 0.  0.
        -12    1    1    2    0    0  0.92822470351E+00  0.69671474481E+00  0.21449569588E+00  0.11802630806E+01  0.00000000000E+00 0.  1.
         11    1    3    3    0    0 -0.50576154820E+01  0.88689232031E+01  0.33345024208E+02  0.34873025576E+02  0.51100000000E-03 0. -1.
        -11    1    3    3    0    0  0.13886099632E+02 -0.15668630893E+01  0.47827966524E+01  0.14770036121E+02  0.51100000000E-03 0.  1.
        -12    1    3    3    0    0 -0.97567088532E+01 -0.79987748586E+01 -0.38342316557E+02  0.40364675222E+02  0.00000000000E+00 0.  1.
</event>
<event>
 7    1  0.2349719E-015  0.9000772E+02  0.7816164E-02  0.1186339E+00
        -11   -1    0    0    0    0  0.00000000000E+00  0.00000000000E+00  0.45593999997E+02  0.45594000000E+02  0.51100000000E-03 0.  1.
         11   -1    0    0    0    0 -0.00000000000E+00 -0.00000000000E+00 -0.45593999997E+02  0.45594000000E+02  0.51100000000E-03 0. -1.
    9900012    2    1    2    0    0 -0.20556010624E+00 -0.19798957348E+00 -0.11452583125E+01  0.90007715530E+02  0.89999976575E+02 0.  0.
        -12    1    1    2    0    0  0.20556010624E+00  0.19798957348E+00  0.11452583125E+01  0.11802844703E+01  0.00000000000E+00 0.  1.
         11    1    3    3    0    0  0.23978936710E+02  0.24036919754E+01 -0.28737663986E+02  0.37504939308E+02  0.51100000000E-03 0. -1.
        -11    1    3    3    0    0 -0.33174208561E+01 -0.32074635512E+01 -0.91478799280E+01  0.10245819197E+02  0.51100000000E-03 0.  1.
        -12    1    3    3    0    0 -0.20867075960E+02  0.60578200225E+00  0.36740285602E+02  0.42256957025E+02  0.00000000000E+00 0.  1.
</event>
<event>
 7    1  0.2349719E-015  0.9000774E+02  0.7816164E-02  0.1186339E+00
        -11   -1    0    0    0    0  0.00000000000E+00  0.00000000000E+00  0.45593999997E+02  0.45594000000E+02  0.51100000000E-03 0. -1.
         11   -1    0    0    0    0 -0.00000000000E+00 -0.00000000000E+00 -0.45593999997E+02  0.45594000000E+02  0.51100000000E-03 0.  1.
    9900012    2    1    2    0    0 -0.11576353338E+01 -0.21473802747E+00 -0.82393814616E-01  0.90007737009E+02  0.89999998338E+02 0.  0.
        -12    1    1    2    0    0  0.11576353338E+01  0.21473802747E+00  0.82393814616E-01  0.11802629906E+01  0.00000000000E+00 0.  1.
         11    1    3    3    0    0  0.96648922317E+01  0.31450682944E+01  0.46701808311E+01  0.11185355859E+02  0.51100000000E-03 0. -1.
        -11    1    3    3    0    0 -0.10987939352E+02 -0.39854543523E+02  0.32195946368E+01  0.41466676265E+02  0.51100000000E-03 0.  1.
         12    1    3    3    0    0  0.16541178687E+00  0.36494737201E+02 -0.79721692825E+01  0.37355704885E+02  0.00000000000E+00 0. -1.
</event>
<event>
 7    1  0.2349719E-015  0.9000772E+02  0.7816164E-02  0.1186339E+00
        -11   -1    0    0    0    0  0.00000000000E+00  0.00000000000E+00  0.45593999997E+02  0.45594000000E+02  0.51100000000E-03 0.  1.
         11   -1    0    0    0    0 -0.00000000000E+00 -0.00000000000E+00 -0.45593999997E+02  0.45594000000E+02  0.51100000000E-03 0. -1.
    9900012    2    1    2    0    0 -0.10941252690E+01  0.69050078636E-03  0.44266958243E+00  0.90007717432E+02  0.89999978502E+02 0.  0.
        -12    1    1    2    0    0  0.10941252690E+01 -0.69050078636E-03 -0.44266958243E+00  0.11802825680E+01  0.00000000000E+00 0.  1.
         11    1    3    3    0    0  0.35664179868E+01  0.14415917365E+01 -0.60439353832E+01  0.71642640353E+01  0.51100000000E-03 0. -1.
        -11    1    3    3    0    0  0.17083290495E+02  0.34716049336E+02  0.11476831981E+02  0.40357905895E+02  0.51100000000E-03 0.  1.
         12    1    3    3    0    0 -0.21743833751E+02 -0.36156950572E+02 -0.49902270151E+01  0.42485547502E+02  0.00000000000E+00 0. -1.
</event>
<event>
 7    1  0.2349719E-015  0.9000807E+02  0.7816164E-02  0.1186338E+00
        -11   -1    0    0    0    0  0.00000000000E+00  0.00000000000E+00  0.45593999997E+02  0.45594000000E+02  0.51100000000E-03 0. -1.
         11   -1    0    0    0    0 -0.00000000000E+00 -0.00000000000E+00 -0.45593999997E+02  0.45594000000E+02  0.51100000000E-03 0.  1.
    9900012    2    1    2    0    0 -0.40225493431E+00 -0.68116481805E+00  0.87546558523E+00  0.90008070115E+02  0.90000335840E+02 0.  0.
        -12    1    1    2    0    0  0.40225493431E+00  0.68116481805E+00 -0.87546558523E+00  0.11799298846E+01  0.00000000000E+00 0.  1.
         11    1    3    3    0    0 -0.82997031568E+01  0.33301192798E+02  0.12955647106E+02  0.36683828950E+02  0.51100000000E-03 0. -1.
        -11    1    3    3    0    0 -0.39868286849E+00  0.85284728482E+01 -0.85485233305E+00  0.85804760896E+01  0.51100000000E-03 0.  1.
        -12    1    3    3    0    0  0.82961310910E+01 -0.42510830464E+02 -0.11225329188E+02  0.44743765076E+02  0.00000000000E+00 0.  1.
</event>
<event>
 7    1  0.2349719E-015  0.9000759E+02  0.7816164E-02  0.1186339E+00
        -11   -1    0    0    0    0  0.00000000000E+00  0.00000000000E+00  0.45593999997E+02  0.45594000000E+02  0.51100000000E-03 0.  1.
         11   -1    0    0    0    0 -0.00000000000E+00 -0.00000000000E+00 -0.45593999997E+02  0.45594000000E+02  0.51100000000E-03 0. -1.
    9900012    2    1    2    0    0  0.81635512398E+00  0.63355100385E+00  0.57056639676E+00  0.90007589658E+02  0.89999849041E+02 0.  0.
        -12    1    1    2    0    0 -0.81635512398E+00 -0.63355100385E+00 -0.57056639676E+00  0.11804103422E+01  0.00000000000E+00 0.  1.
         11    1    3    3    0    0 -0.11147871903E+02 -0.17015578126E+02 -0.31730387875E+02  0.37691145669E+02  0.51100000000E-03 0. -1.
        -11    1    3    3    0    0  0.77184566185E+01  0.59998902702E+00 -0.62504827870E+01  0.99500298862E+01  0.51100000000E-03 0.  1.
        -12    1    3    3    0    0  0.42457704084E+01  0.17049140103E+02  0.38551437058E+02  0.42366414102E+02  0.00000000000E+00 0.  1.
</event>
<event>
 7    1  0.2349719E-015  0.9000775E+02  0.7816164E-02  0.1186339E+00
        -11   -1    0    0    0    0  0.00000000000E+00  0.00000000000E+00  0.45593999997E+02  0.45594000000E+02  0.51100000000E-03 0.  1.
         11   -1    0    0    0    0 -0.00000000000E+00 -0.00000000000E+00 -0.45593999997E+02  0.45594000000E+02  0.51100000000E-03 0. -1.
    9900012    2    1    2    0    0  0.79882790752E+00  0.85061177282E+00 -0.17697162407E+00  0.90007751988E+02  0.90000013514E+02 0.  0.
        -12    1    1    2    0    0 -0.79882790752E+00 -0.85061177282E+00  0.17697162407E+00  0.11802480119E+01  0.00000000000E+00 0.  1.
         11    1    3    3    0    0 -0.54798483565E+01 -0.51811450662E+01 -0.67249696790E+01  0.10104366366E+02  0.51100000000E-03 0. -1.
        -11    1    3    3    0    0 -0.26702592663E+02  0.26668335097E+02  0.14071873018E+02  0.40277117104E+02  0.51100000000E-03 0.  1.
         12    1    3    3    0    0  0.32981268927E+02 -0.20636578258E+02 -0.75238749626E+01  0.39626268518E+02  0.00000000000E+00 0. -1.
</event>
<event>
 7    1  0.2349719E-015  0.9000776E+02  0.7816164E-02  0.1186339E+00
        -11   -1    0    0    0    0  0.00000000000E+00  0.00000000000E+00  0.45593999997E+02  0.45594000000E+02  0.51100000000E-03 0.  1.
         11   -1    0    0    0    0 -0.00000000000E+00 -0.00000000000E+00 -0.45593999997E+02  0.45594000000E+02  0.51100000000E-03 0. -1.
    9900012    2    1    2    0    0 -0.95216878738E+00  0.38547309892E+00  0.58117228766E+00  0.90007755899E+02  0.90000017477E+02 0.  0.
        -12    1    1    2    0    0  0.95216878738E+00 -0.38547309892E+00 -0.58117228766E+00  0.11802441009E+01  0.00000000000E+00 0.  1.
         11    1    3    3    0    0  0.23381764460E+02  0.27321308566E+02 -0.63658678157E+01  0.36519653399E+02  0.51100000000E-03 0. -1.
        -11    1    3    3    0    0  0.92070044622E+01  0.14831573721E+00 -0.20849273546E+01  0.94412843968E+01  0.51100000000E-03 0.  1.
        -12    1    3    3    0    0 -0.33540937710E+02 -0.27084151205E+02  0.90319674580E+01  0.44046818104E+02  0.00000000000E+00 0.  1.
</event>
<event>
 7    1  0.2349719E-015  0.9000815E+02  0.7816164E-02  0.1186338E+00
        -11   -1    0    0    0    0  0.00000000000E+00  0.00000000000E+00  0.45593999997E+02  0.45594000000E+02  0.51100000000E-03 0. -1.
         11   -1    0    0    0    0 -0.00000000000E+00 -0.00000000000E+00 -0.45593999997E+02  0.45594000000E+02  0.51100000000E-03 0.  1.
    9900012    2    1    2    0    0 -0.89919182884E+00  0.30280397742E-01  0.76326883226E+00  0.90008151638E+02  0.90000418438E+02 0.  0.
        -12    1    1    2    0    0  0.89919182884E+00 -0.30280397742E-01 -0.76326883226E+00  0.11798483622E+01  0.00000000000E+00 0.  1.
         11    1    3    3    0    0  0.52370288190E+00  0.38433511236E+01  0.97211786183E+01  0.10466466766E+02  0.51100000000E-03 0. -1.
        -11    1    3    3    0    0 -0.33737785536E+02 -0.13945217112E+02 -0.22705893282E+02  0.42991450815E+02  0.51100000000E-03 0.  1.
         12    1    3    3    0    0  0.32314890825E+02  0.10132146386E+02  0.13747983496E+02  0.36550234057E+02  0.00000000000E+00 0. -1.
</event>
<event>
 7    1  0.2349719E-015  0.9000768E+02  0.7816164E-02  0.1186339E+00
        -11   -1    0    0    0    0  0.00000000000E+00  0.00000000000E+00  0.45593999997E+02  0.45594000000E+02  0.51100000000E-03 0. -1.
         11   -1    0    0    0    0 -0.00000000000E+00 -0.00000000000E+00 -0.45593999997E+02  0.45594000000E+02  0.51100000000E-03 0.  1.
    9900012    2    1    2    0    0  0.72810420791E+00 -0.43983714113E+00  0.81826343269E+00  0.90007683308E+02  0.89999943928E+02 0.  0.
        -12    1    1    2    0    0 -0.72810420791E+00  0.43983714113E+00 -0.81826343269E+00  0.11803166921E+01  0.00000000000E+00 0.  1.
         11    1    3    3    0    0  0.20362710618E+01 -0.35466283549E+02  0.22889685778E+02  0.42260399713E+02  0.51100000000E-03 0. -1.
        -11    1    3    3    0    0  0.42623964150E+01  0.68885450804E+01  0.39558991731E+01  0.90149439849E+01  0.51100000000E-03 0.  1.
        -12    1    3    3    0    0 -0.55705632689E+01  0.28137901328E+02 -0.26027321518E+02  0.38732339610E+02  0.00000000000E+00 0.  1.
</event>
<event>
 7    1  0.2349719E-015  0.9000773E+02  0.7816164E-02  0.1186339E+00
        -11   -1    0    0    0    0  0.00000000000E+00  0.00000000000E+00  0.45593999997E+02  0.45594000000E+02  0.51100000000E-03 0.  1.
         11   -1    0    0    0    0 -0.00000000000E+00 -0.00000000000E+00 -0.45593999997E+02  0.45594000000E+02  0.51100000000E-03 0. -1.
    9900012    2    1    2    0    0  0.99056001713E+00 -0.63737161730E+00  0.74706117295E-01  0.90007731925E+02  0.89999993186E+02 0.  0.
        -12    1    1    2    0    0 -0.99056001713E+00  0.63737161730E+00 -0.74706117295E-01  0.11802680755E+01  0.00000000000E+00 0.  1.
         11    1    3    3    0    0  0.75225824298E+01 -0.29558703020E+01 -0.55047420069E+01  0.97789877022E+01  0.51100000000E-03 0. -1.
        -11    1    3    3    0    0  0.18154355151E+02 -0.25742815774E+02 -0.17763255062E+02  0.36163606092E+02  0.51100000000E-03 0.  1.
         12    1    3    3    0    0 -0.24686377564E+02  0.28061314459E+02  0.23342703186E+02  0.44065138130E+02  0.00000000000E+00 0. -1.
</event>
<event>
 7    1  0.2349719E-015  0.9000772E+02  0.7816164E-02  0.1186339E+00
        -11   -1    0    0    0    0  0.00000000000E+00  0.00000000000E+00  0.45593999997E+02  0.45594000000E+02  0.51100000000E-03 0. -1.
         11   -1    0    0    0    0 -0.00000000000E+00 -0.00000000000E+00 -0.45593999997E+02  0.45594000000E+02  0.51100000000E-03 0.  1.
    9900012    2    1    2    0    0 -0.83383089423E+00 -0.26173222728E+00  0.79327455240E+00  0.90007719426E+02  0.89999980522E+02 0.  0.
        -12    1    1    2    0    0  0.83383089423E+00  0.26173222728E+00 -0.79327455240E+00  0.11802805745E+01  0.00000000000E+00 0.  1.
         11    1    3    3    0    0  0.58501564465E+01  0.52267091537E+01  0.66079815282E+01  0.10257106764E+02  0.51100000000E-03 0. -1.
        -11    1    3    3    0    0 -0.13996613116E+02 -0.34504394448E+02  0.18141213709E+02  0.41419343912E+02  0.51100000000E-03 0.  1.
         12    1    3    3    0    0  0.73126257756E+01  0.29015953067E+02 -0.23955920685E+02  0.38331268750E+02  0.00000000000E+00 0. -1.
</event>
<event>
 7    1  0.2349719E-015  0.9000768E+02  0.7816164E-02  0.1186339E+00
        -11   -1    0    0    0    0  0.00000000000E+00  0.00000000000E+00  0.45593999997E+02  0.45594000000E+02  0.51100000000E-03 0. -1.
         11   -1    0    0    0    0 -0.00000000000E+00 -0.00000000000E+00 -0.45593999997E+02  0.45594000000E+02  0.51100000000E-03 0.  1.
    9900012    2    1    2    0    0  0.36380004769E+00  0.10921354691E+01  0.26084364561E+00  0.90007682346E+02  0.89999942953E+02 0.  0.
        -12    1    1    2    0    0 -0.36380004769E+00 -0.10921354691E+01 -0.26084364561E+00  0.11803176543E+01  0.00000000000E+00 0.  1.
         11    1    3    3    0    0  0.17036004513E+02  0.38878763643E+02 -0.38216760674E+01  0.42619114496E+02  0.51100000000E-03 0. -1.
        -11    1    3    3    0    0 -0.68453408012E+01 -0.20880215849E+01 -0.56341963144E+01  0.91083858721E+01  0.51100000000E-03 0.  1.
        -12    1    3    3    0    0 -0.98268636644E+01 -0.35698606589E+02  0.97167160275E+01  0.38280181978E+02  0.00000000000E+00 0.  1.
</event>
<event>
 7    1  0.2349719E-015  0.9000773E+02  0.7816164E-02  0.1186339E+00
        -11   -1    0    0    0    0  0.00000000000E+00  0.00000000000E+00  0.45593999997E+02  0.45594000000E+02  0.51100000000E-03 0. -1.
         11   -1    0    0    0    0 -0.00000000000E+00 -0.00000000000E+00 -0.45593999997E+02  0.45594000000E+02  0.51100000000E-03 0.  1.
    9900012    2    1    2    0    0 -0.83637605638E+00 -0.50391699045E+00  0.66300638939E+00  0.90007731084E+02  0.89999992335E+02 0.  0.
        -12    1    1    2    0    0  0.83637605638E+00  0.50391699045E+00 -0.66300638939E+00  0.11802689157E+01  0.00000000000E+00 0.  1.
         11    1    3    3    0    0 -0.13319425062E+02 -0.98371146005E+01  0.28632078780E+02  0.33075245172E+02  0.51100000000E-03 0. -1.
        -11    1    3    3    0    0 -0.89696778422E+01 -0.39594488859E+01  0.82323418856E+01  0.12802492306E+02  0.51100000000E-03 0.  1.
        -12    1    3    3    0    0  0.21452726848E+02  0.13292646496E+02 -0.36201414276E+02  0.44129993606E+02  0.00000000000E+00 0.  1.
</event>
<event>
 7    1  0.2349719E-015  0.9000773E+02  0.7816164E-02  0.1186339E+00
        -11   -1    0    0    0    0  0.00000000000E+00  0.00000000000E+00  0.45593999997E+02  0.45594000000E+02  0.51100000000E-03 0.  1.
         11   -1    0    0    0    0 -0.00000000000E+00 -0.00000000000E+00 -0.45593999997E+02  0.45594000000E+02  0.51100000000E-03 0. -1.
    9900012    2    1    2    0    0 -0.51946975021E+00  0.44699758202E+00 -0.96092445358E+00  0.90007732460E+02  0.89999993729E+02 0.  0.
        -12    1    1    2    0    0  0.51946975021E+00 -0.44699758202E+00  0.96092445358E+00  0.11802675397E+01  0.00000000000E+00 0.  1.
         11    1    3    3    0    0  0.94780682459E+01  0.22189059056E+02  0.97231830662E+01  0.26014004088E+02  0.51100000000E-03 0. -1.
        -11    1    3    3    0    0  0.21091459253E+02 -0.18113508309E+02  0.61207545005E+01  0.28467744424E+02  0.51100000000E-03 0.  1.
         12    1    3    3    0    0 -0.31088997249E+02 -0.36285531645E+01 -0.16804862020E+02  0.35525983949E+02  0.00000000000E+00 0. -1.
</event>
<event>
 7    1  0.2349719E-015  0.9000782E+02  0.7816164E-02  0.1186339E+00
        -11   -1    0    0    0    0  0.00000000000E+00  0.00000000000E+00  0.45593999997E+02  0.45594000000E+02  0.51100000000E-03 0.  1.
         11   -1    0    0    0    0 -0.00000000000E+00 -0.00000000000E+00 -0.45593999997E+02  0.45594000000E+02  0.51100000000E-03 0. -1.
    9900012    2    1    2    0    0  0.40575524418E+00 -0.24584884227E+00  0.10806268667E+01  0.90007816372E+02  0.90000078748E+02 0.  0.
        -12    1    1    2    0    0 -0.40575524418E+00  0.24584884227E+00 -0.10806268667E+01  0.11801836283E+01  0.00000000000E+00 0.  1.
         11    1    3    3    0    0  0.75232430199E+01 -0.34892164641E+01 -0.45304093016E+01  0.94497844298E+01  0.51100000000E-03 0. -1.
        -11    1    3    3    0    0 -0.28252678664E+01  0.41582779293E+02  0.49685437693E+01  0.41973754891E+02  0.51100000000E-03 0.  1.
         12    1    3    3    0    0 -0.42922199093E+01 -0.38339411671E+02  0.64249239899E+00  0.38584277051E+02  0.00000000000E+00 0. -1.
</event>
<event>
 7    1  0.2349719E-015  0.9000782E+02  0.7816164E-02  0.1186339E+00
        -11   -1    0    0    0    0  0.00000000000E+00  0.00000000000E+00  0.45593999997E+02  0.45594000000E+02  0.51100000000E-03 0.  1.
         11   -1    0    0    0    0 -0.00000000000E+00 -0.00000000000E+00 -0.45593999997E+02  0.45594000000E+02  0.51100000000E-03 0. -1.
    9900012    2    1    2    0    0 -0.62238914476E+00  0.10000975414E+01  0.72595321894E-01  0.90007816361E+02  0.90000078737E+02 0.  0.
        -12    1    1    2    0    0  0.62238914476E+00 -0.10000975414E+01 -0.72595321894E-01  0.11801836385E+01  0.00000000000E+00 0.  1.
         11    1    3    3    0    0 -0.11193287156E+01 -0.63495150551E+01 -0.96142703590E+01  0.11575985185E+02  0.51100000000E-03 0. -1.
        -11    1    3    3    0    0  0.19256694264E+02 -0.28589647075E+02  0.14908757269E+02  0.37556081231E+02  0.51100000000E-03 0.  1.
         12    1    3    3    0    0 -0.18759754693E+02  0.35939259671E+02 -0.52218915881E+01  0.40875749946E+02  0.00000000000E+00 0. -1.
</event>
<event>
 7    1  0.2349719E-015  0.9000770E+02  0.7816164E-02  0.1186339E+00
        -11   -1    0    0    0    0  0.00000000000E+00  0.00000000000E+00  0.45593999997E+02  0.45594000000E+02  0.51100000000E-03 0. -1.
         11   -1    0    0    0    0 -0.00000000000E+00 -0.00000000000E+00 -0.45593999997E+02  0.45594000000E+02  0.51100000000E-03 0.  1.
    9900012    2    1    2    0    0 -0.57790474911E+00 -0.10150305229E+01  0.16983759780E+00  0.90007701025E+02  0.89999961878E+02 0.  0.
        -12    1    1    2    0    0  0.57790474911E+00  0.10150305229E+01 -0.16983759780E+00  0.11802989753E+01  0.00000000000E+00 0.  1.
         11    1    3    3    0    0  0.22308679337E+02 -0.33827389103E+02  0.33355977778E+01  0.40658278862E+02  0.51100000000E-03 0. -1.
        -11    1    3    3    0    0  0.54453746164E+01  0.58127687764E+01 -0.62025171762E+01  0.10095127792E+02  0.51100000000E-03 0.  1.
        -12    1    3    3    0    0 -0.28331958702E+02  0.26999589803E+02  0.30367569962E+01  0.39254294370E+02  0.00000000000E+00 0.  1.
</event>
<event>
 7    1  0.2349719E-015  0.9000775E+02  0.7816164E-02  0.1186339E+00
        -11   -1    0    0    0    0  0.00000000000E+00  0.00000000000E+00  0.45593999997E+02  0.45594000000E+02  0.51100000000E-03 0.  1.
         11   -1    0    0    0    0 -0.00000000000E+00 -0.00000000000E+00 -0.45593999997E+02  0.45594000000E+02  0.51100000000E-03 0. -1.
    9900012    2    1    2    0    0 -0.79631904569E+00 -0.71870335911E+00 -0.49227406368E+00  0.90007749054E+02  0.90000010542E+02 0.  0.
        -12    1    1    2    0    0  0.79631904569E+00  0.71870335911E+00  0.49227406368E+00  0.11802509457E+01  0.00000000000E+00 0.  1.
         11    1    3    3    0    0  0.30388679685E+01  0.90608124791E+01 -0.14354502914E+01  0.96640343083E+01  0.51100000000E-03 0. -1.
        -11    1    3    3    0    0  0.12533366855E+02  0.25185980350E+02  0.22592272273E+02  0.36080876619E+02  0.51100000000E-03 0.  1.
         12    1    3    3    0    0 -0.16368553869E+02 -0.34965496188E+02 -0.21649096045E+02  0.44262838127E+02  0.00000000000E+00 0. -1.
</event>
<event>
 7    1  0.2681032E-015  0.9000777E+02  0.7816164E-02  0.1186339E+00
        -11   -1    0    0    0    0  0.00000000000E+00  0.00000000000E+00  0.45593999997E+02  0.45594000000E+02  0.51100000000E-03 0. -1.
         11   -1    0    0    0    0 -0.00000000000E+00 -0.00000000000E+00 -0.45593999997E+02  0.45594000000E+02  0.51100000000E-03 0.  1.
    9900012    2    1    2    0    0  0.45476304375E+00 -0.49935055134E+00  0.96787328008E+00  0.90007771596E+02  0.90000033381E+02 0.  0.
        -12    1    1    2    0    0 -0.45476304375E+00  0.49935055134E+00 -0.96787328008E+00  0.11802284039E+01  0.00000000000E+00 0.  1.
         11    1    3    3    0    0  0.15023891780E+02  0.21832916708E+02  0.24389016341E+02  0.36016908453E+02  0.51100000000E-03 0. -1.
        -11    1    3    3    0    0  0.43202846651E+01  0.28811374786E+01  0.79729101333E+01  0.95148888072E+01  0.51100000000E-03 0.  1.
        -12    1    3    3    0    0 -0.18889413402E+02 -0.25213404738E+02 -0.31394053195E+02  0.44475974336E+02  0.00000000000E+00 0.  1.
</event>
<event>
 7    1  0.2349719E-015  0.9000778E+02  0.7816164E-02  0.1186339E+00
        -11   -1    0    0    0    0  0.00000000000E+00  0.00000000000E+00  0.45593999997E+02  0.45594000000E+02  0.51100000000E-03 0.  1.
         11   -1    0    0    0    0 -0.00000000000E+00 -0.00000000000E+00 -0.45593999997E+02  0.45594000000E+02  0.51100000000E-03 0. -1.
    9900012    2    1    2    0    0  0.10086622402E+01  0.37395519219E+00 -0.48547447738E+00  0.90007776517E+02  0.90000038367E+02 0.  0.
        -12    1    1    2    0    0 -0.10086622402E+01 -0.37395519219E+00  0.48547447738E+00  0.11802234826E+01  0.00000000000E+00 0.  1.
         11    1    3    3    0    0  0.44497015623E+01 -0.78332692210E+01  0.49201405962E+01  0.10264878686E+02  0.51100000000E-03 0. -1.
        -11    1    3    3    0    0  0.14872304573E+02  0.14038289178E+02  0.31833371607E+02  0.37836788374E+02  0.51100000000E-03 0.  1.
         12    1    3    3    0    0 -0.18313343895E+02 -0.58310647648E+01 -0.37238986681E+02  0.41906109458E+02  0.00000000000E+00 0. -1.
</event>
<event>
 7    1  0.2349719E-015  0.9000773E+02  0.7816164E-02  0.1186339E+00
        -11   -1    0    0    0    0  0.00000000000E+00  0.00000000000E+00  0.45593999997E+02  0.45594000000E+02  0.51100000000E-03 0. -1.
         11   -1    0    0    0    0 -0.00000000000E+00 -0.00000000000E+00 -0.45593999997E+02  0.45594000000E+02  0.51100000000E-03 0.  1.
    9900012    2    1    2    0    0 -0.10451300252E+01 -0.37029160701E+00 -0.40451399056E+00  0.90007727060E+02  0.89999988257E+02 0.  0.
        -12    1    1    2    0    0  0.10451300252E+01  0.37029160701E+00  0.40451399056E+00  0.11802729397E+01  0.00000000000E+00 0.  1.
         11    1    3    3    0    0 -0.60629970572E+01  0.77616487964E+01 -0.46598825062E+01  0.10895762047E+02  0.51100000000E-03 0. -1.
        -11    1    3    3    0    0  0.37250439598E+02  0.69957596349E+01 -0.12297023913E+02  0.39846614668E+02  0.51100000000E-03 0.  1.
         12    1    3    3    0    0 -0.32232572566E+02 -0.15127700038E+02  0.16552392428E+02  0.39265350346E+02  0.00000000000E+00 0. -1.
</event>
<event>
 7    1  0.2349719E-015  0.9000779E+02  0.7816164E-02  0.1186339E+00
        -11   -1    0    0    0    0  0.00000000000E+00  0.00000000000E+00  0.45593999997E+02  0.45594000000E+02  0.51100000000E-03 0. -1.
         11   -1    0    0    0    0 -0.00000000000E+00 -0.00000000000E+00 -0.45593999997E+02  0.45594000000E+02  0.51100000000E-03 0.  1.
    9900012    2    1    2    0    0  0.37152595006E+00  0.52312915621E+00 -0.99055396483E+00  0.90007791204E+02  0.90000053248E+02 0.  0.
        -12    1    1    2    0    0 -0.37152595006E+00 -0.52312915621E+00  0.99055396483E+00  0.11802087963E+01  0.00000000000E+00 0.  1.
         11    1    3    3    0    0 -0.74192528966E+00  0.67459332603E+01 -0.33501415627E+01  0.75684554197E+01  0.51100000000E-03 0. -1.
        -11    1    3    3    0    0 -0.15260523617E+02  0.31468376768E+02 -0.14709865436E+02  0.37941039244E+02  0.51100000000E-03 0.  1.
         12    1    3    3    0    0  0.16373974857E+02 -0.37691180872E+02  0.17069453034E+02  0.44498296541E+02  0.00000000000E+00 0. -1.
</event>
<event>
 7    1  0.2349719E-015  0.9000762E+02  0.7816164E-02  0.1186339E+00
        -11   -1    0    0    0    0  0.00000000000E+00  0.00000000000E+00  0.45593999997E+02  0.45594000000E+02  0.51100000000E-03 0.  1.
         11   -1    0    0    0    0 -0.00000000000E+00 -0.00000000000E+00 -0.45593999997E+02  0.45594000000E+02  0.51100000000E-03 0. -1.
    9900012    2    1    2    0    0  0.69642822431E+00 -0.68797700359E+00 -0.65953064061E+00  0.90007616463E+02  0.89999876200E+02 0.  0.
        -12    1    1    2    0    0 -0.69642822431E+00  0.68797700359E+00  0.65953064061E+00  0.11803835372E+01  0.00000000000E+00 0.  1.
         11    1    3    3    0    0  0.26557431152E+01 -0.70417930058E+01 -0.59920138419E+00  0.75497591214E+01  0.51100000000E-03 0. -1.
        -11    1    3    3    0    0  0.30297106342E+01 -0.26193272916E+02  0.28531166802E+02  0.38849635415E+02  0.51100000000E-03 0.  1.
         12    1    3    3    0    0 -0.49890255251E+01  0.32547088918E+02 -0.28591496058E+02  0.43608221926E+02  0.00000000000E+00 0. -1.
</event>
<event>
 7    1  0.2349719E-015  0.9000784E+02  0.7816164E-02  0.1186339E+00
        -11   -1    0    0    0    0  0.00000000000E+00  0.00000000000E+00  0.45593999997E+02  0.45594000000E+02  0.51100000000E-03 0. -1.
         11   -1    0    0    0    0 -0.00000000000E+00 -0.00000000000E+00 -0.45593999997E+02  0.45594000000E+02  0.51100000000E-03 0.  1.
    9900012    2    1    2    0    0  0.60954170855E+00 -0.30856540598E+00  0.96229677747E+00  0.90007843742E+02  0.90000106480E+02 0.  0.
        -12    1    1    2    0    0 -0.60954170855E+00  0.30856540598E+00 -0.96229677747E+00  0.11801562575E+01  0.00000000000E+00 0.  1.
         11    1    3    3    0    0 -0.87906111584E+01  0.33736037024E+02  0.98107065370E+00  0.34876317731E+02  0.51100000000E-03 0. -1.
        -11    1    3    3    0    0 -0.44699412270E+01  0.83867318969E+01  0.39983025514E+01  0.10310386512E+02  0.51100000000E-03 0.  1.
        -12    1    3    3    0    0  0.13870094094E+02 -0.42431334327E+02 -0.40170764277E+01  0.44821139499E+02  0.00000000000E+00 0.  1.
</event>
<event>
 7    1  0.2349719E-015  0.9000772E+02  0.7816164E-02  0.1186339E+00
        -11   -1    0    0    0    0  0.00000000000E+00  0.00000000000E+00  0.45593999997E+02  0.45594000000E+02  0.51100000000E-03 0.  1.
         11   -1    0    0    0    0 -0.00000000000E+00 -0.00000000000E+00 -0.45593999997E+02  0.45594000000E+02  0.51100000000E-03 0. -1.
    9900012    2    1    2    0    0  0.10187317383E+01 -0.52623465529E+00 -0.27986451879E+00  0.90007719772E+02  0.89999980873E+02 0.  0.
        -12    1    1    2    0    0 -0.10187317383E+01  0.52623465529E+00  0.27986451879E+00  0.11802802277E+01  0.00000000000E+00 0.  1.
         11    1    3    3    0    0  0.37695702611E+01  0.34369000637E+01 -0.92340571499E+01  0.10549395893E+02  0.51100000000E-03 0. -1.
        -11    1    3    3    0    0  0.13639873165E+02 -0.38130849350E+02 -0.94959673651E-01  0.40497121252E+02  0.51100000000E-03 0.  1.
         12    1    3    3    0    0 -0.16390711688E+02  0.34167714631E+02  0.90491523047E+01  0.38961202627E+02  0.00000000000E+00 0. -1.
</event>
<event>
 7    1  0.2349719E-015  0.9000773E+02  0.7816164E-02  0.1186339E+00
        -11   -1    0    0    0    0  0.00000000000E+00  0.00000000000E+00  0.45593999997E+02  0.45594000000E+02  0.51100000000E-03 0.  1.
         11   -1    0    0    0    0 -0.00000000000E+00 -0.00000000000E+00 -0.45593999997E+02  0.45594000000E+02  0.51100000000E-03 0. -1.
    9900012    2    1    2    0    0  0.81308664287E+00  0.43174280245E+00 -0.73859287637E+00  0.90007732584E+02  0.89999993854E+02 0.  0.
        -12    1    1    2    0    0 -0.81308664287E+00 -0.43174280245E+00  0.73859287637E+00  0.11802674160E+01  0.00000000000E+00 0.  1.
         11    1    3    3    0    0 -0.95806119936E+01  0.72797891827E+00 -0.85960180776E+00  0.96466053618E+01  0.51100000000E-03 0. -1.
        -11    1    3    3    0    0 -0.22772293813E+02  0.49543566046E+01  0.28203934513E+02  0.36586677045E+02  0.51100000000E-03 0.  1.
         12    1    3    3    0    0  0.33165992450E+02 -0.52505927205E+01 -0.28082925582E+02  0.43774450177E+02  0.00000000000E+00 0. -1.
</event>
<event>
 7    1  0.2349719E-015  0.9000772E+02  0.7816164E-02  0.1186339E+00
        -11   -1    0    0    0    0  0.00000000000E+00  0.00000000000E+00  0.45593999997E+02  0.45594000000E+02  0.51100000000E-03 0.  1.
         11   -1    0    0    0    0 -0.00000000000E+00 -0.00000000000E+00 -0.45593999997E+02  0.45594000000E+02  0.51100000000E-03 0. -1.
    9900012    2    1    2    0    0 -0.56396026589E+00  0.62419467530E+00 -0.82788480544E+00  0.90007718921E+02  0.89999980011E+02 0.  0.
        -12    1    1    2    0    0  0.56396026589E+00 -0.62419467530E+00  0.82788480544E+00  0.11802810789E+01  0.00000000000E+00 0.  1.
         11    1    3    3    0    0  0.10530275797E+02  0.20548808076E+02 -0.29302662007E+02  0.37306651185E+02  0.51100000000E-03 0. -1.
        -11    1    3    3    0    0  0.19086212826E+01  0.78880738622E+01 -0.30745635210E+01  0.86785647179E+01  0.51100000000E-03 0.  1.
        -12    1    3    3    0    0 -0.13002857345E+02 -0.27812687263E+02  0.31549340722E+02  0.44022503018E+02  0.00000000000E+00 0.  1.
</event>
<event>
 7    1  0.2349719E-015  0.9000773E+02  0.7816164E-02  0.1186339E+00
        -11   -1    0    0    0    0  0.00000000000E+00  0.00000000000E+00  0.45593999997E+02  0.45594000000E+02  0.51100000000E-03 0. -1.
         11   -1    0    0    0    0 -0.00000000000E+00 -0.00000000000E+00 -0.45593999997E+02  0.45594000000E+02  0.51100000000E-03 0.  1.
    9900012    2    1    2    0    0 -0.35670483690E+00  0.85575874447E+00  0.73040005515E+00  0.90007726468E+02  0.89999987658E+02 0.  0.
        -12    1    1    2    0    0  0.35670483690E+00 -0.85575874447E+00 -0.73040005515E+00  0.11802735318E+01  0.00000000000E+00 0.  1.
         11    1    3    3    0    0 -0.58741654686E+01 -0.30897202593E+01  0.80492690440E+01  0.10432781203E+02  0.51100000000E-03 0. -1.
        -11    1    3    3    0    0 -0.88395800410E+01  0.21292208163E+02 -0.36221686786E+02  0.42936079207E+02  0.51100000000E-03 0.  1.
         12    1    3    3    0    0  0.14357040673E+02 -0.17346729159E+02  0.28902817797E+02  0.36638866058E+02  0.00000000000E+00 0. -1.
</event>
<event>
 7    1  0.2349719E-015  0.9000770E+02  0.7816164E-02  0.1186339E+00
        -11   -1    0    0    0    0  0.00000000000E+00  0.00000000000E+00  0.45593999997E+02  0.45594000000E+02  0.51100000000E-03 0.  1.
         11   -1    0    0    0    0 -0.00000000000E+00 -0.00000000000E+00 -0.45593999997E+02  0.45594000000E+02  0.51100000000E-03 0. -1.
    9900012    2    1    2    0    0  0.88473626444E+00 -0.16694009708E+00 -0.76319834724E+00  0.90007703863E+02  0.89999964754E+02 0.  0.
        -12    1    1    2    0    0 -0.88473626444E+00  0.16694009708E+00  0.76319834724E+00  0.11802961369E+01  0.00000000000E+00 0.  1.
         11    1    3    3    0    0 -0.15912240566E+01 -0.12092188476E+02 -0.33442105039E+02  0.35596733078E+02  0.51100000000E-03 0. -1.
        -11    1    3    3    0    0 -0.40963806375E+00 -0.44525514737E+01 -0.87184542760E+01  0.97981867299E+01  0.51100000000E-03 0.  1.
        -12    1    3    3    0    0  0.28855983847E+01  0.16377799853E+02  0.41397360968E+02  0.44612784055E+02  0.00000000000E+00 0.  1.
</event>
<event>
 7    1  0.2349719E-015  0.9000775E+02  0.7816164E-02  0.1186339E+00
        -11   -1    0    0    0    0  0.00000000000E+00  0.00000000000E+00  0.45593999997E+02  0.45594000000E+02  0.51100000000E-03 0.  1.
         11   -1    0    0    0    0 -0.00000000000E+00 -0.00000000000E+00 -0.45593999997E+02  0.45594000000E+02  0.51100000000E-03 0. -1.
    9900012    2    1    2    0    0 -0.14263422007E+00  0.11646171326E+01  0.12770085997E+00  0.90007752104E+02  0.90000013632E+02 0.  0.
        -12    1    1    2    0    0  0.14263422007E+00 -0.11646171326E+01 -0.12770085997E+00  0.11802478960E+01  0.00000000000E+00 0.  1.
         11    1    3    3    0    0  0.72807351758E+01  0.44388356657E+01 -0.21888828497E+01  0.88036114838E+01  0.51100000000E-03 0. -1.
        -11    1    3    3    0    0  0.32558656962E+02  0.20590457605E+01 -0.16655030675E+02  0.36629166789E+02  0.51100000000E-03 0.  1.
         12    1    3    3    0    0 -0.39982026358E+02 -0.53332642936E+01  0.18971614385E+02  0.44574973831E+02  0.00000000000E+00 0. -1.
</event>
<event>
 7    1  0.2349719E-015  0.9000774E+02  0.7816164E-02  0.1186339E+00
        -11   -1    0    0    0    0  0.00000000000E+00  0.00000000000E+00  0.45593999997E+02  0.45594000000E+02  0.51100000000E-03 0.  1.
         11   -1    0    0    0    0 -0.00000000000E+00 -0.00000000000E+00 -0.45593999997E+02  0.45594000000E+02  0.51100000000E-03 0. -1.
    9900012    2    1    2    0    0 -0.54047987704E+00 -0.53350983366E+00 -0.90346700096E+00  0.90007744154E+02  0.90000005577E+02 0.  0.
        -12    1    1    2    0    0  0.54047987704E+00  0.53350983366E+00  0.90346700096E+00  0.11802558460E+01  0.00000000000E+00 0.  1.
         11    1    3    3    0    0 -0.36615091394E+02 -0.10119696064E+02  0.12260451241E+02  0.39917312423E+02  0.51100000000E-03 0. -1.
        -11    1    3    3    0    0  0.25381503437E+01 -0.18613544030E+01  0.81509212086E+01  0.87375262055E+01  0.51100000000E-03 0.  1.
        -12    1    3    3    0    0  0.33536461173E+02  0.11447540634E+02 -0.21314839450E+02  0.41352905525E+02  0.00000000000E+00 0.  1.
</event>
<event>
 7    1  0.2349719E-015  0.9000770E+02  0.7816164E-02  0.1186339E+00
        -11   -1    0    0    0    0  0.00000000000E+00  0.00000000000E+00  0.45593999997E+02  0.45594000000E+02  0.51100000000E-03 0.  1.
         11   -1    0    0    0    0 -0.00000000000E+00 -0.00000000000E+00 -0.45593999997E+02  0.45594000000E+02  0.51100000000E-03 0. -1.
    9900012    2    1    2    0    0 -0.10414852282E+01 -0.19427643270E+00 -0.52027182464E+00  0.90007695978E+02  0.89999956765E+02 0.  0.
        -12    1    1    2    0    0  0.10414852282E+01  0.19427643270E+00  0.52027182464E+00  0.11803040220E+01  0.00000000000E+00 0.  1.
         11    1    3    3    0    0  0.51678281193E+01 -0.41513434652E+01 -0.81661575026E+01  0.10517900392E+02  0.51100000000E-03 0. -1.
        -11    1    3    3    0    0 -0.34828135688E+02  0.11366997929E+02 -0.17572238415E+02  0.40632391519E+02  0.51100000000E-03 0.  1.
         12    1    3    3    0    0  0.28618822340E+02 -0.74099308967E+01  0.25218124093E+02  0.38857404067E+02  0.00000000000E+00 0. -1.
</event>
<event>
 7    1  0.2349719E-015  0.9000749E+02  0.7816164E-02  0.1186340E+00
        -11   -1    0    0    0    0  0.00000000000E+00  0.00000000000E+00  0.45593999997E+02  0.45594000000E+02  0.51100000000E-03 0.  1.
         11   -1    0    0    0    0 -0.00000000000E+00 -0.00000000000E+00 -0.45593999997E+02  0.45594000000E+02  0.51100000000E-03 0. -1.
    9900012    2    1    2    0    0  0.75734474493E+00  0.82408572950E+00  0.37537581478E+00  0.90007493602E+02  0.89999751718E+02 0.  0.
        -12    1    1    2    0    0 -0.75734474493E+00 -0.82408572950E+00 -0.37537581478E+00  0.11805063975E+01  0.00000000000E+00 0.  1.
         11    1    3    3    0    0  0.20089041552E+02 -0.67124910726E+00 -0.39103950780E+02  0.43967478125E+02  0.51100000000E-03 0. -1.
        -11    1    3    3    0    0  0.11187086539E+01 -0.92536448883E+00  0.98541165441E+01  0.99604930408E+01  0.51100000000E-03 0.  1.
        -12    1    3    3    0    0 -0.20450405461E+02  0.24206993256E+01  0.29625210050E+02  0.36079522437E+02  0.00000000000E+00 0.  1.
</event>
<event>
 7    1  0.2349719E-015  0.9000773E+02  0.7816164E-02  0.1186339E+00
        -11   -1    0    0    0    0  0.00000000000E+00  0.00000000000E+00  0.45593999997E+02  0.45594000000E+02  0.51100000000E-03 0.  1.
         11   -1    0    0    0    0 -0.00000000000E+00 -0.00000000000E+00 -0.45593999997E+02  0.45594000000E+02  0.51100000000E-03 0. -1.
    9900012    2    1    2    0    0 -0.23693711421E+00  0.11019898853E+01 -0.35001412182E+00  0.90007732747E+02  0.89999994019E+02 0.  0.
        -12    1    1    2    0    0  0.23693711421E+00 -0.11019898853E+01  0.35001412182E+00  0.11802672532E+01  0.00000000000E+00 0.  1.
         11    1    3    3    0    0 -0.83733494633E+01 -0.36905187104E+01  0.98282084092E+00  0.92031976319E+01  0.51100000000E-03 0. -1.
        -11    1    3    3    0    0  0.12419159590E+02  0.15740876978E+02  0.36250201994E+02  0.41425691036E+02  0.51100000000E-03 0.  1.
         12    1    3    3    0    0 -0.42827472407E+01 -0.10948368382E+02 -0.37583036956E+02  0.39378844079E+02  0.00000000000E+00 0. -1.
</event>
<event>
 7    1  0.2349719E-015  0.9000772E+02  0.7816164E-02  0.1186339E+00
        -11   -1    0    0    0    0  0.00000000000E+00  0.00000000000E+00  0.45593999997E+02  0.45594000000E+02  0.51100000000E-03 0.  1.
         11   -1    0    0    0    0 -0.00000000000E+00 -0.00000000000E+00 -0.45593999997E+02  0.45594000000E+02  0.51100000000E-03 0. -1.
    9900012    2    1    2    0    0 -0.84925184197E+00  0.58497868570E+00 -0.57413614599E+00  0.90007719920E+02  0.89999981023E+02 0.  0.
        -12    1    1    2    0    0  0.84925184197E+00 -0.58497868570E+00  0.57413614599E+00  0.11802800803E+01  0.00000000000E+00 0.  1.
         11    1    3    3    0    0 -0.27377927317E+02 -0.12940609244E+02 -0.20349799417E+02  0.36484580419E+02  0.51100000000E-03 0. -1.
        -11    1    3    3    0    0 -0.57291451963E+01 -0.72114514620E+01 -0.19981727359E+01  0.94244804320E+01  0.51100000000E-03 0.  1.
        -12    1    3    3    0    0  0.32257820672E+02  0.20737039392E+02  0.21773836007E+02  0.44098659069E+02  0.00000000000E+00 0.  1.
</event>
<event>
 7    1  0.2349719E-015  0.9000773E+02  0.7816164E-02  0.1186339E+00
        -11   -1    0    0    0    0  0.00000000000E+00  0.00000000000E+00  0.45593999997E+02  0.45594000000E+02  0.51100000000E-03 0.  1.
         11   -1    0    0    0    0 -0.00000000000E+00 -0.00000000000E+00 -0.45593999997E+02  0.45594000000E+02  0.51100000000E-03 0. -1.
    9900012    2    1    2    0    0 -0.67941612325E+00 -0.90176659944E+00 -0.34386134869E+00  0.90007733125E+02  0.89999994403E+02 0.  0.
        -12    1    1    2    0    0  0.67941612325E+00  0.90176659944E+00  0.34386134869E+00  0.11802668747E+01  0.00000000000E+00 0.  1.
         11    1    3    3    0    0  0.13026362296E+02  0.27936695459E+02 -0.67202024616E+01  0.31548473643E+02  0.51100000000E-03 0. -1.
        -11    1    3    3    0    0  0.53048745859E+01  0.11311495670E+02 -0.34519918515E+01  0.12961785242E+02  0.51100000000E-03 0.  1.
        -12    1    3    3    0    0 -0.19010653005E+02 -0.40149957729E+02  0.98283329644E+01  0.45497474239E+02  0.00000000000E+00 0.  1.
</event>
<event>
 7    1  0.2349719E-015  0.9000772E+02  0.7816164E-02  0.1186339E+00
        -11   -1    0    0    0    0  0.00000000000E+00  0.00000000000E+00  0.45593999997E+02  0.45594000000E+02  0.51100000000E-03 0.  1.
         11   -1    0    0    0    0 -0.00000000000E+00 -0.00000000000E+00 -0.45593999997E+02  0.45594000000E+02  0.51100000000E-03 0. -1.
    9900012    2    1    2    0    0  0.32421196111E+00 -0.11314971555E+01  0.87483249792E-01  0.90007723538E+02  0.89999984688E+02 0.  0.
        -12    1    1    2    0    0 -0.32421196111E+00  0.11314971555E+01 -0.87483249792E-01  0.11802764623E+01  0.00000000000E+00 0.  1.
         11    1    3    3    0    0 -0.66622963369E+01 -0.19499730914E+01  0.37564717721E+01  0.78930138714E+01  0.51100000000E-03 0. -1.
        -11    1    3    3    0    0  0.76916890651E+01  0.40778766094E+02 -0.66923647148E+01  0.42034005169E+02  0.51100000000E-03 0.  1.
         12    1    3    3    0    0 -0.70518076711E+00 -0.39960290158E+02  0.30233761925E+01  0.40080704497E+02  0.00000000000E+00 0. -1.
</event>
<event>
 7    1  0.2349719E-015  0.9000748E+02  0.7816164E-02  0.1186340E+00
        -11   -1    0    0    0    0  0.00000000000E+00  0.00000000000E+00  0.45593999997E+02  0.45594000000E+02  0.51100000000E-03 0.  1.
         11   -1    0    0    0    0 -0.00000000000E+00 -0.00000000000E+00 -0.45593999997E+02  0.45594000000E+02  0.51100000000E-03 0. -1.
    9900012    2    1    2    0    0 -0.21011250596E+00  0.14553562506E+00 -0.11525170343E+01  0.90007481725E+02  0.89999739683E+02 0.  0.
        -12    1    1    2    0    0  0.21011250596E+00 -0.14553562506E+00  0.11525170343E+01  0.11805182751E+01  0.00000000000E+00 0.  1.
         11    1    3    3    0    0 -0.21500654604E+02 -0.25976212788E+02 -0.98481487144E+01  0.35128732009E+02  0.51100000000E-03 0. -1.
        -11    1    3    3    0    0 -0.97705642177E+01 -0.19505013292E+01 -0.45685607880E+01  0.10960845246E+02  0.51100000000E-03 0.  1.
        -12    1    3    3    0    0  0.31061106316E+02  0.28072249742E+02  0.13264192468E+02  0.43917904470E+02  0.00000000000E+00 0.  1.
</event>
<event>
 7    1  0.2349719E-015  0.9000778E+02  0.7816164E-02  0.1186339E+00
        -11   -1    0    0    0    0  0.00000000000E+00  0.00000000000E+00  0.45593999997E+02  0.45594000000E+02  0.51100000000E-03 0. -1.
         11   -1    0    0    0    0 -0.00000000000E+00 -0.00000000000E+00 -0.45593999997E+02  0.45594000000E+02  0.51100000000E-03 0.  1.
    9900012    2    1    2    0    0  0.47348637051E+00  0.99465409440E+00  0.42355947980E+00  0.90007775977E+02  0.90000037820E+02 0.  0.
        -12    1    1    2    0    0 -0.47348637051E+00 -0.99465409440E+00 -0.42355947980E+00  0.11802240226E+01  0.00000000000E+00 0.  1.
         11    1    3    3    0    0 -0.23122869880E+02  0.20367401913E+01  0.23729240327E+02  0.33194762672E+02  0.51100000000E-03 0. -1.
        -11    1    3    3    0    0 -0.99661937743E+01 -0.12292415264E+01  0.64701418394E+01  0.11945659829E+02  0.51100000000E-03 0.  1.
         12    1    3    3    0    0  0.33562550025E+02  0.18715542951E+00 -0.29775822686E+02  0.44867353476E+02  0.00000000000E+00 0. -1.
</event>
<event>
 7    1  0.2349719E-015  0.9000785E+02  0.7816164E-02  0.1186339E+00
        -11   -1    0    0    0    0  0.00000000000E+00  0.00000000000E+00  0.45593999997E+02  0.45594000000E+02  0.51100000000E-03 0.  1.
         11   -1    0    0    0    0 -0.00000000000E+00 -0.00000000000E+00 -0.45593999997E+02  0.45594000000E+02  0.51100000000E-03 0. -1.
    9900012    2    1    2    0    0  0.65528057799E+00 -0.84652958383E+00 -0.49673635939E+00  0.90007850864E+02  0.90000113695E+02 0.  0.
        -12    1    1    2    0    0 -0.65528057799E+00  0.84652958383E+00  0.49673635939E+00  0.11801491359E+01  0.00000000000E+00 0.  1.
         11    1    3    3    0    0  0.32272472590E+00  0.40795439620E+02 -0.33671676683E+01  0.40935435303E+02  0.51100000000E-03 0. -1.
        -11    1    3    3    0    0 -0.10130513500E+02 -0.81596464028E+01 -0.33821315981E+01  0.13440459352E+02  0.51100000000E-03 0.  1.
        -12    1    3    3    0    0  0.10463069352E+02 -0.33482322801E+02  0.62525629070E+01  0.35631956210E+02  0.00000000000E+00 0.  1.
</event>
<event>
 7    1  0.2349719E-015  0.9000771E+02  0.7816164E-02  0.1186339E+00
        -11   -1    0    0    0    0  0.00000000000E+00  0.00000000000E+00  0.45593999997E+02  0.45594000000E+02  0.51100000000E-03 0. -1.
         11   -1    0    0    0    0 -0.00000000000E+00 -0.00000000000E+00 -0.45593999997E+02  0.45594000000E+02  0.51100000000E-03 0.  1.
    9900012    2    1    2    0    0  0.55027362332E+00  0.45977932096E+00  0.93748734467E+00  0.90007711643E+02  0.89999972637E+02 0.  0.
        -12    1    1    2    0    0 -0.55027362332E+00 -0.45977932096E+00 -0.93748734467E+00  0.11802883571E+01  0.00000000000E+00 0.  1.
         11    1    3    3    0    0  0.21823475863E+01  0.11349422718E+02  0.18869996736E+01  0.11710371687E+02  0.51100000000E-03 0. -1.
        -11    1    3    3    0    0  0.37312892693E+02 -0.38521481363E+01  0.63763535792E+01  0.38049295547E+02  0.51100000000E-03 0.  1.
         12    1    3    3    0    0 -0.38944966656E+02 -0.70374952609E+01 -0.73258659081E+01  0.40248044409E+02  0.00000000000E+00 0. -1.
</event>
<event>
 7    1  0.3188334E-015  0.9000771E+02  0.7816164E-02  0.1186339E+00
        -11   -1    0    0    0    0  0.00000000000E+00  0.00000000000E+00  0.45593999997E+02  0.45594000000E+02  0.51100000000E-03 0. -1.
         11   -1    0    0    0    0 -0.00000000000E+00 -0.00000000000E+00 -0.45593999997E+02  0.45594000000E+02  0.51100000000E-03 0.  1.
    9900012    2    1    2    0    0 -0.27094361501E-01 -0.69755222760E-01  0.11779149092E+01  0.90007710447E+02  0.89999971425E+02 0.  0.
        -12    1    1    2    0    0  0.27094361501E-01  0.69755222760E-01 -0.11779149092E+01  0.11802895530E+01  0.00000000000E+00 0.  1.
         11    1    3    3    0    0 -0.18544238685E+02  0.19285700078E+02  0.28901704249E+02  0.39384457908E+02  0.51100000000E-03 0. -1.
        -11    1    3    3    0    0 -0.82146580300E+01 -0.39708639977E+01  0.41310733560E-01  0.91241478657E+01  0.51100000000E-03 0.  1.
        -12    1    3    3    0    0  0.26731802353E+02 -0.15384591303E+02 -0.27765100074E+02  0.41499104674E+02  0.00000000000E+00 0.  1.
</event>
<event>
 7    1  0.2349719E-015  0.9000773E+02  0.7816164E-02  0.1186339E+00
        -11   -1    0    0    0    0  0.00000000000E+00  0.00000000000E+00  0.45593999997E+02  0.45594000000E+02  0.51100000000E-03 0.  1.
         11   -1    0    0    0    0 -0.00000000000E+00 -0.00000000000E+00 -0.45593999997E+02  0.45594000000E+02  0.51100000000E-03 0. -1.
    9900012    2    1    2    0    0 -0.58669992403E+00  0.97000822403E+00 -0.32850254266E+00  0.90007726017E+02  0.89999987200E+02 0.  0.
        -12    1    1    2    0    0  0.58669992403E+00 -0.97000822403E+00  0.32850254266E+00  0.11802739835E+01  0.00000000000E+00 0.  1.
         11    1    3    3    0    0 -0.94594293682E+01 -0.36657871079E+01 -0.11694290691E+01  0.10212069511E+02  0.51100000000E-03 0. -1.
        -11    1    3    3    0    0  0.21622537157E+02  0.37652190226E+02 -0.57382906728E+01  0.43796683916E+02  0.51100000000E-03 0.  1.
         12    1    3    3    0    0 -0.12749807713E+02 -0.33016394894E+02  0.65792171993E+01  0.35998972589E+02  0.00000000000E+00 0. -1.
</event>
<event>
 7    1  0.2349719E-015  0.9000776E+02  0.7816164E-02  0.1186339E+00
        -11   -1    0    0    0    0  0.00000000000E+00  0.00000000000E+00  0.45593999997E+02  0.45594000000E+02  0.51100000000E-03 0.  1.
         11   -1    0    0    0    0 -0.00000000000E+00 -0.00000000000E+00 -0.45593999997E+02  0.45594000000E+02  0.51100000000E-03 0. -1.
    9900012    2    1    2    0    0 -0.11681672557E+00 -0.11520726044E+01  0.22813560064E+00  0.90007761344E+02  0.90000022994E+02 0.  0.
        -12    1    1    2    0    0  0.11681672557E+00  0.11520726044E+01 -0.22813560064E+00  0.11802386561E+01  0.00000000000E+00 0.  1.
         11    1    3    3    0    0  0.82192048095E+01  0.13789014523E+00  0.58114528991E+01  0.10067140927E+02  0.51100000000E-03 0. -1.
        -11    1    3    3    0    0  0.10197676286E+02  0.25632481991E+02  0.23462319131E+02  0.36214598630E+02  0.51100000000E-03 0.  1.
         12    1    3    3    0    0 -0.18533697821E+02 -0.26922444740E+02 -0.29045636429E+02  0.43726021787E+02  0.00000000000E+00 0. -1.
</event>
<event>
 7    1  0.2349719E-015  0.9000821E+02  0.7816164E-02  0.1186338E+00
        -11   -1    0    0    0    0  0.00000000000E+00  0.00000000000E+00  0.45593999997E+02  0.45594000000E+02  0.51100000000E-03 0.  1.
         11   -1    0    0    0    0 -0.00000000000E+00 -0.00000000000E+00 -0.45593999997E+02  0.45594000000E+02  0.51100000000E-03 0. -1.
    9900012    2    1    2    0    0 -0.58985249402E+00 -0.63129362272E+00 -0.80339975397E+00  0.90008208168E+02  0.90000475714E+02 0.  0.
        -12    1    1    2    0    0  0.58985249402E+00  0.63129362272E+00  0.80339975397E+00  0.11797918323E+01  0.00000000000E+00 0.  1.
         11    1    3    3    0    0 -0.57557679162E+01  0.71181216926E+01  0.38062297036E+01  0.99138239622E+01  0.51100000000E-03 0. -1.
        -11    1    3    3    0    0  0.87642937323E+01  0.15931063644E+01  0.36609078621E+02  0.37677254017E+02  0.51100000000E-03 0.  1.
         12    1    3    3    0    0 -0.35983783101E+01 -0.93425216797E+01 -0.41218708078E+02  0.42417130189E+02  0.00000000000E+00 0. -1.
</event>
<event>
 7    1  0.2349719E-015  0.9000790E+02  0.7816164E-02  0.1186339E+00
        -11   -1    0    0    0    0  0.00000000000E+00  0.00000000000E+00  0.45593999997E+02  0.45594000000E+02  0.51100000000E-03 0.  1.
         11   -1    0    0    0    0 -0.00000000000E+00 -0.00000000000E+00 -0.45593999997E+02  0.45594000000E+02  0.51100000000E-03 0. -1.
    9900012    2    1    2    0    0  0.66730407370E+00 -0.67622269277E+00 -0.70004814139E+00  0.90007898624E+02  0.90000162086E+02 0.  0.
        -12    1    1    2    0    0 -0.66730407370E+00  0.67622269277E+00  0.70004814139E+00  0.11801013758E+01  0.00000000000E+00 0.  1.
         11    1    3    3    0    0  0.88981732038E+01 -0.36472949098E+01 -0.73235245565E+01  0.12087773108E+02  0.51100000000E-03 0. -1.
        -11    1    3    3    0    0  0.75216857590E+01  0.38840240577E+01  0.40061491378E+02  0.40946116925E+02  0.51100000000E-03 0.  1.
         12    1    3    3    0    0 -0.15752554889E+02 -0.91295184060E+00 -0.33438014963E+02  0.36974008591E+02  0.00000000000E+00 0. -1.
</event>
<event>
 7    1  0.2349719E-015  0.9000785E+02  0.7816164E-02  0.1186339E+00
        -11   -1    0    0    0    0  0.00000000000E+00  0.00000000000E+00  0.45593999997E+02  0.45594000000E+02  0.51100000000E-03 0. -1.
         11   -1    0    0    0    0 -0.00000000000E+00 -0.00000000000E+00 -0.45593999997E+02  0.45594000000E+02  0.51100000000E-03 0.  1.
    9900012    2    1    2    0    0  0.22105274536E+00  0.95031596961E+00  0.66392474912E+00  0.90007847115E+02  0.90000109897E+02 0.  0.
        -12    1    1    2    0    0 -0.22105274536E+00 -0.95031596961E+00 -0.66392474912E+00  0.11801528845E+01  0.00000000000E+00 0.  1.
         11    1    3    3    0    0  0.41561210485E+01 -0.30041831544E+01  0.74425184266E+01  0.90382265620E+01  0.51100000000E-03 0. -1.
        -11    1    3    3    0    0  0.31315600526E+02 -0.36769689758E+01 -0.25298612688E+02  0.40425323021E+02  0.51100000000E-03 0.  1.
         12    1    3    3    0    0 -0.35250668829E+02  0.76314680999E+01  0.18520019011E+02  0.40544297533E+02  0.00000000000E+00 0. -1.
</event>
<event>
 7    1  0.2349719E-015  0.9000776E+02  0.7816164E-02  0.1186339E+00
        -11   -1    0    0    0    0  0.00000000000E+00  0.00000000000E+00  0.45593999997E+02  0.45594000000E+02  0.51100000000E-03 0. -1.
         11   -1    0    0    0    0 -0.00000000000E+00 -0.00000000000E+00 -0.45593999997E+02  0.45594000000E+02  0.51100000000E-03 0.  1.
    9900012    2    1    2    0    0  0.89175870905E+00 -0.67715528883E+00  0.37308519783E+00  0.90007760429E+02  0.90000022067E+02 0.  0.
        -12    1    1    2    0    0 -0.89175870905E+00  0.67715528883E+00 -0.37308519783E+00  0.11802395711E+01  0.00000000000E+00 0.  1.
         11    1    3    3    0    0 -0.20384565801E+02 -0.24419754259E+02 -0.98164144408E+01  0.33289892065E+02  0.51100000000E-03 0. -1.
        -11    1    3    3    0    0  0.85414413308E+01  0.77317869585E+00 -0.16922022208E+02  0.18971264090E+02  0.51100000000E-03 0.  1.
        -12    1    3    3    0    0  0.12734883179E+02  0.22969420275E+02  0.27111521847E+02  0.37746604274E+02  0.00000000000E+00 0.  1.
</event>
<event>
 7    1  0.2349719E-015  0.9000776E+02  0.7816164E-02  0.1186339E+00
        -11   -1    0    0    0    0  0.00000000000E+00  0.00000000000E+00  0.45593999997E+02  0.45594000000E+02  0.51100000000E-03 0. -1.
         11   -1    0    0    0    0 -0.00000000000E+00 -0.00000000000E+00 -0.45593999997E+02  0.45594000000E+02  0.51100000000E-03 0.  1.
    9900012    2    1    2    0    0 -0.71233940914E-01  0.97516426946E+00 -0.66101884076E+00  0.90007760391E+02  0.90000022028E+02 0.  0.
        -12    1    1    2    0    0  0.71233940914E-01 -0.97516426946E+00  0.66101884076E+00  0.11802396090E+01  0.00000000000E+00 0.  1.
         11    1    3    3    0    0  0.36783273355E+01 -0.34780621766E+01 -0.63550836075E+01  0.81249059324E+01  0.51100000000E-03 0. -1.
        -11    1    3    3    0    0  0.27928792617E+02  0.23565421220E+01 -0.25121874332E+02  0.37638800699E+02  0.51100000000E-03 0.  1.
         12    1    3    3    0    0 -0.31678353893E+02  0.20966843240E+01  0.30815939099E+02  0.44244053760E+02  0.00000000000E+00 0. -1.
</event>
<event>
 7    1  0.2349719E-015  0.9000777E+02  0.7816164E-02  0.1186339E+00
        -11   -1    0    0    0    0  0.00000000000E+00  0.00000000000E+00  0.45593999997E+02  0.45594000000E+02  0.51100000000E-03 0.  1.
         11   -1    0    0    0    0 -0.00000000000E+00 -0.00000000000E+00 -0.45593999997E+02  0.45594000000E+02  0.51100000000E-03 0. -1.
    9900012    2    1    2    0    0  0.99188835857E+00 -0.54334508128E+00 -0.33746730547E+00  0.90007766728E+02  0.90000028449E+02 0.  0.
        -12    1    1    2    0    0 -0.99188835857E+00  0.54334508128E+00  0.33746730547E+00  0.11802332716E+01  0.00000000000E+00 0.  1.
         11    1    3    3    0    0  0.14423999802E+02  0.19245391321E+02 -0.31175306238E+02  0.39374313666E+02  0.51100000000E-03 0. -1.
        -11    1    3    3    0    0  0.35226469117E+01 -0.56708446525E+01 -0.51427325633E+01  0.84270527954E+01  0.51100000000E-03 0.  1.
        -12    1    3    3    0    0 -0.16954758355E+02 -0.14117891749E+02  0.35980571496E+02  0.42206400267E+02  0.00000000000E+00 0.  1.
</event>
<event>
 7    1  0.2349719E-015  0.9000778E+02  0.7816164E-02  0.1186339E+00
        -11   -1    0    0    0    0  0.00000000000E+00  0.00000000000E+00  0.45593999997E+02  0.45594000000E+02  0.51100000000E-03 0. -1.
         11   -1    0    0    0    0 -0.00000000000E+00 -0.00000000000E+00 -0.45593999997E+02  0.45594000000E+02  0.51100000000E-03 0.  1.
    9900012    2    1    2    0    0 -0.95032004812E+00  0.42770360277E+00  0.55397833943E+00  0.90007775205E+02  0.90000037038E+02 0.  0.
        -12    1    1    2    0    0  0.95032004812E+00 -0.42770360277E+00 -0.55397833943E+00  0.11802247948E+01  0.00000000000E+00 0.  1.
         11    1    3    3    0    0 -0.67690846125E+01 -0.60008566325E+01  0.15594265809E+01  0.91794661248E+01  0.51100000000E-03 0. -1.
        -11    1    3    3    0    0  0.15904880280E+01 -0.14981134677E+02 -0.36316757141E+02  0.39317564750E+02  0.51100000000E-03 0.  1.
         12    1    3    3    0    0  0.42282765363E+01  0.21409694913E+02  0.35311308899E+02  0.41510744331E+02  0.00000000000E+00 0. -1.
</event>
<event>
 7    1  0.2349719E-015  0.9000768E+02  0.7816164E-02  0.1186339E+00
        -11   -1    0    0    0    0  0.00000000000E+00  0.00000000000E+00  0.45593999997E+02  0.45594000000E+02  0.51100000000E-03 0. -1.
         11   -1    0    0    0    0 -0.00000000000E+00 -0.00000000000E+00 -0.45593999997E+02  0.45594000000E+02  0.51100000000E-03 0.  1.
    9900012    2    1    2    0    0  0.53794756128E+00 -0.53169004892E+00  0.90612760137E+00  0.90007682620E+02  0.89999943231E+02 0.  0.
        -12    1    1    2    0    0 -0.53794756128E+00  0.53169004892E+00 -0.90612760137E+00  0.11803173797E+01  0.00000000000E+00 0.  1.
         11    1    3    3    0    0  0.22002140636E+01  0.10855755626E+02  0.31442395457E+01  0.11514105033E+02  0.51100000000E-03 0. -1.
        -11    1    3    3    0    0 -0.28295536185E+02  0.99137262918E+01 -0.23683253946E+02  0.38207536622E+02  0.51100000000E-03 0.  1.
         12    1    3    3    0    0  0.26633269683E+02 -0.21301171966E+02  0.21445142002E+02  0.40286040965E+02  0.00000000000E+00 0. -1.
</event>
<event>
 7    1  0.2349719E-015  0.9000781E+02  0.7816164E-02  0.1186339E+00
        -11   -1    0    0    0    0  0.00000000000E+00  0.00000000000E+00  0.45593999997E+02  0.45594000000E+02  0.51100000000E-03 0. -1.
         11   -1    0    0    0    0 -0.00000000000E+00 -0.00000000000E+00 -0.45593999997E+02  0.45594000000E+02  0.51100000000E-03 0.  1.
    9900012    2    1    2    0    0 -0.73085833308E+00 -0.17400104942E+00  0.91018050438E+00  0.90007805601E+02  0.90000067835E+02 0.  0.
        -12    1    1    2    0    0  0.73085833308E+00  0.17400104942E+00 -0.91018050438E+00  0.11801943987E+01  0.00000000000E+00 0.  1.
         11    1    3    3    0    0  0.18065655269E+02  0.36208173939E+02  0.60548312070E+01  0.40915287381E+02  0.51100000000E-03 0. -1.
        -11    1    3    3    0    0 -0.78024985533E+01  0.26541703490E+01 -0.27407570231E+00  0.82461337405E+01  0.51100000000E-03 0.  1.
        -12    1    3    3    0    0 -0.10994015049E+02 -0.39036345337E+02 -0.48705750003E+01  0.40846384479E+02  0.00000000000E+00 0.  1.
</event>
<event>
 7    1  0.2349719E-015  0.9000769E+02  0.7816164E-02  0.1186339E+00
        -11   -1    0    0    0    0  0.00000000000E+00  0.00000000000E+00  0.45593999997E+02  0.45594000000E+02  0.51100000000E-03 0.  1.
         11   -1    0    0    0    0 -0.00000000000E+00 -0.00000000000E+00 -0.45593999997E+02  0.45594000000E+02  0.51100000000E-03 0. -1.
    9900012    2    1    2    0    0 -0.99603658250E+00 -0.60319213987E+00 -0.19286216618E+00  0.90007692647E+02  0.89999953390E+02 0.  0.
        -12    1    1    2    0    0  0.99603658250E+00  0.60319213987E+00  0.19286216618E+00  0.11803073525E+01  0.00000000000E+00 0.  1.
         11    1    3    3    0    0  0.14548263301E+02  0.17357231310E+02  0.12528099608E+02  0.25882015452E+02  0.51100000000E-03 0. -1.
        -11    1    3    3    0    0 -0.17504048995E+02  0.16166064974E+02  0.67781408653E+01  0.24772496479E+02  0.51100000000E-03 0.  1.
         12    1    3    3    0    0  0.19597491118E+01 -0.34126488423E+02 -0.19499102640E+02  0.39353180716E+02  0.00000000000E+00 0. -1.
</event>
<event>
 7    1  0.2349719E-015  0.9000759E+02  0.7816164E-02  0.1186339E+00
        -11   -1    0    0    0    0  0.00000000000E+00  0.00000000000E+00  0.45593999997E+02  0.45594000000E+02  0.51100000000E-03 0. -1.
         11   -1    0    0    0    0 -0.00000000000E+00 -0.00000000000E+00 -0.45593999997E+02  0.45594000000E+02  0.51100000000E-03 0.  1.
    9900012    2    1    2    0    0  0.30177654865E-01  0.34783053516E-01  0.11795087256E+01  0.90007592704E+02  0.89999852127E+02 0.  0.
        -12    1    1    2    0    0 -0.30177654865E-01 -0.34783053516E-01 -0.11795087256E+01  0.11804072965E+01  0.00000000000E+00 0.  1.
         11    1    3    3    0    0 -0.28627256854E+02  0.48582091278E+01 -0.17811250943E+02  0.34064096808E+02  0.51100000000E-03 0. -1.
        -11    1    3    3    0    0 -0.88328578470E+01 -0.16829979292E+01 -0.59712724618E+01  0.10793885067E+02  0.51100000000E-03 0.  1.
        -12    1    3    3    0    0  0.37490292356E+02 -0.31404281452E+01  0.24962032131E+02  0.45149610828E+02  0.00000000000E+00 0.  1.
</event>
<event>
 7    1  0.2349719E-015  0.9000785E+02  0.7816164E-02  0.1186339E+00
        -11   -1    0    0    0    0  0.00000000000E+00  0.00000000000E+00  0.45593999997E+02  0.45594000000E+02  0.51100000000E-03 0. -1.
         11   -1    0    0    0    0 -0.00000000000E+00 -0.00000000000E+00 -0.45593999997E+02  0.45594000000E+02  0.51100000000E-03 0.  1.
    9900012    2    1    2    0    0 -0.14242909268E+00 -0.32335572840E+00  0.11260135647E+01  0.90007851060E+02  0.90000113894E+02 0.  0.
        -12    1    1    2    0    0  0.14242909268E+00  0.32335572840E+00 -0.11260135647E+01  0.11801489404E+01  0.00000000000E+00 0.  1.
         11    1    3    3    0    0  0.37316645512E+01  0.24524763500E+01 -0.66377312911E+01  0.79999648452E+01  0.51100000000E-03 0. -1.
        -11    1    3    3    0    0 -0.16573125537E+02 -0.30095385845E+02 -0.21072714846E+02  0.40304590935E+02  0.51100000000E-03 0.  1.
         12    1    3    3    0    0  0.12699031893E+02  0.27319553766E+02  0.28836459702E+02  0.41703295279E+02  0.00000000000E+00 0. -1.
</event>
<event>
 7    1  0.2349719E-015  0.9000775E+02  0.7816164E-02  0.1186339E+00
        -11   -1    0    0    0    0  0.00000000000E+00  0.00000000000E+00  0.45593999997E+02  0.45594000000E+02  0.51100000000E-03 0.  1.
         11   -1    0    0    0    0 -0.00000000000E+00 -0.00000000000E+00 -0.45593999997E+02  0.45594000000E+02  0.51100000000E-03 0. -1.
    9900012    2    1    2    0    0  0.72561234496E+00 -0.91280813253E+00 -0.18235458387E+00  0.90007752078E+02  0.90000013606E+02 0.  0.
        -12    1    1    2    0    0 -0.72561234496E+00  0.91280813253E+00  0.18235458387E+00  0.11802479215E+01  0.00000000000E+00 0.  1.
         11    1    3    3    0    0 -0.10221814607E+02  0.34263404049E+02  0.22667960159E+02  0.42335596948E+02  0.51100000000E-03 0. -1.
        -11    1    3    3    0    0  0.33530960363E+01 -0.26981008682E+00 -0.85593829194E+01  0.91966889005E+01  0.51100000000E-03 0.  1.
        -12    1    3    3    0    0  0.75943309156E+01 -0.34906402095E+02 -0.14290931824E+02  0.38475466230E+02  0.00000000000E+00 0.  1.
</event>
<event>
 7    1  0.2349719E-015  0.9000772E+02  0.7816164E-02  0.1186339E+00
        -11   -1    0    0    0    0  0.00000000000E+00  0.00000000000E+00  0.45593999997E+02  0.45594000000E+02  0.51100000000E-03 0.  1.
         11   -1    0    0    0    0 -0.00000000000E+00 -0.00000000000E+00 -0.45593999997E+02  0.45594000000E+02  0.51100000000E-03 0. -1.
    9900012    2    1    2    0    0  0.75043036911E+00  0.76165257327E+00 -0.49980008158E+00  0.90007720159E+02  0.89999981265E+02 0.  0.
        -12    1    1    2    0    0 -0.75043036911E+00 -0.76165257327E+00  0.49980008158E+00  0.11802798409E+01  0.00000000000E+00 0.  1.
         11    1    3    3    0    0 -0.26665504777E+02  0.93752163683E+01  0.17681268459E+02  0.33340232176E+02  0.51100000000E-03 0. -1.
        -11    1    3    3    0    0 -0.10453843355E+02  0.71227538006E+01 -0.48134035611E+01  0.13534597027E+02  0.51100000000E-03 0.  1.
        -12    1    3    3    0    0  0.37869778501E+02 -0.15736317596E+02 -0.13367664979E+02  0.43132890956E+02  0.00000000000E+00 0.  1.
</event>
<event>
 7    1  0.2349719E-015  0.9000773E+02  0.7816164E-02  0.1186339E+00
        -11   -1    0    0    0    0  0.00000000000E+00  0.00000000000E+00  0.45593999997E+02  0.45594000000E+02  0.51100000000E-03 0. -1.
         11   -1    0    0    0    0 -0.00000000000E+00 -0.00000000000E+00 -0.45593999997E+02  0.45594000000E+02  0.51100000000E-03 0.  1.
    9900012    2    1    2    0    0 -0.46992460896E+00  0.57327212630E+00  0.91846138312E+00  0.90007728260E+02  0.89999989473E+02 0.  0.
        -12    1    1    2    0    0  0.46992460896E+00 -0.57327212630E+00 -0.91846138312E+00  0.11802717404E+01  0.00000000000E+00 0.  1.
         11    1    3    3    0    0 -0.47980324229E+00 -0.87740388793E+01  0.40648848122E+01  0.96818003596E+01  0.51100000000E-03 0. -1.
        -11    1    3    3    0    0 -0.32292755891E+02 -0.18649203465E+02 -0.44768079836E+01  0.37558709814E+02  0.51100000000E-03 0.  1.
         12    1    3    3    0    0  0.32302634524E+02  0.27996514471E+02  0.13303845545E+01  0.42767218086E+02  0.00000000000E+00 0. -1.
</event>
<event>
 7    1  0.2349719E-015  0.9000771E+02  0.7816164E-02  0.1186339E+00
        -11   -1    0    0    0    0  0.00000000000E+00  0.00000000000E+00  0.45593999997E+02  0.45594000000E+02  0.51100000000E-03 0.  1.
         11   -1    0    0    0    0 -0.00000000000E+00 -0.00000000000E+00 -0.45593999997E+02  0.45594000000E+02  0.51100000000E-03 0. -1.
    9900012    2    1    2    0    0 -0.45011869751E+00 -0.75278078923E+00 -0.78980968636E+00  0.90007709739E+02  0.89999970708E+02 0.  0.
        -12    1    1    2    0    0  0.45011869751E+00  0.75278078923E+00  0.78980968636E+00  0.11802902605E+01  0.00000000000E+00 0.  1.
         11    1    3    3    0    0 -0.74108802291E+01 -0.40279509136E+01 -0.31937907284E+01  0.90191925254E+01  0.51100000000E-03 0. -1.
        -11    1    3    3    0    0  0.12100115020E+02 -0.20304311569E+02  0.33889563571E+02  0.41318039294E+02  0.51100000000E-03 0.  1.
         12    1    3    3    0    0 -0.51393534886E+01  0.23579481694E+02 -0.31485582529E+02  0.39670477920E+02  0.00000000000E+00 0. -1.
</event>
<event>
 7    1  0.2349719E-015  0.9000788E+02  0.7816164E-02  0.1186339E+00
        -11   -1    0    0    0    0  0.00000000000E+00  0.00000000000E+00  0.45593999997E+02  0.45594000000E+02  0.51100000000E-03 0. -1.
         11   -1    0    0    0    0 -0.00000000000E+00 -0.00000000000E+00 -0.45593999997E+02  0.45594000000E+02  0.51100000000E-03 0.  1.
    9900012    2    1    2    0    0 -0.23496732857E+00 -0.55238361452E+00  0.10160473631E+01  0.90007877317E+02  0.90000140497E+02 0.  0.
        -12    1    1    2    0    0  0.23496732857E+00  0.55238361452E+00 -0.10160473631E+01  0.11801226831E+01  0.00000000000E+00 0.  1.
         11    1    3    3    0    0  0.17779044298E+02  0.20482014041E+02  0.22226422306E+02  0.35065954488E+02  0.51100000000E-03 0. -1.
        -11    1    3    3    0    0  0.12738605267E+02  0.33361559570E+00 -0.88208635792E+01  0.15498096595E+02  0.51100000000E-03 0.  1.
        -12    1    3    3    0    0 -0.30752616894E+02 -0.21368013251E+02 -0.12389511364E+02  0.39443826234E+02  0.00000000000E+00 0.  1.
</event>
<event>
 7    1  0.2349719E-015  0.9000772E+02  0.7816164E-02  0.1186339E+00
        -11   -1    0    0    0    0  0.00000000000E+00  0.00000000000E+00  0.45593999997E+02  0.45594000000E+02  0.51100000000E-03 0. -1.
         11   -1    0    0    0    0 -0.00000000000E+00 -0.00000000000E+00 -0.45593999997E+02  0.45594000000E+02  0.51100000000E-03 0.  1.
    9900012    2    1    2    0    0 -0.31310468498E+00 -0.59823861711E-01  0.11364135477E+01  0.90007724952E+02  0.89999986121E+02 0.  0.
        -12    1    1    2    0    0  0.31310468498E+00  0.59823861711E-01 -0.11364135477E+01  0.11802750483E+01  0.00000000000E+00 0.  1.
         11    1    3    3    0    0  0.65207777389E+01 -0.11377248591E+02 -0.22192070746E+02  0.25776934109E+02  0.51100000000E-03 0. -1.
        -11    1    3    3    0    0 -0.23461584933E+01 -0.23165540675E+02  0.18474705538E+01  0.23357223340E+02  0.51100000000E-03 0.  1.
         12    1    3    3    0    0 -0.44877239306E+01  0.34482965404E+02  0.21481013740E+02  0.40873567503E+02  0.00000000000E+00 0. -1.
</event>
<event>
 7    1  0.2349719E-015  0.9000768E+02  0.7816164E-02  0.1186339E+00
        -11   -1    0    0    0    0  0.00000000000E+00  0.00000000000E+00  0.45593999997E+02  0.45594000000E+02  0.51100000000E-03 0.  1.
         11   -1    0    0    0    0 -0.00000000000E+00 -0.00000000000E+00 -0.45593999997E+02  0.45594000000E+02  0.51100000000E-03 0. -1.
    9900012    2    1    2    0    0 -0.70400182832E+00  0.64616244808E+00 -0.69282641756E+00  0.90007681006E+02  0.89999941595E+02 0.  0.
        -12    1    1    2    0    0  0.70400182832E+00 -0.64616244808E+00  0.69282641756E+00  0.11803189944E+01  0.00000000000E+00 0.  1.
         11    1    3    3    0    0  0.27444387757E+02 -0.88157725292E+01  0.23882790686E+02  0.37433941228E+02  0.51100000000E-03 0. -1.
        -11    1    3    3    0    0  0.45359812768E+01 -0.69322826262E+01  0.39758063914E+00  0.82939579923E+01  0.51100000000E-03 0.  1.
        -12    1    3    3    0    0 -0.32684370862E+02  0.16394217603E+02 -0.24973197742E+02  0.44279781786E+02  0.00000000000E+00 0.  1.
</event>
<event>
 7    1  0.2349719E-015  0.9000773E+02  0.7816164E-02  0.1186339E+00
        -11   -1    0    0    0    0  0.00000000000E+00  0.00000000000E+00  0.45593999997E+02  0.45594000000E+02  0.51100000000E-03 0. -1.
         11   -1    0    0    0    0 -0.00000000000E+00 -0.00000000000E+00 -0.45593999997E+02  0.45594000000E+02  0.51100000000E-03 0.  1.
    9900012    2    1    2    0    0 -0.98022292631E+00 -0.19596325907E+00  0.62753347640E+00  0.90007730180E+02  0.89999991418E+02 0.  0.
        -12    1    1    2    0    0  0.98022292631E+00  0.19596325907E+00 -0.62753347640E+00  0.11802698201E+01  0.00000000000E+00 0.  1.
         11    1    3    3    0    0  0.16577859733E+02  0.16845225917E+02  0.30062075809E+02  0.38240233678E+02  0.51100000000E-03 0. -1.
        -11    1    3    3    0    0 -0.10061295410E+02 -0.59710153381E+01  0.65297271803E+01  0.13398508380E+02  0.51100000000E-03 0.  1.
        -12    1    3    3    0    0 -0.74967872500E+01 -0.11070173838E+02 -0.35964269513E+02  0.38368988122E+02  0.00000000000E+00 0.  1.
</event>
<event>
 7    1  0.2349719E-015  0.9000799E+02  0.7816164E-02  0.1186339E+00
        -11   -1    0    0    0    0  0.00000000000E+00  0.00000000000E+00  0.45593999997E+02  0.45594000000E+02  0.51100000000E-03 0.  1.
         11   -1    0    0    0    0 -0.00000000000E+00 -0.00000000000E+00 -0.45593999997E+02  0.45594000000E+02  0.51100000000E-03 0. -1.
    9900012    2    1    2    0    0  0.99808275207E+00  0.62843792881E+00  0.36334164811E-01  0.90007990008E+02  0.90000254675E+02 0.  0.
        -12    1    1    2    0    0 -0.99808275207E+00 -0.62843792881E+00 -0.36334164811E-01  0.11800099923E+01  0.00000000000E+00 0.  1.
         11    1    3    3    0    0 -0.31138767200E+02  0.17848328730E+02 -0.79942634390E+01  0.36770829599E+02  0.51100000000E-03 0. -1.
        -11    1    3    3    0    0 -0.51499394864E+01  0.62028995020E+01 -0.14585763221E+01  0.81930021417E+01  0.51100000000E-03 0.  1.
        -12    1    3    3    0    0  0.37286789438E+02 -0.23422790304E+02  0.94891739258E+01  0.45044158267E+02  0.00000000000E+00 0.  1.
</event>
<event>
 7    1  0.2349719E-015  0.9000785E+02  0.7816164E-02  0.1186339E+00
        -11   -1    0    0    0    0  0.00000000000E+00  0.00000000000E+00  0.45593999997E+02  0.45594000000E+02  0.51100000000E-03 0. -1.
         11   -1    0    0    0    0 -0.00000000000E+00 -0.00000000000E+00 -0.45593999997E+02  0.45594000000E+02  0.51100000000E-03 0.  1.
    9900012    2    1    2    0    0  0.13277745308E+00  0.18423959080E+00  0.11580972202E+01  0.90007846090E+02  0.90000108859E+02 0.  0.
        -12    1    1    2    0    0 -0.13277745308E+00 -0.18423959080E+00 -0.11580972202E+01  0.11801539096E+01  0.00000000000E+00 0.  1.
         11    1    3    3    0    0 -0.88007251509E+01  0.25601876844E+01  0.30007361105E+01  0.96442595168E+01  0.51100000000E-03 0. -1.
        -11    1    3    3    0    0 -0.29552299637E+01 -0.61456410065E+01 -0.39815351983E+02  0.40395105413E+02  0.51100000000E-03 0.  1.
         12    1    3    3    0    0  0.11888732568E+02  0.37696929129E+01  0.37972713092E+02  0.39968481161E+02  0.00000000000E+00 0. -1.
</event>
<event>
 7    1  0.2349719E-015  0.9000771E+02  0.7816164E-02  0.1186339E+00
        -11   -1    0    0    0    0  0.00000000000E+00  0.00000000000E+00  0.45593999997E+02  0.45594000000E+02  0.51100000000E-03 0.  1.
         11   -1    0    0    0    0 -0.00000000000E+00 -0.00000000000E+00 -0.45593999997E+02  0.45594000000E+02  0.51100000000E-03 0. -1.
    9900012    2    1    2    0    0 -0.40531727937E+00  0.10984561588E+01 -0.14900549960E+00  0.90007707380E+02  0.89999968317E+02 0.  0.
        -12    1    1    2    0    0  0.40531727937E+00 -0.10984561588E+01  0.14900549960E+00  0.11802926200E+01  0.00000000000E+00 0.  1.
         11    1    3    3    0    0  0.10810521694E+02 -0.98427828855E+01 -0.26111521757E+02  0.29925897195E+02  0.51100000000E-03 0. -1.
        -11    1    3    3    0    0  0.71107430473E+01 -0.72343514274E+01 -0.11023108389E+02  0.14980234513E+02  0.51100000000E-03 0.  1.
        -12    1    3    3    0    0 -0.18326582021E+02  0.18175590472E+02  0.36985624646E+02  0.45101575671E+02  0.00000000000E+00 0.  1.
</event>
<event>
 7    1  0.2349719E-015  0.9000774E+02  0.7816164E-02  0.1186339E+00
        -11   -1    0    0    0    0  0.00000000000E+00  0.00000000000E+00  0.45593999997E+02  0.45594000000E+02  0.51100000000E-03 0. -1.
         11   -1    0    0    0    0 -0.00000000000E+00 -0.00000000000E+00 -0.45593999997E+02  0.45594000000E+02  0.51100000000E-03 0.  1.
    9900012    2    1    2    0    0 -0.38397011520E+00  0.11155905462E+01 -0.32389185461E-01  0.90007735464E+02  0.89999996772E+02 0.  0.
        -12    1    1    2    0    0  0.38397011520E+00 -0.11155905462E+01  0.32389185461E-01  0.11802645363E+01  0.00000000000E+00 0.  1.
         11    1    3    3    0    0 -0.38276180121E+01 -0.43617128986E+01 -0.77974600094E+01  0.97198550358E+01  0.51100000000E-03 0. -1.
        -11    1    3    3    0    0 -0.48681642453E+01 -0.10647698836E+02 -0.33351667174E+02  0.35346940704E+02  0.51100000000E-03 0.  1.
         12    1    3    3    0    0  0.83118121422E+01  0.16125002281E+02  0.41116737998E+02  0.44940939724E+02  0.00000000000E+00 0. -1.
</event>
<event>
 7    1  0.2349719E-015  0.9000784E+02  0.7816164E-02  0.1186339E+00
        -11   -1    0    0    0    0  0.00000000000E+00  0.00000000000E+00  0.45593999997E+02  0.45594000000E+02  0.51100000000E-03 0. -1.
         11   -1    0    0    0    0 -0.00000000000E+00 -0.00000000000E+00 -0.45593999997E+02  0.45594000000E+02  0.51100000000E-03 0.  1.
    9900012    2    1    2    0    0  0.10822311710E+01 -0.44193424450E+00 -0.16204017274E+00  0.90007835943E+02  0.90000098577E+02 0.  0.
        -12    1    1    2    0    0 -0.10822311710E+01  0.44193424450E+00  0.16204017274E+00  0.11801640570E+01  0.00000000000E+00 0.  1.
         11    1    3    3    0    0 -0.13350778609E+01  0.45391680360E+01 -0.94563599011E+01  0.10573987999E+02  0.51100000000E-03 0. -1.
        -11    1    3    3    0    0  0.61088225001E+01  0.25996041090E+02 -0.22478912499E+02  0.34905778491E+02  0.51100000000E-03 0.  1.
         12    1    3    3    0    0 -0.36915134682E+01 -0.30977143370E+02  0.31773232227E+02  0.44528069453E+02  0.00000000000E+00 0. -1.
</event>
<event>
 7    1  0.2349719E-015  0.9000779E+02  0.7816164E-02  0.1186339E+00
        -11   -1    0    0    0    0  0.00000000000E+00  0.00000000000E+00  0.45593999997E+02  0.45594000000E+02  0.51100000000E-03 0.  1.
         11   -1    0    0    0    0 -0.00000000000E+00 -0.00000000000E+00 -0.45593999997E+02  0.45594000000E+02  0.51100000000E-03 0. -1.
    9900012    2    1    2    0    0  0.59507410806E+00  0.46643041639E+00 -0.90621229590E+00  0.90007791860E+02  0.90000053913E+02 0.  0.
        -12    1    1    2    0    0 -0.59507410806E+00 -0.46643041639E+00  0.90621229590E+00  0.11802081396E+01  0.00000000000E+00 0.  1.
         11    1    3    3    0    0  0.96021421881E+01 -0.27249024165E+02  0.27110757662E+01  0.29018276734E+02  0.51100000000E-03 0. -1.
        -11    1    3    3    0    0 -0.17870200608E+02 -0.65002333357E+00  0.17116450308E+02  0.24753574924E+02  0.51100000000E-03 0.  1.
         12    1    3    3    0    0  0.88631325281E+01  0.28365477915E+02 -0.20733738370E+02  0.36235940202E+02  0.00000000000E+00 0. -1.
</event>
<event>
 7    1  0.2349719E-015  0.9000760E+02  0.7816164E-02  0.1186339E+00
        -11   -1    0    0    0    0  0.00000000000E+00  0.00000000000E+00  0.45593999997E+02  0.45594000000E+02  0.51100000000E-03 0.  1.
         11   -1    0    0    0    0 -0.00000000000E+00 -0.00000000000E+00 -0.45593999997E+02  0.45594000000E+02  0.51100000000E-03 0. -1.
    9900012    2    1    2    0    0 -0.56438677605E+00  0.10023705293E+01  0.26468329860E+00  0.90007603304E+02  0.89999862868E+02 0.  0.
        -12    1    1    2    0    0  0.56438677605E+00 -0.10023705293E+01 -0.26468329860E+00  0.11803966958E+01  0.00000000000E+00 0.  1.
         11    1    3    3    0    0 -0.12606308120E+02 -0.30891202510E+02 -0.20936915161E+02  0.39389590169E+02  0.51100000000E-03 0. -1.
        -11    1    3    3    0    0 -0.84992415599E+01  0.32196455088E+01 -0.67283607704E+00  0.91135027812E+01  0.51100000000E-03 0.  1.
        -12    1    3    3    0    0  0.20541162904E+02  0.28673927531E+02  0.21874434536E+02  0.41504510354E+02  0.00000000000E+00 0.  1.
</event>
<event>
 7    1  0.2349719E-015  0.9000789E+02  0.7816164E-02  0.1186339E+00
        -11   -1    0    0    0    0  0.00000000000E+00  0.00000000000E+00  0.45593999997E+02  0.45594000000E+02  0.51100000000E-03 0.  1.
         11   -1    0    0    0    0 -0.00000000000E+00 -0.00000000000E+00 -0.45593999997E+02  0.45594000000E+02  0.51100000000E-03 0. -1.
    9900012    2    1    2    0    0  0.10445054484E+00 -0.30753806766E+00 -0.11345403109E+01  0.90007885049E+02  0.90000148332E+02 0.  0.
        -12    1    1    2    0    0 -0.10445054484E+00  0.30753806766E+00  0.11345403109E+01  0.11801149505E+01  0.00000000000E+00 0.  1.
         11    1    3    3    0    0  0.33042461106E+02 -0.51318147145E+01 -0.69499312084E+01  0.34153203397E+02  0.51100000000E-03 0. -1.
        -11    1    3    3    0    0  0.95034617872E+01 -0.59529238537E+01 -0.19522534127E+01  0.11382635108E+02  0.51100000000E-03 0.  1.
        -12    1    3    3    0    0 -0.42441472349E+02  0.10777200500E+02  0.77676443102E+01  0.44472046545E+02  0.00000000000E+00 0.  1.
</event>
<event>
 7    1  0.2349719E-015  0.9000766E+02  0.7816164E-02  0.1186339E+00
        -11   -1    0    0    0    0  0.00000000000E+00  0.00000000000E+00  0.45593999997E+02  0.45594000000E+02  0.51100000000E-03 0.  1.
         11   -1    0    0    0    0 -0.00000000000E+00 -0.00000000000E+00 -0.45593999997E+02  0.45594000000E+02  0.51100000000E-03 0. -1.
    9900012    2    1    2    0    0  0.50331058341E+00 -0.74900117303E+00 -0.76083739823E+00  0.90007661978E+02  0.89999922316E+02 0.  0.
        -12    1    1    2    0    0 -0.50331058341E+00  0.74900117303E+00  0.76083739823E+00  0.11803380224E+01  0.00000000000E+00 0.  1.
         11    1    3    3    0    0  0.76828046042E+01  0.19223154276E+01 -0.66477781296E+00  0.79474972784E+01  0.51100000000E-03 0. -1.
        -11    1    3    3    0    0  0.24058875361E+02  0.43765162855E+01  0.29594634493E+02  0.38390438516E+02  0.51100000000E-03 0.  1.
         12    1    3    3    0    0 -0.31238369382E+02 -0.70478328861E+01 -0.29690694078E+02  0.43669726183E+02  0.00000000000E+00 0. -1.
</event>
<event>
 7    1  0.2349719E-015  0.9000802E+02  0.7816164E-02  0.1186338E+00
        -11   -1    0    0    0    0  0.00000000000E+00  0.00000000000E+00  0.45593999997E+02  0.45594000000E+02  0.51100000000E-03 0.  1.
         11   -1    0    0    0    0 -0.00000000000E+00 -0.00000000000E+00 -0.45593999997E+02  0.45594000000E+02  0.51100000000E-03 0. -1.
    9900012    2    1    2    0    0 -0.93495801447E+00 -0.71969849590E+00 -0.15280447895E-01  0.90008022921E+02  0.90000288024E+02 0.  0.
        -12    1    1    2    0    0  0.93495801447E+00  0.71969849590E+00  0.15280447895E-01  0.11799770786E+01  0.00000000000E+00 0.  1.
         11    1    3    3    0    0 -0.17474249016E+02 -0.16001082376E+02 -0.17338449601E+02  0.29359936149E+02  0.51100000000E-03 0. -1.
        -11    1    3    3    0    0 -0.10772627815E+02 -0.98147133216E+01 -0.71276766934E+01  0.16222881462E+02  0.51100000000E-03 0.  1.
        -12    1    3    3    0    0  0.27311918817E+02  0.25096097202E+02  0.24450845846E+02  0.44425205310E+02  0.00000000000E+00 0.  1.
</event>
<event>
 7    1  0.2349719E-015  0.9000775E+02  0.7816164E-02  0.1186339E+00
        -11   -1    0    0    0    0  0.00000000000E+00  0.00000000000E+00  0.45593999997E+02  0.45594000000E+02  0.51100000000E-03 0. -1.
         11   -1    0    0    0    0 -0.00000000000E+00 -0.00000000000E+00 -0.45593999997E+02  0.45594000000E+02  0.51100000000E-03 0.  1.
    9900012    2    1    2    0    0 -0.16275015849E+00 -0.10953519693E+01  0.40828447556E+00  0.90007754363E+02  0.90000015921E+02 0.  0.
        -12    1    1    2    0    0  0.16275015849E+00  0.10953519693E+01 -0.40828447556E+00  0.11802456370E+01  0.00000000000E+00 0.  1.
         11    1    3    3    0    0 -0.91994739936E+01 -0.12392907260E+00 -0.30720826369E+01  0.96996583529E+01  0.51100000000E-03 0. -1.
        -11    1    3    3    0    0  0.20773640667E+02  0.26759307522E+02 -0.22391715860E+02  0.40607802514E+02  0.51100000000E-03 0.  1.
         12    1    3    3    0    0 -0.11736916832E+02 -0.27730730419E+02  0.25872082973E+02  0.39700293496E+02  0.00000000000E+00 0. -1.
</event>
<event>
 7    1  0.2349719E-015  0.9000774E+02  0.7816164E-02  0.1186339E+00
        -11   -1    0    0    0    0  0.00000000000E+00  0.00000000000E+00  0.45593999997E+02  0.45594000000E+02  0.51100000000E-03 0.  1.
         11   -1    0    0    0    0 -0.00000000000E+00 -0.00000000000E+00 -0.45593999997E+02  0.45594000000E+02  0.51100000000E-03 0. -1.
    9900012    2    1    2    0    0  0.93687430772E+00  0.21254001956E+00  0.68564521060E+00  0.90007738977E+02  0.90000000331E+02 0.  0.
        -12    1    1    2    0    0 -0.93687430772E+00 -0.21254001956E+00 -0.68564521060E+00  0.11802610233E+01  0.00000000000E+00 0.  1.
         11    1    3    3    0    0  0.18318736909E+02  0.31107312043E+02  0.18903002381E+02  0.40750024341E+02  0.51100000000E-03 0. -1.
        -11    1    3    3    0    0 -0.10429815864E+02  0.27496417390E+01 -0.10077858772E+01  0.10833153801E+02  0.51100000000E-03 0.  1.
        -12    1    3    3    0    0 -0.69520467379E+01 -0.33644413762E+02 -0.17209571294E+02  0.38424560835E+02  0.00000000000E+00 0.  1.
</event>
<event>
 7    1  0.2349719E-015  0.9000769E+02  0.7816164E-02  0.1186339E+00
        -11   -1    0    0    0    0  0.00000000000E+00  0.00000000000E+00  0.45593999997E+02  0.45594000000E+02  0.51100000000E-03 0. -1.
         11   -1    0    0    0    0 -0.00000000000E+00 -0.00000000000E+00 -0.45593999997E+02  0.45594000000E+02  0.51100000000E-03 0.  1.
    9900012    2    1    2    0    0  0.84633023425E+00  0.23265864993E+00  0.78913787059E+00  0.90007685003E+02  0.89999945645E+02 0.  0.
        -12    1    1    2    0    0 -0.84633023425E+00 -0.23265864993E+00 -0.78913787059E+00  0.11803149968E+01  0.00000000000E+00 0.  1.
         11    1    3    3    0    0 -0.75571457318E+01 -0.55977326238E+01 -0.13643415914E+01  0.95029727126E+01  0.51100000000E-03 0. -1.
        -11    1    3    3    0    0  0.10193440730E+01 -0.36178379314E+02  0.90273229697E+01  0.37301565013E+02  0.51100000000E-03 0.  1.
         12    1    3    3    0    0  0.73841318930E+01  0.42008770588E+02 -0.68738435077E+01  0.43203147278E+02  0.00000000000E+00 0. -1.
</event>
<event>
 7    1  0.2349719E-015  0.9000770E+02  0.7816164E-02  0.1186339E+00
        -11   -1    0    0    0    0  0.00000000000E+00  0.00000000000E+00  0.45593999997E+02  0.45594000000E+02  0.51100000000E-03 0.  1.
         11   -1    0    0    0    0 -0.00000000000E+00 -0.00000000000E+00 -0.45593999997E+02  0.45594000000E+02  0.51100000000E-03 0. -1.
    9900012    2    1    2    0    0 -0.85938493501E+00 -0.23919771512E+00 -0.77287956327E+00  0.90007703074E+02  0.89999963955E+02 0.  0.
        -12    1    1    2    0    0  0.85938493501E+00  0.23919771512E+00  0.77287956327E+00  0.11802969257E+01  0.00000000000E+00 0.  1.
         11    1    3    3    0    0  0.18943129008E+00  0.71175226708E+00  0.11144941130E+02  0.11169251925E+02  0.51100000000E-03 0. -1.
        -11    1    3    3    0    0 -0.28593453362E+02 -0.79986218467E+01  0.20225146248E+02  0.35925201010E+02  0.51100000000E-03 0.  1.
         12    1    3    3    0    0  0.27544637137E+02  0.70476718645E+01 -0.32142966941E+02  0.42913250139E+02  0.00000000000E+00 0. -1.
</event>
<event>
 7    1  0.2349719E-015  0.9000768E+02  0.7816164E-02  0.1186339E+00
        -11   -1    0    0    0    0  0.00000000000E+00  0.00000000000E+00  0.45593999997E+02  0.45594000000E+02  0.51100000000E-03 0.  1.
         11   -1    0    0    0    0 -0.00000000000E+00 -0.00000000000E+00 -0.45593999997E+02  0.45594000000E+02  0.51100000000E-03 0. -1.
    9900012    2    1    2    0    0 -0.53860577292E+00 -0.10392400171E+01  0.15175617497E+00  0.90007683971E+02  0.89999944599E+02 0.  0.
        -12    1    1    2    0    0  0.53860577292E+00  0.10392400171E+01 -0.15175617497E+00  0.11803160290E+01  0.00000000000E+00 0.  1.
         11    1    3    3    0    0  0.25809343253E+01 -0.84648740862E+01 -0.19250301863E+01  0.90565477289E+01  0.51100000000E-03 0. -1.
        -11    1    3    3    0    0 -0.10800935906E+02 -0.22215090840E+01  0.39781253790E+02  0.41281272660E+02  0.51100000000E-03 0.  1.
         12    1    3    3    0    0  0.76813958074E+01  0.96471431531E+01 -0.37704467429E+02  0.39669863582E+02  0.00000000000E+00 0. -1.
</event>
<event>
 7    1  0.2349719E-015  0.9000844E+02  0.7816164E-02  0.1186338E+00
        -11   -1    0    0    0    0  0.00000000000E+00  0.00000000000E+00  0.45593999997E+02  0.45594000000E+02  0.51100000000E-03 0.  1.
         11   -1    0    0    0    0 -0.00000000000E+00 -0.00000000000E+00 -0.45593999997E+02  0.45594000000E+02  0.51100000000E-03 0. -1.
    9900012    2    1    2    0    0  0.28221241558E+00  0.27659461532E-01 -0.11449726070E+01  0.90008436028E+02  0.90000706581E+02 0.  0.
        -12    1    1    2    0    0 -0.28221241558E+00 -0.27659461532E-01  0.11449726070E+01  0.11795639720E+01  0.00000000000E+00 0.  1.
         11    1    3    3    0    0  0.45611641131E+01 -0.56314604436E+01 -0.50173355319E+01  0.88142623568E+01  0.51100000000E-03 0. -1.
        -11    1    3    3    0    0 -0.32848110050E+02  0.16893004830E+02 -0.20275513607E+02  0.42136307364E+02  0.51100000000E-03 0.  1.
         12    1    3    3    0    0  0.28569158352E+02 -0.11233884925E+02  0.24147876531E+02  0.39057866307E+02  0.00000000000E+00 0. -1.
</event>
<event>
 7    1  0.2349719E-015  0.9000775E+02  0.7816164E-02  0.1186339E+00
        -11   -1    0    0    0    0  0.00000000000E+00  0.00000000000E+00  0.45593999997E+02  0.45594000000E+02  0.51100000000E-03 0.  1.
         11   -1    0    0    0    0 -0.00000000000E+00 -0.00000000000E+00 -0.45593999997E+02  0.45594000000E+02  0.51100000000E-03 0. -1.
    9900012    2    1    2    0    0  0.15461500366E+00  0.39666522186E+00 -0.11007894687E+01  0.90007751487E+02  0.90000013007E+02 0.  0.
        -12    1    1    2    0    0 -0.15461500366E+00 -0.39666522186E+00  0.11007894687E+01  0.11802485129E+01  0.00000000000E+00 0.  1.
         11    1    3    3    0    0 -0.37188749089E+01 -0.27716053923E+01  0.84441525895E+01  0.96340822217E+01  0.51100000000E-03 0. -1.
        -11    1    3    3    0    0  0.36339255298E+02 -0.10242087191E+01  0.15133880020E+02  0.39377973587E+02  0.51100000000E-03 0.  1.
         12    1    3    3    0    0 -0.32465765385E+02  0.41924793333E+01 -0.24678822078E+02  0.40995695679E+02  0.00000000000E+00 0. -1.
</event>
<event>
 7    1  0.2349719E-015  0.9000767E+02  0.7816164E-02  0.1186339E+00
        -11   -1    0    0    0    0  0.00000000000E+00  0.00000000000E+00  0.45593999997E+02  0.45594000000E+02  0.51100000000E-03 0.  1.
         11   -1    0    0    0    0 -0.00000000000E+00 -0.00000000000E+00 -0.45593999997E+02  0.45594000000E+02  0.51100000000E-03 0. -1.
    9900012    2    1    2    0    0  0.45405835013E+00  0.10894285524E+01 -0.12549302054E-01  0.90007669097E+02  0.89999929529E+02 0.  0.
        -12    1    1    2    0    0 -0.45405835013E+00 -0.10894285524E+01  0.12549302054E-01  0.11803309032E+01  0.00000000000E+00 0.  1.
         11    1    3    3    0    0  0.11086812660E+02 -0.21209337119E+02 -0.35902222277E+01  0.24200063882E+02  0.51100000000E-03 0. -1.
        -11    1    3    3    0    0 -0.34450434890E+02  0.23895612405E+01 -0.21542010826E+00  0.34533880076E+02  0.51100000000E-03 0.  1.
         12    1    3    3    0    0  0.23817680580E+02  0.19909204431E+02  0.37930930339E+01  0.31273725139E+02  0.00000000000E+00 0. -1.
</event>
<event>
 7    1  0.2349719E-015  0.9000778E+02  0.7816164E-02  0.1186339E+00
        -11   -1    0    0    0    0  0.00000000000E+00  0.00000000000E+00  0.45593999997E+02  0.45594000000E+02  0.51100000000E-03 0. -1.
         11   -1    0    0    0    0 -0.00000000000E+00 -0.00000000000E+00 -0.45593999997E+02  0.45594000000E+02  0.51100000000E-03 0.  1.
    9900012    2    1    2    0    0 -0.93088199936E+00  0.67591284679E+00  0.26365525027E+00  0.90007782408E+02  0.90000044336E+02 0.  0.
        -12    1    1    2    0    0  0.93088199936E+00 -0.67591284679E+00 -0.26365525027E+00  0.11802175919E+01  0.00000000000E+00 0.  1.
         11    1    3    3    0    0 -0.33570779449E+02 -0.19689169148E+02 -0.44409242187E+01  0.39171193787E+02  0.51100000000E-03 0. -1.
        -11    1    3    3    0    0 -0.37244212444E+01 -0.21118807935E+01  0.67993959905E+01  0.80351191770E+01  0.51100000000E-03 0.  1.
        -12    1    3    3    0    0  0.36364318694E+02  0.22476962788E+02 -0.20948165216E+01  0.42801469444E+02  0.00000000000E+00 0.  1.
</event>
<event>
 7    1  0.2349719E-015  0.9000769E+02  0.7816164E-02  0.1186339E+00
        -11   -1    0    0    0    0  0.00000000000E+00  0.00000000000E+00  0.45593999997E+02  0.45594000000E+02  0.51100000000E-03 0.  1.
         11   -1    0    0    0    0 -0.00000000000E+00 -0.00000000000E+00 -0.45593999997E+02  0.45594000000E+02  0.51100000000E-03 0. -1.
    9900012    2    1    2    0    0  0.82818093877E+00 -0.52163677879E+00 -0.65965513339E+00  0.90007689240E+02  0.89999949937E+02 0.  0.
        -12    1    1    2    0    0 -0.82818093877E+00  0.52163677879E+00  0.65965513339E+00  0.11803107605E+01  0.00000000000E+00 0.  1.
         11    1    3    3    0    0 -0.54951334795E+00  0.76885160795E+01 -0.24157196926E+01  0.80778057862E+01  0.51100000000E-03 0. -1.
        -11    1    3    3    0    0  0.12503099142E+02 -0.13575271908E+02  0.38754249330E+02  0.42924437526E+02  0.51100000000E-03 0.  1.
         12    1    3    3    0    0 -0.11125404855E+02  0.53651190494E+01 -0.36998184771E+02  0.39005445927E+02  0.00000000000E+00 0. -1.
</event>
<event>
 7    1  0.2349719E-015  0.9000776E+02  0.7816164E-02  0.1186339E+00
        -11   -1    0    0    0    0  0.00000000000E+00  0.00000000000E+00  0.45593999997E+02  0.45594000000E+02  0.51100000000E-03 0.  1.
         11   -1    0    0    0    0 -0.00000000000E+00 -0.00000000000E+00 -0.45593999997E+02  0.45594000000E+02  0.51100000000E-03 0. -1.
    9900012    2    1    2    0    0 -0.33011968836E+00 -0.88476046739E+00 -0.70794982755E+00  0.90007757206E+02  0.90000018802E+02 0.  0.
        -12    1    1    2    0    0  0.33011968836E+00  0.88476046739E+00  0.70794982755E+00  0.11802427935E+01  0.00000000000E+00 0.  1.
         11    1    3    3    0    0  0.63810428215E+01 -0.25178810200E+02 -0.25747579149E+02  0.36573597347E+02  0.51100000000E-03 0. -1.
        -11    1    3    3    0    0  0.80863247091E+01 -0.19160701080E+01 -0.59598905477E+01  0.10226449411E+02  0.51100000000E-03 0.  1.
        -12    1    3    3    0    0 -0.14797487219E+02  0.26210119841E+02  0.30999519869E+02  0.43207710448E+02  0.00000000000E+00 0.  1.
</event>
<event>
 7    1  0.2349719E-015  0.9000774E+02  0.7816164E-02  0.1186339E+00
        -11   -1    0    0    0    0  0.00000000000E+00  0.00000000000E+00  0.45593999997E+02  0.45594000000E+02  0.51100000000E-03 0. -1.
         11   -1    0    0    0    0 -0.00000000000E+00 -0.00000000000E+00 -0.45593999997E+02  0.45594000000E+02  0.51100000000E-03 0.  1.
    9900012    2    1    2    0    0 -0.35305191927E+00 -0.69848088023E-01  0.11240487386E+01  0.90007741562E+02  0.90000002951E+02 0.  0.
        -12    1    1    2    0    0  0.35305191927E+00  0.69848088023E-01 -0.11240487386E+01  0.11802584378E+01  0.00000000000E+00 0.  1.
         11    1    3    3    0    0  0.18144388510E+01  0.49729249986E+01  0.41351092036E+01  0.67172389992E+01  0.51100000000E-03 0. -1.
        -11    1    3    3    0    0  0.34843155849E+02 -0.16624571501E+01  0.19377059720E+02  0.39903379768E+02  0.51100000000E-03 0.  1.
         12    1    3    3    0    0 -0.37010646619E+02 -0.33803159364E+01 -0.22388120185E+02  0.43387122795E+02  0.00000000000E+00 0. -1.
</event>
<event>
 7    1  0.2349719E-015  0.9000775E+02  0.7816164E-02  0.1186339E+00
        -11   -1    0    0    0    0  0.00000000000E+00  0.00000000000E+00  0.45593999997E+02  0.45594000000E+02  0.51100000000E-03 0. -1.
         11   -1    0    0    0    0 -0.00000000000E+00 -0.00000000000E+00 -0.45593999997E+02  0.45594000000E+02  0.51100000000E-03 0.  1.
    9900012    2    1    2    0    0  0.94403485359E+00 -0.80017221066E-01  0.70384299829E+00  0.90007745991E+02  0.90000007438E+02 0.  0.
        -12    1    1    2    0    0 -0.94403485359E+00  0.80017221066E-01 -0.70384299829E+00  0.11802540094E+01  0.00000000000E+00 0.  1.
         11    1    3    3    0    0 -0.23161774154E+02  0.15272043762E+02  0.24505750835E+02  0.37016684439E+02  0.51100000000E-03 0. -1.
        -11    1    3    3    0    0  0.50542122804E+01  0.36782880740E+00  0.99503790547E+01  0.11166485723E+02  0.51100000000E-03 0.  1.
        -12    1    3    3    0    0  0.19051596727E+02 -0.15719889790E+02 -0.33752286891E+02  0.41824575829E+02  0.00000000000E+00 0.  1.
</event>
<event>
 7    1  0.2349719E-015  0.9000770E+02  0.7816164E-02  0.1186339E+00
        -11   -1    0    0    0    0  0.00000000000E+00  0.00000000000E+00  0.45593999997E+02  0.45594000000E+02  0.51100000000E-03 0.  1.
         11   -1    0    0    0    0 -0.00000000000E+00 -0.00000000000E+00 -0.45593999997E+02  0.45594000000E+02  0.51100000000E-03 0. -1.
    9900012    2    1    2    0    0 -0.73409191871E+00  0.91882833431E+00  0.99799573225E-01  0.90007704949E+02  0.89999965854E+02 0.  0.
        -12    1    1    2    0    0  0.73409191871E+00 -0.91882833431E+00 -0.99799573225E-01  0.11802950512E+01  0.00000000000E+00 0.  1.
         11    1    3    3    0    0 -0.41130062277E+01 -0.11785308768E+02 -0.56871904411E+01  0.13716940561E+02  0.51100000000E-03 0. -1.
        -11    1    3    3    0    0  0.20736966095E+02 -0.25669989687E+02  0.85298668143E+01  0.34084142375E+02  0.51100000000E-03 0.  1.
        -12    1    3    3    0    0 -0.17358051786E+02  0.38374126789E+02 -0.27428767999E+01  0.42206622013E+02  0.00000000000E+00 0.  1.
</event>
<event>
 7    1  0.2349719E-015  0.9000773E+02  0.7816164E-02  0.1186339E+00
        -11   -1    0    0    0    0  0.00000000000E+00  0.00000000000E+00  0.45593999997E+02  0.45594000000E+02  0.51100000000E-03 0. -1.
         11   -1    0    0    0    0 -0.00000000000E+00 -0.00000000000E+00 -0.45593999997E+02  0.45594000000E+02  0.51100000000E-03 0.  1.
    9900012    2    1    2    0    0 -0.71346589327E+00 -0.55993474503E+00  0.75530352032E+00  0.90007727189E+02  0.89999988388E+02 0.  0.
        -12    1    1    2    0    0  0.71346589327E+00  0.55993474503E+00 -0.75530352032E+00  0.11802728106E+01  0.00000000000E+00 0.  1.
         11    1    3    3    0    0  0.52371835995E+01 -0.21854191157E+02  0.28161134943E+02  0.36028922891E+02  0.51100000000E-03 0. -1.
        -11    1    3    3    0    0  0.41687561519E+01 -0.68180467188E+01  0.53701898452E+01  0.96282515623E+01  0.51100000000E-03 0.  1.
        -12    1    3    3    0    0 -0.10119405645E+02  0.28112303130E+02 -0.32776021267E+02  0.44350552736E+02  0.00000000000E+00 0.  1.
</event>
<event>
 7    1  0.2349719E-015  0.9000777E+02  0.7816164E-02  0.1186339E+00
        -11   -1    0    0    0    0  0.00000000000E+00  0.00000000000E+00  0.45593999997E+02  0.45594000000E+02  0.51100000000E-03 0. -1.
         11   -1    0    0    0    0 -0.00000000000E+00 -0.00000000000E+00 -0.45593999997E+02  0.45594000000E+02  0.51100000000E-03 0.  1.
    9900012    2    1    2    0    0  0.53725445603E+00 -0.89027188342E+00 -0.55831894603E+00  0.90007768488E+02  0.90000030232E+02 0.  0.
        -12    1    1    2    0    0 -0.53725445603E+00  0.89027188342E+00  0.55831894603E+00  0.11802315122E+01  0.00000000000E+00 0.  1.
         11    1    3    3    0    0  0.43173073448E+01 -0.10552987849E+02 -0.35550654071E+01  0.11943332264E+02  0.51100000000E-03 0. -1.
        -11    1    3    3    0    0  0.60463612952E+01 -0.25814677981E+02 -0.21254698357E+02  0.33981146047E+02  0.51100000000E-03 0.  1.
         12    1    3    3    0    0 -0.98264141840E+01  0.35477393947E+02  0.24251444818E+02  0.44083290176E+02  0.00000000000E+00 0. -1.
</event>
<event>
 7    1  0.2349719E-015  0.9000778E+02  0.7816164E-02  0.1186339E+00
        -11   -1    0    0    0    0  0.00000000000E+00  0.00000000000E+00  0.45593999997E+02  0.45594000000E+02  0.51100000000E-03 0.  1.
         11   -1    0    0    0    0 -0.00000000000E+00 -0.00000000000E+00 -0.45593999997E+02  0.45594000000E+02  0.51100000000E-03 0. -1.
    9900012    2    1    2    0    0  0.20473501722E+00  0.11612168204E+01 -0.50786805985E-01  0.90007779584E+02  0.90000041474E+02 0.  0.
        -12    1    1    2    0    0 -0.20473501722E+00 -0.11612168204E+01  0.50786805985E-01  0.11802204163E+01  0.00000000000E+00 0.  1.
         11    1    3    3    0    0  0.35519029946E+00 -0.75790880921E+01  0.71078671170E+01  0.10396658678E+02  0.51100000000E-03 0. -1.
        -11    1    3    3    0    0 -0.14476233534E+02  0.45004953615E+01  0.33242553610E+02  0.36536052970E+02  0.51100000000E-03 0.  1.
         12    1    3    3    0    0  0.14325778251E+02  0.42398095511E+01 -0.40401207533E+02  0.43075067936E+02  0.00000000000E+00 0. -1.
</event>
<event>
 7    1  0.2349719E-015  0.9000771E+02  0.7816164E-02  0.1186339E+00
        -11   -1    0    0    0    0  0.00000000000E+00  0.00000000000E+00  0.45593999997E+02  0.45594000000E+02  0.51100000000E-03 0.  1.
         11   -1    0    0    0    0 -0.00000000000E+00 -0.00000000000E+00 -0.45593999997E+02  0.45594000000E+02  0.51100000000E-03 0. -1.
    9900012    2    1    2    0    0 -0.17419860086E-01 -0.10989243081E+01 -0.43029317084E+00  0.90007707537E+02  0.89999968476E+02 0.  0.
        -12    1    1    2    0    0  0.17419860086E-01  0.10989243081E+01  0.43029317084E+00  0.11802924635E+01  0.00000000000E+00 0.  1.
         11    1    3    3    0    0 -0.65341512855E+01 -0.94272110543E+00 -0.42737234967E+01  0.78643861103E+01  0.51100000000E-03 0. -1.
        -11    1    3    3    0    0 -0.30221349399E+02 -0.18342704628E-01 -0.21866461833E+02  0.37302445621E+02  0.51100000000E-03 0.  1.
         12    1    3    3    0    0  0.36738080824E+02 -0.13786049805E+00  0.25709892159E+02  0.44840875805E+02  0.00000000000E+00 0. -1.
</event>
<event>
 7    1  0.2349719E-015  0.9000783E+02  0.7816164E-02  0.1186339E+00
        -11   -1    0    0    0    0  0.00000000000E+00  0.00000000000E+00  0.45593999997E+02  0.45594000000E+02  0.51100000000E-03 0.  1.
         11   -1    0    0    0    0 -0.00000000000E+00 -0.00000000000E+00 -0.45593999997E+02  0.45594000000E+02  0.51100000000E-03 0. -1.
    9900012    2    1    2    0    0  0.83758910410E+00  0.81616924658E+00 -0.15849666410E+00  0.90007826734E+02  0.90000089246E+02 0.  0.
        -12    1    1    2    0    0 -0.83758910410E+00 -0.81616924658E+00  0.15849666410E+00  0.11801732665E+01  0.00000000000E+00 0.  1.
         11    1    3    3    0    0 -0.50702566728E+01 -0.89237637509E+01  0.28605289660E+01  0.10654749572E+02  0.51100000000E-03 0. -1.
        -11    1    3    3    0    0  0.42134635363E+02  0.28140322650E+01  0.10858093970E+01  0.42242457990E+02  0.51100000000E-03 0.  1.
         12    1    3    3    0    0 -0.36226789586E+02  0.69259007325E+01 -0.41048350271E+01  0.37110619171E+02  0.00000000000E+00 0. -1.
</event>
<event>
 7    1  0.2349719E-015  0.9000779E+02  0.7816164E-02  0.1186339E+00
        -11   -1    0    0    0    0  0.00000000000E+00  0.00000000000E+00  0.45593999997E+02  0.45594000000E+02  0.51100000000E-03 0.  1.
         11   -1    0    0    0    0 -0.00000000000E+00 -0.00000000000E+00 -0.45593999997E+02  0.45594000000E+02  0.51100000000E-03 0. -1.
    9900012    2    1    2    0    0 -0.70287936209E+00 -0.95108671137E-01 -0.94330269733E+00  0.90007786021E+02  0.90000047997E+02 0.  0.
        -12    1    1    2    0    0  0.70287936209E+00  0.95108671137E-01  0.94330269733E+00  0.11802139788E+01  0.00000000000E+00 0.  1.
         11    1    3    3    0    0 -0.84867630346E+01 -0.22802301073E+02  0.93314623893E+01  0.26058516298E+02  0.51100000000E-03 0. -1.
        -11    1    3    3    0    0 -0.36030840246E+01  0.18691500716E+02  0.22234645538E+02  0.29270016672E+02  0.51100000000E-03 0.  1.
         12    1    3    3    0    0  0.11386967697E+02  0.40156916861E+01 -0.32509410625E+02  0.34679253052E+02  0.00000000000E+00 0. -1.
</event>
<event>
 7    1  0.2349719E-015  0.9000775E+02  0.7816164E-02  0.1186339E+00
        -11   -1    0    0    0    0  0.00000000000E+00  0.00000000000E+00  0.45593999997E+02  0.45594000000E+02  0.51100000000E-03 0. -1.
         11   -1    0    0    0    0 -0.00000000000E+00 -0.00000000000E+00 -0.45593999997E+02  0.45594000000E+02  0.51100000000E-03 0.  1.
    9900012    2    1    2    0    0 -0.10637977521E+01  0.34538559973E+00 -0.37687188050E+00  0.90007750330E+02  0.90000011834E+02 0.  0.
        -12    1    1    2    0    0  0.10637977521E+01 -0.34538559973E+00  0.37687188050E+00  0.11802496703E+01  0.00000000000E+00 0.  1.
         11    1    3    3    0    0  0.13110680240E+02  0.17531467924E+02  0.18799110443E+02  0.28855655557E+02  0.51100000000E-03 0. -1.
        -11    1    3    3    0    0  0.69519616162E+01  0.11732114371E+02  0.83432004425E+01  0.15986909389E+02  0.51100000000E-03 0.  1.
        -12    1    3    3    0    0 -0.21126439608E+02 -0.28918196695E+02 -0.27519182766E+02  0.45165185384E+02  0.00000000000E+00 0.  1.
</event>
<event>
 7    1  0.2349719E-015  0.9000752E+02  0.7816164E-02  0.1186339E+00
        -11   -1    0    0    0    0  0.00000000000E+00  0.00000000000E+00  0.45593999997E+02  0.45594000000E+02  0.51100000000E-03 0. -1.
         11   -1    0    0    0    0 -0.00000000000E+00 -0.00000000000E+00 -0.45593999997E+02  0.45594000000E+02  0.51100000000E-03 0.  1.
    9900012    2    1    2    0    0  0.60391858680E+00 -0.23052030668E+00 -0.98776711557E+00  0.90007516563E+02  0.89999774981E+02 0.  0.
        -12    1    1    2    0    0 -0.60391858680E+00  0.23052030668E+00  0.98776711557E+00  0.11804834374E+01  0.00000000000E+00 0.  1.
         11    1    3    3    0    0  0.36000993986E+01  0.24415324540E+01 -0.10440152580E+02  0.11310109750E+02  0.51100000000E-03 0. -1.
        -11    1    3    3    0    0 -0.18292140628E+02  0.18055444232E+02 -0.24882387228E+02  0.35773379343E+02  0.51100000000E-03 0.  1.
         12    1    3    3    0    0  0.15295959817E+02 -0.20727496993E+02  0.34334772693E+02  0.42924027469E+02  0.00000000000E+00 0. -1.
</event>
<event>
 7    1  0.2349719E-015  0.9000779E+02  0.7816164E-02  0.1186339E+00
        -11   -1    0    0    0    0  0.00000000000E+00  0.00000000000E+00  0.45593999997E+02  0.45594000000E+02  0.51100000000E-03 0. -1.
         11   -1    0    0    0    0 -0.00000000000E+00 -0.00000000000E+00 -0.45593999997E+02  0.45594000000E+02  0.51100000000E-03 0.  1.
    9900012    2    1    2    0    0 -0.18118074508E-01 -0.10760078996E+01  0.48453580592E+00  0.90007789759E+02  0.90000051784E+02 0.  0.
        -12    1    1    2    0    0  0.18118074508E-01  0.10760078996E+01 -0.48453580592E+00  0.11802102406E+01  0.00000000000E+00 0.  1.
         11    1    3    3    0    0 -0.53302683105E+01 -0.77999401759E+01 -0.36743953617E+01  0.10136666540E+02  0.51100000000E-03 0. -1.
        -11    1    3    3    0    0 -0.29088400817E+02 -0.20750152164E+02  0.13553685369E+01  0.35756690298E+02  0.51100000000E-03 0.  1.
         12    1    3    3    0    0  0.34400551053E+02  0.27474084441E+02  0.28035626307E+01  0.44114432922E+02  0.00000000000E+00 0. -1.
</event>
<event>
 7    1  0.2349719E-015  0.9000774E+02  0.7816164E-02  0.1186339E+00
        -11   -1    0    0    0    0  0.00000000000E+00  0.00000000000E+00  0.45593999997E+02  0.45594000000E+02  0.51100000000E-03 0. -1.
         11   -1    0    0    0    0 -0.00000000000E+00 -0.00000000000E+00 -0.45593999997E+02  0.45594000000E+02  0.51100000000E-03 0.  1.
    9900012    2    1    2    0    0 -0.93324591113E-01 -0.11007636834E+01  0.41547307834E+00  0.90007742382E+02  0.90000003781E+02 0.  0.
        -12    1    1    2    0    0  0.93324591113E-01  0.11007636834E+01 -0.41547307834E+00  0.11802576179E+01  0.00000000000E+00 0.  1.
         11    1    3    3    0    0 -0.75158038155E+01 -0.12543287203E+02  0.95881335435E+01  0.17485813277E+02  0.51100000000E-03 0. -1.
        -11    1    3    3    0    0 -0.18124214220E+02 -0.31358584680E+01 -0.30895533824E+02  0.35956289574E+02  0.51100000000E-03 0.  1.
         12    1    3    3    0    0  0.25546693444E+02  0.14578381988E+02  0.21722873359E+02  0.36565639531E+02  0.00000000000E+00 0. -1.
</event>
<event>
 7    1  0.2349719E-015  0.9000776E+02  0.7816164E-02  0.1186339E+00
        -11   -1    0    0    0    0  0.00000000000E+00  0.00000000000E+00  0.45593999997E+02  0.45594000000E+02  0.51100000000E-03 0.  1.
         11   -1    0    0    0    0 -0.00000000000E+00 -0.00000000000E+00 -0.45593999997E+02  0.45594000000E+02  0.51100000000E-03 0. -1.
    9900012    2    1    2    0    0 -0.19455148572E+00  0.10012472724E+01  0.59381086780E+00  0.90007763698E+02  0.90000025379E+02 0.  0.
        -12    1    1    2    0    0  0.19455148572E+00 -0.10012472724E+01 -0.59381086780E+00  0.11802363017E+01  0.00000000000E+00 0.  1.
         11    1    3    3    0    0  0.30530201243E+02  0.17801554517E+02 -0.73906857253E+01  0.36105550362E+02  0.51100000000E-03 0. -1.
        -11    1    3    3    0    0  0.89708118269E+01  0.47336793272E+00 -0.25688464987E+01  0.93433674138E+01  0.51100000000E-03 0.  1.
        -12    1    3    3    0    0 -0.39695564556E+02 -0.17273675178E+02  0.10553343092E+02  0.44558845923E+02  0.00000000000E+00 0.  1.
</event>
<event>
 7    1  0.2349719E-015  0.9000778E+02  0.7816164E-02  0.1186339E+00
        -11   -1    0    0    0    0  0.00000000000E+00  0.00000000000E+00  0.45593999997E+02  0.45594000000E+02  0.51100000000E-03 0.  1.
         11   -1    0    0    0    0 -0.00000000000E+00 -0.00000000000E+00 -0.45593999997E+02  0.45594000000E+02  0.51100000000E-03 0. -1.
    9900012    2    1    2    0    0  0.10236796690E+01  0.47389362129E+00  0.34702856588E+00  0.90007777964E+02  0.90000039833E+02 0.  0.
        -12    1    1    2    0    0 -0.10236796690E+01 -0.47389362129E+00 -0.34702856588E+00  0.11802220361E+01  0.00000000000E+00 0.  1.
         11    1    3    3    0    0  0.19295075517E+01  0.79122992421E+01  0.23580877156E+01  0.84786824817E+01  0.51100000000E-03 0. -1.
        -11    1    3    3    0    0 -0.16254557021E+02  0.93045829434E+01  0.34078882733E+02  0.38886451834E+02  0.51100000000E-03 0.  1.
         12    1    3    3    0    0  0.15348729138E+02 -0.16742988564E+02 -0.36089941882E+02  0.42642643648E+02  0.00000000000E+00 0. -1.
</event>
<event>
 7    1  0.2349719E-015  0.9000775E+02  0.7816164E-02  0.1186339E+00
        -11   -1    0    0    0    0  0.00000000000E+00  0.00000000000E+00  0.45593999997E+02  0.45594000000E+02  0.51100000000E-03 0.  1.
         11   -1    0    0    0    0 -0.00000000000E+00 -0.00000000000E+00 -0.45593999997E+02  0.45594000000E+02  0.51100000000E-03 0. -1.
    9900012    2    1    2    0    0 -0.10701677697E+01 -0.33907467264E-01 -0.49657969068E+00  0.90007745722E+02  0.90000007165E+02 0.  0.
        -12    1    1    2    0    0  0.10701677697E+01  0.33907467264E-01  0.49657969068E+00  0.11802542780E+01  0.00000000000E+00 0.  1.
         11    1    3    3    0    0 -0.40525862400E+01  0.85225797200E+01  0.47442766529E+01  0.10562479895E+02  0.51100000000E-03 0. -1.
        -11    1    3    3    0    0  0.12929125338E+02  0.33563677886E+01  0.34385147139E+02  0.36888559619E+02  0.51100000000E-03 0.  1.
         12    1    3    3    0    0 -0.99467068676E+01 -0.11912854976E+02 -0.39626003483E+02  0.42556706207E+02  0.00000000000E+00 0. -1.
</event>
<event>
 7    1  0.2349719E-015  0.9000774E+02  0.7816164E-02  0.1186339E+00
        -11   -1    0    0    0    0  0.00000000000E+00  0.00000000000E+00  0.45593999997E+02  0.45594000000E+02  0.51100000000E-03 0. -1.
         11   -1    0    0    0    0 -0.00000000000E+00 -0.00000000000E+00 -0.45593999997E+02  0.45594000000E+02  0.51100000000E-03 0.  1.
    9900012    2    1    2    0    0  0.93583796626E+00  0.69340831966E+00 -0.19082673068E+00  0.90007736200E+02  0.89999997518E+02 0.  0.
        -12    1    1    2    0    0 -0.93583796626E+00 -0.69340831966E+00  0.19082673068E+00  0.11802638002E+01  0.00000000000E+00 0.  1.
         11    1    3    3    0    0 -0.62300315698E+00 -0.27769979450E+02 -0.18243413574E+02  0.33232243840E+02  0.51100000000E-03 0. -1.
        -11    1    3    3    0    0 -0.19067985779E+01 -0.55788017799E+01 -0.10610595701E+02  0.12138519329E+02  0.51100000000E-03 0.  1.
        -12    1    3    3    0    0  0.34656397012E+01  0.34042189549E+02  0.28663182543E+02  0.44636973031E+02  0.00000000000E+00 0.  1.
</event>
<event>
 7    1  0.2349719E-015  0.9000786E+02  0.7816164E-02  0.1186339E+00
        -11   -1    0    0    0    0  0.00000000000E+00  0.00000000000E+00  0.45593999997E+02  0.45594000000E+02  0.51100000000E-03 0. -1.
         11   -1    0    0    0    0 -0.00000000000E+00 -0.00000000000E+00 -0.45593999997E+02  0.45594000000E+02  0.51100000000E-03 0.  1.
    9900012    2    1    2    0    0  0.96305942766E+00 -0.40045076198E+00  0.55216563102E+00  0.90007859687E+02  0.90000122635E+02 0.  0.
        -12    1    1    2    0    0 -0.96305942766E+00  0.40045076198E+00 -0.55216563102E+00  0.11801403129E+01  0.00000000000E+00 0.  1.
         11    1    3    3    0    0  0.24545821999E+02 -0.76551608492E+01  0.30860936876E+02  0.40168349360E+02  0.51100000000E-03 0. -1.
        -11    1    3    3    0    0 -0.20891220005E+01 -0.87092585594E+01  0.56448342741E+00  0.89740880979E+01  0.51100000000E-03 0.  1.
        -12    1    3    3    0    0 -0.21493640570E+02  0.15963968647E+02 -0.30873254672E+02  0.40865422229E+02  0.00000000000E+00 0.  1.
</event>
<event>
 7    1  0.2819308E-015  0.9000787E+02  0.7816164E-02  0.1186339E+00
        -11   -1    0    0    0    0  0.00000000000E+00  0.00000000000E+00  0.45593999997E+02  0.45594000000E+02  0.51100000000E-03 0. -1.
         11   -1    0    0    0    0 -0.00000000000E+00 -0.00000000000E+00 -0.45593999997E+02  0.45594000000E+02  0.51100000000E-03 0.  1.
    9900012    2    1    2    0    0 -0.85256971699E+00 -0.81537462591E+00  0.31645355774E-01  0.90007867664E+02  0.90000130717E+02 0.  0.
        -12    1    1    2    0    0  0.85256971699E+00  0.81537462591E+00 -0.31645355774E-01  0.11801323364E+01  0.00000000000E+00 0.  1.
         11    1    3    3    0    0  0.29054778626E+01 -0.37312298869E+02 -0.11474044244E+01  0.37442836239E+02  0.51100000000E-03 0. -1.
        -11    1    3    3    0    0 -0.76263249517E+01 -0.60127371209E+01 -0.13498017457E+01  0.98048867902E+01  0.51100000000E-03 0.  1.
        -12    1    3    3    0    0  0.38682773722E+01  0.42509661364E+02  0.25288515259E+01  0.42760144634E+02  0.00000000000E+00 0.  1.
</event>
<event>
 7    1  0.2349719E-015  0.9000755E+02  0.7816164E-02  0.1186339E+00
        -11   -1    0    0    0    0  0.00000000000E+00  0.00000000000E+00  0.45593999997E+02  0.45594000000E+02  0.51100000000E-03 0.  1.
         11   -1    0    0    0    0 -0.00000000000E+00 -0.00000000000E+00 -0.45593999997E+02  0.45594000000E+02  0.51100000000E-03 0. -1.
    9900012    2    1    2    0    0 -0.11257393903E+01  0.32532509686E+00 -0.14258836822E+00  0.90007552188E+02  0.89999811077E+02 0.  0.
        -12    1    1    2    0    0  0.11257393903E+01 -0.32532509686E+00  0.14258836822E+00  0.11804478118E+01  0.00000000000E+00 0.  1.
         11    1    3    3    0    0 -0.20447251314E+01  0.58097348821E+01 -0.22290569662E+01  0.65500088155E+01  0.51100000000E-03 0. -1.
        -11    1    3    3    0    0  0.65162040763E+01  0.31560950994E+02 -0.21906836256E+02  0.38967473850E+02  0.51100000000E-03 0.  1.
         12    1    3    3    0    0 -0.55972183352E+01 -0.37045360780E+02  0.23993304854E+02  0.44490069523E+02  0.00000000000E+00 0. -1.
</event>
<event>
 7    1  0.2349719E-015  0.9000772E+02  0.7816164E-02  0.1186339E+00
        -11   -1    0    0    0    0  0.00000000000E+00  0.00000000000E+00  0.45593999997E+02  0.45594000000E+02  0.51100000000E-03 0. -1.
         11   -1    0    0    0    0 -0.00000000000E+00 -0.00000000000E+00 -0.45593999997E+02  0.45594000000E+02  0.51100000000E-03 0.  1.
    9900012    2    1    2    0    0  0.58426547907E+00  0.63618425277E+00  0.80434453945E+00  0.90007717537E+02  0.89999978609E+02 0.  0.
        -12    1    1    2    0    0 -0.58426547907E+00 -0.63618425277E+00 -0.80434453945E+00  0.11802824627E+01  0.00000000000E+00 0.  1.
         11    1    3    3    0    0  0.74445040318E+01  0.62500283933E+01 -0.36051691460E+01  0.10367291837E+02  0.51100000000E-03 0. -1.
        -11    1    3    3    0    0  0.11820078255E+02  0.29573473492E+02  0.19150252218E+02  0.37162302735E+02  0.51100000000E-03 0.  1.
         12    1    3    3    0    0 -0.18680316807E+02 -0.35187317632E+02 -0.14740738533E+02  0.42478122965E+02  0.00000000000E+00 0. -1.
</event>
<event>
 7    1  0.2349719E-015  0.9000750E+02  0.7816164E-02  0.1186340E+00
        -11   -1    0    0    0    0  0.00000000000E+00  0.00000000000E+00  0.45593999997E+02  0.45594000000E+02  0.51100000000E-03 0. -1.
         11   -1    0    0    0    0 -0.00000000000E+00 -0.00000000000E+00 -0.45593999997E+02  0.45594000000E+02  0.51100000000E-03 0.  1.
    9900012    2    1    2    0    0  0.34714957395E+00  0.61483908111E-01  0.11266313291E+01  0.90007495341E+02  0.89999753479E+02 0.  0.
        -12    1    1    2    0    0 -0.34714957395E+00 -0.61483908111E-01 -0.11266313291E+01  0.11805046588E+01  0.00000000000E+00 0.  1.
         11    1    3    3    0    0 -0.14491355866E+01  0.32722258276E+01 -0.84140356341E+01  0.91434923158E+01  0.51100000000E-03 0. -1.
        -11    1    3    3    0    0 -0.36072861131E+02  0.22519301169E+01 -0.10546653094E+02  0.37650423519E+02  0.51100000000E-03 0.  1.
         12    1    3    3    0    0  0.37869146292E+02 -0.54626720364E+01  0.20087320057E+02  0.43213579506E+02  0.00000000000E+00 0. -1.
</event>
<event>
 7    1  0.2349719E-015  0.9000781E+02  0.7816164E-02  0.1186339E+00
        -11   -1    0    0    0    0  0.00000000000E+00  0.00000000000E+00  0.45593999997E+02  0.45594000000E+02  0.51100000000E-03 0. -1.
         11   -1    0    0    0    0 -0.00000000000E+00 -0.00000000000E+00 -0.45593999997E+02  0.45594000000E+02  0.51100000000E-03 0.  1.
    9900012    2    1    2    0    0  0.38764618957E+00  0.40671313490E+00  0.10378643772E+01  0.90007810351E+02  0.90000072647E+02 0.  0.
        -12    1    1    2    0    0 -0.38764618957E+00 -0.40671313490E+00 -0.10378643772E+01  0.11801896491E+01  0.00000000000E+00 0.  1.
         11    1    3    3    0    0  0.24765247950E+02 -0.26864603041E+02  0.11146028659E+02  0.38200240284E+02  0.51100000000E-03 0. -1.
        -11    1    3    3    0    0  0.78813881093E+01  0.23330711188E+01  0.33406486699E+01  0.88723972619E+01  0.51100000000E-03 0.  1.
        -12    1    3    3    0    0 -0.32258989870E+02  0.24938245057E+02 -0.13448812952E+02  0.42935172805E+02  0.00000000000E+00 0.  1.
</event>
<event>
 7    1  0.2349719E-015  0.9000784E+02  0.7816164E-02  0.1186339E+00
        -11   -1    0    0    0    0  0.00000000000E+00  0.00000000000E+00  0.45593999997E+02  0.45594000000E+02  0.51100000000E-03 0. -1.
         11   -1    0    0    0    0 -0.00000000000E+00 -0.00000000000E+00 -0.45593999997E+02  0.45594000000E+02  0.51100000000E-03 0.  1.
    9900012    2    1    2    0    0  0.10743118881E+01 -0.41694343160E+00 -0.25455577658E+00  0.90007836240E+02  0.90000098878E+02 0.  0.
        -12    1    1    2    0    0 -0.10743118881E+01  0.41694343160E+00  0.25455577658E+00  0.11801637605E+01  0.00000000000E+00 0.  1.
         11    1    3    3    0    0 -0.30044449375E+02 -0.27236914508E+02  0.12489861339E+01  0.40571891955E+02  0.51100000000E-03 0. -1.
        -11    1    3    3    0    0  0.16072207468E+01  0.60138034985E+01 -0.10515434935E+02  0.12219793909E+02  0.51100000000E-03 0.  1.
        -12    1    3    3    0    0  0.29511540517E+02  0.20806167577E+02  0.90118930244E+01  0.37216150376E+02  0.00000000000E+00 0.  1.
</event>
<event>
 7    1  0.2349719E-015  0.9000773E+02  0.7816164E-02  0.1186339E+00
        -11   -1    0    0    0    0  0.00000000000E+00  0.00000000000E+00  0.45593999997E+02  0.45594000000E+02  0.51100000000E-03 0. -1.
         11   -1    0    0    0    0 -0.00000000000E+00 -0.00000000000E+00 -0.45593999997E+02  0.45594000000E+02  0.51100000000E-03 0.  1.
    9900012    2    1    2    0    0 -0.64552461935E+00  0.29998336882E+00  0.94146369709E+00  0.90007726325E+02  0.89999987512E+02 0.  0.
        -12    1    1    2    0    0  0.64552461935E+00 -0.29998336882E+00 -0.94146369709E+00  0.11802736753E+01  0.00000000000E+00 0.  1.
         11    1    3    3    0    0 -0.32442964762E+01  0.92696861118E+01 -0.55564858641E+01  0.11283929974E+02  0.51100000000E-03 0. -1.
        -11    1    3    3    0    0 -0.64830542016E+01  0.57274695150E+00 -0.34785702688E+02  0.35389308310E+02  0.51100000000E-03 0.  1.
         12    1    3    3    0    0  0.90818260585E+01 -0.95424496945E+01  0.41283652250E+02  0.43334488041E+02  0.00000000000E+00 0. -1.
</event>
<event>
 7    1  0.2349719E-015  0.9000773E+02  0.7816164E-02  0.1186339E+00
        -11   -1    0    0    0    0  0.00000000000E+00  0.00000000000E+00  0.45593999997E+02  0.45594000000E+02  0.51100000000E-03 0.  1.
         11   -1    0    0    0    0 -0.00000000000E+00 -0.00000000000E+00 -0.45593999997E+02  0.45594000000E+02  0.51100000000E-03 0. -1.
    9900012    2    1    2    0    0 -0.27571517002E+00 -0.71444183505E+00 -0.89810828283E+00  0.90007726948E+02  0.89999988143E+02 0.  0.
        -12    1    1    2    0    0  0.27571517002E+00  0.71444183505E+00  0.89810828283E+00  0.11802730525E+01  0.00000000000E+00 0.  1.
         11    1    3    3    0    0  0.33276170694E+02 -0.23466609186E+02 -0.18569970296E+01  0.40760688427E+02  0.51100000000E-03 0. -1.
        -11    1    3    3    0    0 -0.23759183041E+00  0.26959288316E+01  0.91209516404E+01  0.95140023770E+01  0.51100000000E-03 0.  1.
        -12    1    3    3    0    0 -0.33314294034E+02  0.20056238520E+02 -0.81620628936E+01  0.39733036144E+02  0.00000000000E+00 0.  1.
</event>
<event>
 7    1  0.2349719E-015  0.9000775E+02  0.7816164E-02  0.1186339E+00
        -11   -1    0    0    0    0  0.00000000000E+00  0.00000000000E+00  0.45593999997E+02  0.45594000000E+02  0.51100000000E-03 0.  1.
         11   -1    0    0    0    0 -0.00000000000E+00 -0.00000000000E+00 -0.45593999997E+02  0.45594000000E+02  0.51100000000E-03 0. -1.
    9900012    2    1    2    0    0  0.25734811398E+00  0.11502525011E+01  0.60620307734E-01  0.90007752700E+02  0.90000014235E+02 0.  0.
        -12    1    1    2    0    0 -0.25734811398E+00 -0.11502525011E+01 -0.60620307734E-01  0.11802473002E+01  0.00000000000E+00 0.  1.
         11    1    3    3    0    0 -0.35375312515E+01 -0.53537233534E+01  0.72485956539E+01  0.96808377900E+01  0.51100000000E-03 0. -1.
        -11    1    3    3    0    0 -0.22965530749E+02 -0.20444158409E+02  0.17162822453E+02  0.35212805773E+02  0.51100000000E-03 0.  1.
         12    1    3    3    0    0  0.26760410114E+02  0.26948134263E+02 -0.24350797799E+02  0.45114109137E+02  0.00000000000E+00 0. -1.
</event>
<event>
 7    1  0.2349719E-015  0.9000774E+02  0.7816164E-02  0.1186339E+00
        -11   -1    0    0    0    0  0.00000000000E+00  0.00000000000E+00  0.45593999997E+02  0.45594000000E+02  0.51100000000E-03 0.  1.
         11   -1    0    0    0    0 -0.00000000000E+00 -0.00000000000E+00 -0.45593999997E+02  0.45594000000E+02  0.51100000000E-03 0. -1.
    9900012    2    1    2    0    0 -0.26108338694E+00  0.63493982621E+00 -0.96005073360E+00  0.90007741330E+02  0.90000002715E+02 0.  0.
        -12    1    1    2    0    0  0.26108338694E+00 -0.63493982621E+00  0.96005073360E+00  0.11802586703E+01  0.00000000000E+00 0.  1.
         11    1    3    3    0    0 -0.42677692920E+02  0.59705872003E+01  0.51290757622E+01  0.43397474615E+02  0.51100000000E-03 0. -1.
        -11    1    3    3    0    0  0.10692236767E+02  0.62883456312E+01 -0.10344648004E+01  0.12447382679E+02  0.51100000000E-03 0.  1.
        -12    1    3    3    0    0  0.31724372766E+02 -0.11623993005E+02 -0.50546616954E+01  0.34162884036E+02  0.00000000000E+00 0.  1.
</event>
<event>
 7    1  0.2349719E-015  0.9000781E+02  0.7816164E-02  0.1186339E+00
        -11   -1    0    0    0    0  0.00000000000E+00  0.00000000000E+00  0.45593999997E+02  0.45594000000E+02  0.51100000000E-03 0.  1.
         11   -1    0    0    0    0 -0.00000000000E+00 -0.00000000000E+00 -0.45593999997E+02  0.45594000000E+02  0.51100000000E-03 0. -1.
    9900012    2    1    2    0    0 -0.13338345621E-01 -0.87647433730E+00  0.79023146728E+00  0.90007808936E+02  0.90000071214E+02 0.  0.
        -12    1    1    2    0    0  0.13338345621E-01  0.87647433730E+00 -0.79023146728E+00  0.11801910639E+01  0.00000000000E+00 0.  1.
         11    1    3    3    0    0 -0.64855003788E+01  0.28982364536E+01  0.68013769759E+01  0.98346438031E+01  0.51100000000E-03 0. -1.
        -11    1    3    3    0    0  0.17876709381E+02  0.34749025316E+02  0.23028584079E+01  0.39145557294E+02  0.51100000000E-03 0.  1.
         12    1    3    3    0    0 -0.11404547348E+02 -0.38523736107E+02 -0.83140039166E+01  0.41027607839E+02  0.00000000000E+00 0. -1.
</event>
<event>
 7    1  0.2349719E-015  0.9000776E+02  0.7816164E-02  0.1186339E+00
        -11   -1    0    0    0    0  0.00000000000E+00  0.00000000000E+00  0.45593999997E+02  0.45594000000E+02  0.51100000000E-03 0. -1.
         11   -1    0    0    0    0 -0.00000000000E+00 -0.00000000000E+00 -0.45593999997E+02  0.45594000000E+02  0.51100000000E-03 0.  1.
    9900012    2    1    2    0    0 -0.71809991133E+00 -0.47248547907E+00  0.80874129336E+00  0.90007757444E+02  0.90000019043E+02 0.  0.
        -12    1    1    2    0    0  0.71809991133E+00  0.47248547907E+00 -0.80874129336E+00  0.11802425557E+01  0.00000000000E+00 0.  1.
         11    1    3    3    0    0  0.17102389838E+02 -0.28851210129E+02  0.19347249131E+02  0.38719505592E+02  0.51100000000E-03 0. -1.
        -11    1    3    3    0    0 -0.94166190061E+01 -0.55840771372E+01  0.13704709479E+01  0.11033259802E+02  0.51100000000E-03 0.  1.
        -12    1    3    3    0    0 -0.84038707432E+01  0.33962801787E+02 -0.19908978786E+02  0.40254992050E+02  0.00000000000E+00 0.  1.
</event>
<event>
 7    1  0.2349719E-015  0.9000777E+02  0.7816164E-02  0.1186339E+00
        -11   -1    0    0    0    0  0.00000000000E+00  0.00000000000E+00  0.45593999997E+02  0.45594000000E+02  0.51100000000E-03 0. -1.
         11   -1    0    0    0    0 -0.00000000000E+00 -0.00000000000E+00 -0.45593999997E+02  0.45594000000E+02  0.51100000000E-03 0.  1.
    9900012    2    1    2    0    0  0.26401250700E-01 -0.21068548420E+00  0.11609739580E+01  0.90007768696E+02  0.90000030443E+02 0.  0.
        -12    1    1    2    0    0 -0.26401250700E-01  0.21068548420E+00 -0.11609739580E+01  0.11802313038E+01  0.00000000000E+00 0.  1.
         11    1    3    3    0    0 -0.29417354718E+02  0.33372710025E+01 -0.20930572083E+02  0.36257509352E+02  0.51100000000E-03 0. -1.
        -11    1    3    3    0    0 -0.26338048593E+01  0.53609033949E+01 -0.72362647914E+01  0.93829495170E+01  0.51100000000E-03 0.  1.
        -12    1    3    3    0    0  0.32077560828E+02 -0.89088598815E+01  0.29327810833E+02  0.44367309828E+02  0.00000000000E+00 0.  1.
</event>
<event>
 7    1  0.2349719E-015  0.9000773E+02  0.7816164E-02  0.1186339E+00
        -11   -1    0    0    0    0  0.00000000000E+00  0.00000000000E+00  0.45593999997E+02  0.45594000000E+02  0.51100000000E-03 0. -1.
         11   -1    0    0    0    0 -0.00000000000E+00 -0.00000000000E+00 -0.45593999997E+02  0.45594000000E+02  0.51100000000E-03 0.  1.
    9900012    2    1    2    0    0 -0.12149994856E-01 -0.43107833230E+00  0.10986641887E+01  0.90007729205E+02  0.89999990430E+02 0.  0.
        -12    1    1    2    0    0  0.12149994856E-01  0.43107833230E+00 -0.10986641887E+01  0.11802707954E+01  0.00000000000E+00 0.  1.
         11    1    3    3    0    0  0.31793031641E+02 -0.19450224076E+02  0.37066206131E+01  0.37454600708E+02  0.51100000000E-03 0. -1.
        -11    1    3    3    0    0  0.68410941291E+01  0.65069756089E+01  0.57864061706E+01  0.11073562981E+02  0.51100000000E-03 0.  1.
        -12    1    3    3    0    0 -0.38646275765E+02  0.12512170135E+02 -0.83943625951E+01  0.41479565516E+02  0.00000000000E+00 0.  1.
</event>
<event>
 7    1  0.2349719E-015  0.9000769E+02  0.7816164E-02  0.1186339E+00
        -11   -1    0    0    0    0  0.00000000000E+00  0.00000000000E+00  0.45593999997E+02  0.45594000000E+02  0.51100000000E-03 0. -1.
         11   -1    0    0    0    0 -0.00000000000E+00 -0.00000000000E+00 -0.45593999997E+02  0.45594000000E+02  0.51100000000E-03 0.  1.
    9900012    2    1    2    0    0  0.11226220723E+01 -0.33520581855E+00 -0.14310838309E+00  0.90007693571E+02  0.89999954326E+02 0.  0.
        -12    1    1    2    0    0 -0.11226220723E+01  0.33520581855E+00  0.14310838309E+00  0.11803064294E+01  0.00000000000E+00 0.  1.
         11    1    3    3    0    0  0.29260306809E+01 -0.28227759436E+01 -0.45553314690E+01  0.61057976241E+01  0.51100000000E-03 0. -1.
        -11    1    3    3    0    0 -0.16615806402E+01  0.42378677770E+02 -0.55836865667E+01  0.42777222159E+02  0.51100000000E-03 0.  1.
         12    1    3    3    0    0 -0.14182796837E+00 -0.39891107645E+02  0.99959096527E+01  0.41124673787E+02  0.00000000000E+00 0. -1.
</event>
<event>
 7    1  0.2349719E-015  0.9000775E+02  0.7816164E-02  0.1186339E+00
        -11   -1    0    0    0    0  0.00000000000E+00  0.00000000000E+00  0.45593999997E+02  0.45594000000E+02  0.51100000000E-03 0.  1.
         11   -1    0    0    0    0 -0.00000000000E+00 -0.00000000000E+00 -0.45593999997E+02  0.45594000000E+02  0.51100000000E-03 0. -1.
    9900012    2    1    2    0    0 -0.18662034663E+00 -0.48811129334E+00 -0.10582626114E+01  0.90007745984E+02  0.90000007431E+02 0.  0.
        -12    1    1    2    0    0  0.18662034663E+00  0.48811129334E+00  0.10582626114E+01  0.11802540164E+01  0.00000000000E+00 0.  1.
         11    1    3    3    0    0 -0.10074571666E+02 -0.39313038309E+01 -0.22206125091E+01  0.11040075373E+02  0.51100000000E-03 0. -1.
        -11    1    3    3    0    0 -0.38431818070E+00  0.29115768483E+02  0.28026840263E+02  0.40415089388E+02  0.51100000000E-03 0.  1.
         12    1    3    3    0    0  0.10272269500E+02 -0.25672575945E+02 -0.26864490366E+02  0.38552581223E+02  0.00000000000E+00 0. -1.
</event>
<event>
 7    1  0.2349719E-015  0.9000770E+02  0.7816164E-02  0.1186339E+00
        -11   -1    0    0    0    0  0.00000000000E+00  0.00000000000E+00  0.45593999997E+02  0.45594000000E+02  0.51100000000E-03 0.  1.
         11   -1    0    0    0    0 -0.00000000000E+00 -0.00000000000E+00 -0.45593999997E+02  0.45594000000E+02  0.51100000000E-03 0. -1.
    9900012    2    1    2    0    0  0.10079269109E+01  0.40540720028E+00 -0.46133361276E+00  0.90007703275E+02  0.89999964159E+02 0.  0.
        -12    1    1    2    0    0 -0.10079269109E+01 -0.40540720028E+00  0.46133361276E+00  0.11802967245E+01  0.00000000000E+00 0.  1.
         11    1    3    3    0    0 -0.11966269709E+02  0.84245194049E+00  0.30754848225E+01  0.12383858170E+02  0.51100000000E-03 0. -1.
        -11    1    3    3    0    0 -0.14658571701E+02 -0.18160324345E+02  0.24946525612E+02  0.34161385291E+02  0.51100000000E-03 0.  1.
         12    1    3    3    0    0  0.27632768320E+02  0.17723279605E+02 -0.28483344047E+02  0.43462459815E+02  0.00000000000E+00 0. -1.
</event>
<event>
 7    1  0.2349719E-015  0.9000786E+02  0.7816164E-02  0.1186339E+00
        -11   -1    0    0    0    0  0.00000000000E+00  0.00000000000E+00  0.45593999997E+02  0.45594000000E+02  0.51100000000E-03 0. -1.
         11   -1    0    0    0    0 -0.00000000000E+00 -0.00000000000E+00 -0.45593999997E+02  0.45594000000E+02  0.51100000000E-03 0.  1.
    9900012    2    1    2    0    0 -0.72465053406E-02 -0.49746004276E+00  0.10701409185E+01  0.90007864164E+02  0.90000127171E+02 0.  0.
        -12    1    1    2    0    0  0.72465053406E-02  0.49746004276E+00 -0.10701409185E+01  0.11801358360E+01  0.00000000000E+00 0.  1.
         11    1    3    3    0    0  0.74889131366E+01 -0.56825933513E+01  0.52767971560E+01  0.10780550805E+02  0.51100000000E-03 0. -1.
        -11    1    3    3    0    0  0.77859220186E+00  0.13429878197E+02  0.35433873972E+02  0.37901546922E+02  0.51100000000E-03 0.  1.
         12    1    3    3    0    0 -0.82747518438E+01 -0.82447448884E+01 -0.39640530209E+02  0.41325766437E+02  0.00000000000E+00 0. -1.
</event>
<event>
 7    1  0.2349719E-015  0.9000774E+02  0.7816164E-02  0.1186339E+00
        -11   -1    0    0    0    0  0.00000000000E+00  0.00000000000E+00  0.45593999997E+02  0.45594000000E+02  0.51100000000E-03 0.  1.
         11   -1    0    0    0    0 -0.00000000000E+00 -0.00000000000E+00 -0.45593999997E+02  0.45594000000E+02  0.51100000000E-03 0. -1.
    9900012    2    1    2    0    0 -0.22194162387E+00 -0.55024123923E+00 -0.10202919435E+01  0.90007737675E+02  0.89999999012E+02 0.  0.
        -12    1    1    2    0    0  0.22194162387E+00  0.55024123923E+00  0.10202919435E+01  0.11802623250E+01  0.00000000000E+00 0.  1.
         11    1    3    3    0    0  0.58231019881E+01 -0.24745952810E+01 -0.74520941558E+01  0.97757785438E+01  0.51100000000E-03 0. -1.
        -11    1    3    3    0    0  0.12339348968E+02 -0.35817181293E+02  0.95487905841E+00  0.37895142208E+02  0.51100000000E-03 0.  1.
         12    1    3    3    0    0 -0.18384392580E+02  0.37741535334E+02  0.54769231539E+01  0.42336816923E+02  0.00000000000E+00 0. -1.
</event>
<event>
 7    1  0.2349719E-015  0.9000770E+02  0.7816164E-02  0.1186339E+00
        -11   -1    0    0    0    0  0.00000000000E+00  0.00000000000E+00  0.45593999997E+02  0.45594000000E+02  0.51100000000E-03 0. -1.
         11   -1    0    0    0    0 -0.00000000000E+00 -0.00000000000E+00 -0.45593999997E+02  0.45594000000E+02  0.51100000000E-03 0.  1.
    9900012    2    1    2    0    0  0.65653522693E-01 -0.11712591626E+01  0.13023188750E+00  0.90007695482E+02  0.89999956262E+02 0.  0.
        -12    1    1    2    0    0 -0.65653522693E-01  0.11712591626E+01 -0.13023188750E+00  0.11803045182E+01  0.00000000000E+00 0.  1.
         11    1    3    3    0    0 -0.18059771792E+02  0.97402810908E+00 -0.30358150283E+02  0.35337251970E+02  0.51100000000E-03 0. -1.
        -11    1    3    3    0    0 -0.52288673796E+01 -0.72393706249E+01 -0.62075979302E+01  0.10875836218E+02  0.51100000000E-03 0.  1.
        -12    1    3    3    0    0  0.23354292694E+02  0.50940833532E+01  0.36695980101E+02  0.43794607294E+02  0.00000000000E+00 0.  1.
</event>
<event>
 7    1  0.2349719E-015  0.9000769E+02  0.7816164E-02  0.1186339E+00
        -11   -1    0    0    0    0  0.00000000000E+00  0.00000000000E+00  0.45593999997E+02  0.45594000000E+02  0.51100000000E-03 0. -1.
         11   -1    0    0    0    0 -0.00000000000E+00 -0.00000000000E+00 -0.45593999997E+02  0.45594000000E+02  0.51100000000E-03 0.  1.
    9900012    2    1    2    0    0 -0.11362702184E+01  0.29608619316E+00  0.11979411497E+00  0.90007691704E+02  0.89999952435E+02 0.  0.
        -12    1    1    2    0    0  0.11362702184E+01 -0.29608619316E+00 -0.11979411497E+00  0.11803082957E+01  0.00000000000E+00 0.  1.
         11    1    3    3    0    0 -0.47609836535E+01 -0.35086552877E+02  0.18807537806E+02  0.40093099615E+02  0.51100000000E-03 0. -1.
        -11    1    3    3    0    0 -0.82517867975E+01 -0.24431096174E+00 -0.62490519855E+01  0.10353855522E+02  0.51100000000E-03 0.  1.
        -12    1    3    3    0    0  0.11876500233E+02  0.35626950032E+02 -0.12438691705E+02  0.39560736567E+02  0.00000000000E+00 0.  1.
</event>
<event>
 7    1  0.2349719E-015  0.9000768E+02  0.7816164E-02  0.1186339E+00
        -11   -1    0    0    0    0  0.00000000000E+00  0.00000000000E+00  0.45593999997E+02  0.45594000000E+02  0.51100000000E-03 0.  1.
         11   -1    0    0    0    0 -0.00000000000E+00 -0.00000000000E+00 -0.45593999997E+02  0.45594000000E+02  0.51100000000E-03 0. -1.
    9900012    2    1    2    0    0 -0.13919364149E+00  0.72279433220E+00 -0.92268055363E+00  0.90007683974E+02  0.89999944603E+02 0.  0.
        -12    1    1    2    0    0  0.13919364149E+00 -0.72279433220E+00  0.92268055363E+00  0.11803160257E+01  0.00000000000E+00 0.  1.
         11    1    3    3    0    0 -0.36170956153E+02 -0.17998642222E+02 -0.42278085022E+01  0.40622205206E+02  0.51100000000E-03 0. -1.
        -11    1    3    3    0    0 -0.11337838167E+01  0.64460278477E+01  0.75774234180E+01  0.10012696274E+02  0.51100000000E-03 0.  1.
        -12    1    3    3    0    0  0.37165546328E+02  0.12275408706E+02 -0.42722954694E+01  0.39372782494E+02  0.00000000000E+00 0.  1.
</event>
<event>
 7    1  0.2965216E-015  0.9000777E+02  0.7816164E-02  0.1186339E+00
        -11   -1    0    0    0    0  0.00000000000E+00  0.00000000000E+00  0.45593999997E+02  0.45594000000E+02  0.51100000000E-03 0.  1.
         11   -1    0    0    0    0 -0.00000000000E+00 -0.00000000000E+00 -0.45593999997E+02  0.45594000000E+02  0.51100000000E-03 0. -1.
    9900012    2    1    2    0    0 -0.78516191181E+00 -0.29614772530E-01 -0.88066946162E+00  0.90007773342E+02  0.90000035151E+02 0.  0.
        -12    1    1    2    0    0  0.78516191181E+00  0.29614772530E-01  0.88066946162E+00  0.11802266575E+01  0.00000000000E+00 0.  1.
         11    1    3    3    0    0  0.22212097147E+02 -0.18735353431E+02 -0.22120566820E+02  0.36519997324E+02  0.51100000000E-03 0. -1.
        -11    1    3    3    0    0  0.39742713798E+01 -0.22012518369E+01 -0.75689621968E+01  0.88277704800E+01  0.51100000000E-03 0.  1.
        -12    1    3    3    0    0 -0.26971530439E+02  0.20906990495E+02  0.28808859555E+02  0.44660005538E+02  0.00000000000E+00 0.  1.
</event>
<event>
 7    1  0.2349719E-015  0.9000773E+02  0.7816164E-02  0.1186339E+00
        -11   -1    0    0    0    0  0.00000000000E+00  0.00000000000E+00  0.45593999997E+02  0.45594000000E+02  0.51100000000E-03 0.  1.
         11   -1    0    0    0    0 -0.00000000000E+00 -0.00000000000E+00 -0.45593999997E+02  0.45594000000E+02  0.51100000000E-03 0. -1.
    9900012    2    1    2    0    0 -0.25496310107E+00 -0.94835290383E+00 -0.65472754854E+00  0.90007725635E+02  0.89999986814E+02 0.  0.
        -12    1    1    2    0    0  0.25496310107E+00  0.94835290383E+00  0.65472754854E+00  0.11802743647E+01  0.00000000000E+00 0.  1.
         11    1    3    3    0    0 -0.23567199900E+02 -0.11522164433E+02 -0.26019342368E+02  0.36948333681E+02  0.51100000000E-03 0. -1.
        -11    1    3    3    0    0 -0.97266798151E+01 -0.31830346349E+01  0.23220511669E+01  0.10494376189E+02  0.51100000000E-03 0.  1.
        -12    1    3    3    0    0  0.33038916614E+02  0.13756846164E+02  0.23042563652E+02  0.42565015765E+02  0.00000000000E+00 0.  1.
</event>
<event>
 7    1  0.2349719E-015  0.9000778E+02  0.7816164E-02  0.1186339E+00
        -11   -1    0    0    0    0  0.00000000000E+00  0.00000000000E+00  0.45593999997E+02  0.45594000000E+02  0.51100000000E-03 0.  1.
         11   -1    0    0    0    0 -0.00000000000E+00 -0.00000000000E+00 -0.45593999997E+02  0.45594000000E+02  0.51100000000E-03 0. -1.
    9900012    2    1    2    0    0  0.97360326062E+00 -0.36656334305E+00 -0.55735396387E+00  0.90007781616E+02  0.90000043533E+02 0.  0.
        -12    1    1    2    0    0 -0.97360326062E+00  0.36656334305E+00  0.55735396387E+00  0.11802183843E+01  0.00000000000E+00 0.  1.
         11    1    3    3    0    0 -0.18180286012E+01  0.39931476237E+02  0.61392354564E+01  0.40441540954E+02  0.51100000000E-03 0. -1.
        -11    1    3    3    0    0  0.81166333159E+01 -0.48522799436E+00 -0.46047600968E+01  0.93444635160E+01  0.51100000000E-03 0.  1.
        -12    1    3    3    0    0 -0.53250014540E+01 -0.39812811586E+02 -0.20918293235E+01  0.40221777146E+02  0.00000000000E+00 0.  1.
</event>
<event>
 7    1  0.2349719E-015  0.9000775E+02  0.7816164E-02  0.1186339E+00
        -11   -1    0    0    0    0  0.00000000000E+00  0.00000000000E+00  0.45593999997E+02  0.45594000000E+02  0.51100000000E-03 0. -1.
         11   -1    0    0    0    0 -0.00000000000E+00 -0.00000000000E+00 -0.45593999997E+02  0.45594000000E+02  0.51100000000E-03 0.  1.
    9900012    2    1    2    0    0  0.80731932115E+00  0.82017572021E+00 -0.26177525000E+00  0.90007754695E+02  0.90000016257E+02 0.  0.
        -12    1    1    2    0    0 -0.80731932115E+00 -0.82017572021E+00  0.26177525000E+00  0.11802453049E+01  0.00000000000E+00 0.  1.
         11    1    3    3    0    0 -0.16079562510E+02 -0.79549694275E+01  0.27893744442E+02  0.33164662645E+02  0.51100000000E-03 0. -1.
        -11    1    3    3    0    0 -0.17813567780E+01 -0.74977726452E+01  0.92142562153E+01  0.12012174843E+02  0.51100000000E-03 0.  1.
        -12    1    3    3    0    0  0.18668238609E+02  0.16272917793E+02 -0.37369775907E+02  0.44830917207E+02  0.00000000000E+00 0.  1.
</event>
<event>
 7    1  0.2349719E-015  0.9000772E+02  0.7816164E-02  0.1186339E+00
        -11   -1    0    0    0    0  0.00000000000E+00  0.00000000000E+00  0.45593999997E+02  0.45594000000E+02  0.51100000000E-03 0.  1.
         11   -1    0    0    0    0 -0.00000000000E+00 -0.00000000000E+00 -0.45593999997E+02  0.45594000000E+02  0.51100000000E-03 0. -1.
    9900012    2    1    2    0    0 -0.10225202754E+00  0.11665174303E+01 -0.14780655264E+00  0.90007718182E+02  0.89999979262E+02 0.  0.
        -12    1    1    2    0    0  0.10225202754E+00 -0.11665174303E+01  0.14780655264E+00  0.11802818178E+01  0.00000000000E+00 0.  1.
         11    1    3    3    0    0  0.22529284654E+02 -0.21059734656E+02  0.22511115666E+02  0.38181558632E+02  0.51100000000E-03 0. -1.
        -11    1    3    3    0    0  0.84544978611E+01  0.50198374646E+00 -0.61352106959E+01  0.10458074981E+02  0.51100000000E-03 0.  1.
        -12    1    3    3    0    0 -0.31086034543E+02  0.21724268340E+02 -0.16523711522E+02  0.41368084569E+02  0.00000000000E+00 0.  1.
</event>
<event>
 7    1  0.2349719E-015  0.9000777E+02  0.7816164E-02  0.1186339E+00
        -11   -1    0    0    0    0  0.00000000000E+00  0.00000000000E+00  0.45593999997E+02  0.45594000000E+02  0.51100000000E-03 0.  1.
         11   -1    0    0    0    0 -0.00000000000E+00 -0.00000000000E+00 -0.45593999997E+02  0.45594000000E+02  0.51100000000E-03 0. -1.
    9900012    2    1    2    0    0 -0.15290357088E+00  0.64411747937E+00 -0.97706948993E+00  0.90007774760E+02  0.90000036587E+02 0.  0.
        -12    1    1    2    0    0  0.15290357088E+00 -0.64411747937E+00  0.97706948993E+00  0.11802252401E+01  0.00000000000E+00 0.  1.
         11    1    3    3    0    0  0.10734796346E+02 -0.35516314213E+02 -0.13366292629E+01  0.37127227286E+02  0.51100000000E-03 0. -1.
        -11    1    3    3    0    0 -0.27943202190E+01 -0.52720462202E+01  0.79990215083E+01  0.99793307484E+01  0.51100000000E-03 0.  1.
        -12    1    3    3    0    0 -0.80933796983E+01  0.41432477913E+02 -0.76394617354E+01  0.42901216726E+02  0.00000000000E+00 0.  1.
</event>
<event>
 7    1  0.2349719E-015  0.9000775E+02  0.7816164E-02  0.1186339E+00
        -11   -1    0    0    0    0  0.00000000000E+00  0.00000000000E+00  0.45593999997E+02  0.45594000000E+02  0.51100000000E-03 0. -1.
         11   -1    0    0    0    0 -0.00000000000E+00 -0.00000000000E+00 -0.45593999997E+02  0.45594000000E+02  0.51100000000E-03 0.  1.
    9900012    2    1    2    0    0  0.78076114468E+00 -0.87994902018E+00  0.95360549335E-01  0.90007749231E+02  0.90000010721E+02 0.  0.
        -12    1    1    2    0    0 -0.78076114468E+00  0.87994902018E+00 -0.95360549335E-01  0.11802507689E+01  0.00000000000E+00 0.  1.
         11    1    3    3    0    0  0.70346158002E+01 -0.56683005578E+01  0.71758459817E+01  0.11537253420E+02  0.51100000000E-03 0. -1.
        -11    1    3    3    0    0  0.20944146271E+02  0.32186930418E+02  0.31555181998E+01  0.38530676715E+02  0.51100000000E-03 0.  1.
         12    1    3    3    0    0 -0.27198000926E+02 -0.27398578880E+02 -0.10236003632E+02  0.39939819096E+02  0.00000000000E+00 0. -1.
</event>
<event>
 7    1  0.2349719E-015  0.9000776E+02  0.7816164E-02  0.1186339E+00
        -11   -1    0    0    0    0  0.00000000000E+00  0.00000000000E+00  0.45593999997E+02  0.45594000000E+02  0.51100000000E-03 0. -1.
         11   -1    0    0    0    0 -0.00000000000E+00 -0.00000000000E+00 -0.45593999997E+02  0.45594000000E+02  0.51100000000E-03 0.  1.
    9900012    2    1    2    0    0 -0.33174974856E+00 -0.99064833920E+00  0.54910889950E+00  0.90007761630E+02  0.90000023283E+02 0.  0.
        -12    1    1    2    0    0  0.33174974856E+00  0.99064833920E+00 -0.54910889950E+00  0.11802383705E+01  0.00000000000E+00 0.  1.
         11    1    3    3    0    0 -0.61396260976E+01 -0.59777795633E+01 -0.64470348962E+01  0.10723484338E+02  0.51100000000E-03 0. -1.
        -11    1    3    3    0    0 -0.71791922242E+01 -0.19413788797E+02 -0.27917053796E+02  0.34753386732E+02  0.51100000000E-03 0.  1.
         12    1    3    3    0    0  0.12987068573E+02  0.24400920021E+02  0.34913197592E+02  0.44530890560E+02  0.00000000000E+00 0. -1.
</event>
<event>
 7    1  0.2349719E-015  0.9000756E+02  0.7816164E-02  0.1186339E+00
        -11   -1    0    0    0    0  0.00000000000E+00  0.00000000000E+00  0.45593999997E+02  0.45594000000E+02  0.51100000000E-03 0.  1.
         11   -1    0    0    0    0 -0.00000000000E+00 -0.00000000000E+00 -0.45593999997E+02  0.45594000000E+02  0.51100000000E-03 0. -1.
    9900012    2    1    2    0    0  0.71696002130E+00  0.44818660206E+00 -0.82373420064E+00  0.90007559008E+02  0.89999817987E+02 0.  0.
        -12    1    1    2    0    0 -0.71696002130E+00 -0.44818660206E+00  0.82373420064E+00  0.11804409921E+01  0.00000000000E+00 0.  1.
         11    1    3    3    0    0  0.32587125151E+01 -0.72504888185E+01  0.45881162244E+01  0.91782136668E+01  0.51100000000E-03 0. -1.
        -11    1    3    3    0    0  0.38854310862E+02  0.38469510063E+01 -0.15414171762E+01  0.39074703733E+02  0.51100000000E-03 0.  1.
         12    1    3    3    0    0 -0.41396063356E+02  0.38517244144E+01 -0.38704332488E+01  0.41754641609E+02  0.00000000000E+00 0. -1.
</event>
<event>
 7    1  0.2349719E-015  0.9000775E+02  0.7816164E-02  0.1186339E+00
        -11   -1    0    0    0    0  0.00000000000E+00  0.00000000000E+00  0.45593999997E+02  0.45594000000E+02  0.51100000000E-03 0.  1.
         11   -1    0    0    0    0 -0.00000000000E+00 -0.00000000000E+00 -0.45593999997E+02  0.45594000000E+02  0.51100000000E-03 0. -1.
    9900012    2    1    2    0    0  0.88351291427E+00 -0.20634832994E+00 -0.75485646074E+00  0.90007753001E+02  0.90000014540E+02 0.  0.
        -12    1    1    2    0    0 -0.88351291427E+00  0.20634832994E+00  0.75485646074E+00  0.11802469993E+01  0.00000000000E+00 0.  1.
         11    1    3    3    0    0 -0.27374668131E+02 -0.71354421186E+01 -0.15618845212E+02  0.32314630054E+02  0.51100000000E-03 0. -1.
        -11    1    3    3    0    0 -0.90001131179E+01 -0.10522298201E+02  0.79712891162E+01  0.15976928553E+02  0.51100000000E-03 0.  1.
        -12    1    3    3    0    0  0.37258294164E+02  0.17451391990E+02  0.68926996352E+01  0.41716194393E+02  0.00000000000E+00 0.  1.
</event>
<event>
 7    1  0.2349719E-015  0.9000791E+02  0.7816164E-02  0.1186339E+00
        -11   -1    0    0    0    0  0.00000000000E+00  0.00000000000E+00  0.45593999997E+02  0.45594000000E+02  0.51100000000E-03 0.  1.
         11   -1    0    0    0    0 -0.00000000000E+00 -0.00000000000E+00 -0.45593999997E+02  0.45594000000E+02  0.51100000000E-03 0. -1.
    9900012    2    1    2    0    0 -0.93283624374E+00 -0.47613255233E+00 -0.54380262783E+00  0.90007912307E+02  0.90000175949E+02 0.  0.
        -12    1    1    2    0    0  0.93283624374E+00  0.47613255233E+00  0.54380262783E+00  0.11800876930E+01  0.00000000000E+00 0.  1.
         11    1    3    3    0    0 -0.12350566015E+02 -0.26609240308E+02 -0.24421265528E+02  0.38170490708E+02  0.51100000000E-03 0. -1.
        -11    1    3    3    0    0 -0.22120755180E+01 -0.34743309715E+01 -0.62283447779E+01  0.74670297127E+01  0.51100000000E-03 0.  1.
        -12    1    3    3    0    0  0.13629805289E+02  0.29607438727E+02  0.30105807678E+02  0.44370391886E+02  0.00000000000E+00 0.  1.
</event>
<event>
 7    1  0.2349719E-015  0.9000678E+02  0.7816164E-02  0.1186341E+00
        -11   -1    0    0    0    0  0.00000000000E+00  0.00000000000E+00  0.45593999997E+02  0.45594000000E+02  0.51100000000E-03 0.  1.
         11   -1    0    0    0    0 -0.00000000000E+00 -0.00000000000E+00 -0.45593999997E+02  0.45594000000E+02  0.51100000000E-03 0. -1.
    9900012    2    1    2    0    0  0.42969972759E+00  0.85928521483E+00 -0.68722208628E+00  0.90006777272E+02  0.89999025927E+02 0.  0.
        -12    1    1    2    0    0 -0.42969972759E+00 -0.85928521483E+00  0.68722208628E+00  0.11812227276E+01  0.00000000000E+00 0.  1.
         11    1    3    3    0    0 -0.97755839670E+01 -0.68648017320E+00 -0.15142395679E+00  0.98008278426E+01  0.51100000000E-03 0. -1.
        -11    1    3    3    0    0 -0.32974950964E+02  0.59650966818E+01  0.11042132981E+02  0.35282551928E+02  0.51100000000E-03 0.  1.
         12    1    3    3    0    0  0.43180234659E+02 -0.44193312938E+01 -0.11577931111E+02  0.44923397502E+02  0.00000000000E+00 0. -1.
</event>
<event>
 7    1  0.2349719E-015  0.9000773E+02  0.7816164E-02  0.1186339E+00
        -11   -1    0    0    0    0  0.00000000000E+00  0.00000000000E+00  0.45593999997E+02  0.45594000000E+02  0.51100000000E-03 0. -1.
         11   -1    0    0    0    0 -0.00000000000E+00 -0.00000000000E+00 -0.45593999997E+02  0.45594000000E+02  0.51100000000E-03 0.  1.
    9900012    2    1    2    0    0 -0.72790556702E+00  0.89096417213E+00 -0.26338423323E+00  0.90007730995E+02  0.89999992244E+02 0.  0.
        -12    1    1    2    0    0  0.72790556702E+00 -0.89096417213E+00  0.26338423323E+00  0.11802690053E+01  0.00000000000E+00 0.  1.
         11    1    3    3    0    0  0.90725334703E+01  0.68247220928E+01  0.25669585854E+01  0.11639457541E+02  0.51100000000E-03 0. -1.
        -11    1    3    3    0    0  0.21177291431E+02  0.24913129330E+02  0.72784872328E+01  0.33498030719E+02  0.51100000000E-03 0.  1.
         12    1    3    3    0    0 -0.30977730469E+02 -0.30846887251E+02 -0.10108830051E+02  0.44870242735E+02  0.00000000000E+00 0. -1.
</event>
<event>
 7    1  0.2349719E-015  0.9000775E+02  0.7816164E-02  0.1186339E+00
        -11   -1    0    0    0    0  0.00000000000E+00  0.00000000000E+00  0.45593999997E+02  0.45594000000E+02  0.51100000000E-03 0.  1.
         11   -1    0    0    0    0 -0.00000000000E+00 -0.00000000000E+00 -0.45593999997E+02  0.45594000000E+02  0.51100000000E-03 0. -1.
    9900012    2    1    2    0    0 -0.54133601192E+00  0.94082836803E+00 -0.46345554456E+00  0.90007748443E+02  0.90000009922E+02 0.  0.
        -12    1    1    2    0    0  0.54133601192E+00 -0.94082836803E+00  0.46345554456E+00  0.11802515569E+01  0.00000000000E+00 0.  1.
         11    1    3    3    0    0  0.10399651190E+02 -0.45991253257E+01  0.87361787761E+00  0.11404731785E+02  0.51100000000E-03 0. -1.
        -11    1    3    3    0    0 -0.35680587320E+02 -0.18137193064E+02  0.12103479558E+02  0.41815742268E+02  0.51100000000E-03 0.  1.
         12    1    3    3    0    0  0.24739600118E+02  0.23677146758E+02 -0.13440552981E+02  0.36787274389E+02  0.00000000000E+00 0. -1.
</event>
<event>
 7    1  0.2349719E-015  0.9000781E+02  0.7816164E-02  0.1186339E+00
        -11   -1    0    0    0    0  0.00000000000E+00  0.00000000000E+00  0.45593999997E+02  0.45594000000E+02  0.51100000000E-03 0.  1.
         11   -1    0    0    0    0 -0.00000000000E+00 -0.00000000000E+00 -0.45593999997E+02  0.45594000000E+02  0.51100000000E-03 0. -1.
    9900012    2    1    2    0    0  0.44489694995E+00  0.38011371773E+00 -0.10249044718E+01  0.90007809799E+02  0.90000072088E+02 0.  0.
        -12    1    1    2    0    0 -0.44489694995E+00 -0.38011371773E+00  0.10249044718E+01  0.11801902011E+01  0.00000000000E+00 0.  1.
         11    1    3    3    0    0  0.61199075645E+01 -0.97487127088E+01  0.46043678143E+00  0.11519664508E+02  0.51100000000E-03 0. -1.
        -11    1    3    3    0    0  0.29355247713E+02 -0.70603463147E+01  0.17708710314E+02  0.35002535331E+02  0.51100000000E-03 0.  1.
         12    1    3    3    0    0 -0.35030258328E+02  0.17189172741E+02 -0.19194051567E+02  0.43485609960E+02  0.00000000000E+00 0. -1.
</event>
<event>
 7    1  0.2349719E-015  0.9000779E+02  0.7816164E-02  0.1186339E+00
        -11   -1    0    0    0    0  0.00000000000E+00  0.00000000000E+00  0.45593999997E+02  0.45594000000E+02  0.51100000000E-03 0. -1.
         11   -1    0    0    0    0 -0.00000000000E+00 -0.00000000000E+00 -0.45593999997E+02  0.45594000000E+02  0.51100000000E-03 0.  1.
    9900012    2    1    2    0    0  0.82795267021E+00 -0.65720802668E+00  0.52484602254E+00  0.90007791814E+02  0.90000053866E+02 0.  0.
        -12    1    1    2    0    0 -0.82795267021E+00  0.65720802668E+00 -0.52484602254E+00  0.11802081858E+01  0.00000000000E+00 0.  1.
         11    1    3    3    0    0 -0.62140399854E+01 -0.64530232632E+01 -0.30718334361E+01  0.94705840948E+01  0.51100000000E-03 0. -1.
        -11    1    3    3    0    0 -0.26355783546E+02 -0.16845646921E+02 -0.16604722863E+02  0.35413556276E+02  0.51100000000E-03 0.  1.
         12    1    3    3    0    0  0.33397776202E+02  0.22641462158E+02  0.20201402321E+02  0.45123651443E+02  0.00000000000E+00 0. -1.
</event>
<event>
 7    1  0.2349719E-015  0.9000775E+02  0.7816164E-02  0.1186339E+00
        -11   -1    0    0    0    0  0.00000000000E+00  0.00000000000E+00  0.45593999997E+02  0.45594000000E+02  0.51100000000E-03 0.  1.
         11   -1    0    0    0    0 -0.00000000000E+00 -0.00000000000E+00 -0.45593999997E+02  0.45594000000E+02  0.51100000000E-03 0. -1.
    9900012    2    1    2    0    0 -0.17577642440E+00  0.95656851304E-01 -0.11631562602E+01  0.90007754233E+02  0.90000015789E+02 0.  0.
        -12    1    1    2    0    0  0.17577642440E+00 -0.95656851304E-01  0.11631562602E+01  0.11802457668E+01  0.00000000000E+00 0.  1.
         11    1    3    3    0    0 -0.51916263681E+01 -0.99229043974E+01  0.58482350710E+00  0.11214233582E+02  0.51100000000E-03 0. -1.
        -11    1    3    3    0    0  0.64180473001E+01 -0.19673145101E+00  0.37585989687E+02  0.38130521311E+02  0.51100000000E-03 0.  1.
         12    1    3    3    0    0 -0.14021973564E+01  0.10215292700E+02 -0.39333969454E+02  0.40662999341E+02  0.00000000000E+00 0. -1.
</event>
<event>
 7    1  0.2349719E-015  0.9000764E+02  0.7816164E-02  0.1186339E+00
        -11   -1    0    0    0    0  0.00000000000E+00  0.00000000000E+00  0.45593999997E+02  0.45594000000E+02  0.51100000000E-03 0.  1.
         11   -1    0    0    0    0 -0.00000000000E+00 -0.00000000000E+00 -0.45593999997E+02  0.45594000000E+02  0.51100000000E-03 0. -1.
    9900012    2    1    2    0    0 -0.30596511984E-01 -0.56452022344E+00 -0.10361571214E+01  0.90007643779E+02  0.89999903876E+02 0.  0.
        -12    1    1    2    0    0  0.30596511984E-01  0.56452022344E+00  0.10361571214E+01  0.11803562215E+01  0.00000000000E+00 0.  1.
         11    1    3    3    0    0  0.25478951812E+01 -0.72505690335E+01  0.65890681319E+01  0.10123158611E+02  0.51100000000E-03 0. -1.
        -11    1    3    3    0    0  0.19696521573E+01 -0.28907927474E+02  0.19479950789E+02  0.34914413692E+02  0.51100000000E-03 0.  1.
         12    1    3    3    0    0 -0.45481438505E+01  0.35593976284E+02 -0.27105176042E+02  0.44970071475E+02  0.00000000000E+00 0. -1.
</event>
<event>
 7    1  0.2349719E-015  0.9000776E+02  0.7816164E-02  0.1186339E+00
        -11   -1    0    0    0    0  0.00000000000E+00  0.00000000000E+00  0.45593999997E+02  0.45594000000E+02  0.51100000000E-03 0.  1.
         11   -1    0    0    0    0 -0.00000000000E+00 -0.00000000000E+00 -0.45593999997E+02  0.45594000000E+02  0.51100000000E-03 0. -1.
    9900012    2    1    2    0    0 -0.24638974734E-01 -0.10662938969E+01 -0.50534863447E+00  0.90007759772E+02  0.90000021401E+02 0.  0.
        -12    1    1    2    0    0  0.24638974734E-01  0.10662938969E+01  0.50534863447E+00  0.11802402281E+01  0.00000000000E+00 0.  1.
         11    1    3    3    0    0  0.30573712833E+02  0.28127013697E+02 -0.63423571309E+01  0.42025067639E+02  0.51100000000E-03 0. -1.
        -11    1    3    3    0    0  0.19742368817E+00 -0.90508127131E+01  0.65560591956E+01  0.11177571262E+02  0.51100000000E-03 0.  1.
        -12    1    3    3    0    0 -0.30795775495E+02 -0.20142494880E+02 -0.71905069913E+00  0.36805120870E+02  0.00000000000E+00 0.  1.
</event>
<event>
 7    1  0.2349719E-015  0.9000773E+02  0.7816164E-02  0.1186339E+00
        -11   -1    0    0    0    0  0.00000000000E+00  0.00000000000E+00  0.45593999997E+02  0.45594000000E+02  0.51100000000E-03 0. -1.
         11   -1    0    0    0    0 -0.00000000000E+00 -0.00000000000E+00 -0.45593999997E+02  0.45594000000E+02  0.51100000000E-03 0.  1.
    9900012    2    1    2    0    0  0.32690661178E+00  0.11328308887E+01 -0.53531807345E-01  0.90007729095E+02  0.89999990319E+02 0.  0.
        -12    1    1    2    0    0 -0.32690661178E+00 -0.11328308887E+01  0.53531807345E-01  0.11802709052E+01  0.00000000000E+00 0.  1.
         11    1    3    3    0    0  0.21068593853E+01  0.12118439915E+02 -0.60949303774E+01  0.13727476789E+02  0.51100000000E-03 0. -1.
        -11    1    3    3    0    0  0.28069994723E+02 -0.63183093068E+01 -0.21089535560E+02  0.35673717869E+02  0.51100000000E-03 0.  1.
         12    1    3    3    0    0 -0.29849947496E+02 -0.46672997191E+01  0.27130934130E+02  0.40606534436E+02  0.00000000000E+00 0. -1.
</event>
<event>
 7    1  0.2349719E-015  0.9000773E+02  0.7816164E-02  0.1186339E+00
        -11   -1    0    0    0    0  0.00000000000E+00  0.00000000000E+00  0.45593999997E+02  0.45594000000E+02  0.51100000000E-03 0.  1.
         11   -1    0    0    0    0 -0.00000000000E+00 -0.00000000000E+00 -0.45593999997E+02  0.45594000000E+02  0.51100000000E-03 0. -1.
    9900012    2    1    2    0    0 -0.86175638247E+00  0.58539409325E+00  0.55472743598E+00  0.90007731880E+02  0.89999993141E+02 0.  0.
        -12    1    1    2    0    0  0.86175638247E+00 -0.58539409325E+00 -0.55472743598E+00  0.11802681201E+01  0.00000000000E+00 0.  1.
         11    1    3    3    0    0 -0.10733923471E+02 -0.11175089706E+02 -0.16028735372E+01  0.15577835114E+02  0.51100000000E-03 0. -1.
        -11    1    3    3    0    0  0.34086492177E+02 -0.81246648092E+01 -0.15664178603E+02  0.38383142377E+02  0.51100000000E-03 0.  1.
         12    1    3    3    0    0 -0.24214325088E+02  0.19885148608E+02  0.17821779576E+02  0.36046754388E+02  0.00000000000E+00 0. -1.
</event>
<event>
 7    1  0.2349719E-015  0.9000771E+02  0.7816164E-02  0.1186339E+00
        -11   -1    0    0    0    0  0.00000000000E+00  0.00000000000E+00  0.45593999997E+02  0.45594000000E+02  0.51100000000E-03 0.  1.
         11   -1    0    0    0    0 -0.00000000000E+00 -0.00000000000E+00 -0.45593999997E+02  0.45594000000E+02  0.51100000000E-03 0. -1.
    9900012    2    1    2    0    0 -0.54579178557E+00 -0.90501691732E+00 -0.52547992852E+00  0.90007714675E+02  0.89999975708E+02 0.  0.
        -12    1    1    2    0    0  0.54579178557E+00  0.90501691732E+00  0.52547992852E+00  0.11802853253E+01  0.00000000000E+00 0.  1.
         11    1    3    3    0    0  0.79087012427E+01 -0.30017571762E+02  0.18837470868E+02  0.36310500944E+02  0.51100000000E-03 0. -1.
        -11    1    3    3    0    0  0.63927353030E+00 -0.63358674447E+01  0.63327255054E+01  0.89808295559E+01  0.51100000000E-03 0.  1.
        -12    1    3    3    0    0 -0.90937665586E+01  0.35448422289E+02 -0.25695676302E+02  0.44716384175E+02  0.00000000000E+00 0.  1.
</event>
<event>
 7    1  0.2349719E-015  0.9000764E+02  0.7816164E-02  0.1186339E+00
        -11   -1    0    0    0    0  0.00000000000E+00  0.00000000000E+00  0.45593999997E+02  0.45594000000E+02  0.51100000000E-03 0. -1.
         11   -1    0    0    0    0 -0.00000000000E+00 -0.00000000000E+00 -0.45593999997E+02  0.45594000000E+02  0.51100000000E-03 0.  1.
    9900012    2    1    2    0    0  0.94681691302E+00 -0.44480767887E+00  0.54675446742E+00  0.90007637096E+02  0.89999897105E+02 0.  0.
        -12    1    1    2    0    0 -0.94681691302E+00  0.44480767887E+00 -0.54675446742E+00  0.11803629042E+01  0.00000000000E+00 0.  1.
         11    1    3    3    0    0  0.49073416479E+00  0.35485010451E+02  0.16265788474E+02  0.39038476682E+02  0.51100000000E-03 0. -1.
        -11    1    3    3    0    0 -0.18136637441E+01  0.53063905034E+01 -0.66275333505E+01  0.86816677502E+01  0.51100000000E-03 0.  1.
        -12    1    3    3    0    0  0.22697464923E+01 -0.41236208633E+02 -0.90915006559E+01  0.42287492663E+02  0.00000000000E+00 0.  1.
</event>
<event>
 7    1  0.2349719E-015  0.9000784E+02  0.7816164E-02  0.1186339E+00
        -11   -1    0    0    0    0  0.00000000000E+00  0.00000000000E+00  0.45593999997E+02  0.45594000000E+02  0.51100000000E-03 0. -1.
         11   -1    0    0    0    0 -0.00000000000E+00 -0.00000000000E+00 -0.45593999997E+02  0.45594000000E+02  0.51100000000E-03 0.  1.
    9900012    2    1    2    0    0 -0.79128143563E-01  0.23999993908E+00  0.11527864402E+01  0.90007839922E+02  0.90000102609E+02 0.  0.
        -12    1    1    2    0    0  0.79128143563E-01 -0.23999993908E+00 -0.11527864402E+01  0.11801600783E+01  0.00000000000E+00 0.  1.
         11    1    3    3    0    0 -0.49376465654E+00 -0.59371740554E+01 -0.75738842131E+01  0.96362628459E+01  0.51100000000E-03 0. -1.
        -11    1    3    3    0    0  0.18784101791E+02  0.74479513947E+01 -0.30759569326E+02  0.36803064621E+02  0.51100000000E-03 0.  1.
         12    1    3    3    0    0 -0.18369465278E+02 -0.12707774002E+01  0.39486239980E+02  0.43568512455E+02  0.00000000000E+00 0. -1.
</event>
<event>
 7    1  0.2349719E-015  0.9000775E+02  0.7816164E-02  0.1186339E+00
        -11   -1    0    0    0    0  0.00000000000E+00  0.00000000000E+00  0.45593999997E+02  0.45594000000E+02  0.51100000000E-03 0.  1.
         11   -1    0    0    0    0 -0.00000000000E+00 -0.00000000000E+00 -0.45593999997E+02  0.45594000000E+02  0.51100000000E-03 0. -1.
    9900012    2    1    2    0    0 -0.33969498184E+00 -0.17755851152E+00 -0.11162742420E+01  0.90007750921E+02  0.90000012433E+02 0.  0.
        -12    1    1    2    0    0  0.33969498184E+00  0.17755851152E+00  0.11162742420E+01  0.11802490793E+01  0.00000000000E+00 0.  1.
         11    1    3    3    0    0 -0.90124975319E+00 -0.35948097078E+02 -0.12716629340E+02  0.38141717275E+02  0.51100000000E-03 0. -1.
        -11    1    3    3    0    0  0.38365510651E+00  0.14890073706E+01 -0.10803613855E+02  0.10912488569E+02  0.51100000000E-03 0.  1.
        -12    1    3    3    0    0  0.17789966484E+00  0.34281531196E+02  0.22403968953E+02  0.40953545076E+02  0.00000000000E+00 0.  1.
</event>
<event>
 7    1  0.2349719E-015  0.9000786E+02  0.7816164E-02  0.1186339E+00
        -11   -1    0    0    0    0  0.00000000000E+00  0.00000000000E+00  0.45593999997E+02  0.45594000000E+02  0.51100000000E-03 0.  1.
         11   -1    0    0    0    0 -0.00000000000E+00 -0.00000000000E+00 -0.45593999997E+02  0.45594000000E+02  0.51100000000E-03 0. -1.
    9900012    2    1    2    0    0  0.64508919286E+00 -0.30376461460E+00 -0.94037834181E+00  0.90007862536E+02  0.90000125522E+02 0.  0.
        -12    1    1    2    0    0 -0.64508919286E+00  0.30376461460E+00  0.94037834181E+00  0.11801374638E+01  0.00000000000E+00 0.  1.
         11    1    3    3    0    0  0.20442061716E+02  0.27191091951E+02 -0.22001018319E+01  0.34089203819E+02  0.51100000000E-03 0. -1.
        -11    1    3    3    0    0  0.13031529697E+02  0.79027989717E-01  0.38852054208E+00  0.13037559593E+02  0.51100000000E-03 0.  1.
        -12    1    3    3    0    0 -0.32828502221E+02 -0.27573884555E+02  0.87120294802E+00  0.42881099124E+02  0.00000000000E+00 0.  1.
</event>
<event>
 7    1  0.2349719E-015  0.9000782E+02  0.7816164E-02  0.1186339E+00
        -11   -1    0    0    0    0  0.00000000000E+00  0.00000000000E+00  0.45593999997E+02  0.45594000000E+02  0.51100000000E-03 0.  1.
         11   -1    0    0    0    0 -0.00000000000E+00 -0.00000000000E+00 -0.45593999997E+02  0.45594000000E+02  0.51100000000E-03 0. -1.
    9900012    2    1    2    0    0  0.80660630123E+00 -0.77760421041E+00  0.37085453947E+00  0.90007824114E+02  0.90000086592E+02 0.  0.
        -12    1    1    2    0    0 -0.80660630123E+00  0.77760421041E+00 -0.37085453947E+00  0.11801758863E+01  0.00000000000E+00 0.  1.
         11    1    3    3    0    0 -0.14111284102E+02  0.30109825017E+02 -0.15372284046E+02  0.36633823423E+02  0.51100000000E-03 0. -1.
        -11    1    3    3    0    0  0.26068219513E+01  0.80687921092E+01  0.82629413377E+01  0.11839642165E+02  0.51100000000E-03 0.  1.
        -12    1    3    3    0    0  0.12311068452E+02 -0.38956221336E+02  0.74801972480E+01  0.41534358525E+02  0.00000000000E+00 0.  1.
</event>
<event>
 7    1  0.2349719E-015  0.9000772E+02  0.7816164E-02  0.1186339E+00
        -11   -1    0    0    0    0  0.00000000000E+00  0.00000000000E+00  0.45593999997E+02  0.45594000000E+02  0.51100000000E-03 0.  1.
         11   -1    0    0    0    0 -0.00000000000E+00 -0.00000000000E+00 -0.45593999997E+02  0.45594000000E+02  0.51100000000E-03 0. -1.
    9900012    2    1    2    0    0  0.87437159629E+00 -0.74171688681E-01 -0.78932013583E+00  0.90007723166E+02  0.89999984312E+02 0.  0.
        -12    1    1    2    0    0 -0.87437159629E+00  0.74171688681E-01  0.78932013583E+00  0.11802768339E+01  0.00000000000E+00 0.  1.
         11    1    3    3    0    0  0.87341671664E+00  0.15845165982E+02  0.17143777694E+02  0.23361105617E+02  0.51100000000E-03 0. -1.
        -11    1    3    3    0    0  0.93928559860E+01 -0.57339308415E+00  0.21408899621E+02  0.23385797110E+02  0.51100000000E-03 0.  1.
        -12    1    3    3    0    0 -0.93919011063E+01 -0.15345944587E+02 -0.39341997451E+02  0.43260820439E+02  0.00000000000E+00 0.  1.
</event>
<event>
 7    1  0.2349719E-015  0.9000804E+02  0.7816164E-02  0.1186338E+00
        -11   -1    0    0    0    0  0.00000000000E+00  0.00000000000E+00  0.45593999997E+02  0.45594000000E+02  0.51100000000E-03 0. -1.
         11   -1    0    0    0    0 -0.00000000000E+00 -0.00000000000E+00 -0.45593999997E+02  0.45594000000E+02  0.51100000000E-03 0.  1.
    9900012    2    1    2    0    0  0.15452617688E+00  0.94237335698E+00  0.69308288305E+00  0.90008038235E+02  0.90000303540E+02 0.  0.
        -12    1    1    2    0    0 -0.15452617688E+00 -0.94237335698E+00 -0.69308288305E+00  0.11799617647E+01  0.00000000000E+00 0.  1.
         11    1    3    3    0    0  0.13678950335E+02 -0.17983583529E+02  0.15681199526E+02  0.27503144869E+02  0.51100000000E-03 0. -1.
        -11    1    3    3    0    0  0.13959387367E+02  0.19627916502E+02  0.93014048399E+01  0.25819289962E+02  0.51100000000E-03 0.  1.
        -12    1    3    3    0    0 -0.27483811525E+02 -0.70195961603E+00 -0.24289521483E+02  0.36685603404E+02  0.00000000000E+00 0.  1.
</event>
<event>
 7    1  0.2349719E-015  0.9000773E+02  0.7816164E-02  0.1186339E+00
        -11   -1    0    0    0    0  0.00000000000E+00  0.00000000000E+00  0.45593999997E+02  0.45594000000E+02  0.51100000000E-03 0.  1.
         11   -1    0    0    0    0 -0.00000000000E+00 -0.00000000000E+00 -0.45593999997E+02  0.45594000000E+02  0.51100000000E-03 0. -1.
    9900012    2    1    2    0    0  0.10806200655E+01 -0.15621191667E+00 -0.44822043493E+00  0.90007727384E+02  0.89999988586E+02 0.  0.
        -12    1    1    2    0    0 -0.10806200655E+01  0.15621191667E+00  0.44822043493E+00  0.11802726156E+01  0.00000000000E+00 0.  1.
         11    1    3    3    0    0 -0.33623617306E+02 -0.12365543473E+02 -0.14773695026E+02  0.38751985383E+02  0.51100000000E-03 0. -1.
        -11    1    3    3    0    0  0.45022384417E+01  0.11519655537E+01 -0.99357355073E+01  0.10968865755E+02  0.51100000000E-03 0.  1.
        -12    1    3    3    0    0  0.30201998930E+02  0.11057366003E+02  0.24261210098E+02  0.40286876247E+02  0.00000000000E+00 0.  1.
</event>
<event>
 7    1  0.2349719E-015  0.9000774E+02  0.7816164E-02  0.1186339E+00
        -11   -1    0    0    0    0  0.00000000000E+00  0.00000000000E+00  0.45593999997E+02  0.45594000000E+02  0.51100000000E-03 0.  1.
         11   -1    0    0    0    0 -0.00000000000E+00 -0.00000000000E+00 -0.45593999997E+02  0.45594000000E+02  0.51100000000E-03 0. -1.
    9900012    2    1    2    0    0 -0.63528097558E+00 -0.65019119660E+00  0.75278321171E+00  0.90007740252E+02  0.90000001623E+02 0.  0.
        -12    1    1    2    0    0  0.63528097558E+00  0.65019119660E+00 -0.75278321171E+00  0.11802597485E+01  0.00000000000E+00 0.  1.
         11    1    3    3    0    0  0.32243950841E+02 -0.16523566773E+02 -0.14815151706E+02  0.39143190277E+02  0.51100000000E-03 0. -1.
        -11    1    3    3    0    0  0.64140124717E+01  0.18429471014E+01  0.27388861134E+01  0.72137027530E+01  0.51100000000E-03 0.  1.
        -12    1    3    3    0    0 -0.39293244288E+02  0.14030428475E+02  0.12829048804E+02  0.43650847221E+02  0.00000000000E+00 0.  1.
</event>
<event>
 7    1  0.2349719E-015  0.9000775E+02  0.7816164E-02  0.1186339E+00
        -11   -1    0    0    0    0  0.00000000000E+00  0.00000000000E+00  0.45593999997E+02  0.45594000000E+02  0.51100000000E-03 0. -1.
         11   -1    0    0    0    0 -0.00000000000E+00 -0.00000000000E+00 -0.45593999997E+02  0.45594000000E+02  0.51100000000E-03 0.  1.
    9900012    2    1    2    0    0  0.95304991446E+00  0.40983151016E+00  0.56278816198E+00  0.90007747264E+02  0.90000008728E+02 0.  0.
        -12    1    1    2    0    0 -0.95304991446E+00 -0.40983151016E+00 -0.56278816198E+00  0.11802527363E+01  0.00000000000E+00 0.  1.
         11    1    3    3    0    0 -0.69886182472E+00 -0.20462596358E+02  0.30391960468E+02  0.36645293271E+02  0.51100000000E-03 0. -1.
        -11    1    3    3    0    0 -0.20279675043E+01 -0.62075796455E+01  0.56103717588E+01  0.86094697158E+01  0.51100000000E-03 0.  1.
        -12    1    3    3    0    0  0.36798792435E+01  0.27080007513E+02 -0.35439544065E+02  0.44752984277E+02  0.00000000000E+00 0.  1.
</event>
<event>
 7    1  0.2349719E-015  0.9000782E+02  0.7816164E-02  0.1186339E+00
        -11   -1    0    0    0    0  0.00000000000E+00  0.00000000000E+00  0.45593999997E+02  0.45594000000E+02  0.51100000000E-03 0. -1.
         11   -1    0    0    0    0 -0.00000000000E+00 -0.00000000000E+00 -0.45593999997E+02  0.45594000000E+02  0.51100000000E-03 0.  1.
    9900012    2    1    2    0    0  0.42612962926E+00  0.10868336554E+01  0.17331847041E+00  0.90007816477E+02  0.90000078855E+02 0.  0.
        -12    1    1    2    0    0 -0.42612962926E+00 -0.10868336554E+01 -0.17331847041E+00  0.11801835228E+01  0.00000000000E+00 0.  1.
         11    1    3    3    0    0  0.21422758764E+02  0.31755597117E+02 -0.48645435993E+01  0.38613680555E+02  0.51100000000E-03 0. -1.
        -11    1    3    3    0    0  0.81638998502E+01  0.52892391110E-01  0.38340831568E+01  0.90195483414E+01  0.51100000000E-03 0.  1.
        -12    1    3    3    0    0 -0.29160528985E+02 -0.30721655853E+02  0.12037789129E+01  0.42374587581E+02  0.00000000000E+00 0.  1.
</event>
<event>
 7    1  0.2349719E-015  0.9000773E+02  0.7816164E-02  0.1186339E+00
        -11   -1    0    0    0    0  0.00000000000E+00  0.00000000000E+00  0.45593999997E+02  0.45594000000E+02  0.51100000000E-03 0. -1.
         11   -1    0    0    0    0 -0.00000000000E+00 -0.00000000000E+00 -0.45593999997E+02  0.45594000000E+02  0.51100000000E-03 0.  1.
    9900012    2    1    2    0    0  0.10843822104E+00 -0.25050756679E-02  0.11752719671E+01  0.90007733369E+02  0.89999994650E+02 0.  0.
        -12    1    1    2    0    0 -0.10843822104E+00  0.25050756679E-02 -0.11752719671E+01  0.11802666308E+01  0.00000000000E+00 0.  1.
         11    1    3    3    0    0  0.20380384280E+01 -0.37520642665E+01  0.12717363043E+02  0.13415025528E+02  0.51100000000E-03 0. -1.
        -11    1    3    3    0    0 -0.31649316510E+02 -0.70079929213E+01  0.14622512571E+02  0.35561342417E+02  0.51100000000E-03 0.  1.
         12    1    3    3    0    0  0.29719716303E+02  0.10757552112E+02 -0.26164603647E+02  0.41031365424E+02  0.00000000000E+00 0. -1.
</event>
<event>
 7    1  0.2349719E-015  0.9000766E+02  0.7816164E-02  0.1186339E+00
        -11   -1    0    0    0    0  0.00000000000E+00  0.00000000000E+00  0.45593999997E+02  0.45594000000E+02  0.51100000000E-03 0. -1.
         11   -1    0    0    0    0 -0.00000000000E+00 -0.00000000000E+00 -0.45593999997E+02  0.45594000000E+02  0.51100000000E-03 0.  1.
    9900012    2    1    2    0    0 -0.91690345616E+00 -0.26227977625E+00  0.69548127426E+00  0.90007662408E+02  0.89999922751E+02 0.  0.
        -12    1    1    2    0    0  0.91690345616E+00  0.26227977625E+00 -0.69548127426E+00  0.11803375923E+01  0.00000000000E+00 0.  1.
         11    1    3    3    0    0 -0.13214960133E+00 -0.37636813122E+01 -0.80822222728E+01  0.89165619868E+01  0.51100000000E-03 0. -1.
        -11    1    3    3    0    0  0.97510845284E+01  0.27437478363E+02 -0.24995981092E+02  0.38375746760E+02  0.51100000000E-03 0.  1.
         12    1    3    3    0    0 -0.10535838383E+02 -0.23936076827E+02  0.33773684639E+02  0.42715353661E+02  0.00000000000E+00 0. -1.
</event>
<event>
 7    1  0.2349719E-015  0.9000829E+02  0.7816164E-02  0.1186338E+00
        -11   -1    0    0    0    0  0.00000000000E+00  0.00000000000E+00  0.45593999997E+02  0.45594000000E+02  0.51100000000E-03 0.  1.
         11   -1    0    0    0    0 -0.00000000000E+00 -0.00000000000E+00 -0.45593999997E+02  0.45594000000E+02  0.51100000000E-03 0. -1.
    9900012    2    1    2    0    0 -0.11213724063E+00 -0.11732669194E+01 -0.50881947235E-01  0.90008288596E+02  0.90000557203E+02 0.  0.
        -12    1    1    2    0    0  0.11213724063E+00  0.11732669194E+01  0.50881947235E-01  0.11797114043E+01  0.00000000000E+00 0.  1.
         11    1    3    3    0    0 -0.21531168761E+02  0.17898869802E+02  0.23548554015E+02  0.36585450179E+02  0.51100000000E-03 0. -1.
        -11    1    3    3    0    0 -0.63549740689E+01  0.21189322208E+01  0.49309759459E+01  0.83180582598E+01  0.51100000000E-03 0.  1.
        -12    1    3    3    0    0  0.27774005589E+02 -0.21191068942E+02 -0.28530411908E+02  0.45104780157E+02  0.00000000000E+00 0.  1.
</event>
<event>
 7    1  0.2349719E-015  0.9000794E+02  0.7816164E-02  0.1186339E+00
        -11   -1    0    0    0    0  0.00000000000E+00  0.00000000000E+00  0.45593999997E+02  0.45594000000E+02  0.51100000000E-03 0. -1.
         11   -1    0    0    0    0 -0.00000000000E+00 -0.00000000000E+00 -0.45593999997E+02  0.45594000000E+02  0.51100000000E-03 0.  1.
    9900012    2    1    2    0    0 -0.55901371280E+00  0.37590355837E+00  0.96889244506E+00  0.90007935431E+02  0.90000199379E+02 0.  0.
        -12    1    1    2    0    0  0.55901371280E+00 -0.37590355837E+00 -0.96889244506E+00  0.11800645687E+01  0.00000000000E+00 0.  1.
         11    1    3    3    0    0  0.34863170356E+02  0.24452487592E+02  0.61219926854E+01  0.43021431769E+02  0.51100000000E-03 0. -1.
        -11    1    3    3    0    0 -0.99258317688E+01  0.15922918912E+01  0.16084786348E+01  0.10180605756E+02  0.51100000000E-03 0.  1.
        -12    1    3    3    0    0 -0.25496352300E+02 -0.25668875925E+02 -0.67615788751E+01  0.36805897907E+02  0.00000000000E+00 0.  1.
</event>
<event>
 7    1  0.2349719E-015  0.9000774E+02  0.7816164E-02  0.1186339E+00
        -11   -1    0    0    0    0  0.00000000000E+00  0.00000000000E+00  0.45593999997E+02  0.45594000000E+02  0.51100000000E-03 0.  1.
         11   -1    0    0    0    0 -0.00000000000E+00 -0.00000000000E+00 -0.45593999997E+02  0.45594000000E+02  0.51100000000E-03 0. -1.
    9900012    2    1    2    0    0  0.67091373456E+00 -0.91299588533E+00  0.33063563575E+00  0.90007742973E+02  0.90000004380E+02 0.  0.
        -12    1    1    2    0    0 -0.67091373456E+00  0.91299588533E+00 -0.33063563575E+00  0.11802570269E+01  0.00000000000E+00 0.  1.
         11    1    3    3    0    0 -0.59409262597E+00  0.28716671444E+01  0.11016635623E+02  0.11400249074E+02  0.51100000000E-03 0. -1.
        -11    1    3    3    0    0 -0.25541105389E+02  0.21888211685E+02  0.11279915133E+02  0.35477857333E+02  0.51100000000E-03 0.  1.
         12    1    3    3    0    0  0.26806111749E+02 -0.25672874715E+02 -0.21965915120E+02  0.43129636566E+02  0.00000000000E+00 0. -1.
</event>
<event>
 7    1  0.2349719E-015  0.9000771E+02  0.7816164E-02  0.1186339E+00
        -11   -1    0    0    0    0  0.00000000000E+00  0.00000000000E+00  0.45593999997E+02  0.45594000000E+02  0.51100000000E-03 0. -1.
         11   -1    0    0    0    0 -0.00000000000E+00 -0.00000000000E+00 -0.45593999997E+02  0.45594000000E+02  0.51100000000E-03 0.  1.
    9900012    2    1    2    0    0  0.11039272660E+01  0.37779983145E+00  0.17800575925E+00  0.90007714369E+02  0.89999975398E+02 0.  0.
        -12    1    1    2    0    0 -0.11039272660E+01 -0.37779983145E+00 -0.17800575925E+00  0.11802856313E+01  0.00000000000E+00 0.  1.
         11    1    3    3    0    0 -0.89762296254E+01 -0.34227564413E+02  0.20227065623E+02  0.40758226752E+02  0.51100000000E-03 0. -1.
        -11    1    3    3    0    0 -0.16461478690E+01  0.92125589617E+00 -0.12692415593E+02  0.12831832647E+02  0.51100000000E-03 0.  1.
        -12    1    3    3    0    0  0.11726304760E+02  0.33684108349E+02 -0.73566442708E+01  0.36417654970E+02  0.00000000000E+00 0.  1.
</event>
<event>
 7    1  0.2349719E-015  0.9000798E+02  0.7816164E-02  0.1186339E+00
        -11   -1    0    0    0    0  0.00000000000E+00  0.00000000000E+00  0.45593999997E+02  0.45594000000E+02  0.51100000000E-03 0. -1.
         11   -1    0    0    0    0 -0.00000000000E+00 -0.00000000000E+00 -0.45593999997E+02  0.45594000000E+02  0.51100000000E-03 0.  1.
    9900012    2    1    2    0    0  0.63588848345E+00 -0.10763795758E+00  0.98818085717E+00  0.90007982415E+02  0.90000246983E+02 0.  0.
        -12    1    1    2    0    0 -0.63588848345E+00  0.10763795758E+00 -0.98818085717E+00  0.11800175845E+01  0.00000000000E+00 0.  1.
         11    1    3    3    0    0  0.29633904762E+02  0.12687926629E+02  0.24749496921E+02  0.40640981677E+02  0.51100000000E-03 0. -1.
        -11    1    3    3    0    0 -0.79842985223E+01  0.15566236725E+01  0.60749287811E+01  0.10152677485E+02  0.51100000000E-03 0.  1.
        -12    1    3    3    0    0 -0.21013717756E+02 -0.14352188259E+02 -0.29836244845E+02  0.39214323253E+02  0.00000000000E+00 0.  1.
</event>
<event>
 7    1  0.2349719E-015  0.9000776E+02  0.7816164E-02  0.1186339E+00
        -11   -1    0    0    0    0  0.00000000000E+00  0.00000000000E+00  0.45593999997E+02  0.45594000000E+02  0.51100000000E-03 0.  1.
         11   -1    0    0    0    0 -0.00000000000E+00 -0.00000000000E+00 -0.45593999997E+02  0.45594000000E+02  0.51100000000E-03 0. -1.
    9900012    2    1    2    0    0 -0.64862819656E+00  0.46947541212E+00 -0.86709233587E+00  0.90007756458E+02  0.90000018043E+02 0.  0.
        -12    1    1    2    0    0  0.64862819656E+00 -0.46947541212E+00  0.86709233587E+00  0.11802435422E+01  0.00000000000E+00 0.  1.
         11    1    3    3    0    0  0.18157276915E+02 -0.57709325181E+01 -0.37024590789E+02  0.41639052469E+02  0.51100000000E-03 0. -1.
        -11    1    3    3    0    0 -0.14833227466E+01 -0.87878347806E+01  0.73801649454E+01  0.11571219529E+02  0.51100000000E-03 0.  1.
        -12    1    3    3    0    0 -0.17322582365E+02  0.15028242711E+02  0.28777333508E+02  0.36797484460E+02  0.00000000000E+00 0.  1.
</event>
<event>
 7    1  0.2349719E-015  0.9000778E+02  0.7816164E-02  0.1186339E+00
        -11   -1    0    0    0    0  0.00000000000E+00  0.00000000000E+00  0.45593999997E+02  0.45594000000E+02  0.51100000000E-03 0.  1.
         11   -1    0    0    0    0 -0.00000000000E+00 -0.00000000000E+00 -0.45593999997E+02  0.45594000000E+02  0.51100000000E-03 0. -1.
    9900012    2    1    2    0    0  0.28584029220E+00 -0.47797511482E+00 -0.10405514789E+01  0.90007782959E+02  0.90000044894E+02 0.  0.
        -12    1    1    2    0    0 -0.28584029220E+00  0.47797511482E+00  0.10405514789E+01  0.11802170407E+01  0.00000000000E+00 0.  1.
         11    1    3    3    0    0  0.17275479423E+01  0.65794914766E+01  0.59294273643E+01  0.90239813338E+01  0.51100000000E-03 0. -1.
        -11    1    3    3    0    0 -0.39761547202E+02 -0.16816511540E+01 -0.12902942684E+02  0.41836521326E+02  0.51100000000E-03 0.  1.
         12    1    3    3    0    0  0.38319839552E+02 -0.53758154374E+01  0.59329638406E+01  0.39147280299E+02  0.00000000000E+00 0. -1.
</event>
<event>
 7    1  0.2349719E-015  0.9000774E+02  0.7816164E-02  0.1186339E+00
        -11   -1    0    0    0    0  0.00000000000E+00  0.00000000000E+00  0.45593999997E+02  0.45594000000E+02  0.51100000000E-03 0.  1.
         11   -1    0    0    0    0 -0.00000000000E+00 -0.00000000000E+00 -0.45593999997E+02  0.45594000000E+02  0.51100000000E-03 0. -1.
    9900012    2    1    2    0    0  0.44518569517E+00 -0.10458959280E+01 -0.31767223994E+00  0.90007743991E+02  0.90000005411E+02 0.  0.
        -12    1    1    2    0    0 -0.44518569517E+00  0.10458959280E+01  0.31767223994E+00  0.11802560092E+01  0.00000000000E+00 0.  1.
         11    1    3    3    0    0  0.27265678909E+00  0.82226681546E+01  0.29194146921E+01  0.87298107489E+01  0.51100000000E-03 0. -1.
        -11    1    3    3    0    0 -0.96697730126E+01  0.34171075993E+02  0.53600260290E+01  0.35915133634E+02  0.51100000000E-03 0.  1.
         12    1    3    3    0    0  0.98423019187E+01 -0.43439640076E+02 -0.85971129610E+01  0.45362799608E+02  0.00000000000E+00 0. -1.
</event>
<event>
 7    1  0.2349719E-015  0.9000776E+02  0.7816164E-02  0.1186339E+00
        -11   -1    0    0    0    0  0.00000000000E+00  0.00000000000E+00  0.45593999997E+02  0.45594000000E+02  0.51100000000E-03 0.  1.
         11   -1    0    0    0    0 -0.00000000000E+00 -0.00000000000E+00 -0.45593999997E+02  0.45594000000E+02  0.51100000000E-03 0. -1.
    9900012    2    1    2    0    0  0.66514194542E+00  0.60208111837E+00 -0.76684637913E+00  0.90007758987E+02  0.90000020605E+02 0.  0.
        -12    1    1    2    0    0 -0.66514194542E+00 -0.60208111837E+00  0.76684637913E+00  0.11802410135E+01  0.00000000000E+00 0.  1.
         11    1    3    3    0    0 -0.74259241314E+00 -0.95815978033E+00  0.10203398655E+02  0.10275157324E+02  0.51100000000E-03 0. -1.
        -11    1    3    3    0    0  0.89344310932E+01  0.30882414192E+01  0.33395165406E+02  0.34707324397E+02  0.51100000000E-03 0.  1.
         12    1    3    3    0    0 -0.75266967346E+01 -0.15280005205E+01 -0.44365410440E+02  0.45025277266E+02  0.00000000000E+00 0. -1.
</event>
<event>
 8    1  0.2349719E-015  0.9000768E+02  0.7816164E-02  0.1186339E+00
        -11   -1    0    0    0    0  0.00000000000E+00  0.00000000000E+00  0.45593999997E+02  0.45594000000E+02  0.51100000000E-03 0. -1.
         11   -1    0    0    0    0 -0.00000000000E+00 -0.00000000000E+00 -0.45593999997E+02  0.45594000000E+02  0.51100000000E-03 0.  1.
    9900012    2    1    2    0    0 -0.96091488082E+00 -0.64794265320E+00 -0.22355218018E+00  0.90007676880E+02  0.89999937415E+02 0.  0.
         23    2    3    3    0    0 -0.68654197175E+01 -0.34346354246E+01 -0.19648604812E+02  0.69514714583E+02  0.66236675370E+02 0.  0.
        -12    1    1    2    0    0  0.96091488082E+00  0.64794265320E+00  0.22355218018E+00  0.11803231199E+01  0.00000000000E+00 0.  1.
         11    1    4    4    0    0 -0.84156375437E-01  0.27714725301E+02  0.62860594707E+01  0.28418789994E+02  0.51100000000E-03 0. -1.
        -11    1    4    4    0    0 -0.67812633421E+01 -0.31149360725E+02 -0.25934664283E+02  0.41095924589E+02  0.51100000000E-03 0.  1.
         12    1    3    3    0    0  0.59045048367E+01  0.27866927714E+01  0.19425052632E+02  0.20492962297E+02  0.00000000000E+00 0. -1.
</event>
<event>
 7    1  0.2349719E-015  0.9000777E+02  0.7816164E-02  0.1186339E+00
        -11   -1    0    0    0    0  0.00000000000E+00  0.00000000000E+00  0.45593999997E+02  0.45594000000E+02  0.51100000000E-03 0.  1.
         11   -1    0    0    0    0 -0.00000000000E+00 -0.00000000000E+00 -0.45593999997E+02  0.45594000000E+02  0.51100000000E-03 0. -1.
    9900012    2    1    2    0    0  0.80092968239E+00 -0.85871444699E+00 -0.11857782584E+00  0.90007771396E+02  0.90000033178E+02 0.  0.
        -12    1    1    2    0    0 -0.80092968239E+00  0.85871444699E+00  0.11857782584E+00  0.11802286043E+01  0.00000000000E+00 0.  1.
         11    1    3    3    0    0  0.64595687781E-01  0.39306632241E+02 -0.16382852953E+02  0.42584191690E+02  0.51100000000E-03 0. -1.
        -11    1    3    3    0    0 -0.15890088158E+01 -0.76892190448E+01 -0.42623240804E+01  0.89340050013E+01  0.51100000000E-03 0.  1.
        -12    1    3    3    0    0  0.23253428104E+01 -0.32476127643E+02  0.20526599208E+02  0.38489574704E+02  0.00000000000E+00 0.  1.
</event>
<event>
 7    1  0.2349719E-015  0.9000777E+02  0.7816164E-02  0.1186339E+00
        -11   -1    0    0    0    0  0.00000000000E+00  0.00000000000E+00  0.45593999997E+02  0.45594000000E+02  0.51100000000E-03 0.  1.
         11   -1    0    0    0    0 -0.00000000000E+00 -0.00000000000E+00 -0.45593999997E+02  0.45594000000E+02  0.51100000000E-03 0. -1.
    9900012    2    1    2    0    0 -0.42227101890E+00 -0.66793137876E+00 -0.87664422106E+00  0.90007766875E+02  0.90000028597E+02 0.  0.
        -12    1    1    2    0    0  0.42227101890E+00  0.66793137876E+00  0.87664422106E+00  0.11802331255E+01  0.00000000000E+00 0.  1.
         11    1    3    3    0    0  0.26090165658E+00 -0.39950121210E+01  0.87742452502E+01  0.96444580715E+01  0.51100000000E-03 0. -1.
        -11    1    3    3    0    0  0.55561395858E+01  0.17606056278E+02  0.31416173561E+02  0.36439262702E+02  0.51100000000E-03 0.  1.
         12    1    3    3    0    0 -0.62393122612E+01 -0.14278975536E+02 -0.41067063032E+02  0.43924046102E+02  0.00000000000E+00 0. -1.
</event>
<event>
 7    1  0.2649777E-015  0.9000778E+02  0.7816164E-02  0.1186339E+00
        -11   -1    0    0    0    0  0.00000000000E+00  0.00000000000E+00  0.45593999997E+02  0.45594000000E+02  0.51100000000E-03 0. -1.
         11   -1    0    0    0    0 -0.00000000000E+00 -0.00000000000E+00 -0.45593999997E+02  0.45594000000E+02  0.51100000000E-03 0.  1.
    9900012    2    1    2    0    0  0.32040458196E+00 -0.43569965605E+00  0.10490080755E+01  0.90007783398E+02  0.90000045338E+02 0.  0.
        -12    1    1    2    0    0 -0.32040458196E+00  0.43569965605E+00 -0.10490080755E+01  0.11802166025E+01  0.00000000000E+00 0.  1.
         11    1    3    3    0    0 -0.14845892702E+01 -0.18456869560E+02  0.36270576471E+02  0.40723638800E+02  0.51100000000E-03 0. -1.
        -11    1    3    3    0    0 -0.94447203783E+01  0.41791608896E+01 -0.60908374125E+00  0.10345970811E+02  0.51100000000E-03 0.  1.
        -12    1    3    3    0    0  0.11249714230E+02  0.13842009015E+02 -0.34612484655E+02  0.38938173786E+02  0.00000000000E+00 0.  1.
</event>
<event>
 7    1  0.2643740E-015  0.9000780E+02  0.7816164E-02  0.1186339E+00
        -11   -1    0    0    0    0  0.00000000000E+00  0.00000000000E+00  0.45593999997E+02  0.45594000000E+02  0.51100000000E-03 0.  1.
         11   -1    0    0    0    0 -0.00000000000E+00 -0.00000000000E+00 -0.45593999997E+02  0.45594000000E+02  0.51100000000E-03 0. -1.
    9900012    2    1    2    0    0 -0.65901496671E+00 -0.20110531648E-01 -0.97885549282E+00  0.90007803730E+02  0.90000065939E+02 0.  0.
        -12    1    1    2    0    0  0.65901496671E+00  0.20110531648E-01  0.97885549282E+00  0.11801962700E+01  0.00000000000E+00 0.  1.
         11    1    3    3    0    0 -0.30312943162E+01 -0.42787204904E+01  0.81642570656E+01  0.97031586590E+01  0.51100000000E-03 0. -1.
        -11    1    3    3    0    0 -0.11328744354E+02 -0.29317837587E+02  0.16873378492E+02  0.35673336701E+02  0.51100000000E-03 0.  1.
         12    1    3    3    0    0  0.13701023703E+02  0.33576447545E+02 -0.26016491050E+02  0.44631308370E+02  0.00000000000E+00 0. -1.
</event>
<event>
 7    1  0.2349719E-015  0.9000802E+02  0.7816164E-02  0.1186338E+00
        -11   -1    0    0    0    0  0.00000000000E+00  0.00000000000E+00  0.45593999997E+02  0.45594000000E+02  0.51100000000E-03 0.  1.
         11   -1    0    0    0    0 -0.00000000000E+00 -0.00000000000E+00 -0.45593999997E+02  0.45594000000E+02  0.51100000000E-03 0. -1.
    9900012    2    1    2    0    0 -0.42619177247E+00  0.68171628398E+00 -0.86370401416E+00  0.90008016465E+02  0.90000281482E+02 0.  0.
        -12    1    1    2    0    0  0.42619177247E+00 -0.68171628398E+00  0.86370401416E+00  0.11799835350E+01  0.00000000000E+00 0.  1.
         11    1    3    3    0    0 -0.26226895588E+02  0.30309673802E+02  0.18037973158E+01  0.40122064543E+02  0.51100000000E-03 0. -1.
        -11    1    3    3    0    0 -0.24770352590E+01 -0.24599833811E+01 -0.94640840162E+01  0.10087423280E+02  0.51100000000E-03 0.  1.
        -12    1    3    3    0    0  0.28277739075E+02 -0.27167974137E+02  0.67965826862E+01  0.39798528642E+02  0.00000000000E+00 0.  1.
</event>
<event>
 7    1  0.2349719E-015  0.9000775E+02  0.7816164E-02  0.1186339E+00
        -11   -1    0    0    0    0  0.00000000000E+00  0.00000000000E+00  0.45593999997E+02  0.45594000000E+02  0.51100000000E-03 0. -1.
         11   -1    0    0    0    0 -0.00000000000E+00 -0.00000000000E+00 -0.45593999997E+02  0.45594000000E+02  0.51100000000E-03 0.  1.
    9900012    2    1    2    0    0 -0.14735162932E+00  0.59483750068E+00  0.10086885832E+01  0.90007747140E+02  0.90000008603E+02 0.  0.
        -12    1    1    2    0    0  0.14735162932E+00 -0.59483750068E+00 -0.10086885832E+01  0.11802528597E+01  0.00000000000E+00 0.  1.
         11    1    3    3    0    0 -0.51427450376E+01 -0.78032640787E+01  0.18298626015E+01  0.95229803216E+01  0.51100000000E-03 0. -1.
        -11    1    3    3    0    0 -0.21396123400E+02 -0.27865562287E+02 -0.47972574585E+01  0.35458388817E+02  0.51100000000E-03 0.  1.
         12    1    3    3    0    0  0.26391516808E+02  0.36263663867E+02  0.39760834401E+01  0.45026378002E+02  0.00000000000E+00 0. -1.
</event>
<event>
 7    1  0.2349719E-015  0.9000772E+02  0.7816164E-02  0.1186339E+00
        -11   -1    0    0    0    0  0.00000000000E+00  0.00000000000E+00  0.45593999997E+02  0.45594000000E+02  0.51100000000E-03 0. -1.
         11   -1    0    0    0    0 -0.00000000000E+00 -0.00000000000E+00 -0.45593999997E+02  0.45594000000E+02  0.51100000000E-03 0.  1.
    9900012    2    1    2    0    0  0.98788473987E+00 -0.63051026439E+00 -0.13996315311E+00  0.90007724974E+02  0.89999986144E+02 0.  0.
        -12    1    1    2    0    0 -0.98788473987E+00  0.63051026439E+00  0.13996315311E+00  0.11802750260E+01  0.00000000000E+00 0.  1.
         11    1    3    3    0    0 -0.26358958868E+02 -0.68146195126E+01  0.15726380372E+02  0.31441259382E+02  0.51100000000E-03 0. -1.
        -11    1    3    3    0    0 -0.94330311908E+01  0.15434539253E+02 -0.82616506903E+01  0.19886225177E+02  0.51100000000E-03 0.  1.
        -12    1    3    3    0    0  0.36779874798E+02 -0.92504300045E+01 -0.76046928350E+01  0.38680240415E+02  0.00000000000E+00 0.  1.
</event>
<event>
 7    1  0.2349719E-015  0.9000781E+02  0.7816164E-02  0.1186339E+00
        -11   -1    0    0    0    0  0.00000000000E+00  0.00000000000E+00  0.45593999997E+02  0.45594000000E+02  0.51100000000E-03 0. -1.
         11   -1    0    0    0    0 -0.00000000000E+00 -0.00000000000E+00 -0.45593999997E+02  0.45594000000E+02  0.51100000000E-03 0.  1.
    9900012    2    1    2    0    0 -0.66735398668E+00  0.94734122378E+00  0.22367710358E+00  0.90007810107E+02  0.90000072400E+02 0.  0.
        -12    1    1    2    0    0  0.66735398668E+00 -0.94734122378E+00 -0.22367710358E+00  0.11801898934E+01  0.00000000000E+00 0.  1.
         11    1    3    3    0    0 -0.25851511507E+02 -0.99984337567E+01  0.24877817489E+02  0.37244800014E+02  0.51100000000E-03 0. -1.
        -11    1    3    3    0    0 -0.50617642194E+01 -0.61394296800E+01  0.28531394374E+01  0.84530739213E+01  0.51100000000E-03 0.  1.
        -12    1    3    3    0    0  0.30245921740E+02  0.17085204660E+02 -0.27507279823E+02  0.44309936171E+02  0.00000000000E+00 0.  1.
</event>
<event>
 7    1  0.2349719E-015  0.9000751E+02  0.7816164E-02  0.1186339E+00
        -11   -1    0    0    0    0  0.00000000000E+00  0.00000000000E+00  0.45593999997E+02  0.45594000000E+02  0.51100000000E-03 0. -1.
         11   -1    0    0    0    0 -0.00000000000E+00 -0.00000000000E+00 -0.45593999997E+02  0.45594000000E+02  0.51100000000E-03 0.  1.
    9900012    2    1    2    0    0 -0.97513389707E+00  0.40580994774E+00  0.52724160310E+00  0.90007512161E+02  0.89999770521E+02 0.  0.
        -12    1    1    2    0    0  0.97513389707E+00 -0.40580994774E+00 -0.52724160310E+00  0.11804878394E+01  0.00000000000E+00 0.  1.
         11    1    3    3    0    0 -0.33850291348E+02 -0.50303964058E+01  0.14766459109E+02  0.37271912042E+02  0.51100000000E-03 0. -1.
        -11    1    3    3    0    0 -0.74367856363E+01 -0.25137709058E+01  0.26872058050E+01  0.82973429522E+01  0.51100000000E-03 0.  1.
        -12    1    3    3    0    0  0.40311943087E+02  0.79499772593E+01 -0.16926423311E+02  0.44438257167E+02  0.00000000000E+00 0.  1.
</event>
<event>
 7    1  0.2349719E-015  0.9000776E+02  0.7816164E-02  0.1186339E+00
        -11   -1    0    0    0    0  0.00000000000E+00  0.00000000000E+00  0.45593999997E+02  0.45594000000E+02  0.51100000000E-03 0.  1.
         11   -1    0    0    0    0 -0.00000000000E+00 -0.00000000000E+00 -0.45593999997E+02  0.45594000000E+02  0.51100000000E-03 0. -1.
    9900012    2    1    2    0    0 -0.40538165198E+00 -0.11071426955E+01 -0.53556387665E-01  0.90007759551E+02  0.90000021177E+02 0.  0.
        -12    1    1    2    0    0  0.40538165198E+00  0.11071426955E+01  0.53556387665E-01  0.11802404495E+01  0.00000000000E+00 0.  1.
         11    1    3    3    0    0 -0.13433326254E+02  0.21105904754E+01 -0.32605707290E+02  0.35327623675E+02  0.51100000000E-03 0. -1.
        -11    1    3    3    0    0 -0.52156645266E+01  0.35706618525E+00 -0.82929774532E+01  0.98032712915E+01  0.51100000000E-03 0.  1.
        -12    1    3    3    0    0  0.18243609129E+02 -0.35747993561E+01  0.40845128355E+02  0.44876864584E+02  0.00000000000E+00 0.  1.
</event>
<event>
 7    1  0.2349719E-015  0.9000769E+02  0.7816164E-02  0.1186339E+00
        -11   -1    0    0    0    0  0.00000000000E+00  0.00000000000E+00  0.45593999997E+02  0.45594000000E+02  0.51100000000E-03 0.  1.
         11   -1    0    0    0    0 -0.00000000000E+00 -0.00000000000E+00 -0.45593999997E+02  0.45594000000E+02  0.51100000000E-03 0. -1.
    9900012    2    1    2    0    0  0.37113319107E+00  0.92640889326E+00 -0.63019682733E+00  0.90007694394E+02  0.89999955160E+02 0.  0.
        -12    1    1    2    0    0 -0.37113319107E+00 -0.92640889326E+00  0.63019682733E+00  0.11803056063E+01  0.00000000000E+00 0.  1.
         11    1    3    3    0    0 -0.88700757653E+01  0.30836010038E+02 -0.19842964154E+01  0.32147708965E+02  0.51100000000E-03 0. -1.
        -11    1    3    3    0    0 -0.23808613660E+01  0.12109302315E+02 -0.58748936887E+01  0.13668141041E+02  0.51100000000E-03 0.  1.
        -12    1    3    3    0    0  0.11622070322E+02 -0.42018903460E+02  0.72289932767E+01  0.44191844388E+02  0.00000000000E+00 0.  1.
</event>
<event>
 7    1  0.2349719E-015  0.9000782E+02  0.7816164E-02  0.1186339E+00
        -11   -1    0    0    0    0  0.00000000000E+00  0.00000000000E+00  0.45593999997E+02  0.45594000000E+02  0.51100000000E-03 0. -1.
         11   -1    0    0    0    0 -0.00000000000E+00 -0.00000000000E+00 -0.45593999997E+02  0.45594000000E+02  0.51100000000E-03 0.  1.
    9900012    2    1    2    0    0 -0.31208095967E+00 -0.11325515816E+01 -0.11298007510E+00  0.90007816918E+02  0.90000079301E+02 0.  0.
        -12    1    1    2    0    0  0.31208095967E+00  0.11325515816E+01  0.11298007510E+00  0.11801830823E+01  0.00000000000E+00 0.  1.
         11    1    3    3    0    0 -0.34171126555E+01 -0.22215417599E+02 -0.12623336814E+01  0.22512106178E+02  0.51100000000E-03 0. -1.
        -11    1    3    3    0    0 -0.14538293497E+02  0.16033505616E+02 -0.26559098396E+02  0.34261071029E+02  0.51100000000E-03 0.  1.
         12    1    3    3    0    0  0.17643325193E+02  0.50493604011E+01  0.27708452003E+02  0.33234639711E+02  0.00000000000E+00 0. -1.
</event>
<event>
 7    1  0.2349719E-015  0.9000754E+02  0.7816164E-02  0.1186339E+00
        -11   -1    0    0    0    0  0.00000000000E+00  0.00000000000E+00  0.45593999997E+02  0.45594000000E+02  0.51100000000E-03 0.  1.
         11   -1    0    0    0    0 -0.00000000000E+00 -0.00000000000E+00 -0.45593999997E+02  0.45594000000E+02  0.51100000000E-03 0. -1.
    9900012    2    1    2    0    0  0.77825477325E+00  0.84364685650E+00  0.27579350288E+00  0.90007541374E+02  0.89999800120E+02 0.  0.
        -12    1    1    2    0    0 -0.77825477325E+00 -0.84364685650E+00 -0.27579350288E+00  0.11804586256E+01  0.00000000000E+00 0.  1.
         11    1    3    3    0    0 -0.98627031544E+01  0.19354994626E+02 -0.32359304311E+02  0.38974521245E+02  0.51100000000E-03 0. -1.
        -11    1    3    3    0    0 -0.39020557520E+01  0.37278077792E+01 -0.33113614923E+01  0.63314852226E+01  0.51100000000E-03 0.  1.
        -12    1    3    3    0    0  0.14543013680E+02 -0.22239155549E+02  0.35946459306E+02  0.44701534907E+02  0.00000000000E+00 0.  1.
</event>
<event>
 7    1  0.2349719E-015  0.9000761E+02  0.7816164E-02  0.1186339E+00
        -11   -1    0    0    0    0  0.00000000000E+00  0.00000000000E+00  0.45593999997E+02  0.45594000000E+02  0.51100000000E-03 0.  1.
         11   -1    0    0    0    0 -0.00000000000E+00 -0.00000000000E+00 -0.45593999997E+02  0.45594000000E+02  0.51100000000E-03 0. -1.
    9900012    2    1    2    0    0  0.15126813366E+00 -0.64819148981E+00 -0.97482361882E+00  0.90007612206E+02  0.89999871887E+02 0.  0.
        -12    1    1    2    0    0 -0.15126813366E+00  0.64819148981E+00  0.97482361882E+00  0.11803877937E+01  0.00000000000E+00 0.  1.
         11    1    3    3    0    0  0.36343141544E+02 -0.80592124011E+01  0.66034649640E+01  0.37807150007E+02  0.51100000000E-03 0. -1.
        -11    1    3    3    0    0  0.23346739038E+01 -0.84135777358E+01  0.29925189904E+01  0.92300684029E+01  0.51100000000E-03 0.  1.
        -12    1    3    3    0    0 -0.38526547314E+02  0.15824598647E+02 -0.10570807573E+02  0.42970393797E+02  0.00000000000E+00 0.  1.
</event>
<event>
 7    1  0.2349719E-015  0.9000778E+02  0.7816164E-02  0.1186339E+00
        -11   -1    0    0    0    0  0.00000000000E+00  0.00000000000E+00  0.45593999997E+02  0.45594000000E+02  0.51100000000E-03 0. -1.
         11   -1    0    0    0    0 -0.00000000000E+00 -0.00000000000E+00 -0.45593999997E+02  0.45594000000E+02  0.51100000000E-03 0.  1.
    9900012    2    1    2    0    0  0.72564822688E+00  0.81661515569E+00  0.44663744722E+00  0.90007783634E+02  0.90000045578E+02 0.  0.
        -12    1    1    2    0    0 -0.72564822688E+00 -0.81661515569E+00 -0.44663744722E+00  0.11802163662E+01  0.00000000000E+00 0.  1.
         11    1    3    3    0    0 -0.45188667213E+01  0.31965686966E+02  0.28338886467E+02  0.42957162222E+02  0.51100000000E-03 0. -1.
        -11    1    3    3    0    0 -0.47840124608E+00 -0.82529861124E+01  0.24391517093E+01  0.86191710069E+01  0.51100000000E-03 0.  1.
        -12    1    3    3    0    0  0.57229161942E+01 -0.22896085698E+02 -0.30331400730E+02  0.38431450405E+02  0.00000000000E+00 0.  1.
</event>
<event>
 7    1  0.2349719E-015  0.9000770E+02  0.7816164E-02  0.1186339E+00
        -11   -1    0    0    0    0  0.00000000000E+00  0.00000000000E+00  0.45593999997E+02  0.45594000000E+02  0.51100000000E-03 0.  1.
         11   -1    0    0    0    0 -0.00000000000E+00 -0.00000000000E+00 -0.45593999997E+02  0.45594000000E+02  0.51100000000E-03 0. -1.
    9900012    2    1    2    0    0  0.34195505176E+00 -0.23124976427E+00 -0.11057619092E+01  0.90007695331E+02  0.89999956110E+02 0.  0.
        -12    1    1    2    0    0 -0.34195505176E+00  0.23124976427E+00  0.11057619092E+01  0.11803046686E+01  0.00000000000E+00 0.  1.
         11    1    3    3    0    0  0.41025521664E+01 -0.95495608108E+01  0.21002047194E+01  0.10603579871E+02  0.51100000000E-03 0. -1.
        -11    1    3    3    0    0 -0.37891400752E+02 -0.62085091425E+01  0.99528070072E+01  0.39665630012E+02  0.51100000000E-03 0.  1.
         12    1    3    3    0    0  0.34130803637E+02  0.15526820189E+02 -0.13158773636E+02  0.39738485448E+02  0.00000000000E+00 0. -1.
</event>
<event>
 7    1  0.2349719E-015  0.9000764E+02  0.7816164E-02  0.1186339E+00
        -11   -1    0    0    0    0  0.00000000000E+00  0.00000000000E+00  0.45593999997E+02  0.45594000000E+02  0.51100000000E-03 0.  1.
         11   -1    0    0    0    0 -0.00000000000E+00 -0.00000000000E+00 -0.45593999997E+02  0.45594000000E+02  0.51100000000E-03 0. -1.
    9900012    2    1    2    0    0  0.10919269531E+01  0.19229637729E+00 -0.40491935938E+00  0.90007643251E+02  0.89999903342E+02 0.  0.
        -12    1    1    2    0    0 -0.10919269531E+01 -0.19229637729E+00  0.40491935938E+00  0.11803567491E+01  0.00000000000E+00 0.  1.
         11    1    3    3    0    0  0.61825151737E+01 -0.47905373921E+01 -0.62724254718E+01  0.10025769992E+02  0.51100000000E-03 0. -1.
        -11    1    3    3    0    0  0.37203235541E+02  0.17671325864E+01  0.47935310418E+01  0.37552382513E+02  0.51100000000E-03 0.  1.
         12    1    3    3    0    0 -0.42293823762E+02  0.32157011830E+01  0.10739750706E+01  0.42429490746E+02  0.00000000000E+00 0. -1.
</event>
<event>
 7    1  0.2349719E-015  0.9000770E+02  0.7816164E-02  0.1186339E+00
        -11   -1    0    0    0    0  0.00000000000E+00  0.00000000000E+00  0.45593999997E+02  0.45594000000E+02  0.51100000000E-03 0.  1.
         11   -1    0    0    0    0 -0.00000000000E+00 -0.00000000000E+00 -0.45593999997E+02  0.45594000000E+02  0.51100000000E-03 0. -1.
    9900012    2    1    2    0    0 -0.10455768276E+01  0.31053528459E+00 -0.45106080318E+00  0.90007695415E+02  0.89999956194E+02 0.  0.
        -12    1    1    2    0    0  0.10455768276E+01 -0.31053528459E+00  0.45106080318E+00  0.11803045851E+01  0.00000000000E+00 0.  1.
         11    1    3    3    0    0 -0.11434777273E+02 -0.36419260951E+01 -0.38629400035E+02  0.40450566180E+02  0.51100000000E-03 0. -1.
        -11    1    3    3    0    0  0.62139034423E+01 -0.82472827578E+01  0.12007044777E+01  0.10395766464E+02  0.51100000000E-03 0.  1.
        -12    1    3    3    0    0  0.41752970027E+01  0.12199744137E+02  0.36977634754E+02  0.39161362771E+02  0.00000000000E+00 0.  1.
</event>
<event>
 7    1  0.2349719E-015  0.9000772E+02  0.7816164E-02  0.1186339E+00
        -11   -1    0    0    0    0  0.00000000000E+00  0.00000000000E+00  0.45593999997E+02  0.45594000000E+02  0.51100000000E-03 0.  1.
         11   -1    0    0    0    0 -0.00000000000E+00 -0.00000000000E+00 -0.45593999997E+02  0.45594000000E+02  0.51100000000E-03 0. -1.
    9900012    2    1    2    0    0  0.97371305680E+00 -0.21332457032E+00 -0.63201384778E+00  0.90007717833E+02  0.89999978909E+02 0.  0.
        -12    1    1    2    0    0 -0.97371305680E+00  0.21332457032E+00  0.63201384778E+00  0.11802821667E+01  0.00000000000E+00 0.  1.
         11    1    3    3    0    0 -0.25703241050E+00 -0.19439539014E+01  0.61156042308E+01  0.64222766836E+01  0.51100000000E-03 0. -1.
        -11    1    3    3    0    0  0.88657862806E+01  0.32905172499E+01  0.37491213193E+02  0.38665498019E+02  0.51100000000E-03 0.  1.
         12    1    3    3    0    0 -0.76350408133E+01 -0.15598879188E+01 -0.44238831272E+02  0.44919943130E+02  0.00000000000E+00 0. -1.
</event>
<event>
 7    1  0.2349719E-015  0.9000780E+02  0.7816164E-02  0.1186339E+00
        -11   -1    0    0    0    0  0.00000000000E+00  0.00000000000E+00  0.45593999997E+02  0.45594000000E+02  0.51100000000E-03 0.  1.
         11   -1    0    0    0    0 -0.00000000000E+00 -0.00000000000E+00 -0.45593999997E+02  0.45594000000E+02  0.51100000000E-03 0. -1.
    9900012    2    1    2    0    0 -0.27973387240E+00 -0.10252124761E+01  0.51338945939E+00  0.90007796459E+02  0.90000058573E+02 0.  0.
        -12    1    1    2    0    0  0.27973387240E+00  0.10252124761E+01 -0.51338945939E+00  0.11802035407E+01  0.00000000000E+00 0.  1.
         11    1    3    3    0    0  0.90281703501E+01  0.30398211901E+02  0.21387265815E+02  0.38248846858E+02  0.51100000000E-03 0. -1.
        -11    1    3    3    0    0  0.78494330380E+01 -0.40311415696E+01  0.51902179221E+01  0.10237287908E+02  0.51100000000E-03 0.  1.
        -12    1    3    3    0    0 -0.17157337260E+02 -0.27392282807E+02 -0.26064094278E+02  0.41521661693E+02  0.00000000000E+00 0.  1.
</event>
<event>
 7    1  0.2649445E-015  0.9000775E+02  0.7816164E-02  0.1186339E+00
        -11   -1    0    0    0    0  0.00000000000E+00  0.00000000000E+00  0.45593999997E+02  0.45594000000E+02  0.51100000000E-03 0.  1.
         11   -1    0    0    0    0 -0.00000000000E+00 -0.00000000000E+00 -0.45593999997E+02  0.45594000000E+02  0.51100000000E-03 0. -1.
    9900012    2    1    2    0    0  0.55218162276E+00 -0.99068126297E+00 -0.32653838538E+00  0.90007753743E+02  0.90000015293E+02 0.  0.
        -12    1    1    2    0    0 -0.55218162276E+00  0.99068126297E+00  0.32653838538E+00  0.11802462567E+01  0.00000000000E+00 0.  1.
         11    1    3    3    0    0  0.32154200678E+02 -0.40839220232E+01 -0.27912312290E+02  0.42774621190E+02  0.51100000000E-03 0. -1.
        -11    1    3    3    0    0 -0.86336648246E+01  0.31150711780E+01 -0.23756249976E+01  0.94808982242E+01  0.51100000000E-03 0.  1.
        -12    1    3    3    0    0 -0.22968354230E+02 -0.21830417808E-01  0.29961398903E+02  0.37752234329E+02  0.00000000000E+00 0.  1.
</event>
<event>
 7    1  0.2349719E-015  0.9000776E+02  0.7816164E-02  0.1186339E+00
        -11   -1    0    0    0    0  0.00000000000E+00  0.00000000000E+00  0.45593999997E+02  0.45594000000E+02  0.51100000000E-03 0. -1.
         11   -1    0    0    0    0 -0.00000000000E+00 -0.00000000000E+00 -0.45593999997E+02  0.45594000000E+02  0.51100000000E-03 0.  1.
    9900012    2    1    2    0    0 -0.10102541643E+01 -0.22790652509E+00 -0.56604682220E+00  0.90007761098E+02  0.90000022745E+02 0.  0.
        -12    1    1    2    0    0  0.10102541643E+01  0.22790652509E+00  0.56604682220E+00  0.11802389019E+01  0.00000000000E+00 0.  1.
         11    1    3    3    0    0  0.93153693641E+01  0.51614382746E+01 -0.24736469431E+01  0.10933228293E+02  0.51100000000E-03 0. -1.
        -11    1    3    3    0    0  0.46596172015E+01 -0.20931083798E+02 -0.32212874747E+02  0.38697436623E+02  0.51100000000E-03 0.  1.
         12    1    3    3    0    0 -0.14985240730E+02  0.15541738999E+02  0.34120474868E+02  0.40377096182E+02  0.00000000000E+00 0. -1.
</event>
<event>
 7    1  0.2349719E-015  0.9000750E+02  0.7816164E-02  0.1186340E+00
        -11   -1    0    0    0    0  0.00000000000E+00  0.00000000000E+00  0.45593999997E+02  0.45594000000E+02  0.51100000000E-03 0. -1.
         11   -1    0    0    0    0 -0.00000000000E+00 -0.00000000000E+00 -0.45593999997E+02  0.45594000000E+02  0.51100000000E-03 0.  1.
    9900012    2    1    2    0    0  0.16819817458E+00  0.59239694337E+00  0.10071550456E+01  0.90007497543E+02  0.89999755710E+02 0.  0.
        -12    1    1    2    0    0 -0.16819817458E+00 -0.59239694337E+00 -0.10071550456E+01  0.11805024568E+01  0.00000000000E+00 0.  1.
         11    1    3    3    0    0  0.42862762461E+01  0.12600270273E+01 -0.99600869990E+01  0.10916188229E+02  0.51100000000E-03 0. -1.
        -11    1    3    3    0    0  0.15976541259E+02  0.98366939844E+01 -0.28178265787E+02  0.33852992219E+02  0.51100000000E-03 0.  1.
         12    1    3    3    0    0 -0.20094619331E+02 -0.10504324068E+02  0.39145507832E+02  0.45238317095E+02  0.00000000000E+00 0. -1.
</event>
<event>
 7    1  0.2349719E-015  0.9000784E+02  0.7816164E-02  0.1186339E+00
        -11   -1    0    0    0    0  0.00000000000E+00  0.00000000000E+00  0.45593999997E+02  0.45594000000E+02  0.51100000000E-03 0.  1.
         11   -1    0    0    0    0 -0.00000000000E+00 -0.00000000000E+00 -0.45593999997E+02  0.45594000000E+02  0.51100000000E-03 0. -1.
    9900012    2    1    2    0    0 -0.70890974939E+00 -0.78547701979E+00 -0.52272369870E+00  0.90007844397E+02  0.90000107143E+02 0.  0.
        -12    1    1    2    0    0  0.70890974939E+00  0.78547701979E+00  0.52272369870E+00  0.11801556027E+01  0.00000000000E+00 0.  1.
         11    1    3    3    0    0  0.18738328735E+02  0.31326059787E+02  0.38509713409E+01  0.36705271639E+02  0.51100000000E-03 0. -1.
        -11    1    3    3    0    0 -0.12111246294E+02  0.62713884311E+01  0.17412212000E+01  0.13749343663E+02  0.51100000000E-03 0.  1.
        -12    1    3    3    0    0 -0.73359921906E+01 -0.38382925238E+02 -0.61149162396E+01  0.39553229095E+02  0.00000000000E+00 0.  1.
</event>
<event>
 7    1  0.2349719E-015  0.9000778E+02  0.7816164E-02  0.1186339E+00
        -11   -1    0    0    0    0  0.00000000000E+00  0.00000000000E+00  0.45593999997E+02  0.45594000000E+02  0.51100000000E-03 0.  1.
         11   -1    0    0    0    0 -0.00000000000E+00 -0.00000000000E+00 -0.45593999997E+02  0.45594000000E+02  0.51100000000E-03 0. -1.
    9900012    2    1    2    0    0  0.11097802477E+01 -0.39831254907E+00 -0.51537195461E-01  0.90007779187E+02  0.90000041072E+02 0.  0.
        -12    1    1    2    0    0 -0.11097802477E+01  0.39831254907E+00  0.51537195461E-01  0.11802208130E+01  0.00000000000E+00 0.  1.
         11    1    3    3    0    0  0.18680126085E+02 -0.40278169141E+01  0.20909540630E+02  0.28326300663E+02  0.51100000000E-03 0. -1.
        -11    1    3    3    0    0 -0.36843640365E+01  0.18036748818E+02  0.12809965436E+02  0.22427529088E+02  0.51100000000E-03 0.  1.
         12    1    3    3    0    0 -0.13885981801E+02 -0.14407244453E+02 -0.33771043262E+02  0.39253949435E+02  0.00000000000E+00 0. -1.
</event>
<event>
 7    1  0.2349719E-015  0.9000792E+02  0.7816164E-02  0.1186339E+00
        -11   -1    0    0    0    0  0.00000000000E+00  0.00000000000E+00  0.45593999997E+02  0.45594000000E+02  0.51100000000E-03 0.  1.
         11   -1    0    0    0    0 -0.00000000000E+00 -0.00000000000E+00 -0.45593999997E+02  0.45594000000E+02  0.51100000000E-03 0. -1.
    9900012    2    1    2    0    0  0.71575799031E+00  0.59057042780E+00 -0.72904586001E+00  0.90007919157E+02  0.90000182889E+02 0.  0.
        -12    1    1    2    0    0 -0.71575799031E+00 -0.59057042780E+00  0.72904586001E+00  0.11800808434E+01  0.00000000000E+00 0.  1.
         11    1    3    3    0    0 -0.26176322196E+01 -0.83583468591E+01 -0.33537135200E+01  0.93787715235E+01  0.51100000000E-03 0. -1.
        -11    1    3    3    0    0 -0.35792510295E+02  0.16242372798E+02 -0.63890558865E+01  0.39821332257E+02  0.51100000000E-03 0.  1.
         12    1    3    3    0    0  0.39125900505E+02 -0.72934555109E+01  0.90137235464E+01  0.40807815376E+02  0.00000000000E+00 0. -1.
</event>
<event>
 7    1  0.2349719E-015  0.9000774E+02  0.7816164E-02  0.1186339E+00
        -11   -1    0    0    0    0  0.00000000000E+00  0.00000000000E+00  0.45593999997E+02  0.45594000000E+02  0.51100000000E-03 0.  1.
         11   -1    0    0    0    0 -0.00000000000E+00 -0.00000000000E+00 -0.45593999997E+02  0.45594000000E+02  0.51100000000E-03 0. -1.
    9900012    2    1    2    0    0 -0.81301297337E+00 -0.24293799610E+00 -0.82036270394E+00  0.90007744125E+02  0.90000005547E+02 0.  0.
        -12    1    1    2    0    0  0.81301297337E+00  0.24293799610E+00  0.82036270394E+00  0.11802558752E+01  0.00000000000E+00 0.  1.
         11    1    3    3    0    0  0.22053255024E+02 -0.81821845193E+01 -0.27424269558E+02  0.36130108797E+02  0.51100000000E-03 0. -1.
        -11    1    3    3    0    0 -0.46072541352E+01 -0.45962342092E+01 -0.95038378955E+01  0.11518467545E+02  0.51100000000E-03 0.  1.
        -12    1    3    3    0    0 -0.18259013862E+02  0.12535480732E+02  0.36107744749E+02  0.42359167783E+02  0.00000000000E+00 0.  1.
</event>
<event>
 7    1  0.2674871E-015  0.9000768E+02  0.7816164E-02  0.1186339E+00
        -11   -1    0    0    0    0  0.00000000000E+00  0.00000000000E+00  0.45593999997E+02  0.45594000000E+02  0.51100000000E-03 0. -1.
         11   -1    0    0    0    0 -0.00000000000E+00 -0.00000000000E+00 -0.45593999997E+02  0.45594000000E+02  0.51100000000E-03 0.  1.
    9900012    2    1    2    0    0  0.18472941160E+00  0.11569281207E+00  0.11600174267E+01  0.90007682156E+02  0.89999942761E+02 0.  0.
        -12    1    1    2    0    0 -0.18472941160E+00 -0.11569281207E+00 -0.11600174267E+01  0.11803178438E+01  0.00000000000E+00 0.  1.
         11    1    3    3    0    0  0.18023788600E+02 -0.35322150642E+02  0.15637406574E+02  0.42626749420E+02  0.51100000000E-03 0. -1.
        -11    1    3    3    0    0 -0.91867935584E+01  0.11798033889E+01 -0.17959538268E+00  0.92639822260E+01  0.51100000000E-03 0.  1.
        -12    1    3    3    0    0 -0.86522656297E+01  0.34258040065E+02 -0.14297793765E+02  0.38116950510E+02  0.00000000000E+00 0.  1.
</event>
<event>
 7    1  0.2349719E-015  0.9000783E+02  0.7816164E-02  0.1186339E+00
        -11   -1    0    0    0    0  0.00000000000E+00  0.00000000000E+00  0.45593999997E+02  0.45594000000E+02  0.51100000000E-03 0.  1.
         11   -1    0    0    0    0 -0.00000000000E+00 -0.00000000000E+00 -0.45593999997E+02  0.45594000000E+02  0.51100000000E-03 0. -1.
    9900012    2    1    2    0    0  0.16062454010E+00 -0.89551525268E+00 -0.75170531258E+00  0.90007826840E+02  0.90000089354E+02 0.  0.
        -12    1    1    2    0    0 -0.16062454010E+00  0.89551525268E+00  0.75170531258E+00  0.11801731600E+01  0.00000000000E+00 0.  1.
         11    1    3    3    0    0  0.11207369131E+02 -0.14561576597E+02 -0.37057656768E+02  0.41363202985E+02  0.51100000000E-03 0. -1.
        -11    1    3    3    0    0  0.54297650515E+01 -0.50137259093E+01  0.69442274415E+01  0.10141108964E+02  0.51100000000E-03 0.  1.
        -12    1    3    3    0    0 -0.16476509642E+02  0.18679787254E+02  0.29361724014E+02  0.38503514890E+02  0.00000000000E+00 0.  1.
</event>
<event>
 7    1  0.2349719E-015  0.9000772E+02  0.7816164E-02  0.1186339E+00
        -11   -1    0    0    0    0  0.00000000000E+00  0.00000000000E+00  0.45593999997E+02  0.45594000000E+02  0.51100000000E-03 0.  1.
         11   -1    0    0    0    0 -0.00000000000E+00 -0.00000000000E+00 -0.45593999997E+02  0.45594000000E+02  0.51100000000E-03 0. -1.
    9900012    2    1    2    0    0  0.82799665071E+00  0.41846325389E-01 -0.84007273505E+00  0.90007723859E+02  0.89999985014E+02 0.  0.
        -12    1    1    2    0    0 -0.82799665071E+00 -0.41846325389E-01  0.84007273505E+00  0.11802761409E+01  0.00000000000E+00 0.  1.
         11    1    3    3    0    0 -0.31445076800E+02  0.11789987889E+02 -0.11115555880E+02  0.35374457623E+02  0.51100000000E-03 0. -1.
        -11    1    3    3    0    0  0.76052295431E+01  0.12581476169E+02 -0.65761241899E+01  0.16105231095E+02  0.51100000000E-03 0.  1.
        -12    1    3    3    0    0  0.24667843907E+02 -0.24329617733E+02  0.16851607335E+02  0.38528035141E+02  0.00000000000E+00 0.  1.
</event>
<event>
 7    1  0.2349719E-015  0.9000773E+02  0.7816164E-02  0.1186339E+00
        -11   -1    0    0    0    0  0.00000000000E+00  0.00000000000E+00  0.45593999997E+02  0.45594000000E+02  0.51100000000E-03 0.  1.
         11   -1    0    0    0    0 -0.00000000000E+00 -0.00000000000E+00 -0.45593999997E+02  0.45594000000E+02  0.51100000000E-03 0. -1.
    9900012    2    1    2    0    0  0.19726641025E+00  0.11212237541E+01 -0.31140890398E+00  0.90007732128E+02  0.89999993392E+02 0.  0.
        -12    1    1    2    0    0 -0.19726641025E+00 -0.11212237541E+01  0.31140890398E+00  0.11802678716E+01  0.00000000000E+00 0.  1.
         11    1    3    3    0    0  0.11327262678E+02 -0.11132659063E+02 -0.44769172814E+01  0.16501083789E+02  0.51100000000E-03 0. -1.
        -11    1    3    3    0    0  0.92953745564E+01 -0.26920274754E+02 -0.34073397972E+01  0.28683011448E+02  0.51100000000E-03 0.  1.
         12    1    3    3    0    0 -0.20425370824E+02  0.39174157571E+02  0.75728481747E+01  0.44823636892E+02  0.00000000000E+00 0. -1.
</event>
<event>
 7    1  0.2349719E-015  0.9000782E+02  0.7816164E-02  0.1186339E+00
        -11   -1    0    0    0    0  0.00000000000E+00  0.00000000000E+00  0.45593999997E+02  0.45594000000E+02  0.51100000000E-03 0. -1.
         11   -1    0    0    0    0 -0.00000000000E+00 -0.00000000000E+00 -0.45593999997E+02  0.45594000000E+02  0.51100000000E-03 0.  1.
    9900012    2    1    2    0    0 -0.57391202999E+00  0.27690243989E+00  0.99336207615E+00  0.90007822813E+02  0.90000085274E+02 0.  0.
        -12    1    1    2    0    0  0.57391202999E+00 -0.27690243989E+00 -0.99336207615E+00  0.11801771874E+01  0.00000000000E+00 0.  1.
         11    1    3    3    0    0 -0.47779814958E+00  0.72494657384E+01 -0.59884350532E+01  0.94151154646E+01  0.51100000000E-03 0. -1.
        -11    1    3    3    0    0  0.26871936994E+02 -0.31579654151E+02 -0.58922570345E+01  0.41881908353E+02  0.51100000000E-03 0.  1.
         12    1    3    3    0    0 -0.26968050875E+02  0.24607090852E+02  0.12874054164E+02  0.38710798995E+02  0.00000000000E+00 0. -1.
</event>
<event>
 7    1  0.2349719E-015  0.9000773E+02  0.7816164E-02  0.1186339E+00
        -11   -1    0    0    0    0  0.00000000000E+00  0.00000000000E+00  0.45593999997E+02  0.45594000000E+02  0.51100000000E-03 0. -1.
         11   -1    0    0    0    0 -0.00000000000E+00 -0.00000000000E+00 -0.45593999997E+02  0.45594000000E+02  0.51100000000E-03 0.  1.
    9900012    2    1    2    0    0  0.87225168739E+00 -0.65617901013E+00 -0.44904978116E+00  0.90007729012E+02  0.89999990235E+02 0.  0.
        -12    1    1    2    0    0 -0.87225168739E+00  0.65617901013E+00  0.44904978116E+00  0.11802709881E+01  0.00000000000E+00 0.  1.
         11    1    3    3    0    0 -0.76298399205E+01 -0.39681601213E+01  0.40529052960E+01  0.95071969350E+01  0.51100000000E-03 0. -1.
        -11    1    3    3    0    0 -0.31707842367E+02  0.67240762868E+01 -0.19058570914E+02  0.37600925454E+02  0.51100000000E-03 0.  1.
         12    1    3    3    0    0  0.40209933975E+02 -0.34120951756E+01  0.14556615837E+02  0.42899606623E+02  0.00000000000E+00 0. -1.
</event>
<event>
 7    1  0.2349719E-015  0.9000770E+02  0.7816164E-02  0.1186339E+00
        -11   -1    0    0    0    0  0.00000000000E+00  0.00000000000E+00  0.45593999997E+02  0.45594000000E+02  0.51100000000E-03 0.  1.
         11   -1    0    0    0    0 -0.00000000000E+00 -0.00000000000E+00 -0.45593999997E+02  0.45594000000E+02  0.51100000000E-03 0. -1.
    9900012    2    1    2    0    0  0.12186725191E+00  0.92213357212E+00 -0.72658023221E+00  0.90007703094E+02  0.89999963975E+02 0.  0.
        -12    1    1    2    0    0 -0.12186725191E+00 -0.92213357212E+00  0.72658023221E+00  0.11802969058E+01  0.00000000000E+00 0.  1.
         11    1    3    3    0    0 -0.28547096278E+01 -0.94580309088E+01  0.40796609105E+01  0.10688655160E+02  0.51100000000E-03 0. -1.
        -11    1    3    3    0    0 -0.13416546547E+02 -0.12451509188E+02 -0.34112222824E+02  0.38712886079E+02  0.51100000000E-03 0.  1.
         12    1    3    3    0    0  0.16393123427E+02  0.22831673669E+02  0.29305981681E+02  0.40606161855E+02  0.00000000000E+00 0. -1.
</event>
<event>
 7    1  0.2676689E-015  0.9000764E+02  0.7816164E-02  0.1186339E+00
        -11   -1    0    0    0    0  0.00000000000E+00  0.00000000000E+00  0.45593999997E+02  0.45594000000E+02  0.51100000000E-03 0.  1.
         11   -1    0    0    0    0 -0.00000000000E+00 -0.00000000000E+00 -0.45593999997E+02  0.45594000000E+02  0.51100000000E-03 0. -1.
    9900012    2    1    2    0    0 -0.52177375008E-01 -0.75797984196E+00 -0.90332017199E+00  0.90007642744E+02  0.89999902828E+02 0.  0.
        -12    1    1    2    0    0  0.52177375008E-01  0.75797984196E+00  0.90332017199E+00  0.11803572563E+01  0.00000000000E+00 0.  1.
         11    1    3    3    0    0  0.25048225351E+02 -0.14359796358E+02 -0.22135688125E+02  0.36381396808E+02  0.51100000000E-03 0. -1.
        -11    1    3    3    0    0  0.25143435384E+01 -0.30402232962E+01 -0.87498991009E+01  0.95982089817E+01  0.51100000000E-03 0.  1.
        -12    1    3    3    0    0 -0.27614746264E+02  0.16642039812E+02  0.29982267054E+02  0.44028036954E+02  0.00000000000E+00 0.  1.
</event>
<event>
 7    1  0.2349719E-015  0.9000771E+02  0.7816164E-02  0.1186339E+00
        -11   -1    0    0    0    0  0.00000000000E+00  0.00000000000E+00  0.45593999997E+02  0.45594000000E+02  0.51100000000E-03 0. -1.
         11   -1    0    0    0    0 -0.00000000000E+00 -0.00000000000E+00 -0.45593999997E+02  0.45594000000E+02  0.51100000000E-03 0.  1.
    9900012    2    1    2    0    0 -0.51243277282E+00  0.15009826206E+00  0.10526058348E+01  0.90007705173E+02  0.89999966081E+02 0.  0.
        -12    1    1    2    0    0  0.51243277282E+00 -0.15009826206E+00 -0.10526058348E+01  0.11802948269E+01  0.00000000000E+00 0.  1.
         11    1    3    3    0    0  0.61864267340E+01 -0.12402909009E+01 -0.98696352025E+01  0.11714089659E+02  0.51100000000E-03 0. -1.
        -11    1    3    3    0    0 -0.26913373232E+02 -0.43034321037E+01 -0.24803820250E+02  0.36852119150E+02  0.51100000000E-03 0.  1.
         12    1    3    3    0    0  0.20214513725E+02  0.56938212666E+01  0.35726061288E+02  0.41441496364E+02  0.00000000000E+00 0. -1.
</event>
<event>
 7    1  0.2349719E-015  0.9000786E+02  0.7816164E-02  0.1186339E+00
        -11   -1    0    0    0    0  0.00000000000E+00  0.00000000000E+00  0.45593999997E+02  0.45594000000E+02  0.51100000000E-03 0.  1.
         11   -1    0    0    0    0 -0.00000000000E+00 -0.00000000000E+00 -0.45593999997E+02  0.45594000000E+02  0.51100000000E-03 0. -1.
    9900012    2    1    2    0    0  0.32594726660E+00  0.10777789957E+01 -0.35337336239E+00  0.90007863602E+02  0.90000126602E+02 0.  0.
        -12    1    1    2    0    0 -0.32594726660E+00 -0.10777789957E+01  0.35337336239E+00  0.11801363978E+01  0.00000000000E+00 0.  1.
         11    1    3    3    0    0 -0.23588705135E+01 -0.90676613523E+01 -0.21504692838E+01  0.96130781179E+01  0.51100000000E-03 0. -1.
        -11    1    3    3    0    0  0.11209285729E+02 -0.73767915179E+01  0.37440622773E+02  0.39772671189E+02  0.51100000000E-03 0.  1.
         12    1    3    3    0    0 -0.85244679492E+01  0.17522231866E+02 -0.35643526851E+02  0.40622114295E+02  0.00000000000E+00 0. -1.
</event>
<event>
 7    1  0.2349719E-015  0.9000765E+02  0.7816164E-02  0.1186339E+00
        -11   -1    0    0    0    0  0.00000000000E+00  0.00000000000E+00  0.45593999997E+02  0.45594000000E+02  0.51100000000E-03 0. -1.
         11   -1    0    0    0    0 -0.00000000000E+00 -0.00000000000E+00 -0.45593999997E+02  0.45594000000E+02  0.51100000000E-03 0.  1.
    9900012    2    1    2    0    0  0.10733041232E+01 -0.48886748252E+00  0.47544561623E-01  0.90007646815E+02  0.89999906953E+02 0.  0.
        -12    1    1    2    0    0 -0.10733041232E+01  0.48886748252E+00 -0.47544561623E-01  0.11803531851E+01  0.00000000000E+00 0.  1.
         11    1    3    3    0    0 -0.51471588360E+01 -0.20615756736E+02  0.36983391163E+02  0.42652947050E+02  0.51100000000E-03 0. -1.
        -11    1    3    3    0    0 -0.70257956628E+01  0.27539438141E+01 -0.69861538310E+01  0.10283596493E+02  0.51100000000E-03 0.  1.
        -12    1    3    3    0    0  0.13246258622E+02  0.17372945439E+02 -0.29949692770E+02  0.37071103271E+02  0.00000000000E+00 0.  1.
</event>
<event>
 7    1  0.2349719E-015  0.9000775E+02  0.7816164E-02  0.1186339E+00
        -11   -1    0    0    0    0  0.00000000000E+00  0.00000000000E+00  0.45593999997E+02  0.45594000000E+02  0.51100000000E-03 0.  1.
         11   -1    0    0    0    0 -0.00000000000E+00 -0.00000000000E+00 -0.45593999997E+02  0.45594000000E+02  0.51100000000E-03 0. -1.
    9900012    2    1    2    0    0 -0.25000574976E+00  0.11097791703E+01  0.31444878051E+00  0.90007749723E+02  0.90000011219E+02 0.  0.
        -12    1    1    2    0    0  0.25000574976E+00 -0.11097791703E+01 -0.31444878051E+00  0.11802502774E+01  0.00000000000E+00 0.  1.
         11    1    3    3    0    0 -0.12421103556E+01  0.63924580126E+01  0.91348517737E+01  0.11218372198E+02  0.51100000000E-03 0. -1.
        -11    1    3    3    0    0 -0.25082865974E+02  0.16449254667E+02 -0.26935358552E+02  0.40314286366E+02  0.51100000000E-03 0.  1.
         12    1    3    3    0    0  0.26074970580E+02 -0.21731933510E+02  0.18114955559E+02  0.38475091159E+02  0.00000000000E+00 0. -1.
</event>
<event>
 7    1  0.2349719E-015  0.9000775E+02  0.7816164E-02  0.1186339E+00
        -11   -1    0    0    0    0  0.00000000000E+00  0.00000000000E+00  0.45593999997E+02  0.45594000000E+02  0.51100000000E-03 0. -1.
         11   -1    0    0    0    0 -0.00000000000E+00 -0.00000000000E+00 -0.45593999997E+02  0.45594000000E+02  0.51100000000E-03 0.  1.
    9900012    2    1    2    0    0  0.50584722872E+00  0.47878800771E+00  0.95282152068E+00  0.90007750778E+02  0.90000012289E+02 0.  0.
        -12    1    1    2    0    0 -0.50584722872E+00 -0.47878800771E+00 -0.95282152068E+00  0.11802492217E+01  0.00000000000E+00 0.  1.
         11    1    3    3    0    0  0.25621360013E+02 -0.10107688532E+02  0.21394820826E+02  0.34876321693E+02  0.51100000000E-03 0. -1.
        -11    1    3    3    0    0  0.92038289613E+01 -0.56388834667E+01 -0.12192471775E+02  0.16283852202E+02  0.51100000000E-03 0.  1.
        -12    1    3    3    0    0 -0.34319341746E+02  0.16225360006E+02 -0.82495275300E+01  0.38847576883E+02  0.00000000000E+00 0.  1.
</event>
<event>
 7    1  0.2423680E-015  0.9000775E+02  0.7816164E-02  0.1186339E+00
        -11   -1    0    0    0    0  0.00000000000E+00  0.00000000000E+00  0.45593999997E+02  0.45594000000E+02  0.51100000000E-03 0.  1.
         11   -1    0    0    0    0 -0.00000000000E+00 -0.00000000000E+00 -0.45593999997E+02  0.45594000000E+02  0.51100000000E-03 0. -1.
    9900012    2    1    2    0    0  0.10974359409E+01  0.40658649890E+00  0.15269454533E+00  0.90007748396E+02  0.90000009874E+02 0.  0.
        -12    1    1    2    0    0 -0.10974359409E+01 -0.40658649890E+00 -0.15269454533E+00  0.11802516043E+01  0.00000000000E+00 0.  1.
         11    1    3    3    0    0  0.14140142861E+02 -0.23283386824E+02 -0.23104320736E+02  0.35719313810E+02  0.51100000000E-03 0. -1.
        -11    1    3    3    0    0  0.70046489950E+01 -0.66566724829E+01 -0.21791980608E+01  0.99058215478E+01  0.51100000000E-03 0.  1.
        -12    1    3    3    0    0 -0.20047355916E+02  0.30346645806E+02  0.25436213342E+02  0.44382613038E+02  0.00000000000E+00 0.  1.
</event>
<event>
 7    1  0.2349719E-015  0.9000779E+02  0.7816164E-02  0.1186339E+00
        -11   -1    0    0    0    0  0.00000000000E+00  0.00000000000E+00  0.45593999997E+02  0.45594000000E+02  0.51100000000E-03 0.  1.
         11   -1    0    0    0    0 -0.00000000000E+00 -0.00000000000E+00 -0.45593999997E+02  0.45594000000E+02  0.51100000000E-03 0. -1.
    9900012    2    1    2    0    0  0.47189403353E+00  0.10666020556E+01 -0.18050474984E+00  0.90007785660E+02  0.90000047631E+02 0.  0.
        -12    1    1    2    0    0 -0.47189403353E+00 -0.10666020556E+01  0.18050474984E+00  0.11802143401E+01  0.00000000000E+00 0.  1.
         11    1    3    3    0    0 -0.99541513686E+01  0.27467241237E+01  0.24496802432E+01  0.10612754423E+02  0.51100000000E-03 0. -1.
        -11    1    3    3    0    0 -0.25568375255E+02  0.23819450322E+02  0.22365214416E+01  0.35015854341E+02  0.51100000000E-03 0.  1.
         12    1    3    3    0    0  0.35994420657E+02 -0.25499572390E+02 -0.48667064346E+01  0.44379176896E+02  0.00000000000E+00 0. -1.
</event>
<event>
 7    1  0.2349719E-015  0.9000784E+02  0.7816164E-02  0.1186339E+00
        -11   -1    0    0    0    0  0.00000000000E+00  0.00000000000E+00  0.45593999997E+02  0.45594000000E+02  0.51100000000E-03 0.  1.
         11   -1    0    0    0    0 -0.00000000000E+00 -0.00000000000E+00 -0.45593999997E+02  0.45594000000E+02  0.51100000000E-03 0. -1.
    9900012    2    1    2    0    0  0.16681448707E+00 -0.11084062154E+01 -0.36931209720E+00  0.90007837792E+02  0.90000100451E+02 0.  0.
        -12    1    1    2    0    0 -0.16681448707E+00  0.11084062154E+01  0.36931209720E+00  0.11801622078E+01  0.00000000000E+00 0.  1.
         11    1    3    3    0    0  0.18964890049E+02  0.25742569548E+02 -0.27117268642E+02  0.41924851823E+02  0.51100000000E-03 0. -1.
        -11    1    3    3    0    0 -0.82450305819E+01  0.17729222007E+01  0.16836645464E+01  0.85999133131E+01  0.51100000000E-03 0.  1.
        -12    1    3    3    0    0 -0.10553044980E+02 -0.28623897964E+02  0.25064291999E+02  0.39483072656E+02  0.00000000000E+00 0.  1.
</event>
<event>
 7    1  0.2349719E-015  0.9000782E+02  0.7816164E-02  0.1186339E+00
        -11   -1    0    0    0    0  0.00000000000E+00  0.00000000000E+00  0.45593999997E+02  0.45594000000E+02  0.51100000000E-03 0.  1.
         11   -1    0    0    0    0 -0.00000000000E+00 -0.00000000000E+00 -0.45593999997E+02  0.45594000000E+02  0.51100000000E-03 0. -1.
    9900012    2    1    2    0    0 -0.63874396175E+00 -0.35437491187E+00 -0.92695119125E+00  0.90007824616E+02  0.90000087101E+02 0.  0.
        -12    1    1    2    0    0  0.63874396175E+00  0.35437491187E+00  0.92695119125E+00  0.11801753843E+01  0.00000000000E+00 0.  1.
         11    1    3    3    0    0 -0.15941874023E+02 -0.56951299308E+01  0.41656636136E+01  0.17433605648E+02  0.51100000000E-03 0. -1.
        -11    1    3    3    0    0 -0.26288648319E+02 -0.12087026489E+00  0.98059602002E+01  0.28058234010E+02  0.51100000000E-03 0.  1.
         12    1    3    3    0    0  0.41591778380E+02  0.54616252838E+01 -0.14898575005E+02  0.44515984957E+02  0.00000000000E+00 0. -1.
</event>
<event>
 7    1  0.2349719E-015  0.9000776E+02  0.7816164E-02  0.1186339E+00
        -11   -1    0    0    0    0  0.00000000000E+00  0.00000000000E+00  0.45593999997E+02  0.45594000000E+02  0.51100000000E-03 0. -1.
         11   -1    0    0    0    0 -0.00000000000E+00 -0.00000000000E+00 -0.45593999997E+02  0.45594000000E+02  0.51100000000E-03 0.  1.
    9900012    2    1    2    0    0 -0.65968065806E+00 -0.28550555572E-01  0.97825433277E+00  0.90007756278E+02  0.90000017860E+02 0.  0.
        -12    1    1    2    0    0  0.65968065806E+00  0.28550555572E-01 -0.97825433277E+00  0.11802437225E+01  0.00000000000E+00 0.  1.
         11    1    3    3    0    0 -0.52497615101E+01  0.96946690755E+01  0.31503586724E+01  0.11466096303E+02  0.51100000000E-03 0. -1.
        -11    1    3    3    0    0 -0.17869865103E+02  0.20895991797E+02 -0.22447232949E+02  0.35494405465E+02  0.51100000000E-03 0.  1.
         12    1    3    3    0    0  0.22459945955E+02 -0.30619211428E+02  0.20275128609E+02  0.43047254510E+02  0.00000000000E+00 0. -1.
</event>
<event>
 7    1  0.2349719E-015  0.9000770E+02  0.7816164E-02  0.1186339E+00
        -11   -1    0    0    0    0  0.00000000000E+00  0.00000000000E+00  0.45593999997E+02  0.45594000000E+02  0.51100000000E-03 0. -1.
         11   -1    0    0    0    0 -0.00000000000E+00 -0.00000000000E+00 -0.45593999997E+02  0.45594000000E+02  0.51100000000E-03 0.  1.
    9900012    2    1    2    0    0  0.57968713186E-01 -0.11320997023E+01  0.32878147736E+00  0.90007700306E+02  0.89999961150E+02 0.  0.
        -12    1    1    2    0    0 -0.57968713186E-01  0.11320997023E+01 -0.32878147736E+00  0.11802996939E+01  0.00000000000E+00 0.  1.
         11    1    3    3    0    0  0.71825647563E+01  0.73789377351E+01  0.27494043034E+01  0.10658197918E+02  0.51100000000E-03 0. -1.
        -11    1    3    3    0    0 -0.32863619769E+02  0.16353294802E+02 -0.17315035154E+02  0.40586428740E+02  0.51100000000E-03 0.  1.
         12    1    3    3    0    0  0.25739023726E+02 -0.24864332239E+02  0.14894412328E+02  0.38763073648E+02  0.00000000000E+00 0. -1.
</event>
<event>
 7    1  0.2349719E-015  0.9000784E+02  0.7816164E-02  0.1186339E+00
        -11   -1    0    0    0    0  0.00000000000E+00  0.00000000000E+00  0.45593999997E+02  0.45594000000E+02  0.51100000000E-03 0.  1.
         11   -1    0    0    0    0 -0.00000000000E+00 -0.00000000000E+00 -0.45593999997E+02  0.45594000000E+02  0.51100000000E-03 0. -1.
    9900012    2    1    2    0    0 -0.10977161456E-02  0.37992936507E-02 -0.11801577107E+01  0.90007835663E+02  0.90000098294E+02 0.  0.
        -12    1    1    2    0    0  0.10977161456E-02 -0.37992936507E-02  0.11801577107E+01  0.11801643368E+01  0.00000000000E+00 0.  1.
         11    1    3    3    0    0  0.89969617735E+01 -0.83100733309E+01  0.33730893316E+02  0.35885593266E+02  0.51100000000E-03 0. -1.
        -11    1    3    3    0    0  0.76546023538E+01  0.69874182273E+01  0.45135433956E+01  0.11304380785E+02  0.51100000000E-03 0.  1.
        -12    1    3    3    0    0 -0.16652661843E+02  0.13264543973E+01 -0.39424594422E+02  0.42817861613E+02  0.00000000000E+00 0.  1.
</event>
<event>
 7    1  0.2349719E-015  0.9000778E+02  0.7816164E-02  0.1186339E+00
        -11   -1    0    0    0    0  0.00000000000E+00  0.00000000000E+00  0.45593999997E+02  0.45594000000E+02  0.51100000000E-03 0.  1.
         11   -1    0    0    0    0 -0.00000000000E+00 -0.00000000000E+00 -0.45593999997E+02  0.45594000000E+02  0.51100000000E-03 0. -1.
    9900012    2    1    2    0    0 -0.11459298017E+01  0.13355040940E+00 -0.24883136919E+00  0.90007784819E+02  0.90000046779E+02 0.  0.
        -12    1    1    2    0    0  0.11459298017E+01 -0.13355040940E+00  0.24883136919E+00  0.11802151806E+01  0.00000000000E+00 0.  1.
         11    1    3    3    0    0  0.62590599042E+01  0.64015387100E+01  0.24897678446E+01  0.92927107413E+01  0.51100000000E-03 0. -1.
        -11    1    3    3    0    0 -0.12604852538E+02  0.22647245467E+02  0.28027392600E+02  0.38174792349E+02  0.51100000000E-03 0.  1.
         12    1    3    3    0    0  0.51998628318E+01 -0.28915233767E+02 -0.30765991813E+02  0.42540281729E+02  0.00000000000E+00 0. -1.
</event>
<event>
 8    1  0.2349719E-015  0.9000717E+02  0.7816164E-02  0.1186340E+00
        -11   -1    0    0    0    0  0.00000000000E+00  0.00000000000E+00  0.45593999997E+02  0.45594000000E+02  0.51100000000E-03 0. -1.
         11   -1    0    0    0    0 -0.00000000000E+00 -0.00000000000E+00 -0.45593999997E+02  0.45594000000E+02  0.51100000000E-03 0.  1.
    9900012    2    1    2    0    0  0.33369739936E+00  0.99784917299E+00  0.53599955846E+00  0.90007172979E+02  0.89999426861E+02 0.  0.
         23    2    3    3    0    0  0.21560313813E+01  0.21616825336E+02 -0.18896012022E+01  0.69166188881E+02  0.65638826031E+02 0.  0.
        -12    1    1    2    0    0 -0.33369739936E+00 -0.99784917299E+00 -0.53599955846E+00  0.11808270208E+01  0.00000000000E+00 0.  1.
         11    1    4    4    0    0 -0.16566639528E+02 -0.50197710732E+01  0.22569863239E+02  0.28443810816E+02  0.51100000000E-03 0. -1.
        -11    1    4    4    0    0  0.18722670909E+02  0.26636596409E+02 -0.24459464441E+02  0.40722378065E+02  0.51100000000E-03 0.  1.
         12    1    3    3    0    0 -0.18223339820E+01 -0.20618976163E+02  0.24256007607E+01  0.20840984098E+02  0.00000000000E+00 0. -1.
</event>
<event>
 7    1  0.2349719E-015  0.9000766E+02  0.7816164E-02  0.1186339E+00
        -11   -1    0    0    0    0  0.00000000000E+00  0.00000000000E+00  0.45593999997E+02  0.45594000000E+02  0.51100000000E-03 0. -1.
         11   -1    0    0    0    0 -0.00000000000E+00 -0.00000000000E+00 -0.45593999997E+02  0.45594000000E+02  0.51100000000E-03 0.  1.
    9900012    2    1    2    0    0 -0.98157490594E+00 -0.47849345053E+00 -0.44806971376E+00  0.90007656090E+02  0.89999916350E+02 0.  0.
        -12    1    1    2    0    0  0.98157490594E+00  0.47849345053E+00  0.44806971376E+00  0.11803439103E+01  0.00000000000E+00 0.  1.
         11    1    3    3    0    0  0.21636678913E+02 -0.62351158739E+00 -0.32344608489E+00  0.21648077483E+02  0.51100000000E-03 0. -1.
        -11    1    3    3    0    0  0.19172342869E+02 -0.92308235004E+01 -0.11304271492E+02  0.24095090534E+02  0.51100000000E-03 0.  1.
         12    1    3    3    0    0 -0.41790596689E+02  0.93758416373E+01  0.11179647863E+02  0.44264488073E+02  0.00000000000E+00 0. -1.
</event>
<event>
 7    1  0.2349719E-015  0.9000776E+02  0.7816164E-02  0.1186339E+00
        -11   -1    0    0    0    0  0.00000000000E+00  0.00000000000E+00  0.45593999997E+02  0.45594000000E+02  0.51100000000E-03 0.  1.
         11   -1    0    0    0    0 -0.00000000000E+00 -0.00000000000E+00 -0.45593999997E+02  0.45594000000E+02  0.51100000000E-03 0. -1.
    9900012    2    1    2    0    0  0.89656033355E+00  0.59728517002E+00 -0.48208691889E+00  0.90007755193E+02  0.90000016762E+02 0.  0.
        -12    1    1    2    0    0 -0.89656033355E+00 -0.59728517002E+00  0.48208691889E+00  0.11802448066E+01  0.00000000000E+00 0.  1.
         11    1    3    3    0    0  0.28868083248E+02  0.59180616974E+00 -0.31123920038E+02  0.42454856775E+02  0.51100000000E-03 0. -1.
        -11    1    3    3    0    0  0.88349795931E+00  0.57699940271E+01  0.10104657373E+02  0.11669511584E+02  0.51100000000E-03 0.  1.
        -12    1    3    3    0    0 -0.28855020874E+02 -0.57645150268E+01  0.20537175746E+02  0.35883386835E+02  0.00000000000E+00 0.  1.
</event>
<event>
 7    1  0.2349719E-015  0.9000773E+02  0.7816164E-02  0.1186339E+00
        -11   -1    0    0    0    0  0.00000000000E+00  0.00000000000E+00  0.45593999997E+02  0.45594000000E+02  0.51100000000E-03 0. -1.
         11   -1    0    0    0    0 -0.00000000000E+00 -0.00000000000E+00 -0.45593999997E+02  0.45594000000E+02  0.51100000000E-03 0.  1.
    9900012    2    1    2    0    0 -0.64244004635E+00 -0.68689780102E+00  0.71308401681E+00  0.90007726041E+02  0.89999987225E+02 0.  0.
        -12    1    1    2    0    0  0.64244004635E+00  0.68689780102E+00 -0.71308401681E+00  0.11802739586E+01  0.00000000000E+00 0.  1.
         11    1    3    3    0    0 -0.59633820649E+01  0.51550044398E+01 -0.60956031382E+01  0.99645559011E+01  0.51100000000E-03 0. -1.
        -11    1    3    3    0    0 -0.20995716241E+02  0.22078735095E+02 -0.16998411489E+02  0.34888918546E+02  0.51100000000E-03 0.  1.
         12    1    3    3    0    0  0.26316658260E+02 -0.27920637336E+02  0.23807098644E+02  0.45154251595E+02  0.00000000000E+00 0. -1.
</event>
<event>
 7    1  0.2349719E-015  0.9000773E+02  0.7816164E-02  0.1186339E+00
        -11   -1    0    0    0    0  0.00000000000E+00  0.00000000000E+00  0.45593999997E+02  0.45594000000E+02  0.51100000000E-03 0.  1.
         11   -1    0    0    0    0 -0.00000000000E+00 -0.00000000000E+00 -0.45593999997E+02  0.45594000000E+02  0.51100000000E-03 0. -1.
    9900012    2    1    2    0    0 -0.11317495976E+01 -0.25951286946E+00 -0.21172674160E+00  0.90007732109E+02  0.89999993373E+02 0.  0.
        -12    1    1    2    0    0  0.11317495976E+01  0.25951286946E+00  0.21172674160E+00  0.11802678908E+01  0.00000000000E+00 0.  1.
         11    1    3    3    0    0  0.24628025250E+02 -0.17587930272E+02 -0.29508748538E+02  0.42268678233E+02  0.51100000000E-03 0. -1.
        -11    1    3    3    0    0  0.63849918631E+00 -0.21552222099E+01  0.87326247845E+01  0.90172833977E+01  0.51100000000E-03 0.  1.
        -12    1    3    3    0    0 -0.26398274034E+02  0.19483639612E+02  0.20564397012E+02  0.38721770479E+02  0.00000000000E+00 0.  1.
</event>
<event>
 7    1  0.2349719E-015  0.9000778E+02  0.7816164E-02  0.1186339E+00
        -11   -1    0    0    0    0  0.00000000000E+00  0.00000000000E+00  0.45593999997E+02  0.45594000000E+02  0.51100000000E-03 0. -1.
         11   -1    0    0    0    0 -0.00000000000E+00 -0.00000000000E+00 -0.45593999997E+02  0.45594000000E+02  0.51100000000E-03 0.  1.
    9900012    2    1    2    0    0 -0.23311073679E+00 -0.46637764305E+00  0.10588009446E+01  0.90007784697E+02  0.90000046655E+02 0.  0.
        -12    1    1    2    0    0  0.23311073679E+00  0.46637764305E+00 -0.10588009446E+01  0.11802153031E+01  0.00000000000E+00 0.  1.
         11    1    3    3    0    0  0.81983865432E+01 -0.15350663676E+01 -0.36650871488E+01  0.91105891541E+01  0.51100000000E-03 0. -1.
        -11    1    3    3    0    0  0.32870659900E+01  0.17998896287E+01 -0.37185641264E+02  0.37374005967E+02  0.51100000000E-03 0.  1.
         12    1    3    3    0    0 -0.11718563270E+02 -0.73120090414E+00  0.41909529358E+02  0.43523189576E+02  0.00000000000E+00 0. -1.
</event>
<event>
 7    1  0.2349719E-015  0.9000772E+02  0.7816164E-02  0.1186339E+00
        -11   -1    0    0    0    0  0.00000000000E+00  0.00000000000E+00  0.45593999997E+02  0.45594000000E+02  0.51100000000E-03 0. -1.
         11   -1    0    0    0    0 -0.00000000000E+00 -0.00000000000E+00 -0.45593999997E+02  0.45594000000E+02  0.51100000000E-03 0.  1.
    9900012    2    1    2    0    0 -0.11307518288E+01 -0.32447584201E+00  0.95818367873E-01  0.90007718072E+02  0.89999979150E+02 0.  0.
        -12    1    1    2    0    0  0.11307518288E+01  0.32447584201E+00 -0.95818367873E-01  0.11802819281E+01  0.00000000000E+00 0.  1.
         11    1    3    3    0    0 -0.28467737958E+02 -0.14991089400E+02  0.22072250009E+02  0.39017035851E+02  0.51100000000E-03 0. -1.
        -11    1    3    3    0    0 -0.39225425671E+01  0.87400223740E+00  0.57319269800E+01  0.70003719377E+01  0.51100000000E-03 0.  1.
        -12    1    3    3    0    0  0.31259528697E+02  0.13792611320E+02 -0.27708358621E+02  0.43990310283E+02  0.00000000000E+00 0.  1.
</event>
<event>
 7    1  0.2349719E-015  0.9000775E+02  0.7816164E-02  0.1186339E+00
        -11   -1    0    0    0    0  0.00000000000E+00  0.00000000000E+00  0.45593999997E+02  0.45594000000E+02  0.51100000000E-03 0.  1.
         11   -1    0    0    0    0 -0.00000000000E+00 -0.00000000000E+00 -0.45593999997E+02  0.45594000000E+02  0.51100000000E-03 0. -1.
    9900012    2    1    2    0    0 -0.72361853216E+00 -0.73404324765E+00  0.57493850835E+00  0.90007746825E+02  0.90000008283E+02 0.  0.
        -12    1    1    2    0    0  0.72361853216E+00  0.73404324765E+00 -0.57493850835E+00  0.11802531753E+01  0.00000000000E+00 0.  1.
         11    1    3    3    0    0  0.63314219037E+01  0.20576615137E+01 -0.81141625865E+01  0.10495737657E+02  0.51100000000E-03 0. -1.
        -11    1    3    3    0    0 -0.14169949243E+02 -0.30287611522E+02 -0.20146120319E+02  0.39038353416E+02  0.51100000000E-03 0.  1.
         12    1    3    3    0    0  0.71149088075E+01  0.27495906761E+02  0.28835221413E+02  0.40473655752E+02  0.00000000000E+00 0. -1.
</event>
<event>
 7    1  0.2349719E-015  0.9000767E+02  0.7816164E-02  0.1186339E+00
        -11   -1    0    0    0    0  0.00000000000E+00  0.00000000000E+00  0.45593999997E+02  0.45594000000E+02  0.51100000000E-03 0. -1.
         11   -1    0    0    0    0 -0.00000000000E+00 -0.00000000000E+00 -0.45593999997E+02  0.45594000000E+02  0.51100000000E-03 0.  1.
    9900012    2    1    2    0    0  0.73546002152E+00 -0.31403320810E+00  0.86813388618E+00  0.90007671765E+02  0.89999932232E+02 0.  0.
        -12    1    1    2    0    0 -0.73546002152E+00  0.31403320810E+00 -0.86813388618E+00  0.11803282354E+01  0.00000000000E+00 0.  1.
         11    1    3    3    0    0 -0.22308014545E+02  0.19703108325E+02  0.73570657189E+01  0.30659197753E+02  0.51100000000E-03 0. -1.
        -11    1    3    3    0    0 -0.71185204189E+01  0.92447337012E+01  0.88164456553E+01  0.14624231550E+02  0.51100000000E-03 0.  1.
        -12    1    3    3    0    0  0.30161994986E+02 -0.29261875234E+02 -0.15305377488E+02  0.44724242462E+02  0.00000000000E+00 0.  1.
</event>
<event>
 7    1  0.2349719E-015  0.9000772E+02  0.7816164E-02  0.1186339E+00
        -11   -1    0    0    0    0  0.00000000000E+00  0.00000000000E+00  0.45593999997E+02  0.45594000000E+02  0.51100000000E-03 0. -1.
         11   -1    0    0    0    0 -0.00000000000E+00 -0.00000000000E+00 -0.45593999997E+02  0.45594000000E+02  0.51100000000E-03 0.  1.
    9900012    2    1    2    0    0  0.99163835048E+00 -0.61889881649E+00  0.16336271638E+00  0.90007716246E+02  0.89999977300E+02 0.  0.
        -12    1    1    2    0    0 -0.99163835048E+00  0.61889881649E+00 -0.16336271638E+00  0.11802837541E+01  0.00000000000E+00 0.  1.
         11    1    3    3    0    0 -0.62664518612E+01  0.73407553657E+01 -0.68654047504E+00  0.96760759791E+01  0.51100000000E-03 0. -1.
        -11    1    3    3    0    0 -0.34634852683E+02 -0.13166376905E+02  0.68847095121E+01  0.37687209057E+02  0.51100000000E-03 0.  1.
         12    1    3    3    0    0  0.41892942895E+02  0.52067227228E+01 -0.60348063207E+01  0.42644431210E+02  0.00000000000E+00 0. -1.
</event>
<event>
 7    1  0.2349719E-015  0.9000773E+02  0.7816164E-02  0.1186339E+00
        -11   -1    0    0    0    0  0.00000000000E+00  0.00000000000E+00  0.45593999997E+02  0.45594000000E+02  0.51100000000E-03 0.  1.
         11   -1    0    0    0    0 -0.00000000000E+00 -0.00000000000E+00 -0.45593999997E+02  0.45594000000E+02  0.51100000000E-03 0. -1.
    9900012    2    1    2    0    0  0.26773509177E+00 -0.54770161502E+00 -0.10106339137E+01  0.90007728825E+02  0.89999990046E+02 0.  0.
        -12    1    1    2    0    0 -0.26773509177E+00  0.54770161502E+00  0.10106339137E+01  0.11802711748E+01  0.00000000000E+00 0.  1.
         11    1    3    3    0    0  0.75293879769E+00  0.20258312299E+02 -0.93461346837E+01  0.22323000870E+02  0.51100000000E-03 0. -1.
        -11    1    3    3    0    0 -0.30170906328E+02 -0.63392594667E+01  0.14535742281E+02  0.34084565468E+02  0.51100000000E-03 0.  1.
         12    1    3    3    0    0  0.29685702622E+02 -0.14466754447E+02 -0.62002415109E+01  0.33600162488E+02  0.00000000000E+00 0. -1.
</event>
<event>
 7    1  0.2349719E-015  0.9000766E+02  0.7816164E-02  0.1186339E+00
        -11   -1    0    0    0    0  0.00000000000E+00  0.00000000000E+00  0.45593999997E+02  0.45594000000E+02  0.51100000000E-03 0.  1.
         11   -1    0    0    0    0 -0.00000000000E+00 -0.00000000000E+00 -0.45593999997E+02  0.45594000000E+02  0.51100000000E-03 0. -1.
    9900012    2    1    2    0    0 -0.30276131349E+00  0.10437918812E+01 -0.46047138781E+00  0.90007661149E+02  0.89999921476E+02 0.  0.
        -12    1    1    2    0    0  0.30276131349E+00 -0.10437918812E+01  0.46047138781E+00  0.11803388510E+01  0.00000000000E+00 0.  1.
         11    1    3    3    0    0  0.15923965770E+02  0.29432972800E+02 -0.13998242827E+02  0.36274279817E+02  0.51100000000E-03 0. -1.
        -11    1    3    3    0    0 -0.81814955599E+01  0.97444223884E+01  0.58735458944E+01  0.14013892354E+02  0.51100000000E-03 0.  1.
        -12    1    3    3    0    0 -0.80452315234E+01 -0.38133603308E+02  0.76642255448E+01  0.39719488978E+02  0.00000000000E+00 0.  1.
</event>
<event>
 7    1  0.2349719E-015  0.9000739E+02  0.7816164E-02  0.1186340E+00
        -11   -1    0    0    0    0  0.00000000000E+00  0.00000000000E+00  0.45593999997E+02  0.45594000000E+02  0.51100000000E-03 0. -1.
         11   -1    0    0    0    0 -0.00000000000E+00 -0.00000000000E+00 -0.45593999997E+02  0.45594000000E+02  0.51100000000E-03 0.  1.
    9900012    2    1    2    0    0  0.86484493405E+00 -0.72988063309E+00  0.33638747196E+00  0.90007390399E+02  0.89999647152E+02 0.  0.
        -12    1    1    2    0    0 -0.86484493405E+00  0.72988063309E+00 -0.33638747196E+00  0.11806096009E+01  0.00000000000E+00 0.  1.
         11    1    3    3    0    0 -0.35510232709E+01 -0.67563077634E+01  0.61036602837E+01  0.97730307471E+01  0.51100000000E-03 0. -1.
        -11    1    3    3    0    0  0.18208945078E+02 -0.33336507373E+02 -0.63957044533E+01  0.38520039465E+02  0.51100000000E-03 0.  1.
         12    1    3    3    0    0 -0.13793076873E+02  0.39362934503E+02  0.62843164158E+00  0.41714320187E+02  0.00000000000E+00 0. -1.
</event>
<event>
 7    1  0.2349719E-015  0.9000782E+02  0.7816164E-02  0.1186339E+00
        -11   -1    0    0    0    0  0.00000000000E+00  0.00000000000E+00  0.45593999997E+02  0.45594000000E+02  0.51100000000E-03 0.  1.
         11   -1    0    0    0    0 -0.00000000000E+00 -0.00000000000E+00 -0.45593999997E+02  0.45594000000E+02  0.51100000000E-03 0. -1.
    9900012    2    1    2    0    0 -0.60769265881E-01 -0.11335041947E+01  0.32296771619E+00  0.90007816621E+02  0.90000079000E+02 0.  0.
        -12    1    1    2    0    0  0.60769265881E-01  0.11335041947E+01 -0.32296771619E+00  0.11801833793E+01  0.00000000000E+00 0.  1.
         11    1    3    3    0    0 -0.30221861154E+02  0.30065002875E+02 -0.96099890373E+01  0.43699166800E+02  0.51100000000E-03 0. -1.
        -11    1    3    3    0    0  0.29460005392E+01 -0.55665600677E+01  0.60315230934E+01  0.87203658898E+01  0.51100000000E-03 0.  1.
        -12    1    3    3    0    0  0.27215091349E+02 -0.25631947002E+02  0.39014336600E+01  0.37588283931E+02  0.00000000000E+00 0.  1.
</event>
<event>
 7    1  0.2349719E-015  0.9000767E+02  0.7816164E-02  0.1186339E+00
        -11   -1    0    0    0    0  0.00000000000E+00  0.00000000000E+00  0.45593999997E+02  0.45594000000E+02  0.51100000000E-03 0. -1.
         11   -1    0    0    0    0 -0.00000000000E+00 -0.00000000000E+00 -0.45593999997E+02  0.45594000000E+02  0.51100000000E-03 0.  1.
    9900012    2    1    2    0    0 -0.38012625510E+00  0.28758979092E+00  0.10798062215E+01  0.90007667278E+02  0.89999927686E+02 0.  0.
        -12    1    1    2    0    0  0.38012625510E+00 -0.28758979092E+00 -0.10798062215E+01  0.11803327216E+01  0.00000000000E+00 0.  1.
         11    1    3    3    0    0  0.18383998015E+02 -0.16089335355E+02  0.27312291870E+02  0.36644227139E+02  0.51100000000E-03 0. -1.
        -11    1    3    3    0    0  0.58966627943E+01 -0.38304575973E+01  0.50810790827E+01  0.86752753513E+01  0.51100000000E-03 0.  1.
        -12    1    3    3    0    0 -0.24660787064E+02  0.20207382744E+02 -0.31313564731E+02  0.44688164788E+02  0.00000000000E+00 0.  1.
</event>
<event>
 7    1  0.2349719E-015  0.9000854E+02  0.7816164E-02  0.1186337E+00
        -11   -1    0    0    0    0  0.00000000000E+00  0.00000000000E+00  0.45593999997E+02  0.45594000000E+02  0.51100000000E-03 0.  1.
         11   -1    0    0    0    0 -0.00000000000E+00 -0.00000000000E+00 -0.45593999997E+02  0.45594000000E+02  0.51100000000E-03 0. -1.
    9900012    2    1    2    0    0 -0.94851281144E+00 -0.32092393928E+00 -0.62325387177E+00  0.90008544992E+02  0.90000816982E+02 0.  0.
        -12    1    1    2    0    0  0.94851281144E+00  0.32092393928E+00  0.62325387177E+00  0.11794550084E+01  0.00000000000E+00 0.  1.
         11    1    3    3    0    0  0.21343197184E+02 -0.28580667767E+02 -0.76718628562E+01  0.36486218165E+02  0.51100000000E-03 0. -1.
        -11    1    3    3    0    0 -0.98524374321E+00 -0.95528169074E+01  0.21804760729E+01  0.98479181691E+01  0.51100000000E-03 0.  1.
        -12    1    3    3    0    0 -0.21306466252E+02  0.37812560735E+02  0.48681329114E+01  0.43674408657E+02  0.00000000000E+00 0.  1.
</event>
<event>
 7    1  0.2349719E-015  0.9000789E+02  0.7816164E-02  0.1186339E+00
        -11   -1    0    0    0    0  0.00000000000E+00  0.00000000000E+00  0.45593999997E+02  0.45594000000E+02  0.51100000000E-03 0.  1.
         11   -1    0    0    0    0 -0.00000000000E+00 -0.00000000000E+00 -0.45593999997E+02  0.45594000000E+02  0.51100000000E-03 0. -1.
    9900012    2    1    2    0    0 -0.91096222782E+00  0.46667884790E+00 -0.58738986405E+00  0.90007886370E+02  0.90000149670E+02 0.  0.
        -12    1    1    2    0    0  0.91096222782E+00 -0.46667884790E+00  0.58738986405E+00  0.11801136301E+01  0.00000000000E+00 0.  1.
         11    1    3    3    0    0  0.99505716686E+01 -0.19323691937E+01  0.46985571366E+01  0.11172482565E+02  0.51100000000E-03 0. -1.
        -11    1    3    3    0    0  0.41388995871E+01 -0.88813408685E+01  0.33953116850E+02  0.35338687716E+02  0.51100000000E-03 0.  1.
         12    1    3    3    0    0 -0.15000433483E+02  0.11280388910E+02 -0.39239063851E+02  0.43496716089E+02  0.00000000000E+00 0. -1.
</event>
<event>
 7    1  0.2349719E-015  0.9000771E+02  0.7816164E-02  0.1186339E+00
        -11   -1    0    0    0    0  0.00000000000E+00  0.00000000000E+00  0.45593999997E+02  0.45594000000E+02  0.51100000000E-03 0. -1.
         11   -1    0    0    0    0 -0.00000000000E+00 -0.00000000000E+00 -0.45593999997E+02  0.45594000000E+02  0.51100000000E-03 0.  1.
    9900012    2    1    2    0    0 -0.20393667337E+00 -0.11165754879E+01 -0.32365158577E+00  0.90007711334E+02  0.89999972323E+02 0.  0.
        -12    1    1    2    0    0  0.20393667337E+00  0.11165754879E+01  0.32365158577E+00  0.11802886663E+01  0.00000000000E+00 0.  1.
         11    1    3    3    0    0  0.11603698230E+01  0.61030360456E+01 -0.88984213247E+01  0.10852437949E+02  0.51100000000E-03 0. -1.
        -11    1    3    3    0    0 -0.12631151361E+02 -0.26057625424E+02 -0.25525051288E+02  0.38601477575E+02  0.51100000000E-03 0.  1.
         12    1    3    3    0    0  0.11266844865E+02  0.18838013891E+02  0.34099821027E+02  0.40553795810E+02  0.00000000000E+00 0. -1.
</event>
<event>
 7    1  0.2349719E-015  0.9000772E+02  0.7816164E-02  0.1186339E+00
        -11   -1    0    0    0    0  0.00000000000E+00  0.00000000000E+00  0.45593999997E+02  0.45594000000E+02  0.51100000000E-03 0.  1.
         11   -1    0    0    0    0 -0.00000000000E+00 -0.00000000000E+00 -0.45593999997E+02  0.45594000000E+02  0.51100000000E-03 0. -1.
    9900012    2    1    2    0    0 -0.10740242217E+01 -0.30067422353E+00  0.38616414026E+00  0.90007722168E+02  0.89999983301E+02 0.  0.
        -12    1    1    2    0    0  0.10740242217E+01  0.30067422353E+00 -0.38616414026E+00  0.11802778320E+01  0.00000000000E+00 0.  1.
         11    1    3    3    0    0  0.30043711154E+01  0.82960000917E+01 -0.12517488488E+00  0.88241448499E+01  0.51100000000E-03 0. -1.
        -11    1    3    3    0    0 -0.26035570144E+02  0.27906655500E+02  0.43488775132E+01  0.38412824288E+02  0.51100000000E-03 0.  1.
         12    1    3    3    0    0  0.21957174807E+02 -0.36503329815E+02 -0.38375384881E+01  0.42770753030E+02  0.00000000000E+00 0. -1.
</event>
<event>
 7    1  0.2349719E-015  0.9000783E+02  0.7816164E-02  0.1186339E+00
        -11   -1    0    0    0    0  0.00000000000E+00  0.00000000000E+00  0.45593999997E+02  0.45594000000E+02  0.51100000000E-03 0. -1.
         11   -1    0    0    0    0 -0.00000000000E+00 -0.00000000000E+00 -0.45593999997E+02  0.45594000000E+02  0.51100000000E-03 0.  1.
    9900012    2    1    2    0    0  0.21532719420E+00 -0.15157623161E+00  0.11504189665E+01  0.90007828422E+02  0.90000090957E+02 0.  0.
        -12    1    1    2    0    0 -0.21532719420E+00  0.15157623161E+00 -0.11504189665E+01  0.11801715778E+01  0.00000000000E+00 0.  1.
         11    1    3    3    0    0  0.33035973257E+02 -0.15970404066E+02  0.14132988566E+02  0.39321377152E+02  0.51100000000E-03 0. -1.
        -11    1    3    3    0    0  0.16267943390E+01 -0.65807096375E+01  0.18080347126E+01  0.70157814203E+01  0.51100000000E-03 0.  1.
        -12    1    3    3    0    0 -0.34447440402E+02  0.22399537472E+02 -0.14790604312E+02  0.43670669850E+02  0.00000000000E+00 0.  1.
</event>
<event>
 7    1  0.2349719E-015  0.9000776E+02  0.7816164E-02  0.1186339E+00
        -11   -1    0    0    0    0  0.00000000000E+00  0.00000000000E+00  0.45593999997E+02  0.45594000000E+02  0.51100000000E-03 0.  1.
         11   -1    0    0    0    0 -0.00000000000E+00 -0.00000000000E+00 -0.45593999997E+02  0.45594000000E+02  0.51100000000E-03 0. -1.
    9900012    2    1    2    0    0  0.52785867367E+00  0.32049881755E+00 -0.10057888973E+01  0.90007760373E+02  0.90000022010E+02 0.  0.
        -12    1    1    2    0    0 -0.52785867367E+00 -0.32049881755E+00  0.10057888973E+01  0.11802396271E+01  0.00000000000E+00 0.  1.
         11    1    3    3    0    0 -0.18405759002E+01  0.32811937150E+02 -0.14885127746E+02  0.36077388590E+02  0.51100000000E-03 0. -1.
        -11    1    3    3    0    0  0.21412526039E+01  0.74603549871E+01 -0.55129925003E+01  0.95202387479E+01  0.51100000000E-03 0.  1.
        -12    1    3    3    0    0  0.22718196993E+00 -0.39951793320E+02  0.19392331349E+02  0.44410133035E+02  0.00000000000E+00 0.  1.
</event>
<event>
 7    1  0.2349719E-015  0.9000779E+02  0.7816164E-02  0.1186339E+00
        -11   -1    0    0    0    0  0.00000000000E+00  0.00000000000E+00  0.45593999997E+02  0.45594000000E+02  0.51100000000E-03 0.  1.
         11   -1    0    0    0    0 -0.00000000000E+00 -0.00000000000E+00 -0.45593999997E+02  0.45594000000E+02  0.51100000000E-03 0. -1.
    9900012    2    1    2    0    0  0.89807325576E+00 -0.11369073443E+00 -0.75726005523E+00  0.90007786482E+02  0.90000048464E+02 0.  0.
        -12    1    1    2    0    0 -0.89807325576E+00  0.11369073443E+00  0.75726005523E+00  0.11802135176E+01  0.00000000000E+00 0.  1.
         11    1    3    3    0    0  0.16655632434E+01 -0.76156546564E+01 -0.62666802161E+01  0.10002178660E+02  0.51100000000E-03 0. -1.
        -11    1    3    3    0    0 -0.21511989453E+02 -0.29893821724E+02  0.55239527258E+01  0.37241379156E+02  0.51100000000E-03 0.  1.
         12    1    3    3    0    0  0.20744499465E+02  0.37395785646E+02 -0.14532564944E-01  0.42764228665E+02  0.00000000000E+00 0. -1.
</event>
<event>
 7    1  0.2607510E-015  0.9000777E+02  0.7816164E-02  0.1186339E+00
        -11   -1    0    0    0    0  0.00000000000E+00  0.00000000000E+00  0.45593999997E+02  0.45594000000E+02  0.51100000000E-03 0. -1.
         11   -1    0    0    0    0 -0.00000000000E+00 -0.00000000000E+00 -0.45593999997E+02  0.45594000000E+02  0.51100000000E-03 0.  1.
    9900012    2    1    2    0    0  0.90319137227E+00 -0.55682769520E+00  0.51685034531E+00  0.90007768660E+02  0.90000030406E+02 0.  0.
        -12    1    1    2    0    0 -0.90319137227E+00  0.55682769520E+00 -0.51685034531E+00  0.11802313403E+01  0.00000000000E+00 0.  1.
         11    1    3    3    0    0 -0.70731407534E+01 -0.16912421718E+02  0.32912875860E+02  0.37673820169E+02  0.51100000000E-03 0. -1.
        -11    1    3    3    0    0  0.54607929962E+01 -0.87926068545E+00  0.71983273182E+01  0.90779554935E+01  0.51100000000E-03 0.  1.
        -12    1    3    3    0    0  0.25155391295E+01  0.17234854708E+02 -0.39594352833E+02  0.43255992997E+02  0.00000000000E+00 0.  1.
</event>
<event>
 7    1  0.2349719E-015  0.9000764E+02  0.7816164E-02  0.1186339E+00
        -11   -1    0    0    0    0  0.00000000000E+00  0.00000000000E+00  0.45593999997E+02  0.45594000000E+02  0.51100000000E-03 0.  1.
         11   -1    0    0    0    0 -0.00000000000E+00 -0.00000000000E+00 -0.45593999997E+02  0.45594000000E+02  0.51100000000E-03 0. -1.
    9900012    2    1    2    0    0  0.50042575212E+00  0.75321442250E+00 -0.75861403105E+00  0.90007638552E+02  0.89999898581E+02 0.  0.
        -12    1    1    2    0    0 -0.50042575212E+00 -0.75321442250E+00  0.75861403105E+00  0.11803614479E+01  0.00000000000E+00 0.  1.
         11    1    3    3    0    0 -0.92827227299E+01  0.44042698546E+01 -0.30017468158E+00  0.10278941547E+02  0.51100000000E-03 0. -1.
        -11    1    3    3    0    0  0.11612138275E+02  0.16843351610E+02  0.33949898050E+02  0.39637555760E+02  0.51100000000E-03 0.  1.
         12    1    3    3    0    0 -0.18289897926E+01 -0.20494407042E+02 -0.34408337400E+02  0.40091141244E+02  0.00000000000E+00 0. -1.
</event>
<event>
 7    1  0.2349719E-015  0.9000778E+02  0.7816164E-02  0.1186339E+00
        -11   -1    0    0    0    0  0.00000000000E+00  0.00000000000E+00  0.45593999997E+02  0.45594000000E+02  0.51100000000E-03 0.  1.
         11   -1    0    0    0    0 -0.00000000000E+00 -0.00000000000E+00 -0.45593999997E+02  0.45594000000E+02  0.51100000000E-03 0. -1.
    9900012    2    1    2    0    0  0.85752284404E+00  0.77354554386E+00 -0.24332264189E+00  0.90007777968E+02  0.90000039837E+02 0.  0.
        -12    1    1    2    0    0 -0.85752284404E+00 -0.77354554386E+00  0.24332264189E+00  0.11802220319E+01  0.00000000000E+00 0.  1.
         11    1    3    3    0    0 -0.41071060965E+01 -0.53611521739E+01 -0.14578786710E+02  0.16067087332E+02  0.51100000000E-03 0. -1.
        -11    1    3    3    0    0  0.14880688728E+02 -0.16395305997E+02 -0.21238325902E+02  0.30680734072E+02  0.51100000000E-03 0.  1.
        -12    1    3    3    0    0 -0.99160597875E+01  0.22530003715E+02  0.35573789971E+02  0.43259956565E+02  0.00000000000E+00 0.  1.
</event>
<event>
 7    1  0.2349719E-015  0.9000776E+02  0.7816164E-02  0.1186339E+00
        -11   -1    0    0    0    0  0.00000000000E+00  0.00000000000E+00  0.45593999997E+02  0.45594000000E+02  0.51100000000E-03 0.  1.
         11   -1    0    0    0    0 -0.00000000000E+00 -0.00000000000E+00 -0.45593999997E+02  0.45594000000E+02  0.51100000000E-03 0. -1.
    9900012    2    1    2    0    0 -0.45202777570E+00  0.83273789755E+00 -0.70369235898E+00  0.90007760850E+02  0.90000022493E+02 0.  0.
        -12    1    1    2    0    0  0.45202777570E+00 -0.83273789755E+00  0.70369235898E+00  0.11802391504E+01  0.00000000000E+00 0.  1.
         11    1    3    3    0    0 -0.62307397646E+01  0.69591522833E+01  0.52256836114E+00  0.93554794890E+01  0.51100000000E-03 0. -1.
        -11    1    3    3    0    0  0.37243952041E+01  0.76637179349E+01  0.38040830783E+02  0.38983438780E+02  0.51100000000E-03 0.  1.
         12    1    3    3    0    0  0.20543167848E+01 -0.13790132321E+02 -0.39267091503E+02  0.41668842580E+02  0.00000000000E+00 0. -1.
</event>
<event>
 7    1  0.2349719E-015  0.9000769E+02  0.7816164E-02  0.1186339E+00
        -11   -1    0    0    0    0  0.00000000000E+00  0.00000000000E+00  0.45593999997E+02  0.45594000000E+02  0.51100000000E-03 0. -1.
         11   -1    0    0    0    0 -0.00000000000E+00 -0.00000000000E+00 -0.45593999997E+02  0.45594000000E+02  0.51100000000E-03 0.  1.
    9900012    2    1    2    0    0  0.54018954094E+00 -0.34283996734E+00  0.99185730932E+00  0.90007692877E+02  0.89999953623E+02 0.  0.
        -12    1    1    2    0    0 -0.54018954094E+00  0.34283996734E+00 -0.99185730932E+00  0.11803071233E+01  0.00000000000E+00 0.  1.
         11    1    3    3    0    0 -0.10774603433E+02  0.34090496850E+01  0.12657746383E+02  0.16968566311E+02  0.51100000000E-03 0. -1.
        -11    1    3    3    0    0  0.54867289415E+01  0.30388039506E+02 -0.20787302036E+02  0.37224307458E+02  0.51100000000E-03 0.  1.
         12    1    3    3    0    0  0.58280640329E+01 -0.34139929158E+02  0.91214129626E+01  0.35814819108E+02  0.00000000000E+00 0. -1.
</event>
<event>
 7    1  0.2349719E-015  0.9000758E+02  0.7816164E-02  0.1186339E+00
        -11   -1    0    0    0    0  0.00000000000E+00  0.00000000000E+00  0.45593999997E+02  0.45594000000E+02  0.51100000000E-03 0.  1.
         11   -1    0    0    0    0 -0.00000000000E+00 -0.00000000000E+00 -0.45593999997E+02  0.45594000000E+02  0.51100000000E-03 0. -1.
    9900012    2    1    2    0    0  0.11587074579E+01  0.94248699638E-01 -0.20472691803E+00  0.90007576813E+02  0.89999836026E+02 0.  0.
        -12    1    1    2    0    0 -0.11587074579E+01 -0.94248699638E-01  0.20472691803E+00  0.11804231874E+01  0.00000000000E+00 0.  1.
         11    1    3    3    0    0  0.20009779189E+02 -0.16615192761E+02  0.63788483929E+01  0.26779574321E+02  0.51100000000E-03 0. -1.
        -11    1    3    3    0    0  0.85112903723E+01 -0.49195097043E+01  0.18032208877E+02  0.20537872256E+02  0.51100000000E-03 0.  1.
        -12    1    3    3    0    0 -0.27362362104E+02  0.21628951165E+02 -0.24615784188E+02  0.42690130237E+02  0.00000000000E+00 0.  1.
</event>
<event>
 7    1  0.2490344E-015  0.9000776E+02  0.7816164E-02  0.1186339E+00
        -11   -1    0    0    0    0  0.00000000000E+00  0.00000000000E+00  0.45593999997E+02  0.45594000000E+02  0.51100000000E-03 0. -1.
         11   -1    0    0    0    0 -0.00000000000E+00 -0.00000000000E+00 -0.45593999997E+02  0.45594000000E+02  0.51100000000E-03 0.  1.
    9900012    2    1    2    0    0 -0.26158086942E+00  0.10284869697E+01  0.51648924513E+00  0.90007758017E+02  0.90000019623E+02 0.  0.
        -12    1    1    2    0    0  0.26158086942E+00 -0.10284869697E+01 -0.51648924513E+00  0.11802419830E+01  0.00000000000E+00 0.  1.
         11    1    3    3    0    0 -0.31470443009E+02  0.20637697209E+02  0.70191981250E+01  0.38282796030E+02  0.51100000000E-03 0. -1.
        -11    1    3    3    0    0 -0.80019118128E+01 -0.48008283378E+01 -0.22263635303E+01  0.95934998941E+01  0.51100000000E-03 0.  1.
        -12    1    3    3    0    0  0.39210773953E+02 -0.14808381902E+02 -0.42763453496E+01  0.42131462093E+02  0.00000000000E+00 0.  1.
</event>
<event>
 7    1  0.2349719E-015  0.9000773E+02  0.7816164E-02  0.1186339E+00
        -11   -1    0    0    0    0  0.00000000000E+00  0.00000000000E+00  0.45593999997E+02  0.45594000000E+02  0.51100000000E-03 0.  1.
         11   -1    0    0    0    0 -0.00000000000E+00 -0.00000000000E+00 -0.45593999997E+02  0.45594000000E+02  0.51100000000E-03 0. -1.
    9900012    2    1    2    0    0 -0.10507962671E+01 -0.13423797927E+00  0.52043685376E+00  0.90007725816E+02  0.89999986997E+02 0.  0.
        -12    1    1    2    0    0  0.10507962671E+01  0.13423797927E+00 -0.52043685376E+00  0.11802741838E+01  0.00000000000E+00 0.  1.
         11    1    3    3    0    0 -0.10834767734E+02  0.29220774031E+02  0.20558485983E+02  0.37334932342E+02  0.51100000000E-03 0. -1.
        -11    1    3    3    0    0 -0.51798516740E+01  0.52807554029E+01  0.35201589045E+01  0.81919936502E+01  0.51100000000E-03 0.  1.
        -12    1    3    3    0    0  0.14963823141E+02 -0.34635767413E+02 -0.23558208033E+02  0.44480799824E+02  0.00000000000E+00 0.  1.
</event>
<event>
 7    1  0.2349719E-015  0.9000774E+02  0.7816164E-02  0.1186339E+00
        -11   -1    0    0    0    0  0.00000000000E+00  0.00000000000E+00  0.45593999997E+02  0.45594000000E+02  0.51100000000E-03 0.  1.
         11   -1    0    0    0    0 -0.00000000000E+00 -0.00000000000E+00 -0.45593999997E+02  0.45594000000E+02  0.51100000000E-03 0. -1.
    9900012    2    1    2    0    0 -0.57464924074E+00 -0.98689045316E+00 -0.29806154618E+00  0.90007739350E+02  0.90000000710E+02 0.  0.
        -12    1    1    2    0    0  0.57464924074E+00  0.98689045316E+00  0.29806154618E+00  0.11802606499E+01  0.00000000000E+00 0.  1.
         11    1    3    3    0    0  0.52079768830E+01 -0.42075398237E+02  0.13052506925E+02  0.44360231033E+02  0.51100000000E-03 0. -1.
        -11    1    3    3    0    0 -0.55830016424E+01  0.49975967539E+01 -0.13534826151E+01  0.76143152092E+01  0.51100000000E-03 0.  1.
        -12    1    3    3    0    0 -0.19962448129E+00  0.36090911030E+02 -0.11997085856E+02  0.38033193108E+02  0.00000000000E+00 0.  1.
</event>
<event>
 7    1  0.2349719E-015  0.9000806E+02  0.7816164E-02  0.1186338E+00
        -11   -1    0    0    0    0  0.00000000000E+00  0.00000000000E+00  0.45593999997E+02  0.45594000000E+02  0.51100000000E-03 0.  1.
         11   -1    0    0    0    0 -0.00000000000E+00 -0.00000000000E+00 -0.45593999997E+02  0.45594000000E+02  0.51100000000E-03 0. -1.
    9900012    2    1    2    0    0 -0.95407876649E+00  0.65183275148E+00 -0.23897052053E+00  0.90008059689E+02  0.90000325276E+02 0.  0.
        -12    1    1    2    0    0  0.95407876649E+00 -0.65183275148E+00  0.23897052053E+00  0.11799403113E+01  0.00000000000E+00 0.  1.
         11    1    3    3    0    0 -0.10658082144E+02 -0.35884669636E+02 -0.13883250316E+02  0.39925541568E+02  0.51100000000E-03 0. -1.
        -11    1    3    3    0    0 -0.61440389276E+01  0.43143695267E+01  0.11976724132E+02  0.14135236820E+02  0.51100000000E-03 0.  1.
        -12    1    3    3    0    0  0.15848042305E+02  0.32222132861E+02  0.16675556638E+01  0.35947281301E+02  0.00000000000E+00 0.  1.
</event>
<event>
 7    1  0.2349719E-015  0.9000780E+02  0.7816164E-02  0.1186339E+00
        -11   -1    0    0    0    0  0.00000000000E+00  0.00000000000E+00  0.45593999997E+02  0.45594000000E+02  0.51100000000E-03 0. -1.
         11   -1    0    0    0    0 -0.00000000000E+00 -0.00000000000E+00 -0.45593999997E+02  0.45594000000E+02  0.51100000000E-03 0.  1.
    9900012    2    1    2    0    0 -0.10174337452E+01 -0.89207507018E-01  0.59138300159E+00  0.90007803720E+02  0.90000065929E+02 0.  0.
        -12    1    1    2    0    0  0.10174337452E+01  0.89207507018E-01 -0.59138300159E+00  0.11801962802E+01  0.00000000000E+00 0.  1.
         11    1    3    3    0    0  0.35582850886E+02 -0.11330144779E+02  0.84062507169E+01  0.38277624133E+02  0.51100000000E-03 0. -1.
        -11    1    3    3    0    0  0.17040934710E+01 -0.38786389981E+01  0.68181854249E+01  0.80271681050E+01  0.51100000000E-03 0.  1.
        -12    1    3    3    0    0 -0.38304378102E+02  0.15119576270E+02 -0.14633053140E+02  0.43703011482E+02  0.00000000000E+00 0.  1.
</event>
<event>
 7    1  0.2349719E-015  0.9000746E+02  0.7816164E-02  0.1186340E+00
        -11   -1    0    0    0    0  0.00000000000E+00  0.00000000000E+00  0.45593999997E+02  0.45594000000E+02  0.51100000000E-03 0.  1.
         11   -1    0    0    0    0 -0.00000000000E+00 -0.00000000000E+00 -0.45593999997E+02  0.45594000000E+02  0.51100000000E-03 0. -1.
    9900012    2    1    2    0    0  0.94266564279E+00  0.70110661793E+00 -0.11620626339E+00  0.90007460759E+02  0.89999718441E+02 0.  0.
        -12    1    1    2    0    0 -0.94266564279E+00 -0.70110661793E+00  0.11620626339E+00  0.11805392410E+01  0.00000000000E+00 0.  1.
         11    1    3    3    0    0 -0.67790644487E+01 -0.20828659956E+01  0.64233444815E+01  0.95683540980E+01  0.51100000000E-03 0. -1.
        -11    1    3    3    0    0 -0.21077607079E+01 -0.36059856075E+02 -0.15621308151E+02  0.39354556838E+02  0.51100000000E-03 0.  1.
         12    1    3    3    0    0  0.98294907994E+01  0.38843828688E+02  0.90817574061E+01  0.41084549823E+02  0.00000000000E+00 0. -1.
</event>
<event>
 7    1  0.2349719E-015  0.9000769E+02  0.7816164E-02  0.1186339E+00
        -11   -1    0    0    0    0  0.00000000000E+00  0.00000000000E+00  0.45593999997E+02  0.45594000000E+02  0.51100000000E-03 0. -1.
         11   -1    0    0    0    0 -0.00000000000E+00 -0.00000000000E+00 -0.45593999997E+02  0.45594000000E+02  0.51100000000E-03 0.  1.
    9900012    2    1    2    0    0 -0.27010425408E+00  0.55810368313E+00  0.10043426836E+01  0.90007686374E+02  0.89999947034E+02 0.  0.
        -12    1    1    2    0    0  0.27010425408E+00 -0.55810368313E+00 -0.10043426836E+01  0.11803136258E+01  0.00000000000E+00 0.  1.
         11    1    3    3    0    0 -0.50409508032E+01 -0.34551519613E+01  0.85462761227E+01  0.10506573937E+02  0.51100000000E-03 0. -1.
        -11    1    3    3    0    0 -0.28219096015E+02 -0.22465732163E+02 -0.89935245917E+01  0.37174049905E+02  0.51100000000E-03 0.  1.
         12    1    3    3    0    0  0.32989942564E+02  0.26478987808E+02  0.14515911527E+01  0.42327062532E+02  0.00000000000E+00 0. -1.
</event>
<event>
 7    1  0.2349719E-015  0.9000774E+02  0.7816164E-02  0.1186339E+00
        -11   -1    0    0    0    0  0.00000000000E+00  0.00000000000E+00  0.45593999997E+02  0.45594000000E+02  0.51100000000E-03 0.  1.
         11   -1    0    0    0    0 -0.00000000000E+00 -0.00000000000E+00 -0.45593999997E+02  0.45594000000E+02  0.51100000000E-03 0. -1.
    9900012    2    1    2    0    0 -0.10824857170E+01  0.79023519701E-02 -0.47028920629E+00  0.90007741676E+02  0.90000003066E+02 0.  0.
        -12    1    1    2    0    0  0.10824857170E+01 -0.79023519701E-02  0.47028920629E+00  0.11802583244E+01  0.00000000000E+00 0.  1.
         11    1    3    3    0    0 -0.29635914875E+02  0.17928188939E+02 -0.15454680705E+02  0.37928281862E+02  0.51100000000E-03 0. -1.
        -11    1    3    3    0    0 -0.86051512067E+00  0.94791191316E+01  0.45456376177E+01  0.10547843732E+02  0.51100000000E-03 0.  1.
        -12    1    3    3    0    0  0.29413944278E+02 -0.27399405718E+02  0.10438753881E+02  0.41531616081E+02  0.00000000000E+00 0.  1.
</event>
<event>
 7    1  0.2349719E-015  0.9000766E+02  0.7816164E-02  0.1186339E+00
        -11   -1    0    0    0    0  0.00000000000E+00  0.00000000000E+00  0.45593999997E+02  0.45594000000E+02  0.51100000000E-03 0.  1.
         11   -1    0    0    0    0 -0.00000000000E+00 -0.00000000000E+00 -0.45593999997E+02  0.45594000000E+02  0.51100000000E-03 0. -1.
    9900012    2    1    2    0    0  0.97786812097E+00 -0.48073990796E-01 -0.65928421470E+00  0.90007664096E+02  0.89999924462E+02 0.  0.
        -12    1    1    2    0    0 -0.97786812097E+00  0.48073990796E-01  0.65928421470E+00  0.11803359040E+01  0.00000000000E+00 0.  1.
         11    1    3    3    0    0  0.50763846197E+00  0.32944206686E+02 -0.94694071632E+01  0.34281892061E+02  0.51100000000E-03 0. -1.
        -11    1    3    3    0    0 -0.95156862542E+01  0.78128580736E+01 -0.16808853581E+01  0.12426359564E+02  0.51100000000E-03 0.  1.
        -12    1    3    3    0    0  0.99859159132E+01 -0.40805138750E+02  0.10491008307E+02  0.43299412471E+02  0.00000000000E+00 0.  1.
</event>
<event>
 7    1  0.2349719E-015  0.9000771E+02  0.7816164E-02  0.1186339E+00
        -11   -1    0    0    0    0  0.00000000000E+00  0.00000000000E+00  0.45593999997E+02  0.45594000000E+02  0.51100000000E-03 0.  1.
         11   -1    0    0    0    0 -0.00000000000E+00 -0.00000000000E+00 -0.45593999997E+02  0.45594000000E+02  0.51100000000E-03 0. -1.
    9900012    2    1    2    0    0  0.59300287471E+00 -0.10151403917E+01 -0.10448357285E+00  0.90007712221E+02  0.89999973222E+02 0.  0.
        -12    1    1    2    0    0 -0.59300287471E+00  0.10151403917E+01  0.10448357285E+00  0.11802877790E+01  0.00000000000E+00 0.  1.
         11    1    3    3    0    0 -0.79421613537E+01 -0.10308207577E+02 -0.51974190182E+00  0.13023332996E+02  0.51100000000E-03 0. -1.
        -11    1    3    3    0    0  0.11970663986E+02 -0.30027922747E+02  0.14019097289E+02  0.35235039802E+02  0.51100000000E-03 0.  1.
         12    1    3    3    0    0 -0.34354997579E+01  0.39320989932E+02 -0.13603838960E+02  0.41749339423E+02  0.00000000000E+00 0. -1.
</event>
<event>
 7    1  0.2349719E-015  0.9000772E+02  0.7816164E-02  0.1186339E+00
        -11   -1    0    0    0    0  0.00000000000E+00  0.00000000000E+00  0.45593999997E+02  0.45594000000E+02  0.51100000000E-03 0.  1.
         11   -1    0    0    0    0 -0.00000000000E+00 -0.00000000000E+00 -0.45593999997E+02  0.45594000000E+02  0.51100000000E-03 0. -1.
    9900012    2    1    2    0    0  0.70905139117E+00 -0.18499303431E+00 -0.92524936628E+00  0.90007719233E+02  0.89999980327E+02 0.  0.
        -12    1    1    2    0    0 -0.70905139117E+00  0.18499303431E+00  0.92524936628E+00  0.11802807665E+01  0.00000000000E+00 0.  1.
         11    1    3    3    0    0  0.18196503195E+02 -0.31299873556E+02 -0.16964046853E+02  0.39982167263E+02  0.51100000000E-03 0. -1.
        -11    1    3    3    0    0 -0.37111219426E+01  0.24787571279E+01 -0.86839225037E+01  0.97635635546E+01  0.51100000000E-03 0.  1.
        -12    1    3    3    0    0 -0.13776329861E+02  0.28636123394E+02  0.24722719991E+02  0.40261988416E+02  0.00000000000E+00 0.  1.
</event>
<event>
 7    1  0.2349719E-015  0.9000789E+02  0.7816164E-02  0.1186339E+00
        -11   -1    0    0    0    0  0.00000000000E+00  0.00000000000E+00  0.45593999997E+02  0.45594000000E+02  0.51100000000E-03 0. -1.
         11   -1    0    0    0    0 -0.00000000000E+00 -0.00000000000E+00 -0.45593999997E+02  0.45594000000E+02  0.51100000000E-03 0.  1.
    9900012    2    1    2    0    0  0.23894441074E+00  0.82804003109E+00 -0.80617608138E+00  0.90007887887E+02  0.90000151207E+02 0.  0.
        -12    1    1    2    0    0 -0.23894441074E+00 -0.82804003109E+00  0.80617608138E+00  0.11801121128E+01  0.00000000000E+00 0.  1.
         11    1    3    3    0    0 -0.17582032707E+01  0.10208027632E+02 -0.18679318732E+01  0.10525410995E+02  0.51100000000E-03 0. -1.
        -11    1    3    3    0    0 -0.30041448093E+02  0.19929087525E+02  0.17685916384E+00  0.36051191555E+02  0.51100000000E-03 0.  1.
         12    1    3    3    0    0  0.32038595774E+02 -0.29309075126E+02  0.88489662798E+00  0.43431285337E+02  0.00000000000E+00 0. -1.
</event>
<event>
 7    1  0.2349719E-015  0.9000771E+02  0.7816164E-02  0.1186339E+00
        -11   -1    0    0    0    0  0.00000000000E+00  0.00000000000E+00  0.45593999997E+02  0.45594000000E+02  0.51100000000E-03 0. -1.
         11   -1    0    0    0    0 -0.00000000000E+00 -0.00000000000E+00 -0.45593999997E+02  0.45594000000E+02  0.51100000000E-03 0.  1.
    9900012    2    1    2    0    0 -0.59981739989E+00 -0.10132646389E+01 -0.81224128441E-01  0.90007710417E+02  0.89999971394E+02 0.  0.
        -12    1    1    2    0    0  0.59981739989E+00  0.10132646389E+01  0.81224128441E-01  0.11802895834E+01  0.00000000000E+00 0.  1.
         11    1    3    3    0    0 -0.83111296737E+01  0.33088304703E+02 -0.14994194368E+02  0.37265757064E+02  0.51100000000E-03 0. -1.
        -11    1    3    3    0    0  0.24934615539E+01  0.75277854869E+01  0.57570996161E+01  0.97994439183E+01  0.51100000000E-03 0.  1.
        -12    1    3    3    0    0  0.52178507199E+01 -0.41629354829E+02  0.91558706235E+01  0.42942509434E+02  0.00000000000E+00 0.  1.
</event>
<event>
 7    1  0.2349719E-015  0.9000779E+02  0.7816164E-02  0.1186339E+00
        -11   -1    0    0    0    0  0.00000000000E+00  0.00000000000E+00  0.45593999997E+02  0.45594000000E+02  0.51100000000E-03 0.  1.
         11   -1    0    0    0    0 -0.00000000000E+00 -0.00000000000E+00 -0.45593999997E+02  0.45594000000E+02  0.51100000000E-03 0. -1.
    9900012    2    1    2    0    0  0.88553545973E+00 -0.27569044536E+00 -0.72986890372E+00  0.90007793709E+02  0.90000055786E+02 0.  0.
        -12    1    1    2    0    0 -0.88553545973E+00  0.27569044536E+00  0.72986890372E+00  0.11802062908E+01  0.00000000000E+00 0.  1.
         11    1    3    3    0    0 -0.27782151784E+02  0.13582263229E+02 -0.14803479758E+02  0.34285111132E+02  0.51100000000E-03 0. -1.
        -11    1    3    3    0    0 -0.70342823571E+01  0.36118339232E+01 -0.71531395258E+01  0.10662733135E+02  0.51100000000E-03 0.  1.
        -12    1    3    3    0    0  0.35701969600E+02 -0.17469787597E+02  0.21226750380E+02  0.45059949442E+02  0.00000000000E+00 0.  1.
</event>
<event>
 7    1  0.2349719E-015  0.9000775E+02  0.7816164E-02  0.1186339E+00
        -11   -1    0    0    0    0  0.00000000000E+00  0.00000000000E+00  0.45593999997E+02  0.45594000000E+02  0.51100000000E-03 0. -1.
         11   -1    0    0    0    0 -0.00000000000E+00 -0.00000000000E+00 -0.45593999997E+02  0.45594000000E+02  0.51100000000E-03 0.  1.
    9900012    2    1    2    0    0  0.10240879123E+01 -0.50682428501E+00 -0.29556136246E+00  0.90007752811E+02  0.90000014348E+02 0.  0.
        -12    1    1    2    0    0 -0.10240879123E+01  0.50682428501E+00  0.29556136246E+00  0.11802471889E+01  0.00000000000E+00 0.  1.
         11    1    3    3    0    0 -0.86597350596E+01  0.11252794234E+01 -0.30376581008E+01  0.92457899653E+01  0.51100000000E-03 0. -1.
        -11    1    3    3    0    0 -0.30834798222E+02  0.10014575245E+02 -0.14112116004E+02  0.35358567804E+02  0.51100000000E-03 0.  1.
         12    1    3    3    0    0  0.40518621194E+02 -0.11646678954E+02  0.16854212743E+02  0.45403395042E+02  0.00000000000E+00 0. -1.
</event>
<event>
 7    1  0.2349719E-015  0.9000766E+02  0.7816164E-02  0.1186339E+00
        -11   -1    0    0    0    0  0.00000000000E+00  0.00000000000E+00  0.45593999997E+02  0.45594000000E+02  0.51100000000E-03 0.  1.
         11   -1    0    0    0    0 -0.00000000000E+00 -0.00000000000E+00 -0.45593999997E+02  0.45594000000E+02  0.51100000000E-03 0. -1.
    9900012    2    1    2    0    0 -0.48555105137E+00  0.12460101407E+00 -0.10686088476E+01  0.90007656785E+02  0.89999917054E+02 0.  0.
        -12    1    1    2    0    0  0.48555105137E+00 -0.12460101407E+00  0.10686088476E+01  0.11803432150E+01  0.00000000000E+00 0.  1.
         11    1    3    3    0    0  0.36219951897E+01  0.25608281455E+01 -0.73647949030E+01  0.85974934818E+01  0.51100000000E-03 0. -1.
        -11    1    3    3    0    0  0.28500547612E+02  0.14760288066E+02  0.24421452532E+02  0.40330567340E+02  0.51100000000E-03 0.  1.
         12    1    3    3    0    0 -0.32608093853E+02 -0.17196515197E+02 -0.18125266476E+02  0.41079595963E+02  0.00000000000E+00 0. -1.
</event>
<event>
 7    1  0.2349719E-015  0.9000773E+02  0.7816164E-02  0.1186339E+00
        -11   -1    0    0    0    0  0.00000000000E+00  0.00000000000E+00  0.45593999997E+02  0.45594000000E+02  0.51100000000E-03 0.  1.
         11   -1    0    0    0    0 -0.00000000000E+00 -0.00000000000E+00 -0.45593999997E+02  0.45594000000E+02  0.51100000000E-03 0. -1.
    9900012    2    1    2    0    0  0.66841676157E+00 -0.80887562492E+00 -0.54034740205E+00  0.90007730514E+02  0.89999991757E+02 0.  0.
        -12    1    1    2    0    0 -0.66841676157E+00  0.80887562492E+00  0.54034740205E+00  0.11802694856E+01  0.00000000000E+00 0.  1.
         11    1    3    3    0    0 -0.91339122056E+01  0.36795113274E+02 -0.11607162926E+02  0.39648895880E+02  0.51100000000E-03 0. -1.
        -11    1    3    3    0    0 -0.86451560009E+01 -0.54959318828E+01 -0.31126624718E+01  0.10706664161E+02  0.51100000000E-03 0.  1.
        -12    1    3    3    0    0  0.18447484968E+02 -0.32108057016E+02  0.14179477996E+02  0.39652170473E+02  0.00000000000E+00 0.  1.
</event>
<event>
 7    1  0.2349719E-015  0.9000786E+02  0.7816164E-02  0.1186339E+00
        -11   -1    0    0    0    0  0.00000000000E+00  0.00000000000E+00  0.45593999997E+02  0.45594000000E+02  0.51100000000E-03 0.  1.
         11   -1    0    0    0    0 -0.00000000000E+00 -0.00000000000E+00 -0.45593999997E+02  0.45594000000E+02  0.51100000000E-03 0. -1.
    9900012    2    1    2    0    0  0.47708944371E+00  0.74988465125E+00 -0.77638745828E+00  0.90007864918E+02  0.90000127934E+02 0.  0.
        -12    1    1    2    0    0 -0.47708944371E+00 -0.74988465125E+00  0.77638745828E+00  0.11801350825E+01  0.00000000000E+00 0.  1.
         11    1    3    3    0    0 -0.18109116398E+02  0.32873015186E+02 -0.92571684569E+01  0.38655793773E+02  0.51100000000E-03 0. -1.
        -11    1    3    3    0    0 -0.21645956081E+01  0.67399091609E+00 -0.86404554789E+01  0.89329283578E+01  0.51100000000E-03 0.  1.
        -12    1    3    3    0    0  0.20750801450E+02 -0.32797121451E+02  0.17121236477E+02  0.42419142787E+02  0.00000000000E+00 0.  1.
</event>
<event>
 7    1  0.2349719E-015  0.9000784E+02  0.7816164E-02  0.1186339E+00
        -11   -1    0    0    0    0  0.00000000000E+00  0.00000000000E+00  0.45593999997E+02  0.45594000000E+02  0.51100000000E-03 0. -1.
         11   -1    0    0    0    0 -0.00000000000E+00 -0.00000000000E+00 -0.45593999997E+02  0.45594000000E+02  0.51100000000E-03 0.  1.
    9900012    2    1    2    0    0 -0.77350210653E+00  0.74109257904E+00  0.49522894282E+00  0.90007840932E+02  0.90000103632E+02 0.  0.
        -12    1    1    2    0    0  0.77350210653E+00 -0.74109257904E+00 -0.49522894282E+00  0.11801590678E+01  0.00000000000E+00 0.  1.
         11    1    3    3    0    0  0.64415812395E+01  0.67634667615E+00 -0.28677121273E+01  0.70834445574E+01  0.51100000000E-03 0. -1.
        -11    1    3    3    0    0 -0.41738836637E+02 -0.46251753411E+00 -0.14323225054E+02  0.44130479065E+02  0.51100000000E-03 0.  1.
         12    1    3    3    0    0  0.34523753291E+02  0.52726343699E+00  0.17686166124E+02  0.38793917310E+02  0.00000000000E+00 0. -1.
</event>
<event>
 7    1  0.2349719E-015  0.9000744E+02  0.7816164E-02  0.1186340E+00
        -11   -1    0    0    0    0  0.00000000000E+00  0.00000000000E+00  0.45593999997E+02  0.45594000000E+02  0.51100000000E-03 0. -1.
         11   -1    0    0    0    0 -0.00000000000E+00 -0.00000000000E+00 -0.45593999997E+02  0.45594000000E+02  0.51100000000E-03 0.  1.
    9900012    2    1    2    0    0 -0.75346145704E+00  0.27769135943E+00  0.86539763625E+00  0.90007436691E+02  0.89999694055E+02 0.  0.
        -12    1    1    2    0    0  0.75346145704E+00 -0.27769135943E+00 -0.86539763625E+00  0.11805633093E+01  0.00000000000E+00 0.  1.
         11    1    3    3    0    0  0.82130583056E+01  0.58727634246E+01 -0.75589638865E+00  0.10124971930E+02  0.51100000000E-03 0. -1.
        -11    1    3    3    0    0  0.74208420249E+01 -0.23407272851E+02 -0.30820603712E+02  0.39406584882E+02  0.51100000000E-03 0.  1.
         12    1    3    3    0    0 -0.16387361787E+02  0.17812200786E+02  0.32441897737E+02  0.40475879878E+02  0.00000000000E+00 0. -1.
</event>
<event>
 7    1  0.2349719E-015  0.9000750E+02  0.7816164E-02  0.1186340E+00
        -11   -1    0    0    0    0  0.00000000000E+00  0.00000000000E+00  0.45593999997E+02  0.45594000000E+02  0.51100000000E-03 0.  1.
         11   -1    0    0    0    0 -0.00000000000E+00 -0.00000000000E+00 -0.45593999997E+02  0.45594000000E+02  0.51100000000E-03 0. -1.
    9900012    2    1    2    0    0  0.10786981719E+01  0.60895771283E-01  0.47568314854E+00  0.90007503283E+02  0.89999761526E+02 0.  0.
        -12    1    1    2    0    0 -0.10786981719E+01 -0.60895771283E-01 -0.47568314854E+00  0.11804967169E+01  0.00000000000E+00 0.  1.
         11    1    3    3    0    0  0.13808926354E+02 -0.12786862391E+02 -0.36047758856E+02  0.40664864634E+02  0.51100000000E-03 0. -1.
        -11    1    3    3    0    0  0.55505641668E+01 -0.48348962013E+01  0.52952156927E+01  0.90677612089E+01  0.51100000000E-03 0.  1.
        -12    1    3    3    0    0 -0.18280792349E+02  0.17682654364E+02  0.31228226312E+02  0.40274877441E+02  0.00000000000E+00 0.  1.
</event>
<event>
 7    1  0.2349719E-015  0.9000773E+02  0.7816164E-02  0.1186339E+00
        -11   -1    0    0    0    0  0.00000000000E+00  0.00000000000E+00  0.45593999997E+02  0.45594000000E+02  0.51100000000E-03 0. -1.
         11   -1    0    0    0    0 -0.00000000000E+00 -0.00000000000E+00 -0.45593999997E+02  0.45594000000E+02  0.51100000000E-03 0.  1.
    9900012    2    1    2    0    0 -0.99539393798E+00 -0.41704936985E+00  0.47779670505E+00  0.90007733522E+02  0.89999994804E+02 0.  0.
        -12    1    1    2    0    0  0.99539393798E+00  0.41704936985E+00 -0.47779670505E+00  0.11802664784E+01  0.00000000000E+00 0.  1.
         11    1    3    3    0    0 -0.18524475424E+02  0.20483201388E+02  0.10821152240E+01  0.27638536547E+02  0.51100000000E-03 0. -1.
        -11    1    3    3    0    0  0.30568222053E+01 -0.22811140635E+02  0.24320604329E+02  0.33484087180E+02  0.51100000000E-03 0.  1.
        -12    1    3    3    0    0  0.14472259281E+02  0.19108898769E+01 -0.24924922848E+02  0.28885109794E+02  0.00000000000E+00 0.  1.
</event>
<event>
 7    1  0.2349719E-015  0.9000772E+02  0.7816164E-02  0.1186339E+00
        -11   -1    0    0    0    0  0.00000000000E+00  0.00000000000E+00  0.45593999997E+02  0.45594000000E+02  0.51100000000E-03 0.  1.
         11   -1    0    0    0    0 -0.00000000000E+00 -0.00000000000E+00 -0.45593999997E+02  0.45594000000E+02  0.51100000000E-03 0. -1.
    9900012    2    1    2    0    0 -0.94167915316E+00  0.39140816416E+00 -0.59421445136E+00  0.90007724273E+02  0.89999985433E+02 0.  0.
        -12    1    1    2    0    0  0.94167915316E+00 -0.39140816416E+00  0.59421445136E+00  0.11802757274E+01  0.00000000000E+00 0.  1.
         11    1    3    3    0    0  0.29619305137E+01  0.34888080425E+02 -0.53920341682E+01  0.35426335131E+02  0.51100000000E-03 0. -1.
        -11    1    3    3    0    0 -0.10771815349E+02 -0.31505917680E+01  0.16898566904E+02  0.20285950756E+02  0.51100000000E-03 0.  1.
        -12    1    3    3    0    0  0.68682056822E+01 -0.31346080493E+02 -0.12100747187E+02  0.34295438385E+02  0.00000000000E+00 0.  1.
</event>
<event>
 7    1  0.2349719E-015  0.9000775E+02  0.7816164E-02  0.1186339E+00
        -11   -1    0    0    0    0  0.00000000000E+00  0.00000000000E+00  0.45593999997E+02  0.45594000000E+02  0.51100000000E-03 0.  1.
         11   -1    0    0    0    0 -0.00000000000E+00 -0.00000000000E+00 -0.45593999997E+02  0.45594000000E+02  0.51100000000E-03 0. -1.
    9900012    2    1    2    0    0  0.90979324939E+00 -0.53649253070E+00  0.52673856131E+00  0.90007745153E+02  0.90000006589E+02 0.  0.
        -12    1    1    2    0    0 -0.90979324939E+00  0.53649253070E+00 -0.52673856131E+00  0.11802548471E+01  0.00000000000E+00 0.  1.
         11    1    3    3    0    0  0.78942152486E+01 -0.34452961069E+02 -0.59580256980E+01  0.35844430966E+02  0.51100000000E-03 0. -1.
        -11    1    3    3    0    0  0.47129137838E+01 -0.79634734967E+01 -0.28644020037E+01  0.96867572265E+01  0.51100000000E-03 0.  1.
        -12    1    3    3    0    0 -0.11697335783E+02  0.41879942035E+02  0.93491662630E+01  0.44476556960E+02  0.00000000000E+00 0.  1.
</event>
<event>
 7    1  0.2349719E-015  0.9000674E+02  0.7816164E-02  0.1186341E+00
        -11   -1    0    0    0    0  0.00000000000E+00  0.00000000000E+00  0.45593999997E+02  0.45594000000E+02  0.51100000000E-03 0. -1.
         11   -1    0    0    0    0 -0.00000000000E+00 -0.00000000000E+00 -0.45593999997E+02  0.45594000000E+02  0.51100000000E-03 0.  1.
    9900012    2    1    2    0    0  0.48275085906E+00 -0.24017616048E+00  0.10510223069E+01  0.90006737595E+02  0.89998985725E+02 0.  0.
        -12    1    1    2    0    0 -0.48275085906E+00  0.24017616048E+00 -0.10510223069E+01  0.11812624051E+01  0.00000000000E+00 0.  1.
         11    1    3    3    0    0  0.28133235926E+02  0.91845699779E+01 -0.23238137996E+02  0.37627733749E+02  0.51100000000E-03 0. -1.
        -11    1    3    3    0    0  0.58742614429E+01  0.61510667759E+01  0.71494533364E+00  0.85354388916E+01  0.51100000000E-03 0.  1.
        -12    1    3    3    0    0 -0.33524746510E+02 -0.15575812914E+02  0.23574214969E+02  0.43843564954E+02  0.00000000000E+00 0.  1.
</event>
<event>
 7    1  0.2763636E-015  0.9000770E+02  0.7816164E-02  0.1186339E+00
        -11   -1    0    0    0    0  0.00000000000E+00  0.00000000000E+00  0.45593999997E+02  0.45594000000E+02  0.51100000000E-03 0. -1.
         11   -1    0    0    0    0 -0.00000000000E+00 -0.00000000000E+00 -0.45593999997E+02  0.45594000000E+02  0.51100000000E-03 0.  1.
    9900012    2    1    2    0    0 -0.74162961528E+00 -0.91625295745E+00  0.59757029215E-01  0.90007701364E+02  0.89999962222E+02 0.  0.
        -12    1    1    2    0    0  0.74162961528E+00  0.91625295745E+00 -0.59757029215E-01  0.11802986363E+01  0.00000000000E+00 0.  1.
         11    1    3    3    0    0  0.48191861240E+01  0.24305966550E+02  0.29072906780E+02  0.38199980023E+02  0.51100000000E-03 0. -1.
        -11    1    3    3    0    0 -0.40836151863E+01 -0.45895588764E+01  0.75895805016E+01  0.97643072524E+01  0.51100000000E-03 0.  1.
        -12    1    3    3    0    0 -0.14772005529E+01 -0.20632660632E+02 -0.36602730253E+02  0.42043414088E+02  0.00000000000E+00 0.  1.
</event>
<event>
 7    1  0.2349719E-015  0.9000775E+02  0.7816164E-02  0.1186339E+00
        -11   -1    0    0    0    0  0.00000000000E+00  0.00000000000E+00  0.45593999997E+02  0.45594000000E+02  0.51100000000E-03 0.  1.
         11   -1    0    0    0    0 -0.00000000000E+00 -0.00000000000E+00 -0.45593999997E+02  0.45594000000E+02  0.51100000000E-03 0. -1.
    9900012    2    1    2    0    0  0.13091683619E+00  0.75918586103E+00 -0.89414358361E+00  0.90007747850E+02  0.90000009322E+02 0.  0.
        -12    1    1    2    0    0 -0.13091683619E+00 -0.75918586103E+00  0.89414358361E+00  0.11802521501E+01  0.00000000000E+00 0.  1.
         11    1    3    3    0    0  0.31028638545E+01  0.21803311082E+01  0.86935344840E+01  0.94846797483E+01  0.51100000000E-03 0. -1.
        -11    1    3    3    0    0  0.23813066519E+02 -0.49410813793E+01  0.26157902686E+02  0.35717114881E+02  0.51100000000E-03 0.  1.
         12    1    3    3    0    0 -0.26785013538E+02  0.35199361322E+01 -0.35745580754E+02  0.44805953220E+02  0.00000000000E+00 0. -1.
</event>
<event>
 7    1  0.2349719E-015  0.9000773E+02  0.7816164E-02  0.1186339E+00
        -11   -1    0    0    0    0  0.00000000000E+00  0.00000000000E+00  0.45593999997E+02  0.45594000000E+02  0.51100000000E-03 0.  1.
         11   -1    0    0    0    0 -0.00000000000E+00 -0.00000000000E+00 -0.45593999997E+02  0.45594000000E+02  0.51100000000E-03 0. -1.
    9900012    2    1    2    0    0 -0.11502360844E+00  0.10214472355E+01 -0.58005496037E+00  0.90007725184E+02  0.89999986356E+02 0.  0.
        -12    1    1    2    0    0  0.11502360844E+00 -0.10214472355E+01  0.58005496037E+00  0.11802748165E+01  0.00000000000E+00 0.  1.
         11    1    3    3    0    0  0.28032064925E+02  0.19404791193E+02 -0.20706479494E+02  0.39888605873E+02  0.51100000000E-03 0. -1.
        -11    1    3    3    0    0  0.14072345943E+00 -0.13994806497E+02  0.15900705483E+02  0.21182701601E+02  0.51100000000E-03 0.  1.
        -12    1    3    3    0    0 -0.28287811993E+02 -0.43885374600E+01  0.42257190505E+01  0.28936417710E+02  0.00000000000E+00 0.  1.
</event>
<event>
 7    1  0.2349719E-015  0.9000831E+02  0.7816164E-02  0.1186338E+00
        -11   -1    0    0    0    0  0.00000000000E+00  0.00000000000E+00  0.45593999997E+02  0.45594000000E+02  0.51100000000E-03 0. -1.
         11   -1    0    0    0    0 -0.00000000000E+00 -0.00000000000E+00 -0.45593999997E+02  0.45594000000E+02  0.51100000000E-03 0.  1.
    9900012    2    1    2    0    0  0.52022254735E+00 -0.72469331485E+00  0.77191587734E+00  0.90008311049E+02  0.90000579953E+02 0.  0.
        -12    1    1    2    0    0 -0.52022254735E+00  0.72469331485E+00 -0.77191587734E+00  0.11796889510E+01  0.00000000000E+00 0.  1.
         11    1    3    3    0    0 -0.11660757188E+02  0.33789976841E+01 -0.42172084174E+01  0.12852071064E+02  0.51100000000E-03 0. -1.
        -11    1    3    3    0    0 -0.66588657814E+01 -0.37195022168E+02  0.90698713198E+01  0.38859654316E+02  0.51100000000E-03 0.  1.
         12    1    3    3    0    0  0.18839845517E+02  0.33091331169E+02 -0.40807470251E+01  0.38296585669E+02  0.00000000000E+00 0. -1.
</event>
<event>
 7    1  0.2349719E-015  0.9000774E+02  0.7816164E-02  0.1186339E+00
        -11   -1    0    0    0    0  0.00000000000E+00  0.00000000000E+00  0.45593999997E+02  0.45594000000E+02  0.51100000000E-03 0.  1.
         11   -1    0    0    0    0 -0.00000000000E+00 -0.00000000000E+00 -0.45593999997E+02  0.45594000000E+02  0.51100000000E-03 0. -1.
    9900012    2    1    2    0    0  0.52020952105E+00 -0.65803195355E+00 -0.83028935327E+00  0.90007743923E+02  0.90000005343E+02 0.  0.
        -12    1    1    2    0    0 -0.52020952105E+00  0.65803195355E+00  0.83028935327E+00  0.11802560772E+01  0.00000000000E+00 0.  1.
         11    1    3    3    0    0  0.11835672032E+02 -0.33047149105E+02  0.18987715023E+02  0.39909028032E+02  0.51100000000E-03 0. -1.
        -11    1    3    3    0    0 -0.43540081232E+01  0.39242244786E+01  0.78500434894E+01  0.97969437858E+01  0.51100000000E-03 0.  1.
        -12    1    3    3    0    0 -0.69614543875E+01  0.28464892673E+02 -0.27668047865E+02  0.40301772105E+02  0.00000000000E+00 0.  1.
</event>
<event>
 7    1  0.2349719E-015  0.9000772E+02  0.7816164E-02  0.1186339E+00
        -11   -1    0    0    0    0  0.00000000000E+00  0.00000000000E+00  0.45593999997E+02  0.45594000000E+02  0.51100000000E-03 0.  1.
         11   -1    0    0    0    0 -0.00000000000E+00 -0.00000000000E+00 -0.45593999997E+02  0.45594000000E+02  0.51100000000E-03 0. -1.
    9900012    2    1    2    0    0 -0.65102967521E+00 -0.39540913693E+00 -0.90159722261E+00  0.90007718010E+02  0.89999979088E+02 0.  0.
        -12    1    1    2    0    0  0.65102967521E+00  0.39540913693E+00  0.90159722261E+00  0.11802819898E+01  0.00000000000E+00 0.  1.
         11    1    3    3    0    0  0.66976796518E+01 -0.20395913536E+01  0.90093898018E+01  0.11409993447E+02  0.51100000000E-03 0. -1.
        -11    1    3    3    0    0  0.33014245691E+02 -0.84142453655E+01 -0.13928449316E+02  0.36806815187E+02  0.51100000000E-03 0.  1.
         12    1    3    3    0    0 -0.40362955018E+02  0.10058427582E+02  0.40174622916E+01  0.41790909376E+02  0.00000000000E+00 0. -1.
</event>
<event>
 7    1  0.2349719E-015  0.9000777E+02  0.7816164E-02  0.1186339E+00
        -11   -1    0    0    0    0  0.00000000000E+00  0.00000000000E+00  0.45593999997E+02  0.45594000000E+02  0.51100000000E-03 0. -1.
         11   -1    0    0    0    0 -0.00000000000E+00 -0.00000000000E+00 -0.45593999997E+02  0.45594000000E+02  0.51100000000E-03 0.  1.
    9900012    2    1    2    0    0 -0.10926553527E+01  0.40771479839E+00 -0.18115044008E+00  0.90007770125E+02  0.90000031890E+02 0.  0.
        -12    1    1    2    0    0  0.10926553527E+01 -0.40771479839E+00  0.18115044008E+00  0.11802298753E+01  0.00000000000E+00 0.  1.
         11    1    3    3    0    0  0.17235143530E+02  0.25874896746E+02 -0.20051780741E+02  0.36995058660E+02  0.51100000000E-03 0. -1.
        -11    1    3    3    0    0 -0.19467092718E+00  0.61951033801E+01 -0.57294319885E+01  0.84405920309E+01  0.51100000000E-03 0.  1.
        -12    1    3    3    0    0 -0.18133127955E+02 -0.31662285328E+02  0.25600062290E+02  0.44572119434E+02  0.00000000000E+00 0.  1.
</event>
<event>
 7    1  0.2349719E-015  0.9000775E+02  0.7816164E-02  0.1186339E+00
        -11   -1    0    0    0    0  0.00000000000E+00  0.00000000000E+00  0.45593999997E+02  0.45594000000E+02  0.51100000000E-03 0.  1.
         11   -1    0    0    0    0 -0.00000000000E+00 -0.00000000000E+00 -0.45593999997E+02  0.45594000000E+02  0.51100000000E-03 0. -1.
    9900012    2    1    2    0    0  0.41484831904E+00  0.16114334595E+00 -0.10931222735E+01  0.90007753157E+02  0.90000014699E+02 0.  0.
        -12    1    1    2    0    0 -0.41484831904E+00 -0.16114334595E+00  0.10931222735E+01  0.11802468431E+01  0.00000000000E+00 0.  1.
         11    1    3    3    0    0  0.23087394028E+02 -0.10324818783E+02 -0.25127928162E+02  0.35651681866E+02  0.51100000000E-03 0. -1.
        -11    1    3    3    0    0  0.11018949958E+01  0.18100419214E+01 -0.10963303837E+02  0.11166219397E+02  0.51100000000E-03 0.  1.
        -12    1    3    3    0    0 -0.23774440705E+02  0.86759202070E+01  0.34998109725E+02  0.43189851894E+02  0.00000000000E+00 0.  1.
</event>
<event>
 7    1  0.2349719E-015  0.9000769E+02  0.7816164E-02  0.1186339E+00
        -11   -1    0    0    0    0  0.00000000000E+00  0.00000000000E+00  0.45593999997E+02  0.45594000000E+02  0.51100000000E-03 0.  1.
         11   -1    0    0    0    0 -0.00000000000E+00 -0.00000000000E+00 -0.45593999997E+02  0.45594000000E+02  0.51100000000E-03 0. -1.
    9900012    2    1    2    0    0 -0.88032844201E+00 -0.66634560591E+00 -0.41728718905E+00  0.90007693586E+02  0.89999954342E+02 0.  0.
        -12    1    1    2    0    0  0.88032844201E+00  0.66634560591E+00  0.41728718905E+00  0.11803064138E+01  0.00000000000E+00 0.  1.
         11    1    3    3    0    0  0.90723827997E+01  0.37028565600E+01  0.26356754330E+01  0.10147219403E+02  0.51100000000E-03 0. -1.
        -11    1    3    3    0    0  0.26863567610E+02  0.21638818073E+02 -0.43352289317E+01  0.34766131831E+02  0.51100000000E-03 0.  1.
         12    1    3    3    0    0 -0.36816278852E+02 -0.26008020239E+02  0.12822663096E+01  0.45094342352E+02  0.00000000000E+00 0. -1.
</event>
<event>
 7    1  0.2349719E-015  0.9000769E+02  0.7816164E-02  0.1186339E+00
        -11   -1    0    0    0    0  0.00000000000E+00  0.00000000000E+00  0.45593999997E+02  0.45594000000E+02  0.51100000000E-03 0.  1.
         11   -1    0    0    0    0 -0.00000000000E+00 -0.00000000000E+00 -0.45593999997E+02  0.45594000000E+02  0.51100000000E-03 0. -1.
    9900012    2    1    2    0    0 -0.62886894131E+00  0.60605658555E+00  0.79394631076E+00  0.90007690094E+02  0.89999950803E+02 0.  0.
        -12    1    1    2    0    0  0.62886894131E+00 -0.60605658555E+00 -0.79394631076E+00  0.11803099062E+01  0.00000000000E+00 0.  1.
         11    1    3    3    0    0  0.11756890490E+02 -0.55566405212E+01 -0.53692026418E+01  0.14068726494E+02  0.51100000000E-03 0. -1.
        -11    1    3    3    0    0  0.21850258435E+02 -0.15109670312E+02 -0.14901840130E+02  0.30459822227E+02  0.51100000000E-03 0.  1.
         12    1    3    3    0    0 -0.34236017867E+02  0.21272367418E+02  0.21064989083E+02  0.45479141373E+02  0.00000000000E+00 0. -1.
</event>
<event>
 7    1  0.2349719E-015  0.9000772E+02  0.7816164E-02  0.1186339E+00
        -11   -1    0    0    0    0  0.00000000000E+00  0.00000000000E+00  0.45593999997E+02  0.45594000000E+02  0.51100000000E-03 0.  1.
         11   -1    0    0    0    0 -0.00000000000E+00 -0.00000000000E+00 -0.45593999997E+02  0.45594000000E+02  0.51100000000E-03 0. -1.
    9900012    2    1    2    0    0  0.16794934637E+00  0.10791555075E+01 -0.44751072470E+00  0.90007724845E+02  0.89999986013E+02 0.  0.
        -12    1    1    2    0    0 -0.16794934637E+00 -0.10791555075E+01  0.44751072470E+00  0.11802751548E+01  0.00000000000E+00 0.  1.
         11    1    3    3    0    0 -0.29234058940E+02  0.22289262937E+02 -0.12274307284E+02  0.38756935688E+02  0.51100000000E-03 0. -1.
        -11    1    3    3    0    0  0.20388892661E+02 -0.29537539752E+00 -0.71482410911E+01  0.21607673209E+02  0.51100000000E-03 0.  1.
        -12    1    3    3    0    0  0.90131156250E+01 -0.20914732032E+02  0.18975037651E+02  0.29643115948E+02  0.00000000000E+00 0.  1.
</event>
<event>
 7    1  0.2349719E-015  0.9000780E+02  0.7816164E-02  0.1186339E+00
        -11   -1    0    0    0    0  0.00000000000E+00  0.00000000000E+00  0.45593999997E+02  0.45594000000E+02  0.51100000000E-03 0.  1.
         11   -1    0    0    0    0 -0.00000000000E+00 -0.00000000000E+00 -0.45593999997E+02  0.45594000000E+02  0.51100000000E-03 0. -1.
    9900012    2    1    2    0    0 -0.17228906225E+00  0.90997104484E+00  0.73153124564E+00  0.90007801378E+02  0.90000063556E+02 0.  0.
        -12    1    1    2    0    0  0.17228906225E+00 -0.90997104484E+00 -0.73153124564E+00  0.11801986217E+01  0.00000000000E+00 0.  1.
         11    1    3    3    0    0  0.75185967955E+01 -0.74948761332E+00 -0.57683833653E+01  0.95060652409E+01  0.51100000000E-03 0. -1.
        -11    1    3    3    0    0  0.32096511913E+02 -0.16966302938E+02  0.26068664995E+01  0.36398314048E+02  0.51100000000E-03 0.  1.
         12    1    3    3    0    0 -0.39787397770E+02  0.18625761596E+02  0.38930481114E+01  0.44103422089E+02  0.00000000000E+00 0. -1.
</event>
<event>
 7    1  0.2349719E-015  0.9000779E+02  0.7816164E-02  0.1186339E+00
        -11   -1    0    0    0    0  0.00000000000E+00  0.00000000000E+00  0.45593999997E+02  0.45594000000E+02  0.51100000000E-03 0. -1.
         11   -1    0    0    0    0 -0.00000000000E+00 -0.00000000000E+00 -0.45593999997E+02  0.45594000000E+02  0.51100000000E-03 0.  1.
    9900012    2    1    2    0    0  0.85857966025E+00 -0.80177953648E+00 -0.11352914983E+00  0.90007788864E+02  0.90000050877E+02 0.  0.
        -12    1    1    2    0    0 -0.85857966025E+00  0.80177953648E+00  0.11352914983E+00  0.11802111362E+01  0.00000000000E+00 0.  1.
         11    1    3    3    0    0  0.85664818289E+01 -0.40748769372E+02  0.68570606616E+01  0.42200309211E+02  0.51100000000E-03 0. -1.
        -11    1    3    3    0    0  0.20570080704E+01  0.44077655426E+01 -0.96989251082E+01  0.10850291600E+02  0.51100000000E-03 0.  1.
        -12    1    3    3    0    0 -0.97649102391E+01  0.35539224293E+02  0.27283352968E+01  0.36957188054E+02  0.00000000000E+00 0.  1.
</event>
<event>
 7    1  0.2349719E-015  0.9000774E+02  0.7816164E-02  0.1186339E+00
        -11   -1    0    0    0    0  0.00000000000E+00  0.00000000000E+00  0.45593999997E+02  0.45594000000E+02  0.51100000000E-03 0. -1.
         11   -1    0    0    0    0 -0.00000000000E+00 -0.00000000000E+00 -0.45593999997E+02  0.45594000000E+02  0.51100000000E-03 0.  1.
    9900012    2    1    2    0    0  0.74661071618E+00 -0.41748377163E+00  0.81319548303E+00  0.90007742759E+02  0.90000004164E+02 0.  0.
        -12    1    1    2    0    0 -0.74661071618E+00  0.41748377163E+00 -0.81319548303E+00  0.11802572409E+01  0.00000000000E+00 0.  1.
         11    1    3    3    0    0 -0.98031179270E+01  0.62647225599E+00  0.64156066106E+00  0.98440433218E+01  0.51100000000E-03 0. -1.
        -11    1    3    3    0    0 -0.41414117497E+01 -0.38124616054E+02 -0.86558179984E+01  0.39313621380E+02  0.51100000000E-03 0.  1.
         12    1    3    3    0    0  0.14691140393E+02  0.37080660026E+02  0.88274528204E+01  0.40850078057E+02  0.00000000000E+00 0. -1.
</event>
<event>
 7    1  0.2349719E-015  0.9000774E+02  0.7816164E-02  0.1186339E+00
        -11   -1    0    0    0    0  0.00000000000E+00  0.00000000000E+00  0.45593999997E+02  0.45594000000E+02  0.51100000000E-03 0.  1.
         11   -1    0    0    0    0 -0.00000000000E+00 -0.00000000000E+00 -0.45593999997E+02  0.45594000000E+02  0.51100000000E-03 0. -1.
    9900012    2    1    2    0    0 -0.47282359695E+00 -0.10685093683E+01 -0.16657954503E+00  0.90007735975E+02  0.89999997290E+02 0.  0.
        -12    1    1    2    0    0  0.47282359695E+00  0.10685093683E+01  0.16657954503E+00  0.11802640250E+01  0.00000000000E+00 0.  1.
         11    1    3    3    0    0  0.13831266153E+02  0.10754805104E+02 -0.34198144190E+02  0.38425028595E+02  0.51100000000E-03 0. -1.
        -11    1    3    3    0    0  0.74343489876E+01  0.46388412806E+01  0.11072325807E+01  0.88325736648E+01  0.51100000000E-03 0.  1.
        -12    1    3    3    0    0 -0.21738438737E+02 -0.16462155753E+02  0.32924332065E+02  0.42750133715E+02  0.00000000000E+00 0.  1.
</event>
<event>
 7    1  0.2349719E-015  0.9000776E+02  0.7816164E-02  0.1186339E+00
        -11   -1    0    0    0    0  0.00000000000E+00  0.00000000000E+00  0.45593999997E+02  0.45594000000E+02  0.51100000000E-03 0. -1.
         11   -1    0    0    0    0 -0.00000000000E+00 -0.00000000000E+00 -0.45593999997E+02  0.45594000000E+02  0.51100000000E-03 0.  1.
    9900012    2    1    2    0    0  0.14209637008E-01 -0.11348446074E+01 -0.32388597714E+00  0.90007755821E+02  0.90000017397E+02 0.  0.
        -12    1    1    2    0    0 -0.14209637008E-01  0.11348446074E+01  0.32388597714E+00  0.11802441794E+01  0.00000000000E+00 0.  1.
         11    1    3    3    0    0  0.71088288304E+01  0.18813089532E+02  0.36543007849E+02  0.41711619580E+02  0.51100000000E-03 0. -1.
        -11    1    3    3    0    0  0.78905164420E+01 -0.36386846215E+01 -0.72679159626E+01  0.11327968847E+02  0.51100000000E-03 0.  1.
        -12    1    3    3    0    0 -0.14985135635E+02 -0.16309249518E+02 -0.29598977864E+02  0.36968167393E+02  0.00000000000E+00 0.  1.
</event>
<event>
 7    1  0.2494914E-015  0.9000774E+02  0.7816164E-02  0.1186339E+00
        -11   -1    0    0    0    0  0.00000000000E+00  0.00000000000E+00  0.45593999997E+02  0.45594000000E+02  0.51100000000E-03 0.  1.
         11   -1    0    0    0    0 -0.00000000000E+00 -0.00000000000E+00 -0.45593999997E+02  0.45594000000E+02  0.51100000000E-03 0. -1.
    9900012    2    1    2    0    0 -0.10941601447E+01 -0.43092395554E+00  0.10066434959E+00  0.90007739356E+02  0.90000000715E+02 0.  0.
        -12    1    1    2    0    0  0.10941601447E+01  0.43092395554E+00 -0.10066434959E+00  0.11802606445E+01  0.00000000000E+00 0.  1.
         11    1    3    3    0    0 -0.16858533685E+02  0.25659300369E+02  0.26100156720E+02  0.40296749677E+02  0.51100000000E-03 0. -1.
        -11    1    3    3    0    0 -0.42466477220E+01  0.33469881747E+01 -0.84328408510E+01  0.10017442378E+02  0.51100000000E-03 0.  1.
        -12    1    3    3    0    0  0.20011021263E+02 -0.29437212499E+02 -0.17566651520E+02  0.39693547301E+02  0.00000000000E+00 0.  1.
</event>
<event>
 7    1  0.2349719E-015  0.9000786E+02  0.7816164E-02  0.1186339E+00
        -11   -1    0    0    0    0  0.00000000000E+00  0.00000000000E+00  0.45593999997E+02  0.45594000000E+02  0.51100000000E-03 0. -1.
         11   -1    0    0    0    0 -0.00000000000E+00 -0.00000000000E+00 -0.45593999997E+02  0.45594000000E+02  0.51100000000E-03 0.  1.
    9900012    2    1    2    0    0  0.95148946082E+00 -0.50976215664E+00  0.47700070744E+00  0.90007864700E+02  0.90000127714E+02 0.  0.
        -12    1    1    2    0    0 -0.95148946082E+00  0.50976215664E+00 -0.47700070744E+00  0.11801352996E+01  0.00000000000E+00 0.  1.
         11    1    3    3    0    0 -0.53167475361E+01 -0.10271679234E+01  0.70560575929E+01  0.88944267562E+01  0.51100000000E-03 0. -1.
        -11    1    3    3    0    0 -0.28520285474E+02  0.74035015168E+01 -0.27191427316E+02  0.40094790659E+02  0.51100000000E-03 0.  1.
         12    1    3    3    0    0  0.34788522471E+02 -0.68860957500E+01  0.20612370430E+02  0.41018647286E+02  0.00000000000E+00 0. -1.
</event>
<event>
 7    1  0.2349719E-015  0.9000759E+02  0.7816164E-02  0.1186339E+00
        -11   -1    0    0    0    0  0.00000000000E+00  0.00000000000E+00  0.45593999997E+02  0.45594000000E+02  0.51100000000E-03 0.  1.
         11   -1    0    0    0    0 -0.00000000000E+00 -0.00000000000E+00 -0.45593999997E+02  0.45594000000E+02  0.51100000000E-03 0. -1.
    9900012    2    1    2    0    0  0.34043533378E+00 -0.26704240645E+00 -0.10982584097E+01  0.90007585074E+02  0.89999844397E+02 0.  0.
        -12    1    1    2    0    0 -0.34043533378E+00  0.26704240645E+00  0.10982584097E+01  0.11804149261E+01  0.00000000000E+00 0.  1.
         11    1    3    3    0    0 -0.14059869870E+02 -0.27916594039E+02 -0.17704297953E+02  0.35922949903E+02  0.51100000000E-03 0. -1.
        -11    1    3    3    0    0 -0.50256697850E+00 -0.87937881013E+01 -0.39678204785E+01  0.96605839548E+01  0.51100000000E-03 0.  1.
        -12    1    3    3    0    0  0.14902872182E+02  0.36443339734E+02  0.20573860022E+02  0.44424051216E+02  0.00000000000E+00 0.  1.
</event>
<event>
 7    1  0.2349719E-015  0.9000775E+02  0.7816164E-02  0.1186339E+00
        -11   -1    0    0    0    0  0.00000000000E+00  0.00000000000E+00  0.45593999997E+02  0.45594000000E+02  0.51100000000E-03 0.  1.
         11   -1    0    0    0    0 -0.00000000000E+00 -0.00000000000E+00 -0.45593999997E+02  0.45594000000E+02  0.51100000000E-03 0. -1.
    9900012    2    1    2    0    0  0.10780897064E+00 -0.92801000817E+00 -0.72121834120E+00  0.90007753735E+02  0.90000015285E+02 0.  0.
        -12    1    1    2    0    0 -0.10780897064E+00  0.92801000817E+00  0.72121834120E+00  0.11802462646E+01  0.00000000000E+00 0.  1.
         11    1    3    3    0    0  0.30476719130E+01 -0.23674012791E+01  0.92874934013E+01  0.10057356852E+02  0.51100000000E-03 0. -1.
        -11    1    3    3    0    0 -0.31861037555E+02  0.80757465360E+01  0.19405157159E+02  0.38169405560E+02  0.51100000000E-03 0.  1.
         12    1    3    3    0    0  0.28921174613E+02 -0.66363552650E+01 -0.29413868901E+02  0.41780991323E+02  0.00000000000E+00 0. -1.
</event>
<event>
 7    1  0.2349719E-015  0.9000779E+02  0.7816164E-02  0.1186339E+00
        -11   -1    0    0    0    0  0.00000000000E+00  0.00000000000E+00  0.45593999997E+02  0.45594000000E+02  0.51100000000E-03 0.  1.
         11   -1    0    0    0    0 -0.00000000000E+00 -0.00000000000E+00 -0.45593999997E+02  0.45594000000E+02  0.51100000000E-03 0. -1.
    9900012    2    1    2    0    0  0.26095922425E+00 -0.22318946658E+00 -0.11291564052E+01  0.90007785002E+02  0.90000046964E+02 0.  0.
        -12    1    1    2    0    0 -0.26095922425E+00  0.22318946658E+00  0.11291564052E+01  0.11802149982E+01  0.00000000000E+00 0.  1.
         11    1    3    3    0    0 -0.45177935763E+01  0.81704944998E+01  0.16057732016E+01  0.94734337495E+01  0.51100000000E-03 0. -1.
        -11    1    3    3    0    0  0.26356688427E+02  0.25972946405E+02 -0.12019026835E+02  0.38906631518E+02  0.51100000000E-03 0.  1.
         12    1    3    3    0    0 -0.21577935626E+02 -0.34366630371E+02  0.92840972283E+01  0.41627719734E+02  0.00000000000E+00 0. -1.
</event>
<event>
 7    1  0.2349719E-015  0.9000774E+02  0.7816164E-02  0.1186339E+00
        -11   -1    0    0    0    0  0.00000000000E+00  0.00000000000E+00  0.45593999997E+02  0.45594000000E+02  0.51100000000E-03 0. -1.
         11   -1    0    0    0    0 -0.00000000000E+00 -0.00000000000E+00 -0.45593999997E+02  0.45594000000E+02  0.51100000000E-03 0.  1.
    9900012    2    1    2    0    0 -0.11076060771E+00 -0.11705590646E+01  0.10261035828E+00  0.90007743536E+02  0.90000004950E+02 0.  0.
        -12    1    1    2    0    0  0.11076060771E+00  0.11705590646E+01 -0.10261035828E+00  0.11802564643E+01  0.00000000000E+00 0.  1.
         11    1    3    3    0    0  0.19511919914E+02 -0.14363045714E+02  0.32326291405E+02  0.40398034819E+02  0.51100000000E-03 0. -1.
        -11    1    3    3    0    0 -0.77848300494E+01  0.39440018916E+01  0.45818076299E+01  0.98565557492E+01  0.51100000000E-03 0.  1.
        -12    1    3    3    0    0 -0.11837850472E+02  0.92484847578E+01 -0.36805488677E+02  0.39753152968E+02  0.00000000000E+00 0.  1.
</event>
<event>
 7    1  0.2349719E-015  0.9000764E+02  0.7816164E-02  0.1186339E+00
        -11   -1    0    0    0    0  0.00000000000E+00  0.00000000000E+00  0.45593999997E+02  0.45594000000E+02  0.51100000000E-03 0.  1.
         11   -1    0    0    0    0 -0.00000000000E+00 -0.00000000000E+00 -0.45593999997E+02  0.45594000000E+02  0.51100000000E-03 0. -1.
    9900012    2    1    2    0    0 -0.24800177305E+00  0.65356032188E+00  0.95110737447E+00  0.90007639372E+02  0.89999899412E+02 0.  0.
        -12    1    1    2    0    0  0.24800177305E+00 -0.65356032188E+00 -0.95110737447E+00  0.11803606277E+01  0.00000000000E+00 0.  1.
         11    1    3    3    0    0  0.45906831809E+01  0.13275043166E+02 -0.33536806076E+02  0.36359572401E+02  0.51100000000E-03 0. -1.
        -11    1    3    3    0    0  0.27674259430E+01  0.58508903911E+01 -0.57925319139E+01  0.86859076068E+01  0.51100000000E-03 0.  1.
        -12    1    3    3    0    0 -0.76061108970E+01 -0.18472373235E+02  0.40280445365E+02  0.44962159364E+02  0.00000000000E+00 0.  1.
</event>
<event>
 7    1  0.2349719E-015  0.9000772E+02  0.7816164E-02  0.1186339E+00
        -11   -1    0    0    0    0  0.00000000000E+00  0.00000000000E+00  0.45593999997E+02  0.45594000000E+02  0.51100000000E-03 0. -1.
         11   -1    0    0    0    0 -0.00000000000E+00 -0.00000000000E+00 -0.45593999997E+02  0.45594000000E+02  0.51100000000E-03 0.  1.
    9900012    2    1    2    0    0  0.10463611857E+00 -0.82971971502E+00  0.83286759171E+00  0.90007723783E+02  0.89999984937E+02 0.  0.
        -12    1    1    2    0    0 -0.10463611857E+00  0.82971971502E+00 -0.83286759171E+00  0.11802762169E+01  0.00000000000E+00 0.  1.
         11    1    3    3    0    0  0.27730753668E+02  0.17902327547E+02  0.12713255785E+02  0.35371102662E+02  0.51100000000E-03 0. -1.
        -11    1    3    3    0    0 -0.16178330738E+01  0.12147287265E+02  0.90443745037E+00  0.12287879358E+02  0.51100000000E-03 0.  1.
        -12    1    3    3    0    0 -0.26008284476E+02 -0.30879334527E+02 -0.12784825644E+02  0.42348741763E+02  0.00000000000E+00 0.  1.
</event>
<event>
 7    1  0.2349719E-015  0.9000771E+02  0.7816164E-02  0.1186339E+00
        -11   -1    0    0    0    0  0.00000000000E+00  0.00000000000E+00  0.45593999997E+02  0.45594000000E+02  0.51100000000E-03 0. -1.
         11   -1    0    0    0    0 -0.00000000000E+00 -0.00000000000E+00 -0.45593999997E+02  0.45594000000E+02  0.51100000000E-03 0.  1.
    9900012    2    1    2    0    0  0.39426350041E-01 -0.66019502578E+00 -0.97758959508E+00  0.90007706255E+02  0.89999967177E+02 0.  0.
        -12    1    1    2    0    0 -0.39426350041E-01  0.66019502578E+00  0.97758959508E+00  0.11802937455E+01  0.00000000000E+00 0.  1.
         11    1    3    3    0    0  0.90191770637E+01 -0.61495935777E+01 -0.44877488164E+00  0.10925404122E+02  0.51100000000E-03 0. -1.
        -11    1    3    3    0    0  0.27248279243E+02 -0.17737164592E+02 -0.11814697126E+02  0.34592814252E+02  0.51100000000E-03 0.  1.
         12    1    3    3    0    0 -0.36228029956E+02  0.23226563144E+02  0.11285882412E+02  0.44489487880E+02  0.00000000000E+00 0. -1.
</event>
<event>
 7    1  0.2349719E-015  0.9000774E+02  0.7816164E-02  0.1186339E+00
        -11   -1    0    0    0    0  0.00000000000E+00  0.00000000000E+00  0.45593999997E+02  0.45594000000E+02  0.51100000000E-03 0. -1.
         11   -1    0    0    0    0 -0.00000000000E+00 -0.00000000000E+00 -0.45593999997E+02  0.45594000000E+02  0.51100000000E-03 0.  1.
    9900012    2    1    2    0    0  0.10739580349E+01  0.30545843184E-01 -0.48855347598E+00  0.90007744346E+02  0.90000005772E+02 0.  0.
        -12    1    1    2    0    0 -0.10739580349E+01 -0.30545843184E-01  0.48855347598E+00  0.11802556537E+01  0.00000000000E+00 0.  1.
         11    1    3    3    0    0 -0.32397321191E+00  0.39943279486E+00 -0.71037096176E+01  0.71223027029E+01  0.51100000000E-03 0. -1.
        -11    1    3    3    0    0 -0.24995201886E+02  0.24192942106E+00 -0.29170557998E+02  0.38415362830E+02  0.51100000000E-03 0.  1.
         12    1    3    3    0    0  0.26393133132E+02 -0.61081637273E+00  0.35785714140E+02  0.44470078814E+02  0.00000000000E+00 0. -1.
</event>
<event>
 7    1  0.2349719E-015  0.9000797E+02  0.7816164E-02  0.1186339E+00
        -11   -1    0    0    0    0  0.00000000000E+00  0.00000000000E+00  0.45593999997E+02  0.45594000000E+02  0.51100000000E-03 0.  1.
         11   -1    0    0    0    0 -0.00000000000E+00 -0.00000000000E+00 -0.45593999997E+02  0.45594000000E+02  0.51100000000E-03 0. -1.
    9900012    2    1    2    0    0  0.11567988626E+01  0.12633471419E+00 -0.19579684358E+00  0.90007965902E+02  0.90000230252E+02 0.  0.
        -12    1    1    2    0    0 -0.11567988626E+01 -0.12633471419E+00  0.19579684358E+00  0.11800340980E+01  0.00000000000E+00 0.  1.
         11    1    3    3    0    0  0.34491049223E+01 -0.30568100193E+01  0.11373711327E+02  0.12271989320E+02  0.51100000000E-03 0. -1.
        -11    1    3    3    0    0  0.97767654328E+01  0.18946084690E+02  0.26972723891E+02  0.34381202739E+02  0.51100000000E-03 0.  1.
         12    1    3    3    0    0 -0.12069071492E+02 -0.15762939957E+02 -0.38542232061E+02  0.43354773843E+02  0.00000000000E+00 0. -1.
</event>
<event>
 7    1  0.2349719E-015  0.9000773E+02  0.7816164E-02  0.1186339E+00
        -11   -1    0    0    0    0  0.00000000000E+00  0.00000000000E+00  0.45593999997E+02  0.45594000000E+02  0.51100000000E-03 0.  1.
         11   -1    0    0    0    0 -0.00000000000E+00 -0.00000000000E+00 -0.45593999997E+02  0.45594000000E+02  0.51100000000E-03 0. -1.
    9900012    2    1    2    0    0 -0.67922809625E+00 -0.79516529640E+00  0.54717603724E+00  0.90007728730E+02  0.89999989949E+02 0.  0.
        -12    1    1    2    0    0  0.67922809625E+00  0.79516529640E+00 -0.54717603724E+00  0.11802712701E+01  0.00000000000E+00 0.  1.
         11    1    3    3    0    0 -0.15658220763E+02 -0.74880473778E+01 -0.32502434809E+02  0.36846424518E+02  0.51100000000E-03 0. -1.
        -11    1    3    3    0    0  0.12311378571E+01 -0.70341359392E+01 -0.61417482777E+01  0.94189086949E+01  0.51100000000E-03 0.  1.
        -12    1    3    3    0    0  0.13747854810E+02  0.13727018021E+02  0.39191359124E+02  0.43742395517E+02  0.00000000000E+00 0.  1.
</event>
<event>
 7    1  0.2349719E-015  0.9000781E+02  0.7816164E-02  0.1186339E+00
        -11   -1    0    0    0    0  0.00000000000E+00  0.00000000000E+00  0.45593999997E+02  0.45594000000E+02  0.51100000000E-03 0.  1.
         11   -1    0    0    0    0 -0.00000000000E+00 -0.00000000000E+00 -0.45593999997E+02  0.45594000000E+02  0.51100000000E-03 0. -1.
    9900012    2    1    2    0    0 -0.30579181644E+00 -0.36460868178E-02 -0.11398829578E+01  0.90007807183E+02  0.90000069437E+02 0.  0.
        -12    1    1    2    0    0  0.30579181644E+00  0.36460868178E-02  0.11398829578E+01  0.11801928175E+01  0.00000000000E+00 0.  1.
         11    1    3    3    0    0 -0.42045692134E+01  0.15072875323E+02  0.19101815665E+01  0.15764478001E+02  0.51100000000E-03 0. -1.
        -11    1    3    3    0    0  0.28223018388E+02  0.13513849079E+02  0.12388677499E+02  0.33654750249E+02  0.51100000000E-03 0.  1.
         12    1    3    3    0    0 -0.24324240991E+02 -0.28590370489E+02 -0.15438742023E+02  0.40588578932E+02  0.00000000000E+00 0. -1.
</event>
<event>
 7    1  0.2349719E-015  0.9000778E+02  0.7816164E-02  0.1186339E+00
        -11   -1    0    0    0    0  0.00000000000E+00  0.00000000000E+00  0.45593999997E+02  0.45594000000E+02  0.51100000000E-03 0.  1.
         11   -1    0    0    0    0 -0.00000000000E+00 -0.00000000000E+00 -0.45593999997E+02  0.45594000000E+02  0.51100000000E-03 0. -1.
    9900012    2    1    2    0    0 -0.47475516928E+00  0.94646799951E+00 -0.52126560877E+00  0.90007783079E+02  0.90000045016E+02 0.  0.
        -12    1    1    2    0    0  0.47475516928E+00 -0.94646799951E+00  0.52126560877E+00  0.11802169206E+01  0.00000000000E+00 0.  1.
         11    1    3    3    0    0 -0.19150117138E+02  0.29091686724E+02  0.12742834749E+02  0.37086831363E+02  0.51100000000E-03 0. -1.
        -11    1    3    3    0    0 -0.10073017182E+02 -0.10214727027E+01  0.24010706530E+01  0.10405490001E+02  0.51100000000E-03 0.  1.
        -12    1    3    3    0    0  0.28748379151E+02 -0.27123746022E+02 -0.15665171011E+02  0.42515461715E+02  0.00000000000E+00 0.  1.
</event>
<event>
 7    1  0.2574063E-015  0.9000801E+02  0.7816164E-02  0.1186338E+00
        -11   -1    0    0    0    0  0.00000000000E+00  0.00000000000E+00  0.45593999997E+02  0.45594000000E+02  0.51100000000E-03 0.  1.
         11   -1    0    0    0    0 -0.00000000000E+00 -0.00000000000E+00 -0.45593999997E+02  0.45594000000E+02  0.51100000000E-03 0. -1.
    9900012    2    1    2    0    0 -0.10596535315E+01  0.23551609017E+00 -0.46263529384E+00  0.90008014894E+02  0.90000279890E+02 0.  0.
        -12    1    1    2    0    0  0.10596535315E+01 -0.23551609017E+00  0.46263529384E+00  0.11799851061E+01  0.00000000000E+00 0.  1.
         11    1    3    3    0    0 -0.16465369671E+02 -0.90937609017E+01 -0.36171046944E+02  0.40769468025E+02  0.51100000000E-03 0. -1.
        -11    1    3    3    0    0  0.22253868636E+01 -0.86781004605E+01  0.26307046392E+01  0.93371506069E+01  0.51100000000E-03 0.  1.
        -12    1    3    3    0    0  0.13180329276E+02  0.18007377452E+02  0.33077707011E+02  0.39901396262E+02  0.00000000000E+00 0.  1.
</event>
<event>
 7    1  0.2349719E-015  0.9000767E+02  0.7816164E-02  0.1186339E+00
        -11   -1    0    0    0    0  0.00000000000E+00  0.00000000000E+00  0.45593999997E+02  0.45594000000E+02  0.51100000000E-03 0.  1.
         11   -1    0    0    0    0 -0.00000000000E+00 -0.00000000000E+00 -0.45593999997E+02  0.45594000000E+02  0.51100000000E-03 0. -1.
    9900012    2    1    2    0    0 -0.11516585199E+01 -0.21546016134E+00 -0.14299522628E+00  0.90007666123E+02  0.89999926515E+02 0.  0.
        -12    1    1    2    0    0  0.11516585199E+01  0.21546016134E+00  0.14299522628E+00  0.11803338775E+01  0.00000000000E+00 0.  1.
         11    1    3    3    0    0 -0.64112375322E+01 -0.31984255403E+01  0.43530548375E+01  0.83834944570E+01  0.51100000000E-03 0. -1.
        -11    1    3    3    0    0 -0.35096187591E+02 -0.11786810902E+02 -0.98704679494E+01  0.38315759583E+02  0.51100000000E-03 0.  1.
         12    1    3    3    0    0  0.40355766603E+02  0.14769776281E+02  0.53744178856E+01  0.43308412082E+02  0.00000000000E+00 0. -1.
</event>
<event>
 7    1  0.2982504E-015  0.9000767E+02  0.7816164E-02  0.1186339E+00
        -11   -1    0    0    0    0  0.00000000000E+00  0.00000000000E+00  0.45593999997E+02  0.45594000000E+02  0.51100000000E-03 0. -1.
         11   -1    0    0    0    0 -0.00000000000E+00 -0.00000000000E+00 -0.45593999997E+02  0.45594000000E+02  0.51100000000E-03 0.  1.
    9900012    2    1    2    0    0  0.12280081266E+00 -0.43589261601E+00  0.10899984311E+01  0.90007669965E+02  0.89999930408E+02 0.  0.
        -12    1    1    2    0    0 -0.12280081266E+00  0.43589261601E+00 -0.10899984311E+01  0.11803300353E+01  0.00000000000E+00 0.  1.
         11    1    3    3    0    0  0.14178479742E+02  0.49148380629E+00  0.36307001162E+02  0.38980369133E+02  0.51100000000E-03 0. -1.
        -11    1    3    3    0    0  0.57595516286E+01 -0.86971818520E+01 -0.67349875881E+00  0.10453086050E+02  0.51100000000E-03 0.  1.
        -12    1    3    3    0    0 -0.19815230558E+02  0.77698054297E+01 -0.34543503972E+02  0.40574214782E+02  0.00000000000E+00 0.  1.
</event>
<event>
 7    1  0.2349719E-015  0.9000775E+02  0.7816164E-02  0.1186339E+00
        -11   -1    0    0    0    0  0.00000000000E+00  0.00000000000E+00  0.45593999997E+02  0.45594000000E+02  0.51100000000E-03 0.  1.
         11   -1    0    0    0    0 -0.00000000000E+00 -0.00000000000E+00 -0.45593999997E+02  0.45594000000E+02  0.51100000000E-03 0. -1.
    9900012    2    1    2    0    0  0.21464639930E+00 -0.59393076387E+00 -0.99708235971E+00  0.90007745764E+02  0.90000007208E+02 0.  0.
        -12    1    1    2    0    0 -0.21464639930E+00  0.59393076387E+00  0.99708235971E+00  0.11802542358E+01  0.00000000000E+00 0.  1.
         11    1    3    3    0    0  0.23420145565E+02  0.72376680489E+01 -0.15557661993E+02  0.29033220696E+02  0.51100000000E-03 0. -1.
        -11    1    3    3    0    0  0.52253340597E+01  0.63968738746E+00 -0.16918961722E+02  0.17719045742E+02  0.51100000000E-03 0.  1.
        -12    1    3    3    0    0 -0.28430833225E+02 -0.84712862002E+01  0.31479541355E+02  0.43255479326E+02  0.00000000000E+00 0.  1.
</event>
<event>
 7    1  0.2349719E-015  0.9000769E+02  0.7816164E-02  0.1186339E+00
        -11   -1    0    0    0    0  0.00000000000E+00  0.00000000000E+00  0.45593999997E+02  0.45594000000E+02  0.51100000000E-03 0.  1.
         11   -1    0    0    0    0 -0.00000000000E+00 -0.00000000000E+00 -0.45593999997E+02  0.45594000000E+02  0.51100000000E-03 0. -1.
    9900012    2    1    2    0    0  0.96157370588E+00 -0.49865098327E+00 -0.46888381835E+00  0.90007691214E+02  0.89999951938E+02 0.  0.
        -12    1    1    2    0    0 -0.96157370588E+00  0.49865098327E+00  0.46888381835E+00  0.11803087859E+01  0.00000000000E+00 0.  1.
         11    1    3    3    0    0  0.13451208707E+02  0.32138851666E+02 -0.25367748402E+02  0.43097139828E+02  0.51100000000E-03 0. -1.
        -11    1    3    3    0    0 -0.72509285230E+01 -0.81004251123E+00  0.65283699944E+01  0.97903906133E+01  0.51100000000E-03 0.  1.
        -12    1    3    3    0    0 -0.52387064785E+01 -0.31827460138E+02  0.18370494589E+02  0.37120160773E+02  0.00000000000E+00 0.  1.
</event>
<event>
 7    1  0.2349719E-015  0.9000770E+02  0.7816164E-02  0.1186339E+00
        -11   -1    0    0    0    0  0.00000000000E+00  0.00000000000E+00  0.45593999997E+02  0.45594000000E+02  0.51100000000E-03 0.  1.
         11   -1    0    0    0    0 -0.00000000000E+00 -0.00000000000E+00 -0.45593999997E+02  0.45594000000E+02  0.51100000000E-03 0. -1.
    9900012    2    1    2    0    0 -0.59020359119E+00 -0.86814501728E+00 -0.53954000455E+00  0.90007695181E+02  0.89999955957E+02 0.  0.
        -12    1    1    2    0    0  0.59020359119E+00  0.86814501728E+00  0.53954000455E+00  0.11803048194E+01  0.00000000000E+00 0.  1.
         11    1    3    3    0    0  0.82478447956E+01  0.55166965377E+00  0.58520932136E+01  0.10128093523E+02  0.51100000000E-03 0. -1.
        -11    1    3    3    0    0  0.14076163528E+02  0.84168207763E+01  0.30921070114E+02  0.35001340388E+02  0.51100000000E-03 0.  1.
         12    1    3    3    0    0 -0.22914211915E+02 -0.98366354473E+01 -0.37312703333E+02  0.44878261270E+02  0.00000000000E+00 0. -1.
</event>
<event>
 7    1  0.2349719E-015  0.9000778E+02  0.7816164E-02  0.1186339E+00
        -11   -1    0    0    0    0  0.00000000000E+00  0.00000000000E+00  0.45593999997E+02  0.45594000000E+02  0.51100000000E-03 0. -1.
         11   -1    0    0    0    0 -0.00000000000E+00 -0.00000000000E+00 -0.45593999997E+02  0.45594000000E+02  0.51100000000E-03 0.  1.
    9900012    2    1    2    0    0 -0.82370022557E+00 -0.78701219266E+00  0.30830123502E+00  0.90007779722E+02  0.90000041614E+02 0.  0.
        -12    1    1    2    0    0  0.82370022557E+00  0.78701219266E+00 -0.30830123502E+00  0.11802202780E+01  0.00000000000E+00 0.  1.
         11    1    3    3    0    0  0.13891648842E+01 -0.10545197004E+02 -0.30773526087E+01  0.11072536216E+02  0.51100000000E-03 0. -1.
        -11    1    3    3    0    0 -0.25797900918E+01 -0.14477131677E+02 -0.32476370924E+02  0.35650488456E+02  0.51100000000E-03 0.  1.
         12    1    3    3    0    0  0.36692498207E+00  0.24235316488E+02  0.35862024768E+02  0.43284755049E+02  0.00000000000E+00 0. -1.
</event>
<event>
 7    1  0.2349719E-015  0.9000776E+02  0.7816164E-02  0.1186339E+00
        -11   -1    0    0    0    0  0.00000000000E+00  0.00000000000E+00  0.45593999997E+02  0.45594000000E+02  0.51100000000E-03 0. -1.
         11   -1    0    0    0    0 -0.00000000000E+00 -0.00000000000E+00 -0.45593999997E+02  0.45594000000E+02  0.51100000000E-03 0.  1.
    9900012    2    1    2    0    0 -0.53473230713E+00 -0.47441398149E+00  0.93912063399E+00  0.90007764925E+02  0.90000026622E+02 0.  0.
        -12    1    1    2    0    0  0.53473230713E+00  0.47441398149E+00 -0.93912063399E+00  0.11802350746E+01  0.00000000000E+00 0.  1.
         11    1    3    3    0    0  0.50172534949E+01 -0.98699361864E+01 -0.35648903572E+01  0.11631720272E+02  0.51100000000E-03 0. -1.
        -11    1    3    3    0    0 -0.30257049728E+02  0.21653199840E+00 -0.24684656177E+02  0.39049560755E+02  0.51100000000E-03 0.  1.
         12    1    3    3    0    0  0.24705063926E+02  0.91789902066E+01  0.29188667168E+02  0.39326483899E+02  0.00000000000E+00 0. -1.
</event>
<event>
 7    1  0.2349719E-015  0.9000764E+02  0.7816164E-02  0.1186339E+00
        -11   -1    0    0    0    0  0.00000000000E+00  0.00000000000E+00  0.45593999997E+02  0.45594000000E+02  0.51100000000E-03 0.  1.
         11   -1    0    0    0    0 -0.00000000000E+00 -0.00000000000E+00 -0.45593999997E+02  0.45594000000E+02  0.51100000000E-03 0. -1.
    9900012    2    1    2    0    0 -0.77943574106E+00  0.88056529957E+00  0.10160747601E+00  0.90007644375E+02  0.89999904481E+02 0.  0.
        -12    1    1    2    0    0  0.77943574106E+00 -0.88056529957E+00 -0.10160747601E+00  0.11803556246E+01  0.00000000000E+00 0.  1.
         11    1    3    3    0    0 -0.36783946787E+01  0.87584963943E+01 -0.56900985242E+01  0.11073349447E+02  0.51100000000E-03 0. -1.
        -11    1    3    3    0    0 -0.34551882806E+02 -0.18827993919E+02  0.66461539606E+01  0.39906106340E+02  0.51100000000E-03 0.  1.
         12    1    3    3    0    0  0.37450841744E+02  0.10950062824E+02 -0.85444796040E+00  0.39028188589E+02  0.00000000000E+00 0. -1.
</event>
<event>
 7    1  0.2349719E-015  0.9000738E+02  0.7816164E-02  0.1186340E+00
        -11   -1    0    0    0    0  0.00000000000E+00  0.00000000000E+00  0.45593999997E+02  0.45594000000E+02  0.51100000000E-03 0. -1.
         11   -1    0    0    0    0 -0.00000000000E+00 -0.00000000000E+00 -0.45593999997E+02  0.45594000000E+02  0.51100000000E-03 0.  1.
    9900012    2    1    2    0    0 -0.41407218771E+00  0.10999179613E+01  0.11223247247E+00  0.90007376679E+02  0.89999633250E+02 0.  0.
        -12    1    1    2    0    0  0.41407218771E+00 -0.10999179613E+01 -0.11223247247E+00  0.11806233210E+01  0.00000000000E+00 0.  1.
         11    1    3    3    0    0  0.20640587630E+02  0.28796217315E+02  0.18462437590E+02  0.39951440417E+02  0.51100000000E-03 0. -1.
        -11    1    3    3    0    0  0.45706419309E+01  0.27629670021E+01 -0.67259015489E+01  0.85885101282E+01  0.51100000000E-03 0.  1.
        -12    1    3    3    0    0 -0.25625301749E+02 -0.30459266356E+02 -0.11624303569E+02  0.41467426133E+02  0.00000000000E+00 0.  1.
</event>
<event>
 7    1  0.2349719E-015  0.9000780E+02  0.7816164E-02  0.1186339E+00
        -11   -1    0    0    0    0  0.00000000000E+00  0.00000000000E+00  0.45593999997E+02  0.45594000000E+02  0.51100000000E-03 0.  1.
         11   -1    0    0    0    0 -0.00000000000E+00 -0.00000000000E+00 -0.45593999997E+02  0.45594000000E+02  0.51100000000E-03 0. -1.
    9900012    2    1    2    0    0  0.90606398347E+00 -0.74658006404E+00  0.12057231372E+00  0.90007800264E+02  0.90000062427E+02 0.  0.
        -12    1    1    2    0    0 -0.90606398347E+00  0.74658006404E+00 -0.12057231372E+00  0.11801997361E+01  0.00000000000E+00 0.  1.
         11    1    3    3    0    0  0.69751975250E+01  0.24285943367E+01  0.76425448112E+01  0.10628261496E+02  0.51100000000E-03 0. -1.
        -11    1    3    3    0    0  0.35888349946E+02 -0.85234781150E+00  0.31122068805E+01  0.36033123519E+02  0.51100000000E-03 0.  1.
         12    1    3    3    0    0 -0.41957483487E+02 -0.23228265892E+01 -0.10634179378E+02  0.43346415249E+02  0.00000000000E+00 0. -1.
</event>
<event>
 7    1  0.2349719E-015  0.9000772E+02  0.7816164E-02  0.1186339E+00
        -11   -1    0    0    0    0  0.00000000000E+00  0.00000000000E+00  0.45593999997E+02  0.45594000000E+02  0.51100000000E-03 0.  1.
         11   -1    0    0    0    0 -0.00000000000E+00 -0.00000000000E+00 -0.45593999997E+02  0.45594000000E+02  0.51100000000E-03 0. -1.
    9900012    2    1    2    0    0 -0.72108990821E+00 -0.17062024841E+00 -0.91868750269E+00  0.90007716707E+02  0.89999977767E+02 0.  0.
        -12    1    1    2    0    0  0.72108990821E+00  0.17062024841E+00  0.91868750269E+00  0.11802832933E+01  0.00000000000E+00 0.  1.
         11    1    3    3    0    0 -0.47251057732E+01 -0.51634223605E+01  0.49149583521E+01  0.85524482403E+01  0.51100000000E-03 0. -1.
        -11    1    3    3    0    0  0.37231822885E+02  0.15527754086E+02  0.12285640431E+02  0.42169381586E+02  0.51100000000E-03 0.  1.
         12    1    3    3    0    0 -0.33227807020E+02 -0.10534951974E+02 -0.18119286286E+02  0.39285886880E+02  0.00000000000E+00 0. -1.
</event>
<event>
 7    1  0.2349719E-015  0.9000770E+02  0.7816164E-02  0.1186339E+00
        -11   -1    0    0    0    0  0.00000000000E+00  0.00000000000E+00  0.45593999997E+02  0.45594000000E+02  0.51100000000E-03 0.  1.
         11   -1    0    0    0    0 -0.00000000000E+00 -0.00000000000E+00 -0.45593999997E+02  0.45594000000E+02  0.51100000000E-03 0. -1.
    9900012    2    1    2    0    0 -0.18407794551E+00  0.42441256331E+00 -0.10858595303E+01  0.90007702735E+02  0.89999963611E+02 0.  0.
        -12    1    1    2    0    0  0.18407794551E+00 -0.42441256331E+00  0.10858595303E+01  0.11802972648E+01  0.00000000000E+00 0.  1.
         11    1    3    3    0    0  0.34446920040E+00 -0.38450070969E+01  0.21169691766E+01  0.44027601980E+01  0.51100000000E-03 0. -1.
        -11    1    3    3    0    0 -0.12633793478E+02 -0.37685035614E+02  0.79580523794E+01  0.40535234609E+02  0.51100000000E-03 0.  1.
         12    1    3    3    0    0  0.12105246333E+02  0.41954455274E+02 -0.11160881086E+02  0.45069707928E+02  0.00000000000E+00 0. -1.
</event>
<event>
 7    1  0.2349719E-015  0.9000772E+02  0.7816164E-02  0.1186339E+00
        -11   -1    0    0    0    0  0.00000000000E+00  0.00000000000E+00  0.45593999997E+02  0.45594000000E+02  0.51100000000E-03 0.  1.
         11   -1    0    0    0    0 -0.00000000000E+00 -0.00000000000E+00 -0.45593999997E+02  0.45594000000E+02  0.51100000000E-03 0. -1.
    9900012    2    1    2    0    0  0.99473084112E+00  0.57701253698E+00  0.26577551754E+00  0.90007716331E+02  0.89999977386E+02 0.  0.
        -12    1    1    2    0    0 -0.99473084112E+00 -0.57701253698E+00 -0.26577551754E+00  0.11802836692E+01  0.00000000000E+00 0.  1.
         11    1    3    3    0    0  0.41767616205E+01 -0.10114035555E+02  0.33693288655E+01  0.11449516589E+02  0.51100000000E-03 0. -1.
        -11    1    3    3    0    0 -0.31041556445E+02 -0.16199103519E+02  0.11975876411E+02  0.37005550900E+02  0.51100000000E-03 0.  1.
         12    1    3    3    0    0  0.27859525665E+02  0.26890151611E+02 -0.15079429759E+02  0.41552648842E+02  0.00000000000E+00 0. -1.
</event>
<event>
 7    1  0.2349719E-015  0.9000770E+02  0.7816164E-02  0.1186339E+00
        -11   -1    0    0    0    0  0.00000000000E+00  0.00000000000E+00  0.45593999997E+02  0.45594000000E+02  0.51100000000E-03 0. -1.
         11   -1    0    0    0    0 -0.00000000000E+00 -0.00000000000E+00 -0.45593999997E+02  0.45594000000E+02  0.51100000000E-03 0.  1.
    9900012    2    1    2    0    0 -0.16883270677E+00  0.10304743755E+01  0.55019841044E+00  0.90007703337E+02  0.89999964221E+02 0.  0.
        -12    1    1    2    0    0  0.16883270677E+00 -0.10304743755E+01 -0.55019841044E+00  0.11802966628E+01  0.00000000000E+00 0.  1.
         11    1    3    3    0    0 -0.33835547172E+00 -0.44190209072E+01 -0.10450222548E+02  0.11351184157E+02  0.51100000000E-03 0. -1.
        -11    1    3    3    0    0  0.38019567232E+02 -0.27235310758E+01 -0.95990216851E+00  0.38129077178E+02  0.51100000000E-03 0.  1.
         12    1    3    3    0    0 -0.37850044467E+02  0.81730263585E+01  0.11960323127E+02  0.40527442003E+02  0.00000000000E+00 0. -1.
</event>
<event>
 7    1  0.2349719E-015  0.9000809E+02  0.7816164E-02  0.1186338E+00
        -11   -1    0    0    0    0  0.00000000000E+00  0.00000000000E+00  0.45593999997E+02  0.45594000000E+02  0.51100000000E-03 0.  1.
         11   -1    0    0    0    0 -0.00000000000E+00 -0.00000000000E+00 -0.45593999997E+02  0.45594000000E+02  0.51100000000E-03 0. -1.
    9900012    2    1    2    0    0  0.71873836579E+00 -0.92344581742E+00  0.15113666291E+00  0.90008093518E+02  0.90000359551E+02 0.  0.
        -12    1    1    2    0    0 -0.71873836579E+00  0.92344581742E+00 -0.15113666291E+00  0.11799064823E+01  0.00000000000E+00 0.  1.
         11    1    3    3    0    0  0.21230643110E+02  0.60123016449E+01 -0.30835524959E+02  0.37917246441E+02  0.51100000000E-03 0. -1.
        -11    1    3    3    0    0  0.35589302453E+01  0.49218079110E+01 -0.45303358877E+01  0.75772106425E+01  0.51100000000E-03 0.  1.
        -12    1    3    3    0    0 -0.24070834989E+02 -0.11857555373E+02  0.35516997509E+02  0.44513636434E+02  0.00000000000E+00 0.  1.
</event>
<event>
 7    1  0.2349719E-015  0.9000771E+02  0.7816164E-02  0.1186339E+00
        -11   -1    0    0    0    0  0.00000000000E+00  0.00000000000E+00  0.45593999997E+02  0.45594000000E+02  0.51100000000E-03 0. -1.
         11   -1    0    0    0    0 -0.00000000000E+00 -0.00000000000E+00 -0.45593999997E+02  0.45594000000E+02  0.51100000000E-03 0.  1.
    9900012    2    1    2    0    0 -0.81700395457E+00 -0.84064249948E+00  0.13753216924E+00  0.90007707506E+02  0.89999968445E+02 0.  0.
        -12    1    1    2    0    0  0.81700395457E+00  0.84064249948E+00 -0.13753216924E+00  0.11802924940E+01  0.00000000000E+00 0.  1.
         11    1    3    3    0    0 -0.31573328948E+01 -0.36947287312E+01 -0.96823443773E+01  0.10833631169E+02  0.51100000000E-03 0. -1.
        -11    1    3    3    0    0 -0.29182819829E+02 -0.19300121199E+02 -0.92413284694E+01  0.36187481311E+02  0.51100000000E-03 0.  1.
         12    1    3    3    0    0  0.31523148770E+02  0.22154207431E+02  0.19061205016E+02  0.42986595026E+02  0.00000000000E+00 0. -1.
</event>
<event>
 7    1  0.2349719E-015  0.9000794E+02  0.7816164E-02  0.1186339E+00
        -11   -1    0    0    0    0  0.00000000000E+00  0.00000000000E+00  0.45593999997E+02  0.45594000000E+02  0.51100000000E-03 0.  1.
         11   -1    0    0    0    0 -0.00000000000E+00 -0.00000000000E+00 -0.45593999997E+02  0.45594000000E+02  0.51100000000E-03 0. -1.
    9900012    2    1    2    0    0 -0.55334819375E+00  0.23295246817E+00 -0.10159167209E+01  0.90007937349E+02  0.90000201322E+02 0.  0.
        -12    1    1    2    0    0  0.55334819375E+00 -0.23295246817E+00  0.10159167209E+01  0.11800626508E+01  0.00000000000E+00 0.  1.
         11    1    3    3    0    0 -0.29126624960E+01  0.31153208949E+01 -0.25474773482E+01  0.49677427665E+01  0.51100000000E-03 0. -1.
        -11    1    3    3    0    0 -0.16938005946E+02  0.14025370720E+02  0.35931025910E+02  0.42126543799E+02  0.51100000000E-03 0.  1.
         12    1    3    3    0    0  0.19297320249E+02 -0.16907739146E+02 -0.34399465283E+02  0.42913650783E+02  0.00000000000E+00 0. -1.
</event>
<event>
 7    1  0.2349719E-015  0.9000759E+02  0.7816164E-02  0.1186339E+00
        -11   -1    0    0    0    0  0.00000000000E+00  0.00000000000E+00  0.45593999997E+02  0.45594000000E+02  0.51100000000E-03 0. -1.
         11   -1    0    0    0    0 -0.00000000000E+00 -0.00000000000E+00 -0.45593999997E+02  0.45594000000E+02  0.51100000000E-03 0.  1.
    9900012    2    1    2    0    0  0.18069604572E+00 -0.67179415786E+00  0.95362653836E+00  0.90007592432E+02  0.89999851852E+02 0.  0.
        -12    1    1    2    0    0 -0.18069604572E+00  0.67179415786E+00 -0.95362653836E+00  0.11804075678E+01  0.00000000000E+00 0.  1.
         11    1    3    3    0    0  0.10783583799E+02 -0.30847446217E+02  0.20714396059E+02  0.38690267795E+02  0.51100000000E-03 0. -1.
        -11    1    3    3    0    0  0.13631554616E+01 -0.75879047236E+01 -0.24832546977E+01  0.80994472071E+01  0.51100000000E-03 0.  1.
        -12    1    3    3    0    0 -0.11966043215E+02  0.37763556783E+02 -0.17277514823E+02  0.43217877430E+02  0.00000000000E+00 0.  1.
</event>
<event>
 7    1  0.2349719E-015  0.9000773E+02  0.7816164E-02  0.1186339E+00
        -11   -1    0    0    0    0  0.00000000000E+00  0.00000000000E+00  0.45593999997E+02  0.45594000000E+02  0.51100000000E-03 0.  1.
         11   -1    0    0    0    0 -0.00000000000E+00 -0.00000000000E+00 -0.45593999997E+02  0.45594000000E+02  0.51100000000E-03 0. -1.
    9900012    2    1    2    0    0  0.34616284439E+00  0.10328135412E+01  0.45441785142E+00  0.90007733882E+02  0.89999995169E+02 0.  0.
        -12    1    1    2    0    0 -0.34616284439E+00 -0.10328135412E+01 -0.45441785142E+00  0.11802661180E+01  0.00000000000E+00 0.  1.
         11    1    3    3    0    0 -0.97508244722E+01  0.18083759770E+02 -0.34119448684E+01  0.20826481060E+02  0.51100000000E-03 0. -1.
        -11    1    3    3    0    0  0.31739045203E+02 -0.25556259579E+01  0.20872745016E+02  0.38073214984E+02  0.51100000000E-03 0.  1.
         12    1    3    3    0    0 -0.21642057887E+02 -0.14495320271E+02 -0.17006382296E+02  0.31108037838E+02  0.00000000000E+00 0. -1.
</event>
<event>
 7    1  0.2349719E-015  0.9000766E+02  0.7816164E-02  0.1186339E+00
        -11   -1    0    0    0    0  0.00000000000E+00  0.00000000000E+00  0.45593999997E+02  0.45594000000E+02  0.51100000000E-03 0. -1.
         11   -1    0    0    0    0 -0.00000000000E+00 -0.00000000000E+00 -0.45593999997E+02  0.45594000000E+02  0.51100000000E-03 0.  1.
    9900012    2    1    2    0    0  0.82492128947E+00 -0.18668935855E-01  0.84401046961E+00  0.90007662194E+02  0.89999922535E+02 0.  0.
        -12    1    1    2    0    0 -0.82492128947E+00  0.18668935855E-01 -0.84401046961E+00  0.11803378058E+01  0.00000000000E+00 0.  1.
         11    1    3    3    0    0  0.26910797324E+02  0.22040172156E+02  0.15905794967E+02  0.38248588406E+02  0.51100000000E-03 0. -1.
        -11    1    3    3    0    0  0.48339014540E+00 -0.45141972374E+01  0.10167923300E+02  0.11135452718E+02  0.51100000000E-03 0.  1.
        -12    1    3    3    0    0 -0.26569266180E+02 -0.17544643855E+02 -0.25229707797E+02  0.40623621070E+02  0.00000000000E+00 0.  1.
</event>
<event>
 7    1  0.2349719E-015  0.9000808E+02  0.7816164E-02  0.1186338E+00
        -11   -1    0    0    0    0  0.00000000000E+00  0.00000000000E+00  0.45593999997E+02  0.45594000000E+02  0.51100000000E-03 0.  1.
         11   -1    0    0    0    0 -0.00000000000E+00 -0.00000000000E+00 -0.45593999997E+02  0.45594000000E+02  0.51100000000E-03 0. -1.
    9900012    2    1    2    0    0 -0.11059286292E+01  0.24651317230E+00 -0.32918420959E+00  0.90008080884E+02  0.90000346751E+02 0.  0.
        -12    1    1    2    0    0  0.11059286292E+01 -0.24651317230E+00  0.32918420959E+00  0.11799191162E+01  0.00000000000E+00 0.  1.
         11    1    3    3    0    0 -0.25148833003E+02 -0.16553457537E+02 -0.17813621403E+02  0.34982936778E+02  0.51100000000E-03 0. -1.
        -11    1    3    3    0    0 -0.10206836179E+02 -0.25490904023E+01 -0.26290941516E+01  0.10843869373E+02  0.51100000000E-03 0.  1.
        -12    1    3    3    0    0  0.34249740553E+02  0.19349061111E+02  0.20113531345E+02  0.44181274733E+02  0.00000000000E+00 0.  1.
</event>
<event>
 7    1  0.2349719E-015  0.9000783E+02  0.7816164E-02  0.1186339E+00
        -11   -1    0    0    0    0  0.00000000000E+00  0.00000000000E+00  0.45593999997E+02  0.45594000000E+02  0.51100000000E-03 0.  1.
         11   -1    0    0    0    0 -0.00000000000E+00 -0.00000000000E+00 -0.45593999997E+02  0.45594000000E+02  0.51100000000E-03 0. -1.
    9900012    2    1    2    0    0 -0.23447855458E+00 -0.11564097396E+01  0.23214858569E-01  0.90007829416E+02  0.90000091964E+02 0.  0.
        -12    1    1    2    0    0  0.23447855458E+00  0.11564097396E+01 -0.23214858569E-01  0.11801705843E+01  0.00000000000E+00 0.  1.
         11    1    3    3    0    0 -0.15103082503E+01 -0.78471748973E+01  0.61693533884E+01  0.10095548840E+02  0.51100000000E-03 0. -1.
        -11    1    3    3    0    0  0.58216367655E+01 -0.21426827265E+02  0.27813609683E+02  0.35589285819E+02  0.51100000000E-03 0.  1.
         12    1    3    3    0    0 -0.45458070698E+01  0.28117592423E+02 -0.33959748212E+02  0.44322994757E+02  0.00000000000E+00 0. -1.
</event>
<event>
 7    1  0.2349719E-015  0.9000782E+02  0.7816164E-02  0.1186339E+00
        -11   -1    0    0    0    0  0.00000000000E+00  0.00000000000E+00  0.45593999997E+02  0.45594000000E+02  0.51100000000E-03 0.  1.
         11   -1    0    0    0    0 -0.00000000000E+00 -0.00000000000E+00 -0.45593999997E+02  0.45594000000E+02  0.51100000000E-03 0. -1.
    9900012    2    1    2    0    0  0.62090591185E+00  0.61977991277E+00 -0.78940895633E+00  0.90007822983E+02  0.90000085446E+02 0.  0.
        -12    1    1    2    0    0 -0.62090591185E+00 -0.61977991277E+00  0.78940895633E+00  0.11801770172E+01  0.00000000000E+00 0.  1.
         11    1    3    3    0    0 -0.46267822106E+01  0.82239675521E+01  0.22949898488E+01  0.97112169469E+01  0.51100000000E-03 0. -1.
        -11    1    3    3    0    0 -0.49166607777E+01 -0.30076077406E+02  0.27470934780E+02  0.41029212072E+02  0.51100000000E-03 0.  1.
         12    1    3    3    0    0  0.10164348900E+02  0.22471889766E+02 -0.30555333585E+02  0.39267393964E+02  0.00000000000E+00 0. -1.
</event>
<event>
 7    1  0.2349719E-015  0.9000777E+02  0.7816164E-02  0.1186339E+00
        -11   -1    0    0    0    0  0.00000000000E+00  0.00000000000E+00  0.45593999997E+02  0.45594000000E+02  0.51100000000E-03 0. -1.
         11   -1    0    0    0    0 -0.00000000000E+00 -0.00000000000E+00 -0.45593999997E+02  0.45594000000E+02  0.51100000000E-03 0.  1.
    9900012    2    1    2    0    0  0.91061802668E+00  0.60304856806E+00 -0.44726304311E+00  0.90007772481E+02  0.90000034278E+02 0.  0.
        -12    1    1    2    0    0 -0.91061802668E+00 -0.60304856806E+00  0.44726304311E+00  0.11802275186E+01  0.00000000000E+00 0.  1.
         11    1    3    3    0    0  0.12595728027E+02  0.91005781239E+01  0.84798126664E+01  0.17702545293E+02  0.51100000000E-03 0. -1.
        -11    1    3    3    0    0  0.33528035290E+01 -0.30315009799E+02 -0.26587351010E+02  0.40461442690E+02  0.51100000000E-03 0.  1.
         12    1    3    3    0    0 -0.15037913530E+02  0.21817480243E+02  0.17660275300E+02  0.31843784498E+02  0.00000000000E+00 0. -1.
</event>
<event>
 7    1  0.2349719E-015  0.9000759E+02  0.7816164E-02  0.1186339E+00
        -11   -1    0    0    0    0  0.00000000000E+00  0.00000000000E+00  0.45593999997E+02  0.45594000000E+02  0.51100000000E-03 0.  1.
         11   -1    0    0    0    0 -0.00000000000E+00 -0.00000000000E+00 -0.45593999997E+02  0.45594000000E+02  0.51100000000E-03 0. -1.
    9900012    2    1    2    0    0 -0.48252296751E+00 -0.48071257651E+00 -0.96408573040E+00  0.90007587237E+02  0.89999846588E+02 0.  0.
        -12    1    1    2    0    0  0.48252296751E+00  0.48071257651E+00  0.96408573040E+00  0.11804127630E+01  0.00000000000E+00 0.  1.
         11    1    3    3    0    0  0.28172372248E+01 -0.33634067459E+01 -0.51384880908E+01  0.67567292857E+01  0.51100000000E-03 0. -1.
        -11    1    3    3    0    0  0.13590447182E+02  0.33173013707E+01  0.40683612325E+02  0.43021634733E+02  0.51100000000E-03 0.  1.
         12    1    3    3    0    0 -0.16890207374E+02 -0.43460720139E+00 -0.36509209965E+02  0.40229223219E+02  0.00000000000E+00 0. -1.
</event>
<event>
 7    1  0.2349719E-015  0.9000895E+02  0.7816164E-02  0.1186337E+00
        -11   -1    0    0    0    0  0.00000000000E+00  0.00000000000E+00  0.45593999997E+02  0.45594000000E+02  0.51100000000E-03 0. -1.
         11   -1    0    0    0    0 -0.00000000000E+00 -0.00000000000E+00 -0.45593999997E+02  0.45594000000E+02  0.51100000000E-03 0.  1.
    9900012    2    1    2    0    0  0.62186759736E+00  0.66585824375E+00  0.74837453232E+00  0.90008953372E+02  0.90001230749E+02 0.  0.
        -12    1    1    2    0    0 -0.62186759736E+00 -0.66585824375E+00 -0.74837453232E+00  0.11790466276E+01  0.00000000000E+00 0.  1.
         11    1    3    3    0    0  0.27262132952E+01 -0.27320113845E+01 -0.71633474521E+01  0.81369325988E+01  0.51100000000E-03 0. -1.
        -11    1    3    3    0    0  0.20773412152E+02 -0.64963681232E+01 -0.29656814757E+02  0.36786738277E+02  0.51100000000E-03 0.  1.
         12    1    3    3    0    0 -0.22877757850E+02  0.98942377514E+01  0.37568536741E+02  0.45085282497E+02  0.00000000000E+00 0. -1.
</event>
<event>
 7    1  0.2349719E-015  0.9000777E+02  0.7816164E-02  0.1186339E+00
        -11   -1    0    0    0    0  0.00000000000E+00  0.00000000000E+00  0.45593999997E+02  0.45594000000E+02  0.51100000000E-03 0. -1.
         11   -1    0    0    0    0 -0.00000000000E+00 -0.00000000000E+00 -0.45593999997E+02  0.45594000000E+02  0.51100000000E-03 0.  1.
    9900012    2    1    2    0    0  0.18847979942E+00 -0.94265725459E+00  0.68470183618E+00  0.90007769540E+02  0.90000031298E+02 0.  0.
        -12    1    1    2    0    0 -0.18847979942E+00  0.94265725459E+00 -0.68470183618E+00  0.11802304601E+01  0.00000000000E+00 0.  1.
         11    1    3    3    0    0  0.32008953559E+02  0.20534184411E+02  0.82074036963E+01  0.38904849480E+02  0.51100000000E-03 0. -1.
        -11    1    3    3    0    0 -0.57864011469E+01  0.64402596369E+01  0.60796847107E+01  0.10579317032E+02  0.51100000000E-03 0.  1.
        -12    1    3    3    0    0 -0.26034072613E+02 -0.27917101302E+02 -0.13602386571E+02  0.40523603028E+02  0.00000000000E+00 0.  1.
</event>
<event>
 7    1  0.2349719E-015  0.9000799E+02  0.7816164E-02  0.1186339E+00
        -11   -1    0    0    0    0  0.00000000000E+00  0.00000000000E+00  0.45593999997E+02  0.45594000000E+02  0.51100000000E-03 0.  1.
         11   -1    0    0    0    0 -0.00000000000E+00 -0.00000000000E+00 -0.45593999997E+02  0.45594000000E+02  0.51100000000E-03 0. -1.
    9900012    2    1    2    0    0 -0.64884358141E+00 -0.95499259397E+00 -0.24374515612E+00  0.90007991293E+02  0.90000255978E+02 0.  0.
        -12    1    1    2    0    0  0.64884358141E+00  0.95499259397E+00  0.24374515612E+00  0.11800087071E+01  0.00000000000E+00 0.  1.
         11    1    3    3    0    0 -0.99217886049E+01 -0.11409715331E+01 -0.29828513806E+01  0.10423104517E+02  0.51100000000E-03 0. -1.
        -11    1    3    3    0    0 -0.27579381232E+01 -0.11861661871E+02  0.38283120890E+02  0.40173406507E+02  0.51100000000E-03 0.  1.
         12    1    3    3    0    0  0.12030883147E+02  0.12047640811E+02 -0.35544014666E+02  0.39411480268E+02  0.00000000000E+00 0. -1.
</event>
<event>
 7    1  0.2349719E-015  0.9000788E+02  0.7816164E-02  0.1186339E+00
        -11   -1    0    0    0    0  0.00000000000E+00  0.00000000000E+00  0.45593999997E+02  0.45594000000E+02  0.51100000000E-03 0. -1.
         11   -1    0    0    0    0 -0.00000000000E+00 -0.00000000000E+00 -0.45593999997E+02  0.45594000000E+02  0.51100000000E-03 0.  1.
    9900012    2    1    2    0    0  0.85034958251E+00  0.57008186429E+00  0.58702937630E+00  0.90007876603E+02  0.90000139774E+02 0.  0.
        -12    1    1    2    0    0 -0.85034958251E+00 -0.57008186429E+00 -0.58702937630E+00  0.11801233974E+01  0.00000000000E+00 0.  1.
         11    1    3    3    0    0  0.23671697817E+02  0.10006748508E+02  0.24841021278E+02  0.35742980173E+02  0.51100000000E-03 0. -1.
        -11    1    3    3    0    0  0.58840701809E+01 -0.13467373473E+01  0.82042656765E+01  0.10185576023E+02  0.51100000000E-03 0.  1.
        -12    1    3    3    0    0 -0.28705418415E+02 -0.80899292967E+01 -0.32458257579E+02  0.44079320406E+02  0.00000000000E+00 0.  1.
</event>
<event>
 7    1  0.2349719E-015  0.9000768E+02  0.7816164E-02  0.1186339E+00
        -11   -1    0    0    0    0  0.00000000000E+00  0.00000000000E+00  0.45593999997E+02  0.45594000000E+02  0.51100000000E-03 0.  1.
         11   -1    0    0    0    0 -0.00000000000E+00 -0.00000000000E+00 -0.45593999997E+02  0.45594000000E+02  0.51100000000E-03 0. -1.
    9900012    2    1    2    0    0 -0.12738593657E+00  0.67885258547E+00 -0.95711906718E+00  0.90007684399E+02  0.89999945033E+02 0.  0.
        -12    1    1    2    0    0  0.12738593657E+00 -0.67885258547E+00  0.95711906718E+00  0.11803156012E+01  0.00000000000E+00 0.  1.
         11    1    3    3    0    0  0.56529914915E+01 -0.23942884425E+01 -0.91125424974E+01  0.10987600328E+02  0.51100000000E-03 0. -1.
        -11    1    3    3    0    0  0.33857075931E+02 -0.11119267193E+02 -0.20637288746E+01  0.35695919523E+02  0.51100000000E-03 0.  1.
         12    1    3    3    0    0 -0.39637453359E+02  0.14192408221E+02  0.10219152305E+02  0.43324164547E+02  0.00000000000E+00 0. -1.
</event>
<event>
 7    1  0.2349719E-015  0.9000774E+02  0.7816164E-02  0.1186339E+00
        -11   -1    0    0    0    0  0.00000000000E+00  0.00000000000E+00  0.45593999997E+02  0.45594000000E+02  0.51100000000E-03 0.  1.
         11   -1    0    0    0    0 -0.00000000000E+00 -0.00000000000E+00 -0.45593999997E+02  0.45594000000E+02  0.51100000000E-03 0. -1.
    9900012    2    1    2    0    0  0.35252385771E+00 -0.11239531743E+00  0.11207671774E+01  0.90007735265E+02  0.89999996571E+02 0.  0.
        -12    1    1    2    0    0 -0.35252385771E+00  0.11239531743E+00 -0.11207671774E+01  0.11802647345E+01  0.00000000000E+00 0.  1.
         11    1    3    3    0    0 -0.46779515604E+01 -0.16865908603E+02 -0.55563072368E+01  0.18363405299E+02  0.51100000000E-03 0. -1.
        -11    1    3    3    0    0  0.32653626807E+02  0.16755833528E+02  0.19079363147E+02  0.41364712005E+02  0.51100000000E-03 0.  1.
         12    1    3    3    0    0 -0.27623151389E+02 -0.23202417383E-02 -0.12402288733E+02  0.30279617961E+02  0.00000000000E+00 0. -1.
</event>
<event>
 7    1  0.2349719E-015  0.9000781E+02  0.7816164E-02  0.1186339E+00
        -11   -1    0    0    0    0  0.00000000000E+00  0.00000000000E+00  0.45593999997E+02  0.45594000000E+02  0.51100000000E-03 0.  1.
         11   -1    0    0    0    0 -0.00000000000E+00 -0.00000000000E+00 -0.45593999997E+02  0.45594000000E+02  0.51100000000E-03 0. -1.
    9900012    2    1    2    0    0  0.71848546635E+00  0.92923846870E+00 -0.11460669769E+00  0.90007813493E+02  0.90000075831E+02 0.  0.
        -12    1    1    2    0    0 -0.71848546635E+00 -0.92923846870E+00  0.11460669769E+00  0.11801865074E+01  0.00000000000E+00 0.  1.
         11    1    3    3    0    0  0.25638940653E+01  0.22307235578E+02  0.27628880584E+01  0.22623436136E+02  0.51100000000E-03 0. -1.
        -11    1    3    3    0    0  0.17014399600E+02  0.17140848310E+02 -0.40050713328E+01  0.24481402557E+02  0.51100000000E-03 0.  1.
        -12    1    3    3    0    0 -0.18859808199E+02 -0.38518845419E+02  0.11275765767E+01  0.42902974800E+02  0.00000000000E+00 0.  1.
</event>
<event>
 7    1  0.2349719E-015  0.9000698E+02  0.7816164E-02  0.1186341E+00
        -11   -1    0    0    0    0  0.00000000000E+00  0.00000000000E+00  0.45593999997E+02  0.45594000000E+02  0.51100000000E-03 0.  1.
         11   -1    0    0    0    0 -0.00000000000E+00 -0.00000000000E+00 -0.45593999997E+02  0.45594000000E+02  0.51100000000E-03 0. -1.
    9900012    2    1    2    0    0  0.94312090303E+00 -0.54668775745E+00 -0.45437202694E+00  0.90006984132E+02  0.89999235519E+02 0.  0.
        -12    1    1    2    0    0 -0.94312090303E+00  0.54668775745E+00  0.45437202694E+00  0.11810158681E+01  0.00000000000E+00 0.  1.
         11    1    3    3    0    0  0.76022933286E+01 -0.69035609135E+01  0.32323829233E+01  0.10765793829E+02  0.51100000000E-03 0. -1.
        -11    1    3    3    0    0  0.18414787556E+02 -0.14744539190E+02  0.25940206442E+02  0.35062802900E+02  0.51100000000E-03 0.  1.
         12    1    3    3    0    0 -0.25073959982E+02  0.21101412347E+02 -0.29626961392E+02  0.44178387403E+02  0.00000000000E+00 0. -1.
</event>
<event>
 7    1  0.2349719E-015  0.9000780E+02  0.7816164E-02  0.1186339E+00
        -11   -1    0    0    0    0  0.00000000000E+00  0.00000000000E+00  0.45593999997E+02  0.45594000000E+02  0.51100000000E-03 0. -1.
         11   -1    0    0    0    0 -0.00000000000E+00 -0.00000000000E+00 -0.45593999997E+02  0.45594000000E+02  0.51100000000E-03 0.  1.
    9900012    2    1    2    0    0 -0.55083708372E+00 -0.95467787623E+00  0.42194050520E+00  0.90007802927E+02  0.90000065126E+02 0.  0.
        -12    1    1    2    0    0  0.55083708372E+00  0.95467787623E+00 -0.42194050520E+00  0.11801970726E+01  0.00000000000E+00 0.  1.
         11    1    3    3    0    0  0.32574443015E+02  0.13433889158E+02  0.11738510786E+02  0.37139687012E+02  0.51100000000E-03 0. -1.
        -11    1    3    3    0    0  0.62299631165E+01  0.45672286419E+01  0.73473072928E-01  0.77251159508E+01  0.51100000000E-03 0.  1.
        -12    1    3    3    0    0 -0.39355243215E+02 -0.18955795676E+02 -0.11390043354E+02  0.45142999965E+02  0.00000000000E+00 0.  1.
</event>
<event>
 7    1  0.2349719E-015  0.9000771E+02  0.7816164E-02  0.1186339E+00
        -11   -1    0    0    0    0  0.00000000000E+00  0.00000000000E+00  0.45593999997E+02  0.45594000000E+02  0.51100000000E-03 0.  1.
         11   -1    0    0    0    0 -0.00000000000E+00 -0.00000000000E+00 -0.45593999997E+02  0.45594000000E+02  0.51100000000E-03 0. -1.
    9900012    2    1    2    0    0  0.83747461987E+00 -0.25975924754E+00 -0.79008574830E+00  0.90007714401E+02  0.89999975431E+02 0.  0.
        -12    1    1    2    0    0 -0.83747461987E+00  0.25975924754E+00  0.79008574830E+00  0.11802855990E+01  0.00000000000E+00 0.  1.
         11    1    3    3    0    0 -0.26584024919E+02  0.34642423597E+00 -0.25929696141E+02  0.37137306484E+02  0.51100000000E-03 0. -1.
        -11    1    3    3    0    0  0.28157305513E+01  0.20344998179E+01 -0.96048228347E+01  0.10213723611E+02  0.51100000000E-03 0.  1.
        -12    1    3    3    0    0  0.24605768988E+02 -0.26406833014E+01  0.34744433227E+02  0.42656684307E+02  0.00000000000E+00 0.  1.
</event>
<event>
 7    1  0.2349719E-015  0.9000778E+02  0.7816164E-02  0.1186339E+00
        -11   -1    0    0    0    0  0.00000000000E+00  0.00000000000E+00  0.45593999997E+02  0.45594000000E+02  0.51100000000E-03 0.  1.
         11   -1    0    0    0    0 -0.00000000000E+00 -0.00000000000E+00 -0.45593999997E+02  0.45594000000E+02  0.51100000000E-03 0. -1.
    9900012    2    1    2    0    0 -0.45166356147E+00  0.89153703949E+00 -0.62776481741E+00  0.90007776745E+02  0.90000038598E+02 0.  0.
        -12    1    1    2    0    0  0.45166356147E+00 -0.89153703949E+00  0.62776481741E+00  0.11802232550E+01  0.00000000000E+00 0.  1.
         11    1    3    3    0    0  0.15910934553E+02  0.78903098207E+01 -0.33413097901E+02  0.37839793063E+02  0.51100000000E-03 0. -1.
        -11    1    3    3    0    0  0.61722739688E+01  0.90373138617E+01  0.26419499876E+01  0.11258326154E+02  0.51100000000E-03 0.  1.
        -12    1    3    3    0    0 -0.22534872083E+02 -0.16036086643E+02  0.30143383096E+02  0.40909657529E+02  0.00000000000E+00 0.  1.
</event>
<event>
 7    1  0.2349719E-015  0.9000771E+02  0.7816164E-02  0.1186339E+00
        -11   -1    0    0    0    0  0.00000000000E+00  0.00000000000E+00  0.45593999997E+02  0.45594000000E+02  0.51100000000E-03 0. -1.
         11   -1    0    0    0    0 -0.00000000000E+00 -0.00000000000E+00 -0.45593999997E+02  0.45594000000E+02  0.51100000000E-03 0.  1.
    9900012    2    1    2    0    0 -0.63057629706E+00 -0.20623727962E+00  0.97617753549E+00  0.90007710687E+02  0.89999971668E+02 0.  0.
        -12    1    1    2    0    0  0.63057629706E+00  0.20623727962E+00 -0.97617753549E+00  0.11802893131E+01  0.00000000000E+00 0.  1.
         11    1    3    3    0    0 -0.39349408982E+02 -0.12575292523E+02  0.74812493344E+01  0.41981937320E+02  0.51100000000E-03 0. -1.
        -11    1    3    3    0    0  0.58450577520E+01 -0.70514975645E+01  0.63955010002E+00  0.91813584298E+01  0.51100000000E-03 0.  1.
        -12    1    3    3    0    0  0.32873774933E+02  0.19420552808E+02 -0.71446218990E+01  0.38844414937E+02  0.00000000000E+00 0.  1.
</event>
<event>
 7    1  0.2349719E-015  0.9000777E+02  0.7816164E-02  0.1186339E+00
        -11   -1    0    0    0    0  0.00000000000E+00  0.00000000000E+00  0.45593999997E+02  0.45594000000E+02  0.51100000000E-03 0. -1.
         11   -1    0    0    0    0 -0.00000000000E+00 -0.00000000000E+00 -0.45593999997E+02  0.45594000000E+02  0.51100000000E-03 0.  1.
    9900012    2    1    2    0    0 -0.28841653568E+00  0.10596429993E+01 -0.43234921803E+00  0.90007765604E+02  0.90000027310E+02 0.  0.
        -12    1    1    2    0    0  0.28841653568E+00 -0.10596429993E+01  0.43234921803E+00  0.11802343963E+01  0.00000000000E+00 0.  1.
         11    1    3    3    0    0  0.13977969736E+02  0.24688876532E+02  0.14875938543E+02  0.32034634540E+02  0.51100000000E-03 0. -1.
        -11    1    3    3    0    0  0.72322508554E+01  0.11534899092E+02  0.99366552569E+00  0.13650887185E+02  0.51100000000E-03 0.  1.
        -12    1    3    3    0    0 -0.21498637127E+02 -0.35164132624E+02 -0.16301953287E+02  0.44322243879E+02  0.00000000000E+00 0.  1.
</event>
<event>
 7    1  0.2349719E-015  0.9000780E+02  0.7816164E-02  0.1186339E+00
        -11   -1    0    0    0    0  0.00000000000E+00  0.00000000000E+00  0.45593999997E+02  0.45594000000E+02  0.51100000000E-03 0.  1.
         11   -1    0    0    0    0 -0.00000000000E+00 -0.00000000000E+00 -0.45593999997E+02  0.45594000000E+02  0.51100000000E-03 0. -1.
    9900012    2    1    2    0    0  0.10636984332E+00 -0.94638936085E+00  0.69706039601E+00  0.90007804863E+02  0.90000067087E+02 0.  0.
        -12    1    1    2    0    0 -0.10636984332E+00  0.94638936085E+00 -0.69706039601E+00  0.11801951371E+01  0.00000000000E+00 0.  1.
         11    1    3    3    0    0  0.12437608627E+02  0.16199088971E+01  0.45595344295E+01  0.13345694724E+02  0.51100000000E-03 0. -1.
        -11    1    3    3    0    0 -0.87450588958E+01  0.20816831357E+02  0.28634987039E+02  0.36466135055E+02  0.51100000000E-03 0.  1.
         12    1    3    3    0    0 -0.35861798877E+01 -0.23383129615E+02 -0.32497461073E+02  0.40195975084E+02  0.00000000000E+00 0. -1.
</event>
<event>
 7    1  0.2349719E-015  0.9000776E+02  0.7816164E-02  0.1186339E+00
        -11   -1    0    0    0    0  0.00000000000E+00  0.00000000000E+00  0.45593999997E+02  0.45594000000E+02  0.51100000000E-03 0.  1.
         11   -1    0    0    0    0 -0.00000000000E+00 -0.00000000000E+00 -0.45593999997E+02  0.45594000000E+02  0.51100000000E-03 0. -1.
    9900012    2    1    2    0    0 -0.51306336660E+00  0.42855777907E+00 -0.97266233928E+00  0.90007759425E+02  0.90000021050E+02 0.  0.
        -12    1    1    2    0    0  0.51306336660E+00 -0.42855777907E+00  0.97266233928E+00  0.11802405748E+01  0.00000000000E+00 0.  1.
         11    1    3    3    0    0  0.29644057851E+02  0.22730888869E+02  0.62252769998E+01  0.37871064794E+02  0.51100000000E-03 0. -1.
        -11    1    3    3    0    0  0.55977444280E+01 -0.17283858206E+01  0.64239109301E+01  0.86941757588E+01  0.51100000000E-03 0.  1.
        -12    1    3    3    0    0 -0.35754865645E+02 -0.20573945269E+02 -0.13621850269E+02  0.43442518873E+02  0.00000000000E+00 0.  1.
</event>
<event>
 7    1  0.2349719E-015  0.9000782E+02  0.7816164E-02  0.1186339E+00
        -11   -1    0    0    0    0  0.00000000000E+00  0.00000000000E+00  0.45593999997E+02  0.45594000000E+02  0.51100000000E-03 0.  1.
         11   -1    0    0    0    0 -0.00000000000E+00 -0.00000000000E+00 -0.45593999997E+02  0.45594000000E+02  0.51100000000E-03 0. -1.
    9900012    2    1    2    0    0  0.30856564485E+00 -0.10943012254E+01  0.31641035466E+00  0.90007820589E+02  0.90000083021E+02 0.  0.
        -12    1    1    2    0    0 -0.30856564485E+00  0.10943012254E+01 -0.31641035466E+00  0.11801794108E+01  0.00000000000E+00 0.  1.
         11    1    3    3    0    0 -0.57756724339E+01  0.22966264712E+01 -0.69924255108E+01  0.93555812217E+01  0.51100000000E-03 0. -1.
        -11    1    3    3    0    0 -0.24547186633E+02 -0.23753140262E+02 -0.15352807640E+02  0.37449762971E+02  0.51100000000E-03 0.  1.
         12    1    3    3    0    0  0.30631424711E+02  0.20362212566E+02  0.22661643506E+02  0.43202476396E+02  0.00000000000E+00 0. -1.
</event>
<event>
 7    1  0.2349719E-015  0.9000769E+02  0.7816164E-02  0.1186339E+00
        -11   -1    0    0    0    0  0.00000000000E+00  0.00000000000E+00  0.45593999997E+02  0.45594000000E+02  0.51100000000E-03 0.  1.
         11   -1    0    0    0    0 -0.00000000000E+00 -0.00000000000E+00 -0.45593999997E+02  0.45594000000E+02  0.51100000000E-03 0. -1.
    9900012    2    1    2    0    0 -0.10751946430E+01 -0.44528784150E+00 -0.19697978951E+00  0.90007692489E+02  0.89999953230E+02 0.  0.
        -12    1    1    2    0    0  0.10751946430E+01  0.44528784150E+00  0.19697978951E+00  0.11803075106E+01  0.00000000000E+00 0.  1.
         11    1    3    3    0    0  0.14787224950E+02  0.33258019062E+02  0.51351857760E+01  0.36757692894E+02  0.51100000000E-03 0. -1.
        -11    1    3    3    0    0  0.30984790756E+01  0.59591713898E+01 -0.63969935601E+01  0.92754419358E+01  0.51100000000E-03 0.  1.
        -12    1    3    3    0    0 -0.18960898669E+02 -0.39662478293E+02  0.10648279946E+01  0.43974557660E+02  0.00000000000E+00 0.  1.
</event>
<event>
 7    1  0.2349719E-015  0.9000718E+02  0.7816164E-02  0.1186340E+00
        -11   -1    0    0    0    0  0.00000000000E+00  0.00000000000E+00  0.45593999997E+02  0.45594000000E+02  0.51100000000E-03 0. -1.
         11   -1    0    0    0    0 -0.00000000000E+00 -0.00000000000E+00 -0.45593999997E+02  0.45594000000E+02  0.51100000000E-03 0.  1.
    9900012    2    1    2    0    0 -0.68786919970E+00  0.95976943972E+00  0.28952821668E-02  0.90007182573E+02  0.89999436581E+02 0.  0.
        -12    1    1    2    0    0  0.68786919970E+00 -0.95976943972E+00 -0.28952821668E-02  0.11808174270E+01  0.00000000000E+00 0.  1.
         11    1    3    3    0    0 -0.55839244008E+01 -0.14051764819E+02 -0.23172818996E+01  0.15297127244E+02  0.51100000000E-03 0. -1.
        -11    1    3    3    0    0 -0.17106957581E+02 -0.21319397004E+02 -0.12047440099E+02  0.29871483048E+02  0.51100000000E-03 0.  1.
         12    1    3    3    0    0  0.22003012782E+02  0.36330931263E+02  0.14367617281E+02  0.44838572281E+02  0.00000000000E+00 0. -1.
</event>
<event>
 7    1  0.2349719E-015  0.9000773E+02  0.7816164E-02  0.1186339E+00
        -11   -1    0    0    0    0  0.00000000000E+00  0.00000000000E+00  0.45593999997E+02  0.45594000000E+02  0.51100000000E-03 0. -1.
         11   -1    0    0    0    0 -0.00000000000E+00 -0.00000000000E+00 -0.45593999997E+02  0.45594000000E+02  0.51100000000E-03 0.  1.
    9900012    2    1    2    0    0 -0.11455449167E+00 -0.96889609343E+00  0.66418868777E+00  0.90007733511E+02  0.89999994794E+02 0.  0.
        -12    1    1    2    0    0  0.11455449167E+00  0.96889609343E+00 -0.66418868777E+00  0.11802664887E+01  0.00000000000E+00 0.  1.
         11    1    3    3    0    0  0.47448683615E+01 -0.64877618285E+01  0.26670102836E+01  0.84686346848E+01  0.51100000000E-03 0. -1.
        -11    1    3    3    0    0  0.27537718132E+02 -0.12440111310E+02  0.22020057098E+02  0.37389372878E+02  0.51100000000E-03 0.  1.
         12    1    3    3    0    0 -0.32397140985E+02  0.17958977045E+02 -0.24022878694E+02  0.44149725948E+02  0.00000000000E+00 0. -1.
</event>
<event>
 7    1  0.2349719E-015  0.9000774E+02  0.7816164E-02  0.1186339E+00
        -11   -1    0    0    0    0  0.00000000000E+00  0.00000000000E+00  0.45593999997E+02  0.45594000000E+02  0.51100000000E-03 0.  1.
         11   -1    0    0    0    0 -0.00000000000E+00 -0.00000000000E+00 -0.45593999997E+02  0.45594000000E+02  0.51100000000E-03 0. -1.
    9900012    2    1    2    0    0  0.26597505902E+00  0.90783454295E+00 -0.70576703882E+00  0.90007740112E+02  0.90000001482E+02 0.  0.
        -12    1    1    2    0    0 -0.26597505902E+00 -0.90783454295E+00  0.70576703882E+00  0.11802598877E+01  0.00000000000E+00 0.  1.
         11    1    3    3    0    0  0.53218886854E+01 -0.69603549880E+01  0.19335391457E+01  0.89726035591E+01  0.51100000000E-03 0. -1.
        -11    1    3    3    0    0  0.19976528791E+02 -0.54584501223E+01  0.30847211433E+02  0.37153826637E+02  0.51100000000E-03 0.  1.
         12    1    3    3    0    0 -0.25032442417E+02  0.13326639653E+02 -0.33486517618E+02  0.43881309917E+02  0.00000000000E+00 0. -1.
</event>
<event>
 7    1  0.2349719E-015  0.9000818E+02  0.7816164E-02  0.1186338E+00
        -11   -1    0    0    0    0  0.00000000000E+00  0.00000000000E+00  0.45593999997E+02  0.45594000000E+02  0.51100000000E-03 0.  1.
         11   -1    0    0    0    0 -0.00000000000E+00 -0.00000000000E+00 -0.45593999997E+02  0.45594000000E+02  0.51100000000E-03 0. -1.
    9900012    2    1    2    0    0 -0.10642543292E+01  0.49685521286E+00 -0.11163738031E+00  0.90008184216E+02  0.90000451446E+02 0.  0.
        -12    1    1    2    0    0  0.10642543292E+01 -0.49685521286E+00  0.11163738031E+00  0.11798157841E+01  0.00000000000E+00 0.  1.
         11    1    3    3    0    0 -0.25347217262E+01 -0.91423124570E+01  0.10310789465E+01  0.95430506310E+01  0.51100000000E-03 0. -1.
        -11    1    3    3    0    0 -0.11361569647E+02 -0.20160765632E+02  0.28365649129E+02  0.36608083623E+02  0.51100000000E-03 0.  1.
         12    1    3    3    0    0  0.12832037044E+02  0.29799933302E+02 -0.29508365456E+02  0.43857049962E+02  0.00000000000E+00 0. -1.
</event>
<event>
 7    1  0.2349719E-015  0.9000771E+02  0.7816164E-02  0.1186339E+00
        -11   -1    0    0    0    0  0.00000000000E+00  0.00000000000E+00  0.45593999997E+02  0.45594000000E+02  0.51100000000E-03 0. -1.
         11   -1    0    0    0    0 -0.00000000000E+00 -0.00000000000E+00 -0.45593999997E+02  0.45594000000E+02  0.51100000000E-03 0.  1.
    9900012    2    1    2    0    0 -0.45893188570E+00 -0.27759570186E+00  0.10513782363E+01  0.90007714422E+02  0.89999975453E+02 0.  0.
        -12    1    1    2    0    0  0.45893188570E+00  0.27759570186E+00 -0.10513782363E+01  0.11802855778E+01  0.00000000000E+00 0.  1.
         11    1    3    3    0    0  0.30375005048E+02  0.59078896152E+01  0.17508282025E+02  0.35553959429E+02  0.51100000000E-03 0. -1.
        -11    1    3    3    0    0  0.81892386193E+01 -0.12621150916E+01  0.49714209445E+01  0.96628976057E+01  0.51100000000E-03 0.  1.
        -12    1    3    3    0    0 -0.39023175553E+02 -0.49233702255E+01 -0.21428324734E+02  0.44790857387E+02  0.00000000000E+00 0.  1.
</event>
<event>
 7    1  0.2349719E-015  0.9000782E+02  0.7816164E-02  0.1186339E+00
        -11   -1    0    0    0    0  0.00000000000E+00  0.00000000000E+00  0.45593999997E+02  0.45594000000E+02  0.51100000000E-03 0. -1.
         11   -1    0    0    0    0 -0.00000000000E+00 -0.00000000000E+00 -0.45593999997E+02  0.45594000000E+02  0.51100000000E-03 0.  1.
    9900012    2    1    2    0    0  0.42724563036E-01 -0.22519999130E+00  0.11577047285E+01  0.90007821766E+02  0.90000084214E+02 0.  0.
        -12    1    1    2    0    0 -0.42724563036E-01  0.22519999130E+00 -0.11577047285E+01  0.11801782335E+01  0.00000000000E+00 0.  1.
         11    1    3    3    0    0  0.91080231186E+01  0.15469044966E+01  0.50313790833E+01  0.10519685090E+02  0.51100000000E-03 0. -1.
        -11    1    3    3    0    0 -0.53993849046E+00 -0.39568286608E+02 -0.84774316910E+01  0.40469836756E+02  0.51100000000E-03 0.  1.
         12    1    3    3    0    0 -0.85253600651E+01  0.37796182120E+02  0.46037573362E+01  0.39018299921E+02  0.00000000000E+00 0. -1.
</event>
<event>
 7    1  0.2349719E-015  0.9000772E+02  0.7816164E-02  0.1186339E+00
        -11   -1    0    0    0    0  0.00000000000E+00  0.00000000000E+00  0.45593999997E+02  0.45594000000E+02  0.51100000000E-03 0.  1.
         11   -1    0    0    0    0 -0.00000000000E+00 -0.00000000000E+00 -0.45593999997E+02  0.45594000000E+02  0.51100000000E-03 0. -1.
    9900012    2    1    2    0    0  0.98553909740E+00  0.42727172624E+00  0.48909347407E+00  0.90007720005E+02  0.89999981109E+02 0.  0.
        -12    1    1    2    0    0 -0.98553909740E+00 -0.42727172624E+00 -0.48909347407E+00  0.11802799951E+01  0.00000000000E+00 0.  1.
         11    1    3    3    0    0 -0.10959193079E+00  0.64403602813E+01 -0.72913735513E+01  0.97290482305E+01  0.51100000000E-03 0. -1.
        -11    1    3    3    0    0  0.12826966146E+02  0.22680885573E+02  0.31764207567E+02  0.41084285481E+02  0.51100000000E-03 0.  1.
         12    1    3    3    0    0 -0.11731835118E+02 -0.28693974128E+02 -0.23983740541E+02  0.39194386293E+02  0.00000000000E+00 0. -1.
</event>
<event>
 7    1  0.2349719E-015  0.9000774E+02  0.7816164E-02  0.1186339E+00
        -11   -1    0    0    0    0  0.00000000000E+00  0.00000000000E+00  0.45593999997E+02  0.45594000000E+02  0.51100000000E-03 0.  1.
         11   -1    0    0    0    0 -0.00000000000E+00 -0.00000000000E+00 -0.45593999997E+02  0.45594000000E+02  0.51100000000E-03 0. -1.
    9900012    2    1    2    0    0  0.10026645613E+01 -0.51037998391E+00 -0.35662094891E+00  0.90007744752E+02  0.90000006182E+02 0.  0.
        -12    1    1    2    0    0 -0.10026645613E+01  0.51037998391E+00  0.35662094891E+00  0.11802552485E+01  0.00000000000E+00 0.  1.
         11    1    3    3    0    0  0.10873884439E+02  0.26171878053E+01  0.25511826187E+01  0.11471685483E+02  0.51100000000E-03 0. -1.
        -11    1    3    3    0    0  0.19368220774E+02 -0.25841735957E+02 -0.19755608536E+02  0.37857725264E+02  0.51100000000E-03 0.  1.
         12    1    3    3    0    0 -0.29239440652E+02  0.22714168168E+02  0.16847804968E+02  0.40678334005E+02  0.00000000000E+00 0. -1.
</event>
<event>
 7    1  0.2349719E-015  0.9000773E+02  0.7816164E-02  0.1186339E+00
        -11   -1    0    0    0    0  0.00000000000E+00  0.00000000000E+00  0.45593999997E+02  0.45594000000E+02  0.51100000000E-03 0. -1.
         11   -1    0    0    0    0 -0.00000000000E+00 -0.00000000000E+00 -0.45593999997E+02  0.45594000000E+02  0.51100000000E-03 0.  1.
    9900012    2    1    2    0    0  0.56760686553E+00  0.30880706107E+00 -0.98767555458E+00  0.90007727847E+02  0.89999989054E+02 0.  0.
        -12    1    1    2    0    0 -0.56760686553E+00 -0.30880706107E+00  0.98767555458E+00  0.11802721533E+01  0.00000000000E+00 0.  1.
         11    1    3    3    0    0  0.19313880952E+02 -0.20706151982E+02  0.19831701731E+02  0.34569742856E+02  0.51100000000E-03 0. -1.
        -11    1    3    3    0    0  0.88001956239E+01 -0.56756898691E+01  0.22057085718E+01  0.10701497516E+02  0.51100000000E-03 0.  1.
        -12    1    3    3    0    0 -0.27546469710E+02  0.26690648913E+02 -0.23025085857E+02  0.44736487475E+02  0.00000000000E+00 0.  1.
</event>
<event>
 7    1  0.2349719E-015  0.9000791E+02  0.7816164E-02  0.1186339E+00
        -11   -1    0    0    0    0  0.00000000000E+00  0.00000000000E+00  0.45593999997E+02  0.45594000000E+02  0.51100000000E-03 0.  1.
         11   -1    0    0    0    0 -0.00000000000E+00 -0.00000000000E+00 -0.45593999997E+02  0.45594000000E+02  0.51100000000E-03 0. -1.
    9900012    2    1    2    0    0 -0.21636799010E+00  0.74004665460E+00 -0.89338164625E+00  0.90007908934E+02  0.90000172532E+02 0.  0.
        -12    1    1    2    0    0  0.21636799010E+00 -0.74004665460E+00  0.89338164625E+00  0.11800910660E+01  0.00000000000E+00 0.  1.
         11    1    3    3    0    0 -0.88199471928E+00 -0.20170475574E+02 -0.11928769556E+02  0.23450406029E+02  0.51100000000E-03 0. -1.
        -11    1    3    3    0    0 -0.29269055259E+01 -0.19268810422E+02  0.16896524552E+02  0.25794308931E+02  0.51100000000E-03 0.  1.
        -12    1    3    3    0    0  0.35925322551E+01  0.40179332650E+02 -0.58611366416E+01  0.40763193974E+02  0.00000000000E+00 0.  1.
</event>
<event>
 7    1  0.2349719E-015  0.9000755E+02  0.7816164E-02  0.1186339E+00
        -11   -1    0    0    0    0  0.00000000000E+00  0.00000000000E+00  0.45593999997E+02  0.45594000000E+02  0.51100000000E-03 0. -1.
         11   -1    0    0    0    0 -0.00000000000E+00 -0.00000000000E+00 -0.45593999997E+02  0.45594000000E+02  0.51100000000E-03 0.  1.
    9900012    2    1    2    0    0  0.78100445709E+00 -0.86262688263E+00  0.19844609083E+00  0.90007545023E+02  0.89999803818E+02 0.  0.
        -12    1    1    2    0    0 -0.78100445709E+00  0.86262688263E+00 -0.19844609083E+00  0.11804549765E+01  0.00000000000E+00 0.  1.
         11    1    3    3    0    0  0.83872635227E-01  0.68904287283E+01  0.10720009837E+02  0.12743769217E+02  0.51100000000E-03 0. -1.
        -11    1    3    3    0    0 -0.42057635919E+01  0.27161738551E+02 -0.26836911368E+02  0.38414428286E+02  0.51100000000E-03 0.  1.
         12    1    3    3    0    0  0.49028954137E+01 -0.34914794162E+02  0.16315347622E+02  0.38849347521E+02  0.00000000000E+00 0. -1.
</event>
<event>
 7    1  0.2349719E-015  0.9000782E+02  0.7816164E-02  0.1186339E+00
        -11   -1    0    0    0    0  0.00000000000E+00  0.00000000000E+00  0.45593999997E+02  0.45594000000E+02  0.51100000000E-03 0. -1.
         11   -1    0    0    0    0 -0.00000000000E+00 -0.00000000000E+00 -0.45593999997E+02  0.45594000000E+02  0.51100000000E-03 0.  1.
    9900012    2    1    2    0    0  0.62699232515E+00  0.93572351208E+00 -0.35232764434E+00  0.90007816694E+02  0.90000079074E+02 0.  0.
        -12    1    1    2    0    0 -0.62699232515E+00 -0.93572351208E+00  0.35232764434E+00  0.11801833060E+01  0.00000000000E+00 0.  1.
         11    1    3    3    0    0  0.81804437717E+01 -0.50853893052E+01  0.23983299900E+01  0.99263705195E+01  0.51100000000E-03 0. -1.
        -11    1    3    3    0    0  0.18710366089E+02  0.28713449550E+02  0.18935212268E+02  0.39154594215E+02  0.51100000000E-03 0.  1.
         12    1    3    3    0    0 -0.26263817535E+02 -0.22692336732E+02 -0.21685869903E+02  0.40926851960E+02  0.00000000000E+00 0. -1.
</event>
<event>
 7    1  0.2349719E-015  0.9000790E+02  0.7816164E-02  0.1186339E+00
        -11   -1    0    0    0    0  0.00000000000E+00  0.00000000000E+00  0.45593999997E+02  0.45594000000E+02  0.51100000000E-03 0. -1.
         11   -1    0    0    0    0 -0.00000000000E+00 -0.00000000000E+00 -0.45593999997E+02  0.45594000000E+02  0.51100000000E-03 0.  1.
    9900012    2    1    2    0    0  0.17219585026E+00 -0.90950561757E-01  0.11639176565E+01  0.90007903510E+02  0.90000167036E+02 0.  0.
        -12    1    1    2    0    0 -0.17219585026E+00  0.90950561757E-01 -0.11639176565E+01  0.11800964904E+01  0.00000000000E+00 0.  1.
         11    1    3    3    0    0 -0.68527816990E+01  0.15487175259E+01 -0.35142480464E+01  0.78555128783E+01  0.51100000000E-03 0. -1.
        -11    1    3    3    0    0 -0.30990964381E+02  0.16361466342E+02 -0.11798978241E+02  0.36977741168E+02  0.51100000000E-03 0.  1.
         12    1    3    3    0    0  0.38015941930E+02 -0.18001134429E+02  0.16477143944E+02  0.45174649463E+02  0.00000000000E+00 0. -1.
</event>
<event>
 7    1  0.2349719E-015  0.9000773E+02  0.7816164E-02  0.1186339E+00
        -11   -1    0    0    0    0  0.00000000000E+00  0.00000000000E+00  0.45593999997E+02  0.45594000000E+02  0.51100000000E-03 0. -1.
         11   -1    0    0    0    0 -0.00000000000E+00 -0.00000000000E+00 -0.45593999997E+02  0.45594000000E+02  0.51100000000E-03 0.  1.
    9900012    2    1    2    0    0  0.61254744767E-01 -0.95485921898E+00  0.69104302451E+00  0.90007725145E+02  0.89999986317E+02 0.  0.
        -12    1    1    2    0    0 -0.61254744767E-01  0.95485921898E+00 -0.69104302451E+00  0.11802748551E+01  0.00000000000E+00 0.  1.
         11    1    3    3    0    0  0.91245240848E+01 -0.18773122391E+02 -0.55373581538E+01  0.21595124442E+02  0.51100000000E-03 0. -1.
        -11    1    3    3    0    0  0.21601373010E+02 -0.26099933808E+01 -0.14489298802E+02  0.26141368775E+02  0.51100000000E-03 0.  1.
         12    1    3    3    0    0 -0.30664642350E+02  0.20428256553E+02  0.20717699980E+02  0.42271231928E+02  0.00000000000E+00 0. -1.
</event>
<event>
 7    1  0.2349719E-015  0.9000763E+02  0.7816164E-02  0.1186339E+00
        -11   -1    0    0    0    0  0.00000000000E+00  0.00000000000E+00  0.45593999997E+02  0.45594000000E+02  0.51100000000E-03 0. -1.
         11   -1    0    0    0    0 -0.00000000000E+00 -0.00000000000E+00 -0.45593999997E+02  0.45594000000E+02  0.51100000000E-03 0.  1.
    9900012    2    1    2    0    0  0.26912155916E+00  0.73191408896E-01  0.11469486652E+01  0.90007629449E+02  0.89999889358E+02 0.  0.
        -12    1    1    2    0    0 -0.26912155916E+00 -0.73191408896E-01 -0.11469486652E+01  0.11803705505E+01  0.00000000000E+00 0.  1.
         11    1    3    3    0    0 -0.79254526320E+01  0.31518301006E+00  0.26044357069E+01  0.83483666285E+01  0.51100000000E-03 0. -1.
        -11    1    3    3    0    0 -0.12155474504E+02  0.78736748945E+01 -0.37097266223E+02  0.39824081637E+02  0.51100000000E-03 0.  1.
         12    1    3    3    0    0  0.20350048695E+02 -0.81156664956E+01  0.35639779182E+02  0.41835181184E+02  0.00000000000E+00 0. -1.
</event>
<event>
 7    1  0.2349719E-015  0.9000778E+02  0.7816164E-02  0.1186339E+00
        -11   -1    0    0    0    0  0.00000000000E+00  0.00000000000E+00  0.45593999997E+02  0.45594000000E+02  0.51100000000E-03 0.  1.
         11   -1    0    0    0    0 -0.00000000000E+00 -0.00000000000E+00 -0.45593999997E+02  0.45594000000E+02  0.51100000000E-03 0. -1.
    9900012    2    1    2    0    0 -0.38304788077E+00 -0.86152163727E+00 -0.70990583124E+00  0.90007783283E+02  0.90000045222E+02 0.  0.
        -12    1    1    2    0    0  0.38304788077E+00  0.86152163727E+00  0.70990583124E+00  0.11802167173E+01  0.00000000000E+00 0.  1.
         11    1    3    3    0    0 -0.34223195781E+02  0.12496503833E+02 -0.43069549253E+01  0.36687049466E+02  0.51100000000E-03 0. -1.
        -11    1    3    3    0    0 -0.76445619823E+01  0.69999792093E+00  0.55541209337E+01  0.94751034083E+01  0.51100000000E-03 0.  1.
        -12    1    3    3    0    0  0.41484709883E+02 -0.14058023391E+02 -0.19570718396E+01  0.43845630408E+02  0.00000000000E+00 0.  1.
</event>
<event>
 7    1  0.2349719E-015  0.9000771E+02  0.7816164E-02  0.1186339E+00
        -11   -1    0    0    0    0  0.00000000000E+00  0.00000000000E+00  0.45593999997E+02  0.45594000000E+02  0.51100000000E-03 0. -1.
         11   -1    0    0    0    0 -0.00000000000E+00 -0.00000000000E+00 -0.45593999997E+02  0.45594000000E+02  0.51100000000E-03 0.  1.
    9900012    2    1    2    0    0  0.11548624261E+01  0.17337077396E+00 -0.17121899600E+00  0.90007711648E+02  0.89999972642E+02 0.  0.
        -12    1    1    2    0    0 -0.11548624261E+01 -0.17337077396E+00  0.17121899600E+00  0.11802883517E+01  0.00000000000E+00 0.  1.
         11    1    3    3    0    0  0.14927833683E+02 -0.33358163089E+02  0.12649103503E+02  0.38673079562E+02  0.51100000000E-03 0. -1.
        -11    1    3    3    0    0 -0.12301345217E+01  0.12902624924E+01  0.98259812794E+01  0.99863865640E+01  0.51100000000E-03 0.  1.
        -12    1    3    3    0    0 -0.12542836735E+02  0.32241271371E+02 -0.22646303778E+02  0.41348245522E+02  0.00000000000E+00 0.  1.
</event>
<event>
 7    1  0.2349719E-015  0.9000771E+02  0.7816164E-02  0.1186339E+00
        -11   -1    0    0    0    0  0.00000000000E+00  0.00000000000E+00  0.45593999997E+02  0.45594000000E+02  0.51100000000E-03 0. -1.
         11   -1    0    0    0    0 -0.00000000000E+00 -0.00000000000E+00 -0.45593999997E+02  0.45594000000E+02  0.51100000000E-03 0.  1.
    9900012    2    1    2    0    0 -0.14602863993E+00  0.67906383874E+00  0.95427397203E+00  0.90007707293E+02  0.89999968229E+02 0.  0.
        -12    1    1    2    0    0  0.14602863993E+00 -0.67906383874E+00 -0.95427397203E+00  0.11802927071E+01  0.00000000000E+00 0.  1.
         11    1    3    3    0    0 -0.28609127486E+02  0.74324909997E+01  0.96542432804E+01  0.31095474133E+02  0.51100000000E-03 0. -1.
        -11    1    3    3    0    0 -0.66585640075E+01 -0.82404556547E+01 -0.19453326570E+02  0.22151151188E+02  0.51100000000E-03 0.  1.
         12    1    3    3    0    0  0.35121662854E+02  0.14870284938E+01  0.10753357262E+02  0.36761081972E+02  0.00000000000E+00 0. -1.
</event>
<event>
 7    1  0.2349719E-015  0.9000775E+02  0.7816164E-02  0.1186339E+00
        -11   -1    0    0    0    0  0.00000000000E+00  0.00000000000E+00  0.45593999997E+02  0.45594000000E+02  0.51100000000E-03 0.  1.
         11   -1    0    0    0    0 -0.00000000000E+00 -0.00000000000E+00 -0.45593999997E+02  0.45594000000E+02  0.51100000000E-03 0. -1.
    9900012    2    1    2    0    0  0.29709339960E+00  0.11076320460E+01 -0.27905140621E+00  0.90007753024E+02  0.90000014564E+02 0.  0.
        -12    1    1    2    0    0 -0.29709339960E+00 -0.11076320460E+01  0.27905140621E+00  0.11802469761E+01  0.00000000000E+00 0.  1.
         11    1    3    3    0    0  0.70923469430E+00  0.93465510582E+01  0.10527443667E+01  0.94323539744E+01  0.51100000000E-03 0. -1.
        -11    1    3    3    0    0  0.22501192846E+02  0.29077972700E+02 -0.77315518638E-01  0.36767351738E+02  0.51100000000E-03 0.  1.
         12    1    3    3    0    0 -0.22913334141E+02 -0.37316891713E+02 -0.12544802543E+01  0.43808047312E+02  0.00000000000E+00 0. -1.
</event>
<event>
 7    1  0.2349719E-015  0.9000758E+02  0.7816164E-02  0.1186339E+00
        -11   -1    0    0    0    0  0.00000000000E+00  0.00000000000E+00  0.45593999997E+02  0.45594000000E+02  0.51100000000E-03 0.  1.
         11   -1    0    0    0    0 -0.00000000000E+00 -0.00000000000E+00 -0.45593999997E+02  0.45594000000E+02  0.51100000000E-03 0. -1.
    9900012    2    1    2    0    0  0.97707558912E+00  0.20446363049E+00 -0.63000011747E+00  0.90007583874E+02  0.89999843181E+02 0.  0.
        -12    1    1    2    0    0 -0.97707558912E+00 -0.20446363049E+00  0.63000011747E+00  0.11804161262E+01  0.00000000000E+00 0.  1.
         11    1    3    3    0    0  0.24264360893E+00  0.83235934081E+01  0.61881745771E+01  0.10374709056E+02  0.51100000000E-03 0. -1.
        -11    1    3    3    0    0  0.22302673359E+02 -0.20164747489E+02  0.25172972369E+02  0.39213579516E+02  0.51100000000E-03 0.  1.
         12    1    3    3    0    0 -0.21568241379E+02  0.12045617712E+02 -0.31991147064E+02  0.40419295302E+02  0.00000000000E+00 0. -1.
</event>
<event>
 7    1  0.2349719E-015  0.9000878E+02  0.7816164E-02  0.1186337E+00
        -11   -1    0    0    0    0  0.00000000000E+00  0.00000000000E+00  0.45593999997E+02  0.45594000000E+02  0.51100000000E-03 0. -1.
         11   -1    0    0    0    0 -0.00000000000E+00 -0.00000000000E+00 -0.45593999997E+02  0.45594000000E+02  0.51100000000E-03 0.  1.
    9900012    2    1    2    0    0 -0.31687647370E+00  0.25173521002E+00  0.11076006368E+01  0.90008779713E+02  0.90001054799E+02 0.  0.
        -12    1    1    2    0    0  0.31687647370E+00 -0.25173521002E+00 -0.11076006368E+01  0.11792202874E+01  0.00000000000E+00 0.  1.
         11    1    3    3    0    0 -0.62040938701E+01  0.56854373200E+01  0.37852147971E+02  0.38776282501E+02  0.51100000000E-03 0. -1.
        -11    1    3    3    0    0 -0.16033028623E+01  0.10071207427E+02  0.48924143998E+00  0.10209757908E+02  0.51100000000E-03 0.  1.
        -12    1    3    3    0    0  0.74905202587E+01 -0.15504909537E+02 -0.37233788774E+02  0.41022739304E+02  0.00000000000E+00 0.  1.
</event>
<event>
 7    1  0.2349719E-015  0.9000775E+02  0.7816164E-02  0.1186339E+00
        -11   -1    0    0    0    0  0.00000000000E+00  0.00000000000E+00  0.45593999997E+02  0.45594000000E+02  0.51100000000E-03 0.  1.
         11   -1    0    0    0    0 -0.00000000000E+00 -0.00000000000E+00 -0.45593999997E+02  0.45594000000E+02  0.51100000000E-03 0. -1.
    9900012    2    1    2    0    0 -0.43143926281E+00 -0.68303501163E+00 -0.86041254904E+00  0.90007751543E+02  0.90000013064E+02 0.  0.
        -12    1    1    2    0    0  0.43143926281E+00  0.68303501163E+00  0.86041254904E+00  0.11802484565E+01  0.00000000000E+00 0.  1.
         11    1    3    3    0    0 -0.33843356694E+02  0.49285827866E+01 -0.91730762454E+01  0.35409166167E+02  0.51100000000E-03 0. -1.
        -11    1    3    3    0    0 -0.98724481484E+01 -0.62287041808E-01 -0.11694018117E+01  0.99416604738E+01  0.51100000000E-03 0.  1.
        -12    1    3    3    0    0  0.43284365579E+02 -0.55493307565E+01  0.94820655081E+01  0.44656924903E+02  0.00000000000E+00 0.  1.
</event>
<event>
 7    1  0.2349719E-015  0.9000777E+02  0.7816164E-02  0.1186339E+00
        -11   -1    0    0    0    0  0.00000000000E+00  0.00000000000E+00  0.45593999997E+02  0.45594000000E+02  0.51100000000E-03 0. -1.
         11   -1    0    0    0    0 -0.00000000000E+00 -0.00000000000E+00 -0.45593999997E+02  0.45594000000E+02  0.51100000000E-03 0.  1.
    9900012    2    1    2    0    0 -0.65794354886E-01  0.86201157373E+00  0.80345963305E+00  0.90007771110E+02  0.90000032889E+02 0.  0.
        -12    1    1    2    0    0  0.65794354886E-01 -0.86201157373E+00 -0.80345963305E+00  0.11802288898E+01  0.00000000000E+00 0.  1.
         11    1    3    3    0    0  0.66117657273E+01 -0.10205264800E+02  0.60589673808E+01  0.13585800000E+02  0.51100000000E-03 0. -1.
        -11    1    3    3    0    0 -0.31618935481E+02 -0.19130051829E+02 -0.41163520134E+00  0.36957886949E+02  0.51100000000E-03 0.  1.
         12    1    3    3    0    0  0.24941375399E+02  0.30197328203E+02 -0.48438725465E+01  0.39464084161E+02  0.00000000000E+00 0. -1.
</event>
<event>
 7    1  0.2349719E-015  0.9000771E+02  0.7816164E-02  0.1186339E+00
        -11   -1    0    0    0    0  0.00000000000E+00  0.00000000000E+00  0.45593999997E+02  0.45594000000E+02  0.51100000000E-03 0. -1.
         11   -1    0    0    0    0 -0.00000000000E+00 -0.00000000000E+00 -0.45593999997E+02  0.45594000000E+02  0.51100000000E-03 0.  1.
    9900012    2    1    2    0    0 -0.32821508869E+00 -0.77368127036E+00  0.82871662385E+00  0.90007712283E+02  0.89999973285E+02 0.  0.
        -12    1    1    2    0    0  0.32821508869E+00  0.77368127036E+00 -0.82871662385E+00  0.11802877171E+01  0.00000000000E+00 0.  1.
         11    1    3    3    0    0 -0.14752783873E+01  0.18250882146E+02 -0.47700493493E+01  0.18921535785E+02  0.51100000000E-03 0. -1.
        -11    1    3    3    0    0  0.21454694973E+02  0.15380548467E+02  0.14552645709E+02  0.30143734091E+02  0.51100000000E-03 0.  1.
         12    1    3    3    0    0 -0.20307631675E+02 -0.34405111883E+02 -0.89538797359E+01  0.40942442407E+02  0.00000000000E+00 0. -1.
</event>
<event>
 7    1  0.2349719E-015  0.9000739E+02  0.7816164E-02  0.1186340E+00
        -11   -1    0    0    0    0  0.00000000000E+00  0.00000000000E+00  0.45593999997E+02  0.45594000000E+02  0.51100000000E-03 0. -1.
         11   -1    0    0    0    0 -0.00000000000E+00 -0.00000000000E+00 -0.45593999997E+02  0.45594000000E+02  0.51100000000E-03 0.  1.
    9900012    2    1    2    0    0 -0.74214505849E+00  0.17422335447E+00  0.90150197094E+00  0.90007390467E+02  0.89999647221E+02 0.  0.
        -12    1    1    2    0    0  0.74214505849E+00 -0.17422335447E+00 -0.90150197094E+00  0.11806095327E+01  0.00000000000E+00 0.  1.
         11    1    3    3    0    0  0.60891482168E+01 -0.37973130732E+01 -0.56089557516E+01  0.91081116301E+01  0.51100000000E-03 0. -1.
        -11    1    3    3    0    0  0.30175598614E+02 -0.19375934518E+02  0.93225153185E+01  0.37052704116E+02  0.51100000000E-03 0.  1.
         12    1    3    3    0    0 -0.37006891890E+02  0.23347470945E+02 -0.28120575959E+01  0.43846574721E+02  0.00000000000E+00 0. -1.
</event>
<event>
 7    1  0.2349719E-015  0.9000787E+02  0.7816164E-02  0.1186339E+00
        -11   -1    0    0    0    0  0.00000000000E+00  0.00000000000E+00  0.45593999997E+02  0.45594000000E+02  0.51100000000E-03 0.  1.
         11   -1    0    0    0    0 -0.00000000000E+00 -0.00000000000E+00 -0.45593999997E+02  0.45594000000E+02  0.51100000000E-03 0. -1.
    9900012    2    1    2    0    0 -0.77594151320E+00  0.81011052519E+00  0.36651871149E+00  0.90007872778E+02  0.90000135898E+02 0.  0.
        -12    1    1    2    0    0  0.77594151320E+00 -0.81011052519E+00 -0.36651871149E+00  0.11801272223E+01  0.00000000000E+00 0.  1.
         11    1    3    3    0    0  0.22824684185E+02  0.25308519133E+02 -0.85290456883E+01  0.35131637728E+02  0.51100000000E-03 0. -1.
        -11    1    3    3    0    0  0.69357638790E+01  0.30753972062E+01 -0.74233765817E+01  0.10614584716E+02  0.51100000000E-03 0.  1.
        -12    1    3    3    0    0 -0.30536389577E+02 -0.27573805814E+02  0.16318940981E+02  0.44261650333E+02  0.00000000000E+00 0.  1.
</event>
<event>
 7    1  0.2349719E-015  0.9000769E+02  0.7816164E-02  0.1186339E+00
        -11   -1    0    0    0    0  0.00000000000E+00  0.00000000000E+00  0.45593999997E+02  0.45594000000E+02  0.51100000000E-03 0. -1.
         11   -1    0    0    0    0 -0.00000000000E+00 -0.00000000000E+00 -0.45593999997E+02  0.45594000000E+02  0.51100000000E-03 0.  1.
    9900012    2    1    2    0    0  0.32066474027E+00  0.63640035657E+00  0.94090981863E+00  0.90007685391E+02  0.89999946038E+02 0.  0.
        -12    1    1    2    0    0 -0.32066474027E+00 -0.63640035657E+00 -0.94090981863E+00  0.11803146090E+01  0.00000000000E+00 0.  1.
         11    1    3    3    0    0 -0.88418038538E+01  0.75368922245E+00  0.38389964628E+02  0.39402219826E+02  0.51100000000E-03 0. -1.
        -11    1    3    3    0    0 -0.29518504807E+01  0.91775395872E+01  0.54701871369E+00  0.96560801504E+01  0.51100000000E-03 0.  1.
        -12    1    3    3    0    0  0.12114319075E+02 -0.92948284531E+01 -0.37996073523E+02  0.40949385414E+02  0.00000000000E+00 0.  1.
</event>
<event>
 7    1  0.2397101E-015  0.9000772E+02  0.7816164E-02  0.1186339E+00
        -11   -1    0    0    0    0  0.00000000000E+00  0.00000000000E+00  0.45593999997E+02  0.45594000000E+02  0.51100000000E-03 0. -1.
         11   -1    0    0    0    0 -0.00000000000E+00 -0.00000000000E+00 -0.45593999997E+02  0.45594000000E+02  0.51100000000E-03 0.  1.
    9900012    2    1    2    0    0  0.40280837542E+00  0.10262929092E+01  0.42134578307E+00  0.90007718681E+02  0.89999979768E+02 0.  0.
        -12    1    1    2    0    0 -0.40280837542E+00 -0.10262929092E+01 -0.42134578307E+00  0.11802813189E+01  0.00000000000E+00 0.  1.
         11    1    3    3    0    0  0.33832291122E+01  0.16335664475E+02  0.37171945828E+02  0.40743756945E+02  0.51100000000E-03 0. -1.
        -11    1    3    3    0    0 -0.81894585867E+01  0.40014421125E+01 -0.22554000170E+01  0.93896539031E+01  0.51100000000E-03 0.  1.
        -12    1    3    3    0    0  0.52090378499E+01 -0.19310813678E+02 -0.34495200028E+02  0.39874307833E+02  0.00000000000E+00 0.  1.
</event>
<event>
 7    1  0.2349719E-015  0.9000778E+02  0.7816164E-02  0.1186339E+00
        -11   -1    0    0    0    0  0.00000000000E+00  0.00000000000E+00  0.45593999997E+02  0.45594000000E+02  0.51100000000E-03 0.  1.
         11   -1    0    0    0    0 -0.00000000000E+00 -0.00000000000E+00 -0.45593999997E+02  0.45594000000E+02  0.51100000000E-03 0. -1.
    9900012    2    1    2    0    0 -0.11388868383E+01  0.29870822424E+00  0.81485552690E-01  0.90007775560E+02  0.90000037397E+02 0.  0.
        -12    1    1    2    0    0  0.11388868383E+01 -0.29870822424E+00 -0.81485552690E-01  0.11802244401E+01  0.00000000000E+00 0.  1.
         11    1    3    3    0    0 -0.28198833512E+02  0.90022401521E+01 -0.20062352522E+02  0.35759090148E+02  0.51100000000E-03 0. -1.
        -11    1    3    3    0    0 -0.73756871794E+01  0.45773790976E+01 -0.45900028881E+01  0.98194341764E+01  0.51100000000E-03 0.  1.
        -12    1    3    3    0    0  0.34435633854E+02 -0.13280911025E+02  0.24733840963E+02  0.44429251236E+02  0.00000000000E+00 0.  1.
</event>
<event>
 7    1  0.2349719E-015  0.9000778E+02  0.7816164E-02  0.1186339E+00
        -11   -1    0    0    0    0  0.00000000000E+00  0.00000000000E+00  0.45593999997E+02  0.45594000000E+02  0.51100000000E-03 0.  1.
         11   -1    0    0    0    0 -0.00000000000E+00 -0.00000000000E+00 -0.45593999997E+02  0.45594000000E+02  0.51100000000E-03 0. -1.
    9900012    2    1    2    0    0 -0.32913814473E+00 -0.87617085006E+00 -0.71896422837E+00  0.90007781021E+02  0.90000042930E+02 0.  0.
        -12    1    1    2    0    0  0.32913814473E+00  0.87617085006E+00  0.71896422837E+00  0.11802189790E+01  0.00000000000E+00 0.  1.
         11    1    3    3    0    0 -0.47633990002E+01  0.83477117613E+01  0.28985879447E+01  0.10038728705E+02  0.51100000000E-03 0. -1.
        -11    1    3    3    0    0 -0.21596717571E+02 -0.30168788294E+02 -0.20655610137E+02  0.42464434852E+02  0.51100000000E-03 0.  1.
         12    1    3    3    0    0  0.26030978427E+02  0.20944905682E+02  0.17038057964E+02  0.37504617463E+02  0.00000000000E+00 0. -1.
</event>
<event>
 7    1  0.2349719E-015  0.9000770E+02  0.7816164E-02  0.1186339E+00
        -11   -1    0    0    0    0  0.00000000000E+00  0.00000000000E+00  0.45593999997E+02  0.45594000000E+02  0.51100000000E-03 0.  1.
         11   -1    0    0    0    0 -0.00000000000E+00 -0.00000000000E+00 -0.45593999997E+02  0.45594000000E+02  0.51100000000E-03 0. -1.
    9900012    2    1    2    0    0 -0.11604340709E+01  0.14361062377E-01 -0.21518920982E+00  0.90007695010E+02  0.89999955784E+02 0.  0.
        -12    1    1    2    0    0  0.11604340709E+01 -0.14361062377E-01  0.21518920982E+00  0.11803049898E+01  0.00000000000E+00 0.  1.
         11    1    3    3    0    0  0.11800589268E+02 -0.17128306000E+02 -0.25274687164E+02  0.32732897595E+02  0.51100000000E-03 0. -1.
        -11    1    3    3    0    0  0.14744687911E+02 -0.28180090621E+00 -0.19030197514E+01  0.14869657622E+02  0.51100000000E-03 0.  1.
        -12    1    3    3    0    0 -0.27705711250E+02  0.17424467968E+02  0.26962517706E+02  0.42405139793E+02  0.00000000000E+00 0.  1.
</event>
<event>
 7    1  0.2349719E-015  0.9000772E+02  0.7816164E-02  0.1186339E+00
        -11   -1    0    0    0    0  0.00000000000E+00  0.00000000000E+00  0.45593999997E+02  0.45594000000E+02  0.51100000000E-03 0.  1.
         11   -1    0    0    0    0 -0.00000000000E+00 -0.00000000000E+00 -0.45593999997E+02  0.45594000000E+02  0.51100000000E-03 0. -1.
    9900012    2    1    2    0    0 -0.95947859198E+00  0.66272181050E+00  0.18240514488E+00  0.90007715711E+02  0.89999976758E+02 0.  0.
        -12    1    1    2    0    0  0.95947859198E+00 -0.66272181050E+00 -0.18240514488E+00  0.11802842893E+01  0.00000000000E+00 0.  1.
         11    1    3    3    0    0 -0.42894769661E+01 -0.15647972278E+01  0.91715750901E+01  0.10245291255E+02  0.51100000000E-03 0. -1.
        -11    1    3    3    0    0 -0.61062648319E+00  0.19088007736E+02  0.30872825522E+02  0.36302290010E+02  0.51100000000E-03 0.  1.
         12    1    3    3    0    0  0.39406248573E+01 -0.16860488698E+02 -0.39861995467E+02  0.43460134445E+02  0.00000000000E+00 0. -1.
</event>
<event>
 7    1  0.2349719E-015  0.9000781E+02  0.7816164E-02  0.1186339E+00
        -11   -1    0    0    0    0  0.00000000000E+00  0.00000000000E+00  0.45593999997E+02  0.45594000000E+02  0.51100000000E-03 0.  1.
         11   -1    0    0    0    0 -0.00000000000E+00 -0.00000000000E+00 -0.45593999997E+02  0.45594000000E+02  0.51100000000E-03 0. -1.
    9900012    2    1    2    0    0 -0.26752545491E+00  0.95506084865E+00 -0.63964107105E+00  0.90007808578E+02  0.90000070851E+02 0.  0.
        -12    1    1    2    0    0  0.26752545491E+00 -0.95506084865E+00  0.63964107105E+00  0.11801914224E+01  0.00000000000E+00 0.  1.
         11    1    3    3    0    0 -0.26932519846E+02 -0.25579966680E+02 -0.12217305533E+02  0.39101890944E+02  0.51100000000E-03 0. -1.
        -11    1    3    3    0    0  0.15558405257E+01 -0.21215771319E+01 -0.77491616487E+01  0.81835955293E+01  0.51100000000E-03 0.  1.
        -12    1    3    3    0    0  0.25109153866E+02  0.28656604660E+02  0.19326826111E+02  0.42722322105E+02  0.00000000000E+00 0.  1.
</event>
<event>
 7    1  0.2349719E-015  0.9000769E+02  0.7816164E-02  0.1186339E+00
        -11   -1    0    0    0    0  0.00000000000E+00  0.00000000000E+00  0.45593999997E+02  0.45594000000E+02  0.51100000000E-03 0. -1.
         11   -1    0    0    0    0 -0.00000000000E+00 -0.00000000000E+00 -0.45593999997E+02  0.45594000000E+02  0.51100000000E-03 0.  1.
    9900012    2    1    2    0    0  0.11690832782E+01  0.55885860909E-01 -0.15245318567E+00  0.90007694567E+02  0.89999955336E+02 0.  0.
        -12    1    1    2    0    0 -0.11690832782E+01 -0.55885860909E-01  0.15245318567E+00  0.11803054328E+01  0.00000000000E+00 0.  1.
         11    1    3    3    0    0  0.71096109135E+01  0.12353562259E+01 -0.60406282485E+01  0.94107312279E+01  0.51100000000E-03 0. -1.
        -11    1    3    3    0    0  0.27970222023E+02 -0.17845647887E+02  0.21691965444E+02  0.39640154308E+02  0.51100000000E-03 0.  1.
         12    1    3    3    0    0 -0.33910749658E+02  0.16666177522E+02 -0.15803790381E+02  0.40956809031E+02  0.00000000000E+00 0. -1.
</event>
<event>
 7    1  0.2349719E-015  0.9000773E+02  0.7816164E-02  0.1186339E+00
        -11   -1    0    0    0    0  0.00000000000E+00  0.00000000000E+00  0.45593999997E+02  0.45594000000E+02  0.51100000000E-03 0.  1.
         11   -1    0    0    0    0 -0.00000000000E+00 -0.00000000000E+00 -0.45593999997E+02  0.45594000000E+02  0.51100000000E-03 0. -1.
    9900012    2    1    2    0    0  0.14825424623E+00  0.81580241191E+00  0.83995901818E+00  0.90007727129E+02  0.89999988328E+02 0.  0.
        -12    1    1    2    0    0 -0.14825424623E+00 -0.81580241191E+00 -0.83995901818E+00  0.11802728706E+01  0.00000000000E+00 0.  1.
         11    1    3    3    0    0  0.18175396361E+02  0.19176596715E+02 -0.22353956604E+02  0.34609048969E+02  0.51100000000E-03 0. -1.
        -11    1    3    3    0    0  0.54091268115E+01  0.46878161087E+01 -0.75410345392E+01  0.10397185913E+02  0.51100000000E-03 0.  1.
        -12    1    3    3    0    0 -0.23436268926E+02 -0.23048610412E+02  0.30734950161E+02  0.45001492247E+02  0.00000000000E+00 0.  1.
</event>
<event>
 7    1  0.2349719E-015  0.9000828E+02  0.7816164E-02  0.1186338E+00
        -11   -1    0    0    0    0  0.00000000000E+00  0.00000000000E+00  0.45593999997E+02  0.45594000000E+02  0.51100000000E-03 0.  1.
         11   -1    0    0    0    0 -0.00000000000E+00 -0.00000000000E+00 -0.45593999997E+02  0.45594000000E+02  0.51100000000E-03 0. -1.
    9900012    2    1    2    0    0  0.94922676249E+00  0.31796340258E+00 -0.62419184961E+00  0.90008276457E+02  0.90000544905E+02 0.  0.
        -12    1    1    2    0    0 -0.94922676249E+00 -0.31796340258E+00  0.62419184961E+00  0.11797235427E+01  0.00000000000E+00 0.  1.
         11    1    3    3    0    0  0.38232680068E+02  0.74801233841E+01 -0.30205293948E+01  0.39074463133E+02  0.51100000000E-03 0. -1.
        -11    1    3    3    0    0 -0.16299146709E+01  0.10614881725E+02  0.27762991052E+01  0.11092347490E+02  0.51100000000E-03 0.  1.
        -12    1    3    3    0    0 -0.35653538635E+02 -0.17777041706E+02 -0.37996155993E+00  0.39841465834E+02  0.00000000000E+00 0.  1.
</event>
<event>
 7    1  0.2349719E-015  0.9000777E+02  0.7816164E-02  0.1186339E+00
        -11   -1    0    0    0    0  0.00000000000E+00  0.00000000000E+00  0.45593999997E+02  0.45594000000E+02  0.51100000000E-03 0.  1.
         11   -1    0    0    0    0 -0.00000000000E+00 -0.00000000000E+00 -0.45593999997E+02  0.45594000000E+02  0.51100000000E-03 0. -1.
    9900012    2    1    2    0    0  0.94507292416E+00  0.70017810973E+00  0.97570369127E-01  0.90007774515E+02  0.90000036339E+02 0.  0.
        -12    1    1    2    0    0 -0.94507292416E+00 -0.70017810973E+00 -0.97570369127E-01  0.11802254845E+01  0.00000000000E+00 0.  1.
         11    1    3    3    0    0  0.61704428395E+01  0.33257216845E+01 -0.28937580240E+01  0.75834441595E+01  0.51100000000E-03 0. -1.
        -11    1    3    3    0    0  0.26333918538E+02  0.23348674198E+02 -0.14371946568E+02  0.38015637582E+02  0.51100000000E-03 0.  1.
         12    1    3    3    0    0 -0.31559288453E+02 -0.25974217773E+02  0.17363274961E+02  0.44408692774E+02  0.00000000000E+00 0. -1.
</event>
<event>
 7    1  0.2349719E-015  0.9000770E+02  0.7816164E-02  0.1186339E+00
        -11   -1    0    0    0    0  0.00000000000E+00  0.00000000000E+00  0.45593999997E+02  0.45594000000E+02  0.51100000000E-03 0. -1.
         11   -1    0    0    0    0 -0.00000000000E+00 -0.00000000000E+00 -0.45593999997E+02  0.45594000000E+02  0.51100000000E-03 0.  1.
    9900012    2    1    2    0    0  0.95370464520E+00  0.56158152866E+00  0.41009836921E+00  0.90007700446E+02  0.89999961292E+02 0.  0.
        -12    1    1    2    0    0 -0.95370464520E+00 -0.56158152866E+00 -0.41009836921E+00  0.11802995535E+01  0.00000000000E+00 0.  1.
         11    1    3    3    0    0 -0.63556792617E+01  0.35162348471E+02  0.51903417571E+01  0.36107133045E+02  0.51100000000E-03 0. -1.
        -11    1    3    3    0    0 -0.12630231042E+01  0.79810861264E+01  0.48300735463E+01  0.94139563332E+01  0.51100000000E-03 0.  1.
        -12    1    3    3    0    0  0.85724070111E+01 -0.42581853069E+02 -0.96103169342E+01  0.44486611068E+02  0.00000000000E+00 0.  1.
</event>
<event>
 7    1  0.2349719E-015  0.9000774E+02  0.7816164E-02  0.1186339E+00
        -11   -1    0    0    0    0  0.00000000000E+00  0.00000000000E+00  0.45593999997E+02  0.45594000000E+02  0.51100000000E-03 0. -1.
         11   -1    0    0    0    0 -0.00000000000E+00 -0.00000000000E+00 -0.45593999997E+02  0.45594000000E+02  0.51100000000E-03 0.  1.
    9900012    2    1    2    0    0 -0.56354788114E+00 -0.61324106494E+00 -0.83627543927E+00  0.90007742643E+02  0.90000004046E+02 0.  0.
        -12    1    1    2    0    0  0.56354788114E+00  0.61324106494E+00  0.83627543927E+00  0.11802573568E+01  0.00000000000E+00 0.  1.
         11    1    3    3    0    0  0.18326548678E+01 -0.81554806424E+01 -0.37695963904E+01  0.91695335530E+01  0.51100000000E-03 0. -1.
        -11    1    3    3    0    0  0.26348298976E+02  0.44079483128E+01 -0.27859152643E+02  0.38597865919E+02  0.51100000000E-03 0.  1.
         12    1    3    3    0    0 -0.28744501725E+02  0.31342912647E+01  0.30792473594E+02  0.42240343171E+02  0.00000000000E+00 0. -1.
</event>
<event>
 7    1  0.2349719E-015  0.9000766E+02  0.7816164E-02  0.1186339E+00
        -11   -1    0    0    0    0  0.00000000000E+00  0.00000000000E+00  0.45593999997E+02  0.45594000000E+02  0.51100000000E-03 0. -1.
         11   -1    0    0    0    0 -0.00000000000E+00 -0.00000000000E+00 -0.45593999997E+02  0.45594000000E+02  0.51100000000E-03 0.  1.
    9900012    2    1    2    0    0 -0.11410048243E+01  0.68734147974E-02 -0.30208001464E+00  0.90007664629E+02  0.89999925002E+02 0.  0.
        -12    1    1    2    0    0  0.11410048243E+01 -0.68734147974E-02  0.30208001464E+00  0.11803353710E+01  0.00000000000E+00 0.  1.
         11    1    3    3    0    0 -0.32850289134E+02 -0.19276232707E+02  0.86364883743E+01  0.39055135069E+02  0.51100000000E-03 0. -1.
        -11    1    3    3    0    0 -0.17193748861E+01  0.10238834923E+02  0.73120701059E+01  0.12698675524E+02  0.51100000000E-03 0.  1.
        -12    1    3    3    0    0  0.33428659195E+02  0.90442711990E+01 -0.16250638495E+02  0.38253854036E+02  0.00000000000E+00 0.  1.
</event>
<event>
 7    1  0.2349719E-015  0.9000783E+02  0.7816164E-02  0.1186339E+00
        -11   -1    0    0    0    0  0.00000000000E+00  0.00000000000E+00  0.45593999997E+02  0.45594000000E+02  0.51100000000E-03 0.  1.
         11   -1    0    0    0    0 -0.00000000000E+00 -0.00000000000E+00 -0.45593999997E+02  0.45594000000E+02  0.51100000000E-03 0. -1.
    9900012    2    1    2    0    0  0.33938098764E+00 -0.10730786056E+01 -0.35514222390E+00  0.90007829187E+02  0.90000091732E+02 0.  0.
        -12    1    1    2    0    0 -0.33938098764E+00  0.10730786056E+01  0.35514222390E+00  0.11801708129E+01  0.00000000000E+00 0.  1.
         11    1    3    3    0    0  0.21525309213E+02 -0.24261766764E+02 -0.19569123987E+02  0.37880375884E+02  0.51100000000E-03 0. -1.
        -11    1    3    3    0    0  0.96495330462E+01  0.88971469471E+00  0.45431947933E+00  0.97011074986E+01  0.51100000000E-03 0.  1.
        -12    1    3    3    0    0 -0.30835461271E+02  0.22298973463E+02  0.18759662284E+02  0.42426345805E+02  0.00000000000E+00 0.  1.
</event>
<event>
 7    1  0.2349719E-015  0.9000748E+02  0.7816164E-02  0.1186340E+00
        -11   -1    0    0    0    0  0.00000000000E+00  0.00000000000E+00  0.45593999997E+02  0.45594000000E+02  0.51100000000E-03 0.  1.
         11   -1    0    0    0    0 -0.00000000000E+00 -0.00000000000E+00 -0.45593999997E+02  0.45594000000E+02  0.51100000000E-03 0. -1.
    9900012    2    1    2    0    0  0.63094686703E+00  0.49966700320E+00 -0.86363029639E+00  0.90007483862E+02  0.89999741849E+02 0.  0.
        -12    1    1    2    0    0 -0.63094686703E+00 -0.49966700320E+00  0.86363029639E+00  0.11805161379E+01  0.00000000000E+00 0.  1.
         11    1    3    3    0    0 -0.24429332283E+02 -0.31808000291E+02 -0.12705098908E+02  0.42070900832E+02  0.51100000000E-03 0. -1.
        -11    1    3    3    0    0 -0.11858413766E+01  0.65086497279E+01  0.87983370139E+01  0.11008154955E+02  0.51100000000E-03 0.  1.
        -12    1    3    3    0    0  0.26246120527E+02  0.25799017566E+02  0.30431315979E+01  0.36928428074E+02  0.00000000000E+00 0.  1.
</event>
<event>
 7    1  0.2349719E-015  0.9000797E+02  0.7816164E-02  0.1186339E+00
        -11   -1    0    0    0    0  0.00000000000E+00  0.00000000000E+00  0.45593999997E+02  0.45594000000E+02  0.51100000000E-03 0.  1.
         11   -1    0    0    0    0 -0.00000000000E+00 -0.00000000000E+00 -0.45593999997E+02  0.45594000000E+02  0.51100000000E-03 0. -1.
    9900012    2    1    2    0    0 -0.10985750821E+01 -0.19286450419E+00 -0.38522998514E+00  0.90007972005E+02  0.90000236435E+02 0.  0.
        -12    1    1    2    0    0  0.10985750821E+01  0.19286450419E+00  0.38522998514E+00  0.11800279952E+01  0.00000000000E+00 0.  1.
         11    1    3    3    0    0 -0.59554926763E+01  0.61628582887E+01 -0.41536873896E+01  0.95237510727E+01  0.51100000000E-03 0. -1.
        -11    1    3    3    0    0 -0.25443991758E+02  0.22513937958E+02  0.15019033133E+02  0.37146271354E+02  0.51100000000E-03 0.  1.
         12    1    3    3    0    0  0.30300909352E+02 -0.28869660751E+02 -0.11250575729E+02  0.43337949579E+02  0.00000000000E+00 0. -1.
</event>
<event>
 7    1  0.2349719E-015  0.9000776E+02  0.7816164E-02  0.1186339E+00
        -11   -1    0    0    0    0  0.00000000000E+00  0.00000000000E+00  0.45593999997E+02  0.45594000000E+02  0.51100000000E-03 0. -1.
         11   -1    0    0    0    0 -0.00000000000E+00 -0.00000000000E+00 -0.45593999997E+02  0.45594000000E+02  0.51100000000E-03 0.  1.
    9900012    2    1    2    0    0 -0.45316215019E-01  0.11776998534E+01  0.62804065142E-01  0.90007756443E+02  0.90000018028E+02 0.  0.
        -12    1    1    2    0    0  0.45316215019E-01 -0.11776998534E+01 -0.62804065142E-01  0.11802435573E+01  0.00000000000E+00 0.  1.
         11    1    3    3    0    0  0.19091139372E+02  0.44247707455E+01 -0.10082991238E+02  0.22038986166E+02  0.51100000000E-03 0. -1.
        -11    1    3    3    0    0 -0.72543442256E+01 -0.32102867796E+02 -0.49848830323E+01  0.33287665734E+02  0.51100000000E-03 0.  1.
         12    1    3    3    0    0 -0.11882111362E+02  0.28855796904E+02  0.15130678335E+02  0.34681104542E+02  0.00000000000E+00 0. -1.
</event>
<event>
 7    1  0.2349719E-015  0.9000778E+02  0.7816164E-02  0.1186339E+00
        -11   -1    0    0    0    0  0.00000000000E+00  0.00000000000E+00  0.45593999997E+02  0.45594000000E+02  0.51100000000E-03 0. -1.
         11   -1    0    0    0    0 -0.00000000000E+00 -0.00000000000E+00 -0.45593999997E+02  0.45594000000E+02  0.51100000000E-03 0.  1.
    9900012    2    1    2    0    0 -0.17169509181E-01 -0.29737424558E+00  0.11420108077E+01  0.90007781834E+02  0.90000043754E+02 0.  0.
        -12    1    1    2    0    0  0.17169509181E-01  0.29737424558E+00 -0.11420108077E+01  0.11802181658E+01  0.00000000000E+00 0.  1.
         11    1    3    3    0    0 -0.14843673434E+02  0.32639363316E+02 -0.51304095189E+01  0.36221316663E+02  0.51100000000E-03 0. -1.
        -11    1    3    3    0    0  0.11254016037E+01  0.67874085441E+01 -0.69056179088E+01  0.97479742756E+01  0.51100000000E-03 0.  1.
        -12    1    3    3    0    0  0.13701102321E+02 -0.39724146106E+02  0.13178038235E+02  0.44038490896E+02  0.00000000000E+00 0.  1.
</event>
<event>
 7    1  0.2349719E-015  0.9000755E+02  0.7816164E-02  0.1186339E+00
        -11   -1    0    0    0    0  0.00000000000E+00  0.00000000000E+00  0.45593999997E+02  0.45594000000E+02  0.51100000000E-03 0.  1.
         11   -1    0    0    0    0 -0.00000000000E+00 -0.00000000000E+00 -0.45593999997E+02  0.45594000000E+02  0.51100000000E-03 0. -1.
    9900012    2    1    2    0    0  0.11572089786E+01 -0.23306137869E+00 -0.13295865769E-02  0.90007554324E+02  0.89999813241E+02 0.  0.
        -12    1    1    2    0    0 -0.11572089786E+01  0.23306137869E+00  0.13295865769E-02  0.11804456761E+01  0.00000000000E+00 0.  1.
         11    1    3    3    0    0  0.89814674245E+01 -0.24862193524E+01  0.16542034881E+02  0.18986494201E+02  0.51100000000E-03 0. -1.
        -11    1    3    3    0    0  0.13445133867E+02 -0.40839304345E+01  0.22257208227E+02  0.26321729252E+02  0.51100000000E-03 0.  1.
         12    1    3    3    0    0 -0.21269392313E+02  0.63370884082E+01 -0.38800572695E+02  0.44699330871E+02  0.00000000000E+00 0. -1.
</event>
<event>
 7    1  0.2349719E-015  0.9000774E+02  0.7816164E-02  0.1186339E+00
        -11   -1    0    0    0    0  0.00000000000E+00  0.00000000000E+00  0.45593999997E+02  0.45594000000E+02  0.51100000000E-03 0. -1.
         11   -1    0    0    0    0 -0.00000000000E+00 -0.00000000000E+00 -0.45593999997E+02  0.45594000000E+02  0.51100000000E-03 0.  1.
    9900012    2    1    2    0    0  0.42165522122E-01 -0.76026480821E+00  0.90179354011E+00  0.90007740665E+02  0.90000002041E+02 0.  0.
        -12    1    1    2    0    0 -0.42165522122E-01  0.76026480821E+00 -0.90179354011E+00  0.11802593354E+01  0.00000000000E+00 0.  1.
         11    1    3    3    0    0  0.88309228392E+01 -0.46974546758E+01 -0.26965133638E+01  0.10359655554E+02  0.51100000000E-03 0. -1.
        -11    1    3    3    0    0 -0.39014025654E+02 -0.16969894068E+02 -0.13415361996E+01  0.42566080652E+02  0.51100000000E-03 0.  1.
         12    1    3    3    0    0  0.30225268337E+02  0.20907083936E+02  0.49398431035E+01  0.37082004458E+02  0.00000000000E+00 0. -1.
</event>
<event>
 7    1  0.2349719E-015  0.9000775E+02  0.7816164E-02  0.1186339E+00
        -11   -1    0    0    0    0  0.00000000000E+00  0.00000000000E+00  0.45593999997E+02  0.45594000000E+02  0.51100000000E-03 0.  1.
         11   -1    0    0    0    0 -0.00000000000E+00 -0.00000000000E+00 -0.45593999997E+02  0.45594000000E+02  0.51100000000E-03 0. -1.
    9900012    2    1    2    0    0 -0.62068949286E-01  0.11340964991E+01 -0.32089427531E+00  0.90007745553E+02  0.90000006994E+02 0.  0.
        -12    1    1    2    0    0  0.62068949286E-01 -0.11340964991E+01  0.32089427531E+00  0.11802544470E+01  0.00000000000E+00 0.  1.
         11    1    3    3    0    0  0.10840283468E+02  0.30616450417E+02  0.20597379477E+02  0.38459469879E+02  0.51100000000E-03 0. -1.
        -11    1    3    3    0    0 -0.25715880065E+01 -0.21350334255E+01  0.93405037649E+01  0.99205062091E+01  0.51100000000E-03 0.  1.
        -12    1    3    3    0    0 -0.83307644111E+01 -0.27347320493E+02 -0.30258777517E+02  0.41627769465E+02  0.00000000000E+00 0.  1.
</event>
<event>
 7    1  0.2349719E-015  0.9000779E+02  0.7816164E-02  0.1186339E+00
        -11   -1    0    0    0    0  0.00000000000E+00  0.00000000000E+00  0.45593999997E+02  0.45594000000E+02  0.51100000000E-03 0. -1.
         11   -1    0    0    0    0 -0.00000000000E+00 -0.00000000000E+00 -0.45593999997E+02  0.45594000000E+02  0.51100000000E-03 0.  1.
    9900012    2    1    2    0    0  0.33389457612E+00 -0.55987961692E+00  0.98383603380E+00  0.90007794884E+02  0.90000056977E+02 0.  0.
        -12    1    1    2    0    0 -0.33389457612E+00  0.55987961692E+00 -0.98383603380E+00  0.11802051156E+01  0.00000000000E+00 0.  1.
         11    1    3    3    0    0  0.32083173700E+02  0.16996944413E+02 -0.26450910994E+00  0.36308347791E+02  0.51100000000E-03 0. -1.
        -11    1    3    3    0    0  0.48672313775E+01  0.76680608447E+01  0.16629169597E+01  0.92333304650E+01  0.51100000000E-03 0.  1.
        -12    1    3    3    0    0 -0.36616510501E+02 -0.25224884874E+02 -0.41457181600E+00  0.44466116628E+02  0.00000000000E+00 0.  1.
</event>
<event>
 7    1  0.2349719E-015  0.9000770E+02  0.7816164E-02  0.1186339E+00
        -11   -1    0    0    0    0  0.00000000000E+00  0.00000000000E+00  0.45593999997E+02  0.45594000000E+02  0.51100000000E-03 0. -1.
         11   -1    0    0    0    0 -0.00000000000E+00 -0.00000000000E+00 -0.45593999997E+02  0.45594000000E+02  0.51100000000E-03 0.  1.
    9900012    2    1    2    0    0 -0.98708713323E+00  0.25987561304E+00  0.59264989408E+00  0.90007699089E+02  0.89999959917E+02 0.  0.
        -12    1    1    2    0    0  0.98708713323E+00 -0.25987561304E+00 -0.59264989408E+00  0.11803009107E+01  0.00000000000E+00 0.  1.
         11    1    3    3    0    0 -0.21601713756E+02  0.95831098235E+01 -0.23892427355E+02  0.33605328688E+02  0.51100000000E-03 0. -1.
        -11    1    3    3    0    0 -0.65976024131E+01  0.72339920709E+01 -0.66691842219E+01  0.11846392587E+02  0.51100000000E-03 0.  1.
        -12    1    3    3    0    0  0.27212229035E+02 -0.16557226281E+02  0.31154261471E+02  0.44555977814E+02  0.00000000000E+00 0.  1.
</event>
<event>
 7    1  0.2349719E-015  0.9000787E+02  0.7816164E-02  0.1186339E+00
        -11   -1    0    0    0    0  0.00000000000E+00  0.00000000000E+00  0.45593999997E+02  0.45594000000E+02  0.51100000000E-03 0. -1.
         11   -1    0    0    0    0 -0.00000000000E+00 -0.00000000000E+00 -0.45593999997E+02  0.45594000000E+02  0.51100000000E-03 0.  1.
    9900012    2    1    2    0    0  0.79887163307E+00 -0.48493575259E+00  0.72066246246E+00  0.90007867399E+02  0.90000130449E+02 0.  0.
        -12    1    1    2    0    0 -0.79887163307E+00  0.48493575259E+00 -0.72066246246E+00  0.11801326006E+01  0.00000000000E+00 0.  1.
         11    1    3    3    0    0 -0.12445135796E+02 -0.88045442881E+01  0.35633257296E+02  0.38757327448E+02  0.51100000000E-03 0. -1.
        -11    1    3    3    0    0 -0.74628346861E+01 -0.46123997580E+01 -0.15335453909E+00  0.87744886435E+01  0.51100000000E-03 0.  1.
        -12    1    3    3    0    0  0.20706842115E+02  0.12932008293E+02 -0.34759240295E+02  0.42476051308E+02  0.00000000000E+00 0.  1.
</event>
<event>
 7    1  0.2349719E-015  0.9000778E+02  0.7816164E-02  0.1186339E+00
        -11   -1    0    0    0    0  0.00000000000E+00  0.00000000000E+00  0.45593999997E+02  0.45594000000E+02  0.51100000000E-03 0. -1.
         11   -1    0    0    0    0 -0.00000000000E+00 -0.00000000000E+00 -0.45593999997E+02  0.45594000000E+02  0.51100000000E-03 0.  1.
    9900012    2    1    2    0    0 -0.35434326258E+00 -0.10664865182E+01  0.36051607381E+00  0.90007777783E+02  0.90000039650E+02 0.  0.
        -12    1    1    2    0    0  0.35434326258E+00  0.10664865182E+01 -0.36051607381E+00  0.11802222167E+01  0.00000000000E+00 0.  1.
         11    1    3    3    0    0  0.65467910472E+01  0.15912607992E+00  0.43168148810E+01  0.78435122937E+01  0.51100000000E-03 0. -1.
        -11    1    3    3    0    0  0.24473956175E-01 -0.38666124912E+02 -0.16551105882E+02  0.42059587740E+02  0.51100000000E-03 0.  1.
         12    1    3    3    0    0 -0.69256082659E+01  0.37440512314E+02  0.12594807075E+02  0.40104677750E+02  0.00000000000E+00 0. -1.
</event>
<event>
 7    1  0.2349719E-015  0.9000784E+02  0.7816164E-02  0.1186339E+00
        -11   -1    0    0    0    0  0.00000000000E+00  0.00000000000E+00  0.45593999997E+02  0.45594000000E+02  0.51100000000E-03 0.  1.
         11   -1    0    0    0    0 -0.00000000000E+00 -0.00000000000E+00 -0.45593999997E+02  0.45594000000E+02  0.51100000000E-03 0. -1.
    9900012    2    1    2    0    0 -0.11423156957E+01  0.34068737203E-01  0.29451251729E+00  0.90007837532E+02  0.90000100188E+02 0.  0.
        -12    1    1    2    0    0  0.11423156957E+01 -0.34068737203E-01 -0.29451251729E+00  0.11801624678E+01  0.00000000000E+00 0.  1.
         11    1    3    3    0    0 -0.99728116243E+00  0.65500657314E+01 -0.97518744632E+01  0.11789698326E+02  0.51100000000E-03 0. -1.
        -11    1    3    3    0    0  0.27863970178E+02 -0.10172052371E+02 -0.20924906099E+02  0.36300457009E+02  0.51100000000E-03 0.  1.
         12    1    3    3    0    0 -0.28009004711E+02  0.36560553763E+01  0.30971293080E+02  0.41917682198E+02  0.00000000000E+00 0. -1.
</event>
<event>
 7    1  0.2349719E-015  0.9000748E+02  0.7816164E-02  0.1186340E+00
        -11   -1    0    0    0    0  0.00000000000E+00  0.00000000000E+00  0.45593999997E+02  0.45594000000E+02  0.51100000000E-03 0.  1.
         11   -1    0    0    0    0 -0.00000000000E+00 -0.00000000000E+00 -0.45593999997E+02  0.45594000000E+02  0.51100000000E-03 0. -1.
    9900012    2    1    2    0    0  0.11170036874E+01  0.31747495475E+00 -0.21244690814E+00  0.90007482625E+02  0.89999740595E+02 0.  0.
        -12    1    1    2    0    0 -0.11170036874E+01 -0.31747495475E+00  0.21244690814E+00  0.11805173753E+01  0.00000000000E+00 0.  1.
         11    1    3    3    0    0 -0.24779226790E+02  0.27976693352E+02 -0.65043876975E+01  0.37934318378E+02  0.51100000000E-03 0. -1.
        -11    1    3    3    0    0  0.12492506448E+02  0.70436557406E+01 -0.11728681566E-01  0.14341406534E+02  0.51100000000E-03 0.  1.
        -12    1    3    3    0    0  0.13403724030E+02 -0.34702874138E+02  0.63036694709E+01  0.37731757713E+02  0.00000000000E+00 0.  1.
</event>
<event>
 7    1  0.2349719E-015  0.9000774E+02  0.7816164E-02  0.1186339E+00
        -11   -1    0    0    0    0  0.00000000000E+00  0.00000000000E+00  0.45593999997E+02  0.45594000000E+02  0.51100000000E-03 0. -1.
         11   -1    0    0    0    0 -0.00000000000E+00 -0.00000000000E+00 -0.45593999997E+02  0.45594000000E+02  0.51100000000E-03 0.  1.
    9900012    2    1    2    0    0  0.34240297559E-01  0.11797460917E+01 -0.71372112300E-02  0.90007735547E+02  0.89999996856E+02 0.  0.
        -12    1    1    2    0    0 -0.34240297559E-01 -0.11797460917E+01  0.71372112300E-02  0.11802644529E+01  0.00000000000E+00 0.  1.
         11    1    3    3    0    0 -0.35225537758E+01  0.19216364393E+01  0.11224687459E+02  0.11920347332E+02  0.51100000000E-03 0. -1.
        -11    1    3    3    0    0  0.88574690591E+00 -0.36538605346E+02 -0.19246706807E+02  0.41307262695E+02  0.51100000000E-03 0.  1.
         12    1    3    3    0    0  0.26710471674E+01  0.35796714998E+02  0.80148821364E+01  0.36780125520E+02  0.00000000000E+00 0. -1.
</event>
<event>
 7    1  0.2349719E-015  0.9000780E+02  0.7816164E-02  0.1186339E+00
        -11   -1    0    0    0    0  0.00000000000E+00  0.00000000000E+00  0.45593999997E+02  0.45594000000E+02  0.51100000000E-03 0.  1.
         11   -1    0    0    0    0 -0.00000000000E+00 -0.00000000000E+00 -0.45593999997E+02  0.45594000000E+02  0.51100000000E-03 0. -1.
    9900012    2    1    2    0    0 -0.55443769569E+00 -0.10221605195E+01  0.20165387610E+00  0.90007797656E+02  0.90000059785E+02 0.  0.
        -12    1    1    2    0    0  0.55443769569E+00  0.10221605195E+01 -0.20165387610E+00  0.11802023436E+01  0.00000000000E+00 0.  1.
         11    1    3    3    0    0  0.75993204420E+01 -0.25523125801E+02 -0.24776922354E+02  0.36374104847E+02  0.51100000000E-03 0. -1.
        -11    1    3    3    0    0 -0.68621124707E+01 -0.79180026075E+01 -0.28836575092E+01  0.10867328731E+02  0.51100000000E-03 0.  1.
        -12    1    3    3    0    0 -0.12916456670E+01  0.32418967889E+02  0.27862233740E+02  0.42766364078E+02  0.00000000000E+00 0.  1.
</event>
<event>
 7    1  0.2349719E-015  0.9000786E+02  0.7816164E-02  0.1186339E+00
        -11   -1    0    0    0    0  0.00000000000E+00  0.00000000000E+00  0.45593999997E+02  0.45594000000E+02  0.51100000000E-03 0.  1.
         11   -1    0    0    0    0 -0.00000000000E+00 -0.00000000000E+00 -0.45593999997E+02  0.45594000000E+02  0.51100000000E-03 0. -1.
    9900012    2    1    2    0    0  0.32466693032E+00  0.77730461933E+00  0.82651615515E+00  0.90007855923E+02  0.90000118821E+02 0.  0.
        -12    1    1    2    0    0 -0.32466693032E+00 -0.77730461933E+00 -0.82651615515E+00  0.11801440766E+01  0.00000000000E+00 0.  1.
         11    1    3    3    0    0 -0.37308577803E+02 -0.17841136258E+02 -0.15385210647E+01  0.41383609895E+02  0.51100000000E-03 0. -1.
        -11    1    3    3    0    0  0.62937570727E+01  0.14743225077E+01 -0.90508283447E+01  0.11122162512E+02  0.51100000000E-03 0.  1.
        -12    1    3    3    0    0  0.31339487660E+02  0.17144118370E+02  0.11415865565E+02  0.37502083516E+02  0.00000000000E+00 0.  1.
</event>
<event>
 7    1  0.2349719E-015  0.9000774E+02  0.7816164E-02  0.1186339E+00
        -11   -1    0    0    0    0  0.00000000000E+00  0.00000000000E+00  0.45593999997E+02  0.45594000000E+02  0.51100000000E-03 0. -1.
         11   -1    0    0    0    0 -0.00000000000E+00 -0.00000000000E+00 -0.45593999997E+02  0.45594000000E+02  0.51100000000E-03 0.  1.
    9900012    2    1    2    0    0  0.47458789087E+00 -0.12683728688E+00  0.10731643076E+01  0.90007744522E+02  0.90000005949E+02 0.  0.
        -12    1    1    2    0    0 -0.47458789087E+00  0.12683728688E+00 -0.10731643076E+01  0.11802554785E+01  0.00000000000E+00 0.  1.
         11    1    3    3    0    0  0.45953204090E+01 -0.12112187190E+02 -0.22719557431E+01  0.13152331784E+02  0.51100000000E-03 0. -1.
        -11    1    3    3    0    0 -0.23829088619E+02  0.20893525175E+02 -0.25587879114E+02  0.40732105476E+02  0.51100000000E-03 0.  1.
         12    1    3    3    0    0  0.19708356101E+02 -0.89081752717E+01  0.28932999165E+02  0.36123307262E+02  0.00000000000E+00 0. -1.
</event>
<event>
 7    1  0.2349719E-015  0.9000737E+02  0.7816164E-02  0.1186340E+00
        -11   -1    0    0    0    0  0.00000000000E+00  0.00000000000E+00  0.45593999997E+02  0.45594000000E+02  0.51100000000E-03 0.  1.
         11   -1    0    0    0    0 -0.00000000000E+00 -0.00000000000E+00 -0.45593999997E+02  0.45594000000E+02  0.51100000000E-03 0. -1.
    9900012    2    1    2    0    0  0.95226839424E+00  0.48096997250E+00 -0.50570568189E+00  0.90007370742E+02  0.89999627235E+02 0.  0.
        -12    1    1    2    0    0 -0.95226839424E+00 -0.48096997250E+00  0.50570568189E+00  0.11806292584E+01  0.00000000000E+00 0.  1.
         11    1    3    3    0    0 -0.65166135284E+01 -0.58455009771E+01  0.70090761450E+01  0.11214422955E+02  0.51100000000E-03 0. -1.
        -11    1    3    3    0    0 -0.85194170395E+01  0.36046699810E+02  0.13051781551E+02  0.39272051587E+02  0.51100000000E-03 0.  1.
         12    1    3    3    0    0  0.15988298962E+02 -0.29720228861E+02 -0.20566563378E+02  0.39520896200E+02  0.00000000000E+00 0. -1.
</event>
<event>
 7    1  0.2349719E-015  0.9000773E+02  0.7816164E-02  0.1186339E+00
        -11   -1    0    0    0    0  0.00000000000E+00  0.00000000000E+00  0.45593999997E+02  0.45594000000E+02  0.51100000000E-03 0. -1.
         11   -1    0    0    0    0 -0.00000000000E+00 -0.00000000000E+00 -0.45593999997E+02  0.45594000000E+02  0.51100000000E-03 0.  1.
    9900012    2    1    2    0    0  0.59666530252E+00  0.96786470843E+00 -0.31663182972E+00  0.90007734228E+02  0.89999995520E+02 0.  0.
        -12    1    1    2    0    0 -0.59666530252E+00 -0.96786470843E+00  0.31663182972E+00  0.11802657720E+01  0.00000000000E+00 0.  1.
         11    1    3    3    0    0  0.78156328957E+01  0.19413511841E+01 -0.55537928693E+01  0.97825138629E+01  0.51100000000E-03 0. -1.
        -11    1    3    3    0    0  0.25180484110E+02 -0.24668939659E+02 -0.10997936172E+02  0.36926521150E+02  0.51100000000E-03 0.  1.
         12    1    3    3    0    0 -0.32399451703E+02  0.23695453184E+02  0.16235097211E+02  0.43298699215E+02  0.00000000000E+00 0. -1.
</event>
<event>
 7    1  0.2349719E-015  0.9000776E+02  0.7816164E-02  0.1186339E+00
        -11   -1    0    0    0    0  0.00000000000E+00  0.00000000000E+00  0.45593999997E+02  0.45594000000E+02  0.51100000000E-03 0.  1.
         11   -1    0    0    0    0 -0.00000000000E+00 -0.00000000000E+00 -0.45593999997E+02  0.45594000000E+02  0.51100000000E-03 0. -1.
    9900012    2    1    2    0    0 -0.32175493269E-01  0.69043343780E+00 -0.95668210034E+00  0.90007756705E+02  0.90000018293E+02 0.  0.
        -12    1    1    2    0    0  0.32175493269E-01 -0.69043343780E+00  0.95668210034E+00  0.11802432950E+01  0.00000000000E+00 0.  1.
         11    1    3    3    0    0  0.72211615163E+01 -0.14260586285E+02 -0.71838488026E+01  0.17524759021E+02  0.51100000000E-03 0.  1.
        -11    1    3    3    0    0 -0.27687462362E+02 -0.17821703239E+02  0.77671348949E+01  0.33831007421E+02  0.51100000000E-03 0. -1.
        -12    1    3    3    0    0  0.20434125353E+02  0.32772722962E+02 -0.15399681927E+01  0.38651990263E+02  0.00000000000E+00 0.  1.
</event>
<event>
 7    1  0.2349719E-015  0.9000772E+02  0.7816164E-02  0.1186339E+00
        -11   -1    0    0    0    0  0.00000000000E+00  0.00000000000E+00  0.45593999997E+02  0.45594000000E+02  0.51100000000E-03 0.  1.
         11   -1    0    0    0    0 -0.00000000000E+00 -0.00000000000E+00 -0.45593999997E+02  0.45594000000E+02  0.51100000000E-03 0. -1.
    9900012    2    1    2    0    0  0.73149766573E+00 -0.77807017037E+00 -0.50257161447E+00  0.90007720265E+02  0.89999981373E+02 0.  0.
        -12    1    1    2    0    0 -0.73149766573E+00  0.77807017037E+00  0.50257161447E+00  0.11802797349E+01  0.00000000000E+00 0.  1.
         11    1    3    3    0    0 -0.53447772373E+01  0.55266446221E+01 -0.29174865489E+02  0.30170900236E+02  0.51100000000E-03 0. -1.
        -11    1    3    3    0    0 -0.16726709577E+02 -0.47983828085E+01 -0.59171832476E+01  0.18379889790E+02  0.51100000000E-03 0.  1.
        -12    1    3    3    0    0  0.22802984480E+02 -0.15063319840E+01  0.34589477122E+02  0.41456930239E+02  0.00000000000E+00 0.  1.
</event>
<event>
 7    1  0.2349719E-015  0.9000775E+02  0.7816164E-02  0.1186339E+00
        -11   -1    0    0    0    0  0.00000000000E+00  0.00000000000E+00  0.45593999997E+02  0.45594000000E+02  0.51100000000E-03 0.  1.
         11   -1    0    0    0    0 -0.00000000000E+00 -0.00000000000E+00 -0.45593999997E+02  0.45594000000E+02  0.51100000000E-03 0. -1.
    9900012    2    1    2    0    0 -0.19699299623E+00  0.21274581578E+00 -0.11440822147E+01  0.90007749545E+02  0.90000011039E+02 0.  0.
        -12    1    1    2    0    0  0.19699299623E+00 -0.21274581578E+00  0.11440822147E+01  0.11802504551E+01  0.00000000000E+00 0.  1.
         11    1    3    3    0    0  0.98863121616E+01 -0.16057827830E+01 -0.34916648594E+02  0.36324785696E+02  0.51100000000E-03 0. -1.
        -11    1    3    3    0    0  0.13446244877E+01  0.20782983382E+01 -0.90389000900E+01  0.93717156430E+01  0.51100000000E-03 0.  1.
        -12    1    3    3    0    0 -0.11427929646E+02 -0.25976973939E+00  0.42811466470E+02  0.44311248206E+02  0.00000000000E+00 0.  1.
</event>
<event>
 7    1  0.2349719E-015  0.9000756E+02  0.7816164E-02  0.1186339E+00
        -11   -1    0    0    0    0  0.00000000000E+00  0.00000000000E+00  0.45593999997E+02  0.45594000000E+02  0.51100000000E-03 0. -1.
         11   -1    0    0    0    0 -0.00000000000E+00 -0.00000000000E+00 -0.45593999997E+02  0.45594000000E+02  0.51100000000E-03 0.  1.
    9900012    2    1    2    0    0  0.64637925592E+00 -0.97680372223E+00 -0.14661755220E+00  0.90007555863E+02  0.89999814800E+02 0.  0.
        -12    1    1    2    0    0 -0.64637925592E+00  0.97680372223E+00  0.14661755220E+00  0.11804441371E+01  0.00000000000E+00 0.  1.
         11    1    3    3    0    0 -0.19913748097E+02  0.80796266375E+01  0.26863753972E+02  0.34402020400E+02  0.51100000000E-03 0. -1.
        -11    1    3    3    0    0 -0.64640385230E+01  0.21603613691E+01  0.76504042291E+01  0.10245957271E+02  0.51100000000E-03 0.  1.
        -12    1    3    3    0    0  0.27024165876E+02 -0.11216791729E+02 -0.34660775753E+02  0.45359578192E+02  0.00000000000E+00 0.  1.
</event>
<event>
 7    1  0.2349719E-015  0.9000779E+02  0.7816164E-02  0.1186339E+00
        -11   -1    0    0    0    0  0.00000000000E+00  0.00000000000E+00  0.45593999997E+02  0.45594000000E+02  0.51100000000E-03 0.  1.
         11   -1    0    0    0    0 -0.00000000000E+00 -0.00000000000E+00 -0.45593999997E+02  0.45594000000E+02  0.51100000000E-03 0. -1.
    9900012    2    1    2    0    0 -0.35786818664E+00 -0.46310386704E+00 -0.10248681741E+01  0.90007792559E+02  0.90000054620E+02 0.  0.
        -12    1    1    2    0    0  0.35786818664E+00  0.46310386704E+00  0.10248681741E+01  0.11802074415E+01  0.00000000000E+00 0.  1.
         11    1    3    3    0    0  0.28703960260E+01  0.10274554302E+02 -0.29213933065E+01  0.11060749457E+02  0.51100000000E-03 0. -1.
        -11    1    3    3    0    0 -0.18826654507E+01  0.25265579585E+02  0.25443480352E+02  0.35906331387E+02  0.51100000000E-03 0.  1.
         12    1    3    3    0    0 -0.13455987620E+01 -0.36003237753E+02 -0.23546955220E+02  0.43040711714E+02  0.00000000000E+00 0. -1.
</event>
<event>
 7    1  0.2349719E-015  0.9000774E+02  0.7816164E-02  0.1186339E+00
        -11   -1    0    0    0    0  0.00000000000E+00  0.00000000000E+00  0.45593999997E+02  0.45594000000E+02  0.51100000000E-03 0. -1.
         11   -1    0    0    0    0 -0.00000000000E+00 -0.00000000000E+00 -0.45593999997E+02  0.45594000000E+02  0.51100000000E-03 0.  1.
    9900012    2    1    2    0    0  0.10271068295E+01 -0.56357500472E+00 -0.14298540701E+00  0.90007741532E+02  0.90000002920E+02 0.  0.
        -12    1    1    2    0    0 -0.10271068295E+01  0.56357500472E+00  0.14298540701E+00  0.11802584682E+01  0.00000000000E+00 0.  1.
         11    1    3    3    0    0  0.13840810288E+02 -0.10273898613E+02  0.22579373949E+02  0.28406850412E+02  0.51100000000E-03 0. -1.
        -11    1    3    3    0    0  0.10459199958E+02  0.11930527692E+02  0.11894162638E+02  0.19829358534E+02  0.51100000000E-03 0.  1.
        -12    1    3    3    0    0 -0.23272903417E+02 -0.22202040842E+01 -0.34616521994E+02  0.41771532586E+02  0.00000000000E+00 0.  1.
</event>
<event>
 7    1  0.2349719E-015  0.9000784E+02  0.7816164E-02  0.1186339E+00
        -11   -1    0    0    0    0  0.00000000000E+00  0.00000000000E+00  0.45593999997E+02  0.45594000000E+02  0.51100000000E-03 0. -1.
         11   -1    0    0    0    0 -0.00000000000E+00 -0.00000000000E+00 -0.45593999997E+02  0.45594000000E+02  0.51100000000E-03 0.  1.
    9900012    2    1    2    0    0 -0.14356711371E+00 -0.30030013008E-01  0.11710079670E+01  0.90007841970E+02  0.90000104684E+02 0.  0.
        -12    1    1    2    0    0  0.14356711371E+00  0.30030013008E-01 -0.11710079670E+01  0.11801580304E+01  0.00000000000E+00 0.  1.
         11    1    3    3    0    0 -0.38493793312E+02  0.43222126425E+01  0.32808683762E+01  0.38874384152E+02  0.51100000000E-03 0. -1.
        -11    1    3    3    0    0 -0.25444894368E+01  0.43409828026E+01 -0.74450262543E+01  0.89859320259E+01  0.51100000000E-03 0.  1.
        -12    1    3    3    0    0  0.40894715635E+02 -0.86932254581E+01  0.53351658451E+01  0.42147525791E+02  0.00000000000E+00 0.  1.
</event>
<event>
 7    1  0.2349719E-015  0.9000774E+02  0.7816164E-02  0.1186339E+00
        -11   -1    0    0    0    0  0.00000000000E+00  0.00000000000E+00  0.45593999997E+02  0.45594000000E+02  0.51100000000E-03 0.  1.
         11   -1    0    0    0    0 -0.00000000000E+00 -0.00000000000E+00 -0.45593999997E+02  0.45594000000E+02  0.51100000000E-03 0. -1.
    9900012    2    1    2    0    0 -0.64039685060E+00  0.33594589560E+00 -0.93276826205E+00  0.90007735453E+02  0.89999996761E+02 0.  0.
        -12    1    1    2    0    0  0.64039685060E+00 -0.33594589560E+00  0.93276826205E+00  0.11802645473E+01  0.00000000000E+00 0.  1.
         11    1    3    3    0    0 -0.21962632214E+01 -0.73369570058E+01  0.60230977222E+01  0.97433165131E+01  0.51100000000E-03 0. -1.
        -11    1    3    3    0    0 -0.14121062598E+02 -0.32265495139E+02  0.53622540852E+01  0.35626118994E+02  0.51100000000E-03 0.  1.
         12    1    3    3    0    0  0.15676928968E+02  0.39938398041E+02 -0.12318120069E+02  0.44638299945E+02  0.00000000000E+00 0. -1.
</event>
<event>
 7    1  0.2349719E-015  0.9000771E+02  0.7816164E-02  0.1186339E+00
        -11   -1    0    0    0    0  0.00000000000E+00  0.00000000000E+00  0.45593999997E+02  0.45594000000E+02  0.51100000000E-03 0.  1.
         11   -1    0    0    0    0 -0.00000000000E+00 -0.00000000000E+00 -0.45593999997E+02  0.45594000000E+02  0.51100000000E-03 0. -1.
    9900012    2    1    2    0    0  0.66377291951E+00 -0.79791678718E+00 -0.56196771938E+00  0.90007714693E+02  0.89999975727E+02 0.  0.
        -12    1    1    2    0    0 -0.66377291951E+00  0.79791678718E+00  0.56196771938E+00  0.11802853068E+01  0.00000000000E+00 0.  1.
         11    1    3    3    0    0  0.29574538269E+02  0.10509703919E+02 -0.23805127731E+02  0.39392782294E+02  0.51100000000E-03 0. -1.
        -11    1    3    3    0    0 -0.62279629479E+01  0.11179199674E+02  0.89889871401E+01  0.15638539506E+02  0.51100000000E-03 0.  1.
        -12    1    3    3    0    0 -0.22682802401E+02 -0.22486820380E+02  0.14254172872E+02  0.34976392893E+02  0.00000000000E+00 0.  1.
</event>
<event>
 7    1  0.2349719E-015  0.9000766E+02  0.7816164E-02  0.1186339E+00
        -11   -1    0    0    0    0  0.00000000000E+00  0.00000000000E+00  0.45593999997E+02  0.45594000000E+02  0.51100000000E-03 0.  1.
         11   -1    0    0    0    0 -0.00000000000E+00 -0.00000000000E+00 -0.45593999997E+02  0.45594000000E+02  0.51100000000E-03 0. -1.
    9900012    2    1    2    0    0 -0.11147439559E+01 -0.32376368748E+00  0.21383061188E+00  0.90007660836E+02  0.89999921159E+02 0.  0.
        -12    1    1    2    0    0  0.11147439559E+01  0.32376368748E+00 -0.21383061188E+00  0.11803391644E+01  0.00000000000E+00 0.  1.
         11    1    3    3    0    0 -0.22224516780E+01 -0.75537804852E+01 -0.65232354552E+01  0.10225042403E+02  0.51100000000E-03 0. -1.
        -11    1    3    3    0    0 -0.25770799249E+02  0.32500439942E+02 -0.31231911920E+01  0.41595276340E+02  0.51100000000E-03 0.  1.
         12    1    3    3    0    0  0.26878506971E+02 -0.25270423144E+02  0.98602572591E+01  0.38187342092E+02  0.00000000000E+00 0. -1.
</event>
<event>
 7    1  0.2349719E-015  0.9000758E+02  0.7816164E-02  0.1186339E+00
        -11   -1    0    0    0    0  0.00000000000E+00  0.00000000000E+00  0.45593999997E+02  0.45594000000E+02  0.51100000000E-03 0. -1.
         11   -1    0    0    0    0 -0.00000000000E+00 -0.00000000000E+00 -0.45593999997E+02  0.45594000000E+02  0.51100000000E-03 0.  1.
    9900012    2    1    2    0    0  0.23137371844E+00  0.83053813436E+00  0.80626639239E+00  0.90007579361E+02  0.89999838608E+02 0.  0.
        -12    1    1    2    0    0 -0.23137371844E+00 -0.83053813436E+00 -0.80626639239E+00  0.11804206393E+01  0.00000000000E+00 0.  1.
         11    1    3    3    0    0 -0.71920687818E+01  0.63540600836E+01 -0.28480392313E+00  0.96010961063E+01  0.51100000000E-03 0. -1.
        -11    1    3    3    0    0 -0.30855604375E+02 -0.12486526260E+02  0.18162169364E+02  0.37918940593E+02  0.51100000000E-03 0.  1.
         12    1    3    3    0    0  0.38279046875E+02  0.69630043105E+01 -0.17071099048E+02  0.42487542662E+02  0.00000000000E+00 0. -1.
</event>
<event>
 7    1  0.2349719E-015  0.9000772E+02  0.7816164E-02  0.1186339E+00
        -11   -1    0    0    0    0  0.00000000000E+00  0.00000000000E+00  0.45593999997E+02  0.45594000000E+02  0.51100000000E-03 0.  1.
         11   -1    0    0    0    0 -0.00000000000E+00 -0.00000000000E+00 -0.45593999997E+02  0.45594000000E+02  0.51100000000E-03 0. -1.
    9900012    2    1    2    0    0 -0.35735557176E+00  0.74428082868E-01 -0.11224208090E+01  0.90007715705E+02  0.89999976752E+02 0.  0.
        -12    1    1    2    0    0  0.35735557176E+00 -0.74428082868E-01  0.11224208090E+01  0.11802842948E+01  0.00000000000E+00 0.  1.
         11    1    3    3    0    0  0.51674370663E+01  0.16549110773E+02 -0.36138324494E+02  0.40081840910E+02  0.51100000000E-03 0. -1.
        -11    1    3    3    0    0 -0.80092793740E+01 -0.31066834010E+00 -0.29868196360E+01  0.85537221552E+01  0.51100000000E-03 0.  1.
        -12    1    3    3    0    0  0.24844867360E+01 -0.16164014350E+02  0.38002723321E+02  0.41372152640E+02  0.00000000000E+00 0.  1.
</event>
<event>
 7    1  0.2349719E-015  0.9000770E+02  0.7816164E-02  0.1186339E+00
        -11   -1    0    0    0    0  0.00000000000E+00  0.00000000000E+00  0.45593999997E+02  0.45594000000E+02  0.51100000000E-03 0.  1.
         11   -1    0    0    0    0 -0.00000000000E+00 -0.00000000000E+00 -0.45593999997E+02  0.45594000000E+02  0.51100000000E-03 0. -1.
    9900012    2    1    2    0    0  0.42955055278E+00 -0.78391024953E+00 -0.77077194366E+00  0.90007695655E+02  0.89999956438E+02 0.  0.
        -12    1    1    2    0    0 -0.42955055278E+00  0.78391024953E+00  0.77077194366E+00  0.11803043446E+01  0.00000000000E+00 0.  1.
         11    1    3    3    0    0 -0.23390993980E+02  0.25473242562E+01 -0.25910366077E+02  0.34999636151E+02  0.51100000000E-03 0. -1.
        -11    1    3    3    0    0 -0.92134434221E+01 -0.47753489332E+01 -0.38154884582E+01  0.11056647302E+02  0.51100000000E-03 0.  1.
        -12    1    3    3    0    0  0.33033987955E+02  0.14441144275E+01  0.28955082591E+02  0.43951412202E+02  0.00000000000E+00 0.  1.
</event>
<event>
 7    1  0.2563403E-015  0.9000772E+02  0.7816164E-02  0.1186339E+00
        -11   -1    0    0    0    0  0.00000000000E+00  0.00000000000E+00  0.45593999997E+02  0.45594000000E+02  0.51100000000E-03 0.  1.
         11   -1    0    0    0    0 -0.00000000000E+00 -0.00000000000E+00 -0.45593999997E+02  0.45594000000E+02  0.51100000000E-03 0. -1.
    9900012    2    1    2    0    0 -0.10550023678E+00  0.96706069417E+00 -0.66837290408E+00  0.90007720785E+02  0.89999981899E+02 0.  0.
        -12    1    1    2    0    0  0.10550023678E+00 -0.96706069417E+00  0.66837290408E+00  0.11802792149E+01  0.00000000000E+00 0.  1.
         11    1    3    3    0    0 -0.22941771525E+01 -0.45247626882E+00 -0.39734991663E+02  0.39803737844E+02  0.51100000000E-03 0. -1.
        -11    1    3    3    0    0 -0.20055315512E+01 -0.95391613121E+01  0.35615877992E+00  0.97542095876E+01  0.51100000000E-03 0.  1.
        -12    1    3    3    0    0  0.41942084670E+01  0.10958698275E+02  0.38710459979E+02  0.40449773354E+02  0.00000000000E+00 0.  1.
</event>
<event>
 7    1  0.2349719E-015  0.9000772E+02  0.7816164E-02  0.1186339E+00
        -11   -1    0    0    0    0  0.00000000000E+00  0.00000000000E+00  0.45593999997E+02  0.45594000000E+02  0.51100000000E-03 0. -1.
         11   -1    0    0    0    0 -0.00000000000E+00 -0.00000000000E+00 -0.45593999997E+02  0.45594000000E+02  0.51100000000E-03 0.  1.
    9900012    2    1    2    0    0  0.85371750201E+00  0.21137060574E-01  0.81472629357E+00  0.90007720676E+02  0.89999981789E+02 0.  0.
        -12    1    1    2    0    0 -0.85371750201E+00 -0.21137060574E-01 -0.81472629357E+00  0.11802793237E+01  0.00000000000E+00 0.  1.
         11    1    3    3    0    0 -0.49198380476E+01 -0.48089921262E+01 -0.65882316391E+01  0.95255450278E+01  0.51100000000E-03 0. -1.
        -11    1    3    3    0    0  0.13833826023E+02 -0.31610946819E+02 -0.14252024920E+02  0.37332920001E+02  0.51100000000E-03 0.  1.
         12    1    3    3    0    0 -0.80602704730E+01  0.36441076006E+02  0.21654982852E+02  0.43149255647E+02  0.00000000000E+00 0. -1.
</event>
<event>
 7    1  0.2349719E-015  0.9000773E+02  0.7816164E-02  0.1186339E+00
        -11   -1    0    0    0    0  0.00000000000E+00  0.00000000000E+00  0.45593999997E+02  0.45594000000E+02  0.51100000000E-03 0.  1.
         11   -1    0    0    0    0 -0.00000000000E+00 -0.00000000000E+00 -0.45593999997E+02  0.45594000000E+02  0.51100000000E-03 0. -1.
    9900012    2    1    2    0    0  0.97261623270E+00 -0.44723704130E+00 -0.49702712781E+00  0.90007729153E+02  0.89999990378E+02 0.  0.
        -12    1    1    2    0    0 -0.97261623270E+00  0.44723704130E+00  0.49702712781E+00  0.11802708473E+01  0.00000000000E+00 0.  1.
         11    1    3    3    0    0  0.30169191958E+02 -0.27332387674E+02  0.29171984357E+01  0.40813595852E+02  0.51100000000E-03 0. -1.
        -11    1    3    3    0    0  0.45632742040E+01  0.76886263983E+01  0.37631090408E+01  0.97004864449E+01  0.51100000000E-03 0.  1.
        -12    1    3    3    0    0 -0.33759849930E+02  0.19196524235E+02 -0.71773346043E+01  0.39493646856E+02  0.00000000000E+00 0.  1.
</event>
<event>
 7    1  0.2349719E-015  0.9000815E+02  0.7816164E-02  0.1186338E+00
        -11   -1    0    0    0    0  0.00000000000E+00  0.00000000000E+00  0.45593999997E+02  0.45594000000E+02  0.51100000000E-03 0.  1.
         11   -1    0    0    0    0 -0.00000000000E+00 -0.00000000000E+00 -0.45593999997E+02  0.45594000000E+02  0.51100000000E-03 0. -1.
    9900012    2    1    2    0    0  0.28852280167E+00 -0.74623135494E+00 -0.86714382193E+00  0.90008150412E+02  0.90000417197E+02 0.  0.
        -12    1    1    2    0    0 -0.28852280167E+00  0.74623135494E+00  0.86714382193E+00  0.11798495879E+01  0.00000000000E+00 0.  1.
         11    1    3    3    0    0 -0.10860284561E+02  0.36405985099E+00 -0.84359970847E-01  0.10866712345E+02  0.51100000000E-03 0. -1.
        -11    1    3    3    0    0  0.34663745043E+01  0.22774150131E+00  0.38720402961E+02  0.38875920878E+02  0.51100000000E-03 0.  1.
         12    1    3    3    0    0  0.76824328582E+01 -0.13380327072E+01 -0.39503186812E+02  0.40265517189E+02  0.00000000000E+00 0. -1.
</event>
<event>
 7    1  0.2349719E-015  0.9000769E+02  0.7816164E-02  0.1186339E+00
        -11   -1    0    0    0    0  0.00000000000E+00  0.00000000000E+00  0.45593999997E+02  0.45594000000E+02  0.51100000000E-03 0. -1.
         11   -1    0    0    0    0 -0.00000000000E+00 -0.00000000000E+00 -0.45593999997E+02  0.45594000000E+02  0.51100000000E-03 0.  1.
    9900012    2    1    2    0    0 -0.10142999863E+01  0.88024761196E-01  0.59714764595E+00  0.90007687274E+02  0.89999947946E+02 0.  0.
        -12    1    1    2    0    0  0.10142999863E+01 -0.88024761196E-01 -0.59714764595E+00  0.11803127263E+01  0.00000000000E+00 0.  1.
         11    1    3    3    0    0  0.87612683998E+01 -0.14135116281E+01 -0.61275369685E+01  0.10784458663E+02  0.51100000000E-03 0. -1.
        -11    1    3    3    0    0  0.34128671179E+02  0.24228491265E+01 -0.26597420228E+01  0.34317788714E+02  0.51100000000E-03 0.  1.
         12    1    3    3    0    0 -0.43904239565E+02 -0.92131273721E+00  0.93844266373E+01  0.44905439896E+02  0.00000000000E+00 0. -1.
</event>
<event>
 7    1  0.2349719E-015  0.9000773E+02  0.7816164E-02  0.1186339E+00
        -11   -1    0    0    0    0  0.00000000000E+00  0.00000000000E+00  0.45593999997E+02  0.45594000000E+02  0.51100000000E-03 0.  1.
         11   -1    0    0    0    0 -0.00000000000E+00 -0.00000000000E+00 -0.45593999997E+02  0.45594000000E+02  0.51100000000E-03 0. -1.
    9900012    2    1    2    0    0  0.70066999825E+00 -0.65253796872E+00 -0.69014546872E+00  0.90007726720E+02  0.89999987913E+02 0.  0.
        -12    1    1    2    0    0 -0.70066999825E+00  0.65253796872E+00  0.69014546872E+00  0.11802732798E+01  0.00000000000E+00 0.  1.
         11    1    3    3    0    0  0.70986241466E+01 -0.10657363624E+02  0.10789986620E+01  0.12850451453E+02  0.51100000000E-03 0. -1.
        -11    1    3    3    0    0  0.25307099144E+02  0.37234113923E+01  0.24565982449E+02  0.35465483972E+02  0.51100000000E-03 0.  1.
         12    1    3    3    0    0 -0.31705053292E+02  0.62814142626E+01 -0.26335126579E+02  0.41691791294E+02  0.00000000000E+00 0. -1.
</event>
<event>
 7    1  0.2423472E-015  0.9000775E+02  0.7816164E-02  0.1186339E+00
        -11   -1    0    0    0    0  0.00000000000E+00  0.00000000000E+00  0.45593999997E+02  0.45594000000E+02  0.51100000000E-03 0. -1.
         11   -1    0    0    0    0 -0.00000000000E+00 -0.00000000000E+00 -0.45593999997E+02  0.45594000000E+02  0.51100000000E-03 0.  1.
    9900012    2    1    2    0    0 -0.54754431783E+00  0.85467146625E+00  0.60226075435E+00  0.90007751674E+02  0.90000013196E+02 0.  0.
        -12    1    1    2    0    0  0.54754431783E+00 -0.85467146625E+00 -0.60226075435E+00  0.11802483262E+01  0.00000000000E+00 0.  1.
         11    1    3    3    0    0  0.18200043968E+01  0.34183954416E+02  0.25828383698E+02  0.42883103436E+02  0.51100000000E-03 0. -1.
        -11    1    3    3    0    0  0.73965247845E+01 -0.36642956593E+01 -0.29589973955E+01  0.87687688654E+01  0.51100000000E-03 0.  1.
        -12    1    3    3    0    0 -0.97640734992E+01 -0.29664987291E+02 -0.22267125549E+02  0.38355879373E+02  0.00000000000E+00 0.  1.
</event>
<event>
 7    1  0.2349719E-015  0.9000788E+02  0.7816164E-02  0.1186339E+00
        -11   -1    0    0    0    0  0.00000000000E+00  0.00000000000E+00  0.45593999997E+02  0.45594000000E+02  0.51100000000E-03 0.  1.
         11   -1    0    0    0    0 -0.00000000000E+00 -0.00000000000E+00 -0.45593999997E+02  0.45594000000E+02  0.51100000000E-03 0. -1.
    9900012    2    1    2    0    0  0.49927251591E+00  0.80163469963E+00  0.70767022815E+00  0.90007877808E+02  0.90000140995E+02 0.  0.
        -12    1    1    2    0    0 -0.49927251591E+00 -0.80163469963E+00 -0.70767022815E+00  0.11801221922E+01  0.00000000000E+00 0.  1.
         11    1    3    3    0    0 -0.29772992594E+02 -0.76207722643E+01 -0.24791165799E+02  0.39485556345E+02  0.51100000000E-03 0. -1.
        -11    1    3    3    0    0 -0.53761608830E+01 -0.30050903251E+01  0.41608900130E+01  0.74328110203E+01  0.51100000000E-03 0.  1.
         12    1    3    3    0    0  0.35648425993E+02  0.11427497289E+02  0.21337946014E+02  0.43089510443E+02  0.00000000000E+00 0. -1.
</event>
<event>
 7    1  0.2349719E-015  0.9000803E+02  0.7816164E-02  0.1186338E+00
        -11   -1    0    0    0    0  0.00000000000E+00  0.00000000000E+00  0.45593999997E+02  0.45594000000E+02  0.51100000000E-03 0. -1.
         11   -1    0    0    0    0 -0.00000000000E+00 -0.00000000000E+00 -0.45593999997E+02  0.45594000000E+02  0.51100000000E-03 0.  1.
    9900012    2    1    2    0    0  0.11607756760E+01  0.20677060368E+00 -0.46695912788E-01  0.90008027644E+02  0.90000292809E+02 0.  0.
        -12    1    1    2    0    0 -0.11607756760E+01 -0.20677060368E+00  0.46695912788E-01  0.11799723559E+01  0.00000000000E+00 0.  1.
         11    1    3    3    0    0 -0.63417494444E+01  0.33819475302E+02 -0.83811735530E+01  0.35414951167E+02  0.51100000000E-03 0. -1.
        -11    1    3    3    0    0 -0.59721101172E+01  0.80283560578E+01 -0.17033629978E+00  0.10007477952E+02  0.51100000000E-03 0.  1.
        -12    1    3    3    0    0  0.13474635238E+02 -0.41641060757E+02  0.85048139400E+01  0.44585598525E+02  0.00000000000E+00 0.  1.
</event>
<event>
 7    1  0.2349719E-015  0.9000772E+02  0.7816164E-02  0.1186339E+00
        -11   -1    0    0    0    0  0.00000000000E+00  0.00000000000E+00  0.45593999997E+02  0.45594000000E+02  0.51100000000E-03 0.  1.
         11   -1    0    0    0    0 -0.00000000000E+00 -0.00000000000E+00 -0.45593999997E+02  0.45594000000E+02  0.51100000000E-03 0. -1.
    9900012    2    1    2    0    0 -0.26610625250E+00  0.62547034041E+00 -0.96490707445E+00  0.90007715565E+02  0.89999976611E+02 0.  0.
        -12    1    1    2    0    0  0.26610625250E+00 -0.62547034041E+00  0.96490707445E+00  0.11802844346E+01  0.00000000000E+00 0.  1.
         11    1    3    3    0    0 -0.24465835807E+02 -0.24563509360E+00 -0.34102555673E+02  0.41971678094E+02  0.51100000000E-03 0. -1.
        -11    1    3    3    0    0  0.60635974945E+01 -0.58092642375E+01 -0.13469079874E+01  0.85046414941E+01  0.51100000000E-03 0.  1.
        -12    1    3    3    0    0  0.18136132060E+02  0.66803696715E+01  0.34484556586E+02  0.39531395978E+02  0.00000000000E+00 0.  1.
</event>
<event>
 7    1  0.2349719E-015  0.9000749E+02  0.7816164E-02  0.1186340E+00
        -11   -1    0    0    0    0  0.00000000000E+00  0.00000000000E+00  0.45593999997E+02  0.45594000000E+02  0.51100000000E-03 0. -1.
         11   -1    0    0    0    0 -0.00000000000E+00 -0.00000000000E+00 -0.45593999997E+02  0.45594000000E+02  0.51100000000E-03 0.  1.
    9900012    2    1    2    0    0  0.42132887022E+00  0.69604219523E+00 -0.85534001299E+00  0.90007491935E+02  0.89999750028E+02 0.  0.
        -12    1    1    2    0    0 -0.42132887022E+00 -0.69604219523E+00  0.85534001299E+00  0.11805080653E+01  0.00000000000E+00 0.  1.
         11    1    3    3    0    0  0.76524441699E+01 -0.88976526820E+01  0.74081498265E+01  0.13878357581E+02  0.51100000000E-03 0. -1.
        -11    1    3    3    0    0  0.23776606220E+02 -0.18222248262E+02  0.86353973792E+01  0.31176071324E+02  0.51100000000E-03 0.  1.
         12    1    3    3    0    0 -0.31007721519E+02  0.27815943139E+02 -0.16898887219E+02  0.44953063030E+02  0.00000000000E+00 0. -1.
</event>
<event>
 7    1  0.2349719E-015  0.9000778E+02  0.7816164E-02  0.1186339E+00
        -11   -1    0    0    0    0  0.00000000000E+00  0.00000000000E+00  0.45593999997E+02  0.45594000000E+02  0.51100000000E-03 0. -1.
         11   -1    0    0    0    0 -0.00000000000E+00 -0.00000000000E+00 -0.45593999997E+02  0.45594000000E+02  0.51100000000E-03 0.  1.
    9900012    2    1    2    0    0 -0.71374935064E+00 -0.77988447269E+00  0.52466382563E+00  0.90007775421E+02  0.90000037257E+02 0.  0.
        -12    1    1    2    0    0  0.71374935064E+00  0.77988447269E+00 -0.52466382563E+00  0.11802245787E+01  0.00000000000E+00 0.  1.
         11    1    3    3    0    0  0.73831403953E+01  0.28026243530E+01 -0.68576704125E+01  0.10459116077E+02  0.51100000000E-03 0. -1.
        -11    1    3    3    0    0 -0.36942788740E+01 -0.30321398039E+02 -0.23443512149E+02  0.38504975491E+02  0.51100000000E-03 0.  1.
         12    1    3    3    0    0 -0.44026108720E+01  0.26738889213E+02  0.30825846387E+02  0.41043683854E+02  0.00000000000E+00 0. -1.
</event>
<event>
 7    1  0.2349719E-015  0.9000767E+02  0.7816164E-02  0.1186339E+00
        -11   -1    0    0    0    0  0.00000000000E+00  0.00000000000E+00  0.45593999997E+02  0.45594000000E+02  0.51100000000E-03 0. -1.
         11   -1    0    0    0    0 -0.00000000000E+00 -0.00000000000E+00 -0.45593999997E+02  0.45594000000E+02  0.51100000000E-03 0.  1.
    9900012    2    1    2    0    0  0.17827105771E+00  0.17571374258E-01  0.11666576125E+01  0.90007669831E+02  0.89999930273E+02 0.  0.
        -12    1    1    2    0    0 -0.17827105771E+00 -0.17571374258E-01 -0.11666576125E+01  0.11803301691E+01  0.00000000000E+00 0.  1.
         11    1    3    3    0    0 -0.22579210389E+02  0.22320468306E+02  0.14926544802E+02  0.35083126816E+02  0.51100000000E-03 0. -1.
        -11    1    3    3    0    0 -0.92939232361E+01  0.39262594809E+01  0.25607080453E+01  0.10409118531E+02  0.51100000000E-03 0.  1.
        -12    1    3    3    0    0  0.32051404683E+02 -0.26229156412E+02 -0.16320595235E+02  0.44515424485E+02  0.00000000000E+00 0.  1.
</event>
<event>
 7    1  0.2349719E-015  0.9000777E+02  0.7816164E-02  0.1186339E+00
        -11   -1    0    0    0    0  0.00000000000E+00  0.00000000000E+00  0.45593999997E+02  0.45594000000E+02  0.51100000000E-03 0.  1.
         11   -1    0    0    0    0 -0.00000000000E+00 -0.00000000000E+00 -0.45593999997E+02  0.45594000000E+02  0.51100000000E-03 0. -1.
    9900012    2    1    2    0    0 -0.48890562584E+00 -0.51808604309E+00 -0.94100705461E+00  0.90007772846E+02  0.90000034647E+02 0.  0.
        -12    1    1    2    0    0  0.48890562584E+00  0.51808604309E+00  0.94100705461E+00  0.11802271543E+01  0.00000000000E+00 0.  1.
         11    1    3    3    0    0 -0.34623782740E+02  0.17501597945E+01 -0.97472942169E+01  0.36012208143E+02  0.51100000000E-03 0. -1.
        -11    1    3    3    0    0 -0.94534860518E+01  0.12567908277E+01  0.18684903665E+01  0.97179822096E+01  0.51100000000E-03 0.  1.
        -12    1    3    3    0    0  0.43588363166E+02 -0.35250366653E+01  0.69377967958E+01  0.44277582493E+02  0.00000000000E+00 0.  1.
</event>
<event>
 7    1  0.2349719E-015  0.9000780E+02  0.7816164E-02  0.1186339E+00
        -11   -1    0    0    0    0  0.00000000000E+00  0.00000000000E+00  0.45593999997E+02  0.45594000000E+02  0.51100000000E-03 0.  1.
         11   -1    0    0    0    0 -0.00000000000E+00 -0.00000000000E+00 -0.45593999997E+02  0.45594000000E+02  0.51100000000E-03 0. -1.
    9900012    2    1    2    0    0  0.28762056265E+00  0.46554744158E+00 -0.10456654702E+01  0.90007798202E+02  0.90000060338E+02 0.  0.
        -12    1    1    2    0    0 -0.28762056265E+00 -0.46554744158E+00  0.10456654702E+01  0.11802017980E+01  0.00000000000E+00 0.  1.
         11    1    3    3    0    0  0.25956181018E+02  0.16703663528E+02 -0.21845535167E+02  0.37814853104E+02  0.51100000000E-03 0. -1.
        -11    1    3    3    0    0  0.27246104434E+01 -0.18076715706E+01 -0.83811603567E+01  0.89963897070E+01  0.51100000000E-03 0.  1.
        -12    1    3    3    0    0 -0.28393170898E+02 -0.14430444516E+02  0.29181030054E+02  0.43196555391E+02  0.00000000000E+00 0.  1.
</event>
<event>
 7    1  0.2349719E-015  0.9000772E+02  0.7816164E-02  0.1186339E+00
        -11   -1    0    0    0    0  0.00000000000E+00  0.00000000000E+00  0.45593999997E+02  0.45594000000E+02  0.51100000000E-03 0.  1.
         11   -1    0    0    0    0 -0.00000000000E+00 -0.00000000000E+00 -0.45593999997E+02  0.45594000000E+02  0.51100000000E-03 0. -1.
    9900012    2    1    2    0    0  0.93855039750E+00  0.64146706442E+00  0.31732226460E+00  0.90007724497E+02  0.89999985660E+02 0.  0.
        -12    1    1    2    0    0 -0.93855039750E+00 -0.64146706442E+00 -0.31732226460E+00  0.11802755030E+01  0.00000000000E+00 0.  1.
         11    1    3    3    0    0  0.35880214981E+01  0.83111085526E+01 -0.32146736443E+01  0.96063807203E+01  0.51100000000E-03 0. -1.
        -11    1    3    3    0    0 -0.30609295461E+02 -0.99104368818E+01 -0.24732317709E+02  0.40581193518E+02  0.51100000000E-03 0.  1.
         12    1    3    3    0    0  0.27959824361E+02  0.22407953936E+01  0.28264313618E+02  0.39820150258E+02  0.00000000000E+00 0. -1.
</event>
<event>
 7    1  0.2349719E-015  0.9000777E+02  0.7816164E-02  0.1186339E+00
        -11   -1    0    0    0    0  0.00000000000E+00  0.00000000000E+00  0.45593999997E+02  0.45594000000E+02  0.51100000000E-03 0.  1.
         11   -1    0    0    0    0 -0.00000000000E+00 -0.00000000000E+00 -0.45593999997E+02  0.45594000000E+02  0.51100000000E-03 0. -1.
    9900012    2    1    2    0    0 -0.95652391343E+00  0.27618932746E+00  0.63380813123E+00  0.90007774899E+02  0.90000036728E+02 0.  0.
        -12    1    1    2    0    0  0.95652391343E+00 -0.27618932746E+00 -0.63380813123E+00  0.11802251009E+01  0.00000000000E+00 0.  1.
         11    1    3    3    0    0 -0.62946064707E+01  0.42466321104E+02  0.10793497193E+02  0.44266353822E+02  0.51100000000E-03 0. -1.
        -11    1    3    3    0    0  0.23276461537E+01 -0.82657264236E+01  0.31902980810E+01  0.91606862207E+01  0.51100000000E-03 0.  1.
        -12    1    3    3    0    0  0.30104364035E+01 -0.33924405353E+02 -0.13349987143E+02  0.36580734856E+02  0.00000000000E+00 0.  1.
</event>
<event>
 7    1  0.2349719E-015  0.9000774E+02  0.7816164E-02  0.1186339E+00
        -11   -1    0    0    0    0  0.00000000000E+00  0.00000000000E+00  0.45593999997E+02  0.45594000000E+02  0.51100000000E-03 0.  1.
         11   -1    0    0    0    0 -0.00000000000E+00 -0.00000000000E+00 -0.45593999997E+02  0.45594000000E+02  0.51100000000E-03 0. -1.
    9900012    2    1    2    0    0  0.16321791436E+00  0.17706408078E-01 -0.11687857196E+01  0.90007740002E+02  0.90000001370E+02 0.  0.
        -12    1    1    2    0    0 -0.16321791436E+00 -0.17706408078E-01  0.11687857196E+01  0.11802599980E+01  0.00000000000E+00 0.  1.
         11    1    3    3    0    0  0.77205915063E+00 -0.45239442536E+00 -0.59536530279E+01  0.60205249510E+01  0.51100000000E-03 0. -1.
        -11    1    3    3    0    0 -0.15042331388E+02 -0.38531026074E+02 -0.37548135359E+01  0.41533243659E+02  0.51100000000E-03 0.  1.
         12    1    3    3    0    0  0.14433490152E+02  0.39001126907E+02  0.85396808441E+01  0.42453971392E+02  0.00000000000E+00 0. -1.
</event>
<event>
 7    1  0.2349719E-015  0.9000770E+02  0.7816164E-02  0.1186339E+00
        -11   -1    0    0    0    0  0.00000000000E+00  0.00000000000E+00  0.45593999997E+02  0.45594000000E+02  0.51100000000E-03 0. -1.
         11   -1    0    0    0    0 -0.00000000000E+00 -0.00000000000E+00 -0.45593999997E+02  0.45594000000E+02  0.51100000000E-03 0.  1.
    9900012    2    1    2    0    0 -0.21221609248E-01 -0.11291026007E+01 -0.34320693899E+00  0.90007697478E+02  0.89999958285E+02 0.  0.
        -12    1    1    2    0    0  0.21221609248E-01  0.11291026007E+01  0.34320693899E+00  0.11803025216E+01  0.00000000000E+00 0.  1.
         11    1    3    3    0    0  0.29888295375E+02 -0.23412209742E+02 -0.17436815612E+02  0.41778993578E+02  0.51100000000E-03 0. -1.
        -11    1    3    3    0    0 -0.75823062578E+01 -0.66010889741E+00 -0.51994717949E+01  0.92174627284E+01  0.51100000000E-03 0.  1.
        -12    1    3    3    0    0 -0.22327210726E+02  0.22943216039E+02  0.22293080468E+02  0.39011241172E+02  0.00000000000E+00 0.  1.
</event>
<event>
 7    1  0.2349719E-015  0.9000765E+02  0.7816164E-02  0.1186339E+00
        -11   -1    0    0    0    0  0.00000000000E+00  0.00000000000E+00  0.45593999997E+02  0.45594000000E+02  0.51100000000E-03 0.  1.
         11   -1    0    0    0    0 -0.00000000000E+00 -0.00000000000E+00 -0.45593999997E+02  0.45594000000E+02  0.51100000000E-03 0. -1.
    9900012    2    1    2    0    0  0.10072026321E+01 -0.37852423389E-01 -0.61427991786E+00  0.90007648457E+02  0.89999908616E+02 0.  0.
        -12    1    1    2    0    0 -0.10072026321E+01  0.37852423389E-01  0.61427991786E+00  0.11803515432E+01  0.00000000000E+00 0.  1.
         11    1    3    3    0    0 -0.20817132577E+02  0.24361237111E+02  0.13435611591E+02  0.34746777424E+02  0.51100000000E-03 0. -1.
        -11    1    3    3    0    0 -0.86863979100E+01  0.20675726558E+01  0.53961899540E+01  0.10432987665E+02  0.51100000000E-03 0.  1.
        -12    1    3    3    0    0  0.30510733119E+02 -0.26466662191E+02 -0.19446081463E+02  0.44827883367E+02  0.00000000000E+00 0.  1.
</event>
<event>
 7    1  0.2349719E-015  0.9000775E+02  0.7816164E-02  0.1186339E+00
        -11   -1    0    0    0    0  0.00000000000E+00  0.00000000000E+00  0.45593999997E+02  0.45594000000E+02  0.51100000000E-03 0.  1.
         11   -1    0    0    0    0 -0.00000000000E+00 -0.00000000000E+00 -0.45593999997E+02  0.45594000000E+02  0.51100000000E-03 0. -1.
    9900012    2    1    2    0    0  0.64309807196E+00  0.45331727062E+00 -0.87972222914E+00  0.90007753043E+02  0.90000014584E+02 0.  0.
        -12    1    1    2    0    0 -0.64309807196E+00 -0.45331727062E+00  0.87972222914E+00  0.11802469566E+01  0.00000000000E+00 0.  1.
         11    1    3    3    0    0  0.39921906011E+00 -0.38214924868E+01 -0.26576247099E+01  0.46718465348E+01  0.51100000000E-03 0. -1.
        -11    1    3    3    0    0  0.15705211413E+02  0.36835824559E+02 -0.18353484976E+02  0.44049767848E+02  0.51100000000E-03 0.  1.
         12    1    3    3    0    0 -0.15461332401E+02 -0.32561014802E+02  0.20131387456E+02  0.41286138660E+02  0.00000000000E+00 0. -1.
</event>
<event>
 7    1  0.2349719E-015  0.9000770E+02  0.7816164E-02  0.1186339E+00
        -11   -1    0    0    0    0  0.00000000000E+00  0.00000000000E+00  0.45593999997E+02  0.45594000000E+02  0.51100000000E-03 0.  1.
         11   -1    0    0    0    0 -0.00000000000E+00 -0.00000000000E+00 -0.45593999997E+02  0.45594000000E+02  0.51100000000E-03 0. -1.
    9900012    2    1    2    0    0  0.26551222786E+00 -0.10916322418E+01  0.36188415265E+00  0.90007695872E+02  0.89999956658E+02 0.  0.
        -12    1    1    2    0    0 -0.26551222786E+00  0.10916322418E+01 -0.36188415265E+00  0.11803041279E+01  0.00000000000E+00 0.  1.
         11    1    3    3    0    0  0.22470815713E+01  0.77215749200E+01  0.10985835216E+01  0.81165867733E+01  0.51100000000E-03 0. -1.
        -11    1    3    3    0    0  0.33970131026E+02  0.10765346567E+02 -0.14827454711E+02  0.38596837980E+02  0.51100000000E-03 0.  1.
         12    1    3    3    0    0 -0.35951700369E+02 -0.19578553729E+02  0.14090755342E+02  0.43294271118E+02  0.00000000000E+00 0. -1.
</event>
<event>
 7    1  0.2349719E-015  0.9000774E+02  0.7816164E-02  0.1186339E+00
        -11   -1    0    0    0    0  0.00000000000E+00  0.00000000000E+00  0.45593999997E+02  0.45594000000E+02  0.51100000000E-03 0. -1.
         11   -1    0    0    0    0 -0.00000000000E+00 -0.00000000000E+00 -0.45593999997E+02  0.45594000000E+02  0.51100000000E-03 0.  1.
    9900012    2    1    2    0    0  0.30855429299E+00 -0.34901123634E+00  0.10844336109E+01  0.90007741193E+02  0.90000002577E+02 0.  0.
        -12    1    1    2    0    0 -0.30855429299E+00  0.34901123634E+00 -0.10844336109E+01  0.11802588069E+01  0.00000000000E+00 0.  1.
         11    1    3    3    0    0  0.62620457391E+01 -0.59105271558E+01 -0.85068100522E+00  0.86528149484E+01  0.51100000000E-03 0. -1.
        -11    1    3    3    0    0  0.27605736169E+02 -0.24018819458E+02  0.42856532367E+00  0.36594590121E+02  0.51100000000E-03 0.  1.
         12    1    3    3    0    0 -0.33559227615E+02  0.29580335378E+02  0.15065492924E+01  0.44760336124E+02  0.00000000000E+00 0. -1.
</event>
<event>
 7    1  0.2349719E-015  0.9000769E+02  0.7816164E-02  0.1186339E+00
        -11   -1    0    0    0    0  0.00000000000E+00  0.00000000000E+00  0.45593999997E+02  0.45594000000E+02  0.51100000000E-03 0. -1.
         11   -1    0    0    0    0 -0.00000000000E+00 -0.00000000000E+00 -0.45593999997E+02  0.45594000000E+02  0.51100000000E-03 0.  1.
    9900012    2    1    2    0    0  0.73317517161E+00 -0.91139222125E+00 -0.15797018443E+00  0.90007688095E+02  0.89999948778E+02 0.  0.
        -12    1    1    2    0    0 -0.73317517161E+00  0.91139222125E+00  0.15797018443E+00  0.11803119047E+01  0.00000000000E+00 0.  1.
         11    1    3    3    0    0 -0.13557641344E+02 -0.87643403925E+01  0.35108970512E+02  0.38642762737E+02  0.51100000000E-03 0. -1.
        -11    1    3    3    0    0 -0.60306644282E+01  0.46446561596E+01  0.27866832895E+01  0.81060069272E+01  0.51100000000E-03 0.  1.
        -12    1    3    3    0    0  0.20321480943E+02  0.32082920117E+01 -0.38053623986E+02  0.43258918431E+02  0.00000000000E+00 0.  1.
</event>
<event>
 7    1  0.2349719E-015  0.9000769E+02  0.7816164E-02  0.1186339E+00
        -11   -1    0    0    0    0  0.00000000000E+00  0.00000000000E+00  0.45593999997E+02  0.45594000000E+02  0.51100000000E-03 0.  1.
         11   -1    0    0    0    0 -0.00000000000E+00 -0.00000000000E+00 -0.45593999997E+02  0.45594000000E+02  0.51100000000E-03 0. -1.
    9900012    2    1    2    0    0  0.15393525342E+00 -0.28610829883E+00 -0.11347176355E+01  0.90007687273E+02  0.89999947945E+02 0.  0.
        -12    1    1    2    0    0 -0.15393525342E+00  0.28610829883E+00  0.11347176355E+01  0.11803127269E+01  0.00000000000E+00 0.  1.
         11    1    3    3    0    0  0.31638355316E+01  0.33661355500E+02 -0.27472873108E+02  0.43564383003E+02  0.51100000000E-03 0. -1.
        -11    1    3    3    0    0 -0.40222120618E+01 -0.15887830480E+02  0.25920069662E+01  0.16592764917E+02  0.51100000000E-03 0.  1.
        -12    1    3    3    0    0  0.10123117836E+01 -0.18059633319E+02  0.23746148507E+02  0.29850539353E+02  0.00000000000E+00 0.  1.
</event>
<event>
 7    1  0.2349719E-015  0.9000775E+02  0.7816164E-02  0.1186339E+00
        -11   -1    0    0    0    0  0.00000000000E+00  0.00000000000E+00  0.45593999997E+02  0.45594000000E+02  0.51100000000E-03 0.  1.
         11   -1    0    0    0    0 -0.00000000000E+00 -0.00000000000E+00 -0.45593999997E+02  0.45594000000E+02  0.51100000000E-03 0. -1.
    9900012    2    1    2    0    0  0.11216421468E+01  0.14116621971E+00 -0.33909245405E+00  0.90007748883E+02  0.90000010368E+02 0.  0.
        -12    1    1    2    0    0 -0.11216421468E+01 -0.14116621971E+00  0.33909245405E+00  0.11802511171E+01  0.00000000000E+00 0.  1.
         11    1    3    3    0    0 -0.17289789548E+01 -0.64352490554E+01  0.61683230220E+01  0.90801986650E+01  0.51100000000E-03 0. -1.
        -11    1    3    3    0    0  0.27816584808E+02 -0.25571443516E+02  0.61929532503E+01  0.38288559441E+02  0.51100000000E-03 0.  1.
         12    1    3    3    0    0 -0.24965963706E+02  0.32147858791E+02 -0.12700368726E+02  0.42638990777E+02  0.00000000000E+00 0. -1.
</event>
<event>
 7    1  0.2349719E-015  0.9000768E+02  0.7816164E-02  0.1186339E+00
        -11   -1    0    0    0    0  0.00000000000E+00  0.00000000000E+00  0.45593999997E+02  0.45594000000E+02  0.51100000000E-03 0. -1.
         11   -1    0    0    0    0 -0.00000000000E+00 -0.00000000000E+00 -0.45593999997E+02  0.45594000000E+02  0.51100000000E-03 0.  1.
    9900012    2    1    2    0    0 -0.19361390281E+00  0.20490887215E+00  0.11461601540E+01  0.90007679244E+02  0.89999939810E+02 0.  0.
        -12    1    1    2    0    0  0.19361390281E+00 -0.20490887215E+00 -0.11461601540E+01  0.11803207564E+01  0.00000000000E+00 0.  1.
         11    1    3    3    0    0 -0.17226453030E+02 -0.12061323994E+00  0.40834587963E+01  0.17704233041E+02  0.51100000000E-03 0. -1.
        -11    1    3    3    0    0 -0.11712161002E+02 -0.15283995198E+02 -0.25946917952E+02  0.32311263918E+02  0.51100000000E-03 0.  1.
         12    1    3    3    0    0  0.28745000129E+02  0.15609517310E+02  0.23009619309E+02  0.39992182284E+02  0.00000000000E+00 0. -1.
</event>
<event>
 7    1  0.2349719E-015  0.9000792E+02  0.7816164E-02  0.1186339E+00
        -11   -1    0    0    0    0  0.00000000000E+00  0.00000000000E+00  0.45593999997E+02  0.45594000000E+02  0.51100000000E-03 0.  1.
         11   -1    0    0    0    0 -0.00000000000E+00 -0.00000000000E+00 -0.45593999997E+02  0.45594000000E+02  0.51100000000E-03 0. -1.
    9900012    2    1    2    0    0  0.12240140969E+00  0.19474550773E+00 -0.11574489022E+01  0.90007917003E+02  0.90000180708E+02 0.  0.
        -12    1    1    2    0    0 -0.12240140969E+00 -0.19474550773E+00  0.11574489022E+01  0.11800829967E+01  0.00000000000E+00 0.  1.
         11    1    3    3    0    0 -0.81862269534E+01  0.14073438951E+01 -0.29125953865E+01  0.88021668195E+01  0.51100000000E-03 0. -1.
        -11    1    3    3    0    0 -0.15228520870E+02  0.34216826845E+02  0.77620513119E+01  0.38248510142E+02  0.51100000000E-03 0.  1.
         12    1    3    3    0    0  0.23537149234E+02 -0.35429425233E+02 -0.60069048276E+01  0.42957240041E+02  0.00000000000E+00 0. -1.
</event>
<event>
 7    1  0.2349719E-015  0.9000777E+02  0.7816164E-02  0.1186339E+00
        -11   -1    0    0    0    0  0.00000000000E+00  0.00000000000E+00  0.45593999997E+02  0.45594000000E+02  0.51100000000E-03 0. -1.
         11   -1    0    0    0    0 -0.00000000000E+00 -0.00000000000E+00 -0.45593999997E+02  0.45594000000E+02  0.51100000000E-03 0.  1.
    9900012    2    1    2    0    0 -0.66753001381E+00  0.71041637920E+00 -0.66532209138E+00  0.90007770685E+02  0.90000032458E+02 0.  0.
        -12    1    1    2    0    0  0.66753001381E+00 -0.71041637920E+00  0.66532209138E+00  0.11802293152E+01  0.00000000000E+00 0.  1.
         11    1    3    3    0    0 -0.68723276399E+01 -0.53002048013E+01  0.17196083047E+01  0.88474917976E+01  0.51100000000E-03 0. -1.
        -11    1    3    3    0    0 -0.35609552002E+02  0.76082225347E+01 -0.11784504769E+02  0.38272703025E+02  0.51100000000E-03 0.  1.
         12    1    3    3    0    0  0.41814349628E+02 -0.15976013542E+01  0.93995743734E+01  0.42887575862E+02  0.00000000000E+00 0. -1.
</event>
<event>
 7    1  0.2349719E-015  0.9000761E+02  0.7816164E-02  0.1186339E+00
        -11   -1    0    0    0    0  0.00000000000E+00  0.00000000000E+00  0.45593999997E+02  0.45594000000E+02  0.51100000000E-03 0. -1.
         11   -1    0    0    0    0 -0.00000000000E+00 -0.00000000000E+00 -0.45593999997E+02  0.45594000000E+02  0.51100000000E-03 0.  1.
    9900012    2    1    2    0    0  0.15874089486E+00 -0.13007074205E+00  0.11624131435E+01  0.90007609647E+02  0.89999869294E+02 0.  0.
        -12    1    1    2    0    0 -0.15874089486E+00  0.13007074205E+00 -0.11624131435E+01  0.11803903532E+01  0.00000000000E+00 0.  1.
         11    1    3    3    0    0  0.54693227993E+00  0.33777707962E+02 -0.11020616322E+02  0.35534302786E+02  0.51100000000E-03 0. -1.
        -11    1    3    3    0    0  0.71399592872E+01  0.58334742401E+01  0.10523675884E+02  0.13991289959E+02  0.51100000000E-03 0.  1.
        -12    1    3    3    0    0 -0.75281506723E+01 -0.39741252945E+02  0.16593535809E+01  0.40482016902E+02  0.00000000000E+00 0.  1.
</event>
<event>
 7    1  0.2349719E-015  0.9000771E+02  0.7816164E-02  0.1186339E+00
        -11   -1    0    0    0    0  0.00000000000E+00  0.00000000000E+00  0.45593999997E+02  0.45594000000E+02  0.51100000000E-03 0.  1.
         11   -1    0    0    0    0 -0.00000000000E+00 -0.00000000000E+00 -0.45593999997E+02  0.45594000000E+02  0.51100000000E-03 0. -1.
    9900012    2    1    2    0    0 -0.11113559331E+01 -0.38328058852E+00 -0.10519417219E+00  0.90007711123E+02  0.89999972110E+02 0.  0.
        -12    1    1    2    0    0  0.11113559331E+01  0.38328058852E+00  0.10519417219E+00  0.11802888771E+01  0.00000000000E+00 0.  1.
         11    1    3    3    0    0  0.81772775120E+00 -0.91345000168E+01 -0.46974706659E+01  0.10304076870E+02  0.51100000000E-03 0. -1.
        -11    1    3    3    0    0  0.37426505424E+02 -0.49699241969E+01 -0.15384112599E+00  0.37755358854E+02  0.51100000000E-03 0.  1.
         12    1    3    3    0    0 -0.39355589109E+02  0.13721143625E+02  0.47461176197E+01  0.41948275399E+02  0.00000000000E+00 0. -1.
</event>
<event>
 7    1  0.2349719E-015  0.9000782E+02  0.7816164E-02  0.1186339E+00
        -11   -1    0    0    0    0  0.00000000000E+00  0.00000000000E+00  0.45593999997E+02  0.45594000000E+02  0.51100000000E-03 0.  1.
         11   -1    0    0    0    0 -0.00000000000E+00 -0.00000000000E+00 -0.45593999997E+02  0.45594000000E+02  0.51100000000E-03 0. -1.
    9900012    2    1    2    0    0 -0.30136269401E+00  0.10957816765E+01 -0.31822327689E+00  0.90007820772E+02  0.90000083206E+02 0.  0.
        -12    1    1    2    0    0  0.30136269401E+00 -0.10957816765E+01  0.31822327689E+00  0.11801792278E+01  0.00000000000E+00 0.  1.
         11    1    3    3    0    0  0.31763690021E+02 -0.32786023559E+01 -0.28246991040E+02  0.42633012329E+02  0.51100000000E-03 0. -1.
        -11    1    3    3    0    0 -0.87187187910E+00 -0.44227464090E+01  0.84077687063E+01  0.95399906316E+01  0.51100000000E-03 0.  1.
        -12    1    3    3    0    0 -0.31193180836E+02  0.87971304413E+01  0.19520999056E+02  0.37834817812E+02  0.00000000000E+00 0.  1.
</event>
<event>
 7    1  0.2349719E-015  0.9000775E+02  0.7816164E-02  0.1186339E+00
        -11   -1    0    0    0    0  0.00000000000E+00  0.00000000000E+00  0.45593999997E+02  0.45594000000E+02  0.51100000000E-03 0. -1.
         11   -1    0    0    0    0 -0.00000000000E+00 -0.00000000000E+00 -0.45593999997E+02  0.45594000000E+02  0.51100000000E-03 0.  1.
    9900012    2    1    2    0    0 -0.74845880313E+00 -0.88289325127E+00  0.23086442294E+00  0.90007750257E+02  0.90000011761E+02 0.  0.
        -12    1    1    2    0    0  0.74845880313E+00  0.88289325127E+00 -0.23086442294E+00  0.11802497426E+01  0.00000000000E+00 0.  1.
         11    1    3    3    0    0  0.15737236922E+02 -0.26830090124E+01  0.57881671305E+01  0.16981226171E+02  0.51100000000E-03 0. -1.
        -11    1    3    3    0    0  0.22328410648E+02  0.17667449476E+02 -0.11437459775E+02  0.30684070451E+02  0.51100000000E-03 0.  1.
         12    1    3    3    0    0 -0.38814106373E+02 -0.15867333715E+02  0.58801570677E+01  0.42342453635E+02  0.00000000000E+00 0. -1.
</event>
<event>
 7    1  0.2349719E-015  0.9000776E+02  0.7816164E-02  0.1186339E+00
        -11   -1    0    0    0    0  0.00000000000E+00  0.00000000000E+00  0.45593999997E+02  0.45594000000E+02  0.51100000000E-03 0.  1.
         11   -1    0    0    0    0 -0.00000000000E+00 -0.00000000000E+00 -0.45593999997E+02  0.45594000000E+02  0.51100000000E-03 0. -1.
    9900012    2    1    2    0    0  0.38754243354E-01 -0.72754087475E+00 -0.92851616917E+00  0.90007762781E+02  0.90000024450E+02 0.  0.
        -12    1    1    2    0    0 -0.38754243354E-01  0.72754087475E+00  0.92851616917E+00  0.11802372186E+01  0.00000000000E+00 0.  1.
         11    1    3    3    0    0 -0.40860551291E+01  0.92712587246E+01 -0.61600491582E+01  0.11857415011E+02  0.51100000000E-03 0. -1.
        -11    1    3    3    0    0 -0.23917295699E+02 -0.15686592236E+02  0.29163139644E+02  0.40848438449E+02  0.51100000000E-03 0.  1.
         12    1    3    3    0    0  0.28042105071E+02  0.56877926370E+01 -0.23931606655E+02  0.37301909321E+02  0.00000000000E+00 0. -1.
</event>
<event>
 7    1  0.2349719E-015  0.9000783E+02  0.7816164E-02  0.1186339E+00
        -11   -1    0    0    0    0  0.00000000000E+00  0.00000000000E+00  0.45593999997E+02  0.45594000000E+02  0.51100000000E-03 0.  1.
         11   -1    0    0    0    0 -0.00000000000E+00 -0.00000000000E+00 -0.45593999997E+02  0.45594000000E+02  0.51100000000E-03 0. -1.
    9900012    2    1    2    0    0  0.56645534539E+00  0.88770975241E+00  0.53282401606E+00  0.90007829803E+02  0.90000092356E+02 0.  0.
        -12    1    1    2    0    0 -0.56645534539E+00 -0.88770975241E+00 -0.53282401606E+00  0.11801701974E+01  0.00000000000E+00 0.  1.
         11    1    3    3    0    0  0.61298112711E+01  0.37162620413E+01 -0.60952763163E+01  0.94094411849E+01  0.51100000000E-03 0. -1.
        -11    1    3    3    0    0  0.67871747685E+01  0.28744296471E+02  0.27855675393E+02  0.40598509490E+02  0.51100000000E-03 0.  1.
         12    1    3    3    0    0 -0.12350530694E+02 -0.31572848760E+02 -0.21227575061E+02  0.39999879127E+02  0.00000000000E+00 0. -1.
</event>
<event>
 7    1  0.2349719E-015  0.9000769E+02  0.7816164E-02  0.1186339E+00
        -11   -1    0    0    0    0  0.00000000000E+00  0.00000000000E+00  0.45593999997E+02  0.45594000000E+02  0.51100000000E-03 0.  1.
         11   -1    0    0    0    0 -0.00000000000E+00 -0.00000000000E+00 -0.45593999997E+02  0.45594000000E+02  0.51100000000E-03 0. -1.
    9900012    2    1    2    0    0  0.15372190494E+00 -0.12494055855E+00 -0.11635668417E+01  0.90007691412E+02  0.89999952139E+02 0.  0.
        -12    1    1    2    0    0 -0.15372190494E+00  0.12494055855E+00  0.11635668417E+01  0.11803085878E+01  0.00000000000E+00 0.  1.
         11    1    3    3    0    0 -0.17882895836E+02  0.29385698289E+02  0.12367583685E+02  0.36555086566E+02  0.51100000000E-03 0. -1.
        -11    1    3    3    0    0  0.31531751541E+01  0.90706333848E+01  0.92162825123E+00  0.96471914280E+01  0.51100000000E-03 0.  1.
        -12    1    3    3    0    0  0.14883442586E+02 -0.38581272233E+02 -0.14452778778E+02  0.43805413418E+02  0.00000000000E+00 0.  1.
</event>
<event>
 7    1  0.2742060E-015  0.9000771E+02  0.7816164E-02  0.1186339E+00
        -11   -1    0    0    0    0  0.00000000000E+00  0.00000000000E+00  0.45593999997E+02  0.45594000000E+02  0.51100000000E-03 0. -1.
         11   -1    0    0    0    0 -0.00000000000E+00 -0.00000000000E+00 -0.45593999997E+02  0.45594000000E+02  0.51100000000E-03 0.  1.
    9900012    2    1    2    0    0 -0.11341926817E+00 -0.97508759137E+00  0.65530107062E+00  0.90007712224E+02  0.89999973225E+02 0.  0.
        -12    1    1    2    0    0  0.11341926817E+00  0.97508759137E+00 -0.65530107062E+00  0.11802877761E+01  0.00000000000E+00 0.  1.
         11    1    3    3    0    0  0.13843323380E+02 -0.26083987057E+02  0.27197410767E+02  0.40146122300E+02  0.51100000000E-03 0. -1.
        -11    1    3    3    0    0  0.56193119797E+01 -0.38387705065E+01 -0.72535820175E+01  0.99462193055E+01  0.51100000000E-03 0.  1.
        -12    1    3    3    0    0 -0.19576054628E+02  0.28947669972E+02 -0.19288527679E+02  0.39915370619E+02  0.00000000000E+00 0.  1.
</event>
<event>
 7    1  0.2349719E-015  0.9000774E+02  0.7816164E-02  0.1186339E+00
        -11   -1    0    0    0    0  0.00000000000E+00  0.00000000000E+00  0.45593999997E+02  0.45594000000E+02  0.51100000000E-03 0.  1.
         11   -1    0    0    0    0 -0.00000000000E+00 -0.00000000000E+00 -0.45593999997E+02  0.45594000000E+02  0.51100000000E-03 0. -1.
    9900012    2    1    2    0    0 -0.11762396441E+01 -0.89311035685E-01 -0.38796637900E-01  0.90007736749E+02  0.89999998075E+02 0.  0.
        -12    1    1    2    0    0  0.11762396441E+01  0.89311035685E-01  0.38796637900E-01  0.11802632505E+01  0.00000000000E+00 0.  1.
         11    1    3    3    0    0  0.93125932565E+01  0.26456810837E+01 -0.33140023335E+02  0.34525138210E+02  0.51100000000E-03 0. -1.
        -11    1    3    3    0    0  0.67128232435E+00  0.21040968568E+01 -0.10235505033E+02  0.10471074782E+02  0.51100000000E-03 0.  1.
        -12    1    3    3    0    0 -0.11160115225E+02 -0.48390889762E+01  0.43336731730E+02  0.45011523757E+02  0.00000000000E+00 0.  1.
</event>
<event>
 7    1  0.2349719E-015  0.9000780E+02  0.7816164E-02  0.1186339E+00
        -11   -1    0    0    0    0  0.00000000000E+00  0.00000000000E+00  0.45593999997E+02  0.45594000000E+02  0.51100000000E-03 0.  1.
         11   -1    0    0    0    0 -0.00000000000E+00 -0.00000000000E+00 -0.45593999997E+02  0.45594000000E+02  0.51100000000E-03 0. -1.
    9900012    2    1    2    0    0  0.10727256406E+01 -0.13264370890E+00  0.47385410451E+00  0.90007799862E+02  0.90000062020E+02 0.  0.
        -12    1    1    2    0    0 -0.10727256406E+01  0.13264370890E+00 -0.47385410451E+00  0.11802001381E+01  0.00000000000E+00 0.  1.
         11    1    3    3    0    0  0.14121621838E+02 -0.28426196588E+02  0.29462381128E+02  0.43307052056E+02  0.51100000000E-03 0. -1.
        -11    1    3    3    0    0 -0.48187176497E-02 -0.12227701174E+01 -0.82526027378E+01  0.83426999340E+01  0.51100000000E-03 0.  1.
        -12    1    3    3    0    0 -0.13044077480E+02  0.29516322996E+02 -0.20735924286E+02  0.38358047872E+02  0.00000000000E+00 0.  1.
</event>
<event>
 7    1  0.2349719E-015  0.9000744E+02  0.7816164E-02  0.1186340E+00
        -11   -1    0    0    0    0  0.00000000000E+00  0.00000000000E+00  0.45593999997E+02  0.45594000000E+02  0.51100000000E-03 0.  1.
         11   -1    0    0    0    0 -0.00000000000E+00 -0.00000000000E+00 -0.45593999997E+02  0.45594000000E+02  0.51100000000E-03 0. -1.
    9900012    2    1    2    0    0 -0.27367354037E+00  0.95396942155E-01 -0.11444349379E+01  0.90007436952E+02  0.89999694319E+02 0.  0.
        -12    1    1    2    0    0  0.27367354037E+00 -0.95396942155E-01  0.11444349379E+01  0.11805630481E+01  0.00000000000E+00 0.  1.
         11    1    3    3    0    0 -0.57376296011E+01 -0.63429578276E+00  0.97762645000E+01  0.11353328693E+02  0.51100000000E-03 0. -1.
        -11    1    3    3    0    0 -0.25205141381E+01 -0.10051251469E+02  0.32026022142E+02  0.33660759678E+02  0.51100000000E-03 0.  1.
         12    1    3    3    0    0  0.79844701988E+01  0.10780944194E+02 -0.42946721580E+02  0.44993348581E+02  0.00000000000E+00 0. -1.
</event>
<event>
 7    1  0.2349719E-015  0.9000787E+02  0.7816164E-02  0.1186339E+00
        -11   -1    0    0    0    0  0.00000000000E+00  0.00000000000E+00  0.45593999997E+02  0.45594000000E+02  0.51100000000E-03 0.  1.
         11   -1    0    0    0    0 -0.00000000000E+00 -0.00000000000E+00 -0.45593999997E+02  0.45594000000E+02  0.51100000000E-03 0. -1.
    9900012    2    1    2    0    0 -0.75686345263E+00  0.55168958830E+00  0.71799053124E+00  0.90007866918E+02  0.90000129961E+02 0.  0.
        -12    1    1    2    0    0  0.75686345263E+00 -0.55168958830E+00 -0.71799053124E+00  0.11801330818E+01  0.00000000000E+00 0.  1.
         11    1    3    3    0    0 -0.11432054008E+02 -0.11002741123E+01 -0.95355671083E+00  0.11524397278E+02  0.51100000000E-03 0. -1.
        -11    1    3    3    0    0 -0.16412905763E+02 -0.27455184229E+02 -0.15047623849E+02  0.35349704389E+02  0.51100000000E-03 0.  1.
         12    1    3    3    0    0  0.27088096319E+02  0.29107147930E+02  0.16719171091E+02  0.43133765251E+02  0.00000000000E+00 0. -1.
</event>
<event>
 7    1  0.2349719E-015  0.9000717E+02  0.7816164E-02  0.1186340E+00
        -11   -1    0    0    0    0  0.00000000000E+00  0.00000000000E+00  0.45593999997E+02  0.45594000000E+02  0.51100000000E-03 0.  1.
         11   -1    0    0    0    0 -0.00000000000E+00 -0.00000000000E+00 -0.45593999997E+02  0.45594000000E+02  0.51100000000E-03 0. -1.
    9900012    2    1    2    0    0 -0.10939636038E+01 -0.44265416493E+00  0.40653529056E-01  0.90007173262E+02  0.89999427147E+02 0.  0.
        -12    1    1    2    0    0  0.10939636038E+01  0.44265416493E+00 -0.40653529056E-01  0.11808267382E+01  0.00000000000E+00 0.  1.
         11    1    3    3    0    0 -0.85107818442E+01 -0.46561815787E+01 -0.72523759089E+00  0.97282785897E+01  0.51100000000E-03 0. -1.
        -11    1    3    3    0    0  0.16669394761E+02  0.34251963558E+02  0.20407842957E+02  0.43215110594E+02  0.51100000000E-03 0.  1.
         12    1    3    3    0    0 -0.92525765207E+01 -0.30038436144E+02 -0.19641951837E+02  0.37063784078E+02  0.00000000000E+00 0. -1.
</event>
<event>
 7    1  0.2349719E-015  0.9000770E+02  0.7816164E-02  0.1186339E+00
        -11   -1    0    0    0    0  0.00000000000E+00  0.00000000000E+00  0.45593999997E+02  0.45594000000E+02  0.51100000000E-03 0.  1.
         11   -1    0    0    0    0 -0.00000000000E+00 -0.00000000000E+00 -0.45593999997E+02  0.45594000000E+02  0.51100000000E-03 0. -1.
    9900012    2    1    2    0    0 -0.10988942633E+01 -0.72327916074E-01 -0.42462727690E+00  0.90007699931E+02  0.89999960770E+02 0.  0.
        -12    1    1    2    0    0  0.10988942633E+01  0.72327916074E-01  0.42462727690E+00  0.11803000693E+01  0.00000000000E+00 0.  1.
         11    1    3    3    0    0 -0.14495092048E+02 -0.51752197783E+01 -0.31413531710E+02  0.34981431760E+02  0.51100000000E-03 0. -1.
        -11    1    3    3    0    0 -0.48624374322E+01  0.30765239054E+01 -0.91923082265E+01  0.10844668179E+02  0.51100000000E-03 0.  1.
        -12    1    3    3    0    0  0.18258635217E+02  0.20263679569E+01  0.40181212659E+02  0.44181599992E+02  0.00000000000E+00 0.  1.
</event>
<event>
 7    1  0.2349719E-015  0.9000772E+02  0.7816164E-02  0.1186339E+00
        -11   -1    0    0    0    0  0.00000000000E+00  0.00000000000E+00  0.45593999997E+02  0.45594000000E+02  0.51100000000E-03 0.  1.
         11   -1    0    0    0    0 -0.00000000000E+00 -0.00000000000E+00 -0.45593999997E+02  0.45594000000E+02  0.51100000000E-03 0. -1.
    9900012    2    1    2    0    0  0.72044971174E+00  0.90028707610E+00 -0.25197765775E+00  0.90007721496E+02  0.89999982620E+02 0.  0.
        -12    1    1    2    0    0 -0.72044971174E+00 -0.90028707610E+00  0.25197765775E+00  0.11802785038E+01  0.00000000000E+00 0.  1.
         11    1    3    3    0    0 -0.12019877490E+02  0.49291253559E+01 -0.39909722313E+02  0.41970938362E+02  0.51100000000E-03 0. -1.
        -11    1    3    3    0    0  0.57961076490E+01  0.35468634143E+01 -0.27703913493E+00  0.68008716281E+01  0.51100000000E-03 0.  1.
        -12    1    3    3    0    0  0.69442195524E+01 -0.75757016941E+01  0.39934783790E+02  0.41235911506E+02  0.00000000000E+00 0.  1.
</event>
<event>
 7    1  0.2349719E-015  0.9000774E+02  0.7816164E-02  0.1186339E+00
        -11   -1    0    0    0    0  0.00000000000E+00  0.00000000000E+00  0.45593999997E+02  0.45594000000E+02  0.51100000000E-03 0.  1.
         11   -1    0    0    0    0 -0.00000000000E+00 -0.00000000000E+00 -0.45593999997E+02  0.45594000000E+02  0.51100000000E-03 0. -1.
    9900012    2    1    2    0    0 -0.67741568468E+00  0.15045136518E-01 -0.96638663818E+00  0.90007736682E+02  0.89999998006E+02 0.  0.
        -12    1    1    2    0    0  0.67741568468E+00 -0.15045136518E-01  0.96638663818E+00  0.11802633183E+01  0.00000000000E+00 0.  1.
         11    1    3    3    0    0  0.64403215415E+01  0.19276307192E+01 -0.30553461223E+01  0.73843511520E+01  0.51100000000E-03 0. -1.
        -11    1    3    3    0    0  0.31530146503E+02 -0.24843322753E+00  0.22642180312E+02  0.38818554675E+02  0.51100000000E-03 0.  1.
         12    1    3    3    0    0 -0.38647883729E+02 -0.16641523552E+01 -0.20553220828E+02  0.43804830854E+02  0.00000000000E+00 0. -1.
</event>
<event>
 7    1  0.2349719E-015  0.9000767E+02  0.7816164E-02  0.1186339E+00
        -11   -1    0    0    0    0  0.00000000000E+00  0.00000000000E+00  0.45593999997E+02  0.45594000000E+02  0.51100000000E-03 0.  1.
         11   -1    0    0    0    0 -0.00000000000E+00 -0.00000000000E+00 -0.45593999997E+02  0.45594000000E+02  0.51100000000E-03 0. -1.
    9900012    2    1    2    0    0 -0.95150179483E+00  0.54693365254E+00  0.43437739992E+00  0.90007671312E+02  0.89999931773E+02 0.  0.
        -12    1    1    2    0    0  0.95150179483E+00 -0.54693365254E+00 -0.43437739992E+00  0.11803286879E+01  0.00000000000E+00 0.  1.
         11    1    3    3    0    0  0.36005870478E+02  0.14833189783E+01  0.76334110355E+01  0.36836013742E+02  0.51100000000E-03 0. -1.
        -11    1    3    3    0    0  0.68365051135E+01  0.39274836498E+01  0.20538718214E+01  0.81474732099E+01  0.51100000000E-03 0.  1.
        -12    1    3    3    0    0 -0.43793877386E+02 -0.48638689755E+01 -0.92529054570E+01  0.45024184361E+02  0.00000000000E+00 0.  1.
</event>
<event>
 7    1  0.2349719E-015  0.9000780E+02  0.7816164E-02  0.1186339E+00
        -11   -1    0    0    0    0  0.00000000000E+00  0.00000000000E+00  0.45593999997E+02  0.45594000000E+02  0.51100000000E-03 0.  1.
         11   -1    0    0    0    0 -0.00000000000E+00 -0.00000000000E+00 -0.45593999997E+02  0.45594000000E+02  0.51100000000E-03 0. -1.
    9900012    2    1    2    0    0  0.73664779497E-01  0.31728185001E+00 -0.11343614603E+01  0.90007800782E+02  0.90000062952E+02 0.  0.
        -12    1    1    2    0    0 -0.73664779497E-01 -0.31728185001E+00  0.11343614603E+01  0.11801992182E+01  0.00000000000E+00 0.  1.
         11    1    3    3    0    0 -0.46763765810E+01 -0.10496806007E+02  0.87255032651E+01  0.14428646567E+02  0.51100000000E-03 0. -1.
        -11    1    3    3    0    0 -0.71815894959E+01  0.44410411323E+01  0.31213608801E+02  0.32335544664E+02  0.51100000000E-03 0.  1.
         12    1    3    3    0    0  0.11931630856E+02  0.63730467245E+01 -0.41073473527E+02  0.43243609551E+02  0.00000000000E+00 0. -1.
</event>
<event>
 7    1  0.2349719E-015  0.9000770E+02  0.7816164E-02  0.1186339E+00
        -11   -1    0    0    0    0  0.00000000000E+00  0.00000000000E+00  0.45593999997E+02  0.45594000000E+02  0.51100000000E-03 0. -1.
         11   -1    0    0    0    0 -0.00000000000E+00 -0.00000000000E+00 -0.45593999997E+02  0.45594000000E+02  0.51100000000E-03 0.  1.
    9900012    2    1    2    0    0 -0.96263537205E+00 -0.40545227125E+00  0.54959810363E+00  0.90007696446E+02  0.89999957239E+02 0.  0.
        -12    1    1    2    0    0  0.96263537205E+00  0.40545227125E+00 -0.54959810363E+00  0.11803035539E+01  0.00000000000E+00 0.  1.
         11    1    3    3    0    0 -0.29485464961E+02  0.10346174248E+02  0.97085469854E+01  0.32721428000E+02  0.51100000000E-03 0. -1.
        -11    1    3    3    0    0 -0.13137484844E+02 -0.57254539281E+01  0.23583032254E-01  0.14330906710E+02  0.51100000000E-03 0.  1.
        -12    1    3    3    0    0  0.41660314433E+02 -0.50261725911E+01 -0.91825319141E+01  0.42955361736E+02  0.00000000000E+00 0.  1.
</event>
<event>
 7    1  0.2349719E-015  0.9000829E+02  0.7816164E-02  0.1186338E+00
        -11   -1    0    0    0    0  0.00000000000E+00  0.00000000000E+00  0.45593999997E+02  0.45594000000E+02  0.51100000000E-03 0.  1.
         11   -1    0    0    0    0 -0.00000000000E+00 -0.00000000000E+00 -0.45593999997E+02  0.45594000000E+02  0.51100000000E-03 0. -1.
    9900012    2    1    2    0    0 -0.46451745951E-02 -0.88699394970E+00 -0.77777793553E+00  0.90008288865E+02  0.90000557477E+02 0.  0.
        -12    1    1    2    0    0  0.46451745951E-02  0.88699394970E+00  0.77777793553E+00  0.11797111348E+01  0.00000000000E+00 0.  1.
         11    1    3    3    0    0 -0.92681010152E+01  0.10997886809E+02 -0.20483267899E+01  0.14527451724E+02  0.51100000000E-03 0. -1.
        -11    1    3    3    0    0  0.14930387730E+02  0.28852501281E+02  0.88231344592E+01  0.33663496698E+02  0.51100000000E-03 0.  1.
         12    1    3    3    0    0 -0.56669318895E+01 -0.40737382040E+02 -0.75525856049E+01  0.41817340444E+02  0.00000000000E+00 0. -1.
</event>
<event>
 7    1  0.2349719E-015  0.9000775E+02  0.7816164E-02  0.1186339E+00
        -11   -1    0    0    0    0  0.00000000000E+00  0.00000000000E+00  0.45593999997E+02  0.45594000000E+02  0.51100000000E-03 0.  1.
         11   -1    0    0    0    0 -0.00000000000E+00 -0.00000000000E+00 -0.45593999997E+02  0.45594000000E+02  0.51100000000E-03 0. -1.
    9900012    2    1    2    0    0 -0.65475096182E+00 -0.96394258644E+00  0.18737352512E+00  0.90007748768E+02  0.90000010252E+02 0.  0.
        -12    1    1    2    0    0  0.65475096182E+00  0.96394258644E+00 -0.18737352512E+00  0.11802512317E+01  0.00000000000E+00 0.  1.
         11    1    3    3    0    0  0.10123470895E+02 -0.76936310048E+01 -0.38615641547E+02  0.40655189009E+02  0.51100000000E-03 0. -1.
        -11    1    3    3    0    0 -0.24944187365E-01 -0.61136567154E+01 -0.97551845051E+00  0.61910465315E+01  0.51100000000E-03 0.  1.
        -12    1    3    3    0    0 -0.10753277670E+02  0.12843345134E+02  0.39778533523E+02  0.43161513228E+02  0.00000000000E+00 0.  1.
</event>
<event>
 7    1  0.2349719E-015  0.9000764E+02  0.7816164E-02  0.1186339E+00
        -11   -1    0    0    0    0  0.00000000000E+00  0.00000000000E+00  0.45593999997E+02  0.45594000000E+02  0.51100000000E-03 0.  1.
         11   -1    0    0    0    0 -0.00000000000E+00 -0.00000000000E+00 -0.45593999997E+02  0.45594000000E+02  0.51100000000E-03 0. -1.
    9900012    2    1    2    0    0 -0.34699797216E-01  0.92822628368E-01 -0.11761937221E+01  0.90007639128E+02  0.89999899164E+02 0.  0.
        -12    1    1    2    0    0  0.34699797216E-01 -0.92822628368E-01  0.11761937221E+01  0.11803608720E+01  0.00000000000E+00 0.  1.
         11    1    3    3    0    0 -0.99316931867E+00 -0.10117281189E+02 -0.28500144833E+01  0.10557857110E+02  0.51100000000E-03 0. -1.
        -11    1    3    3    0    0 -0.36686892066E+01 -0.33882136054E+02  0.70155279452E+01  0.34794770537E+02  0.51100000000E-03 0.  1.
         12    1    3    3    0    0  0.46271587281E+01  0.44092239871E+02 -0.53417071840E+01  0.44655011481E+02  0.00000000000E+00 0. -1.
</event>
<event>
 7    1  0.2349719E-015  0.9000782E+02  0.7816164E-02  0.1186339E+00
        -11   -1    0    0    0    0  0.00000000000E+00  0.00000000000E+00  0.45593999997E+02  0.45594000000E+02  0.51100000000E-03 0.  1.
         11   -1    0    0    0    0 -0.00000000000E+00 -0.00000000000E+00 -0.45593999997E+02  0.45594000000E+02  0.51100000000E-03 0. -1.
    9900012    2    1    2    0    0 -0.62183153376E+00  0.10030172231E+01  0.97899628360E-02  0.90007824653E+02  0.90000087138E+02 0.  0.
        -12    1    1    2    0    0  0.62183153376E+00 -0.10030172231E+01 -0.97899628360E-02  0.11801753470E+01  0.00000000000E+00 0.  1.
         11    1    3    3    0    0 -0.24328113246E+00  0.85031030867E+01 -0.28602909955E+00  0.85113900580E+01  0.51100000000E-03 0. -1.
        -11    1    3    3    0    0  0.31267958837E+02  0.58615562170E+01  0.23922856722E+02  0.39803846110E+02  0.51100000000E-03 0.  1.
         12    1    3    3    0    0 -0.31646509238E+02 -0.13361642081E+02 -0.23627037660E+02  0.41692588485E+02  0.00000000000E+00 0. -1.
</event>
<event>
 7    1  0.2349719E-015  0.9000767E+02  0.7816164E-02  0.1186339E+00
        -11   -1    0    0    0    0  0.00000000000E+00  0.00000000000E+00  0.45593999997E+02  0.45594000000E+02  0.51100000000E-03 0. -1.
         11   -1    0    0    0    0 -0.00000000000E+00 -0.00000000000E+00 -0.45593999997E+02  0.45594000000E+02  0.51100000000E-03 0.  1.
    9900012    2    1    2    0    0  0.57670358856E+00 -0.63331204536E+00  0.81209646708E+00  0.90007672991E+02  0.89999933475E+02 0.  0.
        -12    1    1    2    0    0 -0.57670358856E+00  0.63331204536E+00 -0.81209646708E+00  0.11803270088E+01  0.00000000000E+00 0.  1.
         11    1    3    3    0    0 -0.30779805936E+02 -0.26646883145E+02 -0.98300541142E+01  0.41881771679E+02  0.51100000000E-03 0. -1.
        -11    1    3    3    0    0 -0.12925684708E+01  0.10021110661E+02 -0.45534798954E+00  0.10114382540E+02  0.51100000000E-03 0.  1.
        -12    1    3    3    0    0  0.32649077996E+02  0.15992460439E+02  0.11097498571E+02  0.38011518772E+02  0.00000000000E+00 0.  1.
</event>
<event>
 7    1  0.2760957E-015  0.9000709E+02  0.7816164E-02  0.1186340E+00
        -11   -1    0    0    0    0  0.00000000000E+00  0.00000000000E+00  0.45593999997E+02  0.45594000000E+02  0.51100000000E-03 0. -1.
         11   -1    0    0    0    0 -0.00000000000E+00 -0.00000000000E+00 -0.45593999997E+02  0.45594000000E+02  0.51100000000E-03 0.  1.
    9900012    2    1    2    0    0 -0.24592356845E+00 -0.58279671705E+00  0.99720015449E+00  0.90007094177E+02  0.89999347018E+02 0.  0.
        -12    1    1    2    0    0  0.24592356845E+00  0.58279671705E+00 -0.99720015449E+00  0.11809058231E+01  0.00000000000E+00 0.  1.
         11    1    3    3    0    0 -0.50047670402E+01 -0.13906651144E+01  0.39181787066E+02  0.39524600954E+02  0.51100000000E-03 0. -1.
        -11    1    3    3    0    0 -0.73229243739E+01 -0.48528208696E+01  0.12302808311E+01  0.88706641782E+01  0.51100000000E-03 0.  1.
        -12    1    3    3    0    0  0.12081767846E+02  0.56606892669E+01 -0.39414867743E+02  0.41611829045E+02  0.00000000000E+00 0.  1.
</event>
<event>
 7    1  0.2349719E-015  0.9000767E+02  0.7816164E-02  0.1186339E+00
        -11   -1    0    0    0    0  0.00000000000E+00  0.00000000000E+00  0.45593999997E+02  0.45594000000E+02  0.51100000000E-03 0.  1.
         11   -1    0    0    0    0 -0.00000000000E+00 -0.00000000000E+00 -0.45593999997E+02  0.45594000000E+02  0.51100000000E-03 0. -1.
    9900012    2    1    2    0    0  0.58236385890E+00 -0.51547684293E+00  0.88787667929E+00  0.90007665709E+02  0.89999926097E+02 0.  0.
        -12    1    1    2    0    0 -0.58236385890E+00  0.51547684293E+00 -0.88787667929E+00  0.11803342905E+01  0.00000000000E+00 0.  1.
         11    1    3    3    0    0  0.98324966016E+00 -0.84455693667E+01  0.52445210664E+01  0.99899661310E+01  0.51100000000E-03 0. -1.
        -11    1    3    3    0    0  0.27155325230E+02 -0.21286862082E+02  0.12171130300E+02  0.36587957017E+02  0.51100000000E-03 0.  1.
         12    1    3    3    0    0 -0.27556211031E+02  0.29216954606E+02 -0.16527774687E+02  0.43429742561E+02  0.00000000000E+00 0. -1.
</event>
<event>
 7    1  0.2349719E-015  0.9000771E+02  0.7816164E-02  0.1186339E+00
        -11   -1    0    0    0    0  0.00000000000E+00  0.00000000000E+00  0.45593999997E+02  0.45594000000E+02  0.51100000000E-03 0. -1.
         11   -1    0    0    0    0 -0.00000000000E+00 -0.00000000000E+00 -0.45593999997E+02  0.45594000000E+02  0.51100000000E-03 0.  1.
    9900012    2    1    2    0    0 -0.77603190100E+00 -0.80946430383E+00  0.36826237600E+00  0.90007713955E+02  0.89999974979E+02 0.  0.
        -12    1    1    2    0    0  0.77603190100E+00  0.80946430383E+00 -0.36826237600E+00  0.11802860450E+01  0.00000000000E+00 0.  1.
         11    1    3    3    0    0 -0.61177909062E+01  0.90636592541E+01  0.11549468904E+01  0.10995962315E+02  0.51100000000E-03 0. -1.
        -11    1    3    3    0    0 -0.92168346818E+01  0.26552639835E+02 -0.20807485758E+02  0.34970618919E+02  0.51100000000E-03 0.  1.
         12    1    3    3    0    0  0.14558593687E+02 -0.36425763393E+02  0.20020801244E+02  0.44041132721E+02  0.00000000000E+00 0. -1.
</event>
<event>
 7    1  0.2349719E-015  0.9000772E+02  0.7816164E-02  0.1186339E+00
        -11   -1    0    0    0    0  0.00000000000E+00  0.00000000000E+00  0.45593999997E+02  0.45594000000E+02  0.51100000000E-03 0.  1.
         11   -1    0    0    0    0 -0.00000000000E+00 -0.00000000000E+00 -0.45593999997E+02  0.45594000000E+02  0.51100000000E-03 0. -1.
    9900012    2    1    2    0    0  0.40417674555E+00 -0.10476782241E+01 -0.36340371659E+00  0.90007724285E+02  0.89999985445E+02 0.  0.
        -12    1    1    2    0    0 -0.40417674555E+00  0.10476782241E+01  0.36340371659E+00  0.11802757153E+01  0.00000000000E+00 0.  1.
         11    1    3    3    0    0  0.58308820203E+01  0.94365863818E+00 -0.77280033003E+01  0.97268551973E+01  0.51100000000E-03 0. -1.
        -11    1    3    3    0    0  0.28019621601E+02 -0.46077073705E+00  0.29071204973E+02  0.40378787292E+02  0.51100000000E-03 0.  1.
         12    1    3    3    0    0 -0.33446326876E+02 -0.15305661252E+01 -0.21706605389E+02  0.39902081796E+02  0.00000000000E+00 0. -1.
</event>
<event>
 7    1  0.2349719E-015  0.9000769E+02  0.7816164E-02  0.1186339E+00
        -11   -1    0    0    0    0  0.00000000000E+00  0.00000000000E+00  0.45593999997E+02  0.45594000000E+02  0.51100000000E-03 0. -1.
         11   -1    0    0    0    0 -0.00000000000E+00 -0.00000000000E+00 -0.45593999997E+02  0.45594000000E+02  0.51100000000E-03 0.  1.
    9900012    2    1    2    0    0  0.93523619819E-01 -0.11483537963E+01 -0.25623854016E+00  0.90007694405E+02  0.89999955171E+02 0.  0.
        -12    1    1    2    0    0 -0.93523619819E-01  0.11483537963E+01  0.25623854016E+00  0.11803055953E+01  0.00000000000E+00 0.  1.
         11    1    3    3    0    0  0.63622107003E+01  0.10474500965E+02 -0.19651554293E+01  0.12411878648E+02  0.51100000000E-03 0. -1.
        -11    1    3    3    0    0 -0.24801200996E+02  0.23949410482E+02  0.11433368253E+02  0.36323487486E+02  0.51100000000E-03 0.  1.
         12    1    3    3    0    0  0.18532513916E+02 -0.35572265243E+02 -0.97244513635E+01  0.41272328270E+02  0.00000000000E+00 0. -1.
</event>
<event>
 7    1  0.2349719E-015  0.9000777E+02  0.7816164E-02  0.1186339E+00
        -11   -1    0    0    0    0  0.00000000000E+00  0.00000000000E+00  0.45593999997E+02  0.45594000000E+02  0.51100000000E-03 0. -1.
         11   -1    0    0    0    0 -0.00000000000E+00 -0.00000000000E+00 -0.45593999997E+02  0.45594000000E+02  0.51100000000E-03 0.  1.
    9900012    2    1    2    0    0 -0.10394300273E+01  0.35269450669E+00  0.43374485998E+00  0.90007770022E+02  0.90000031787E+02 0.  0.
        -12    1    1    2    0    0  0.10394300273E+01 -0.35269450669E+00 -0.43374485998E+00  0.11802299777E+01  0.00000000000E+00 0.  1.
         11    1    3    3    0    0  0.15743782549E+02  0.34474362264E+02 -0.97186430770E+01  0.39125443972E+02  0.51100000000E-03 0. -1.
        -11    1    3    3    0    0  0.78254057006E+01 -0.26585618048E+01 -0.30555406414E+01  0.88114274735E+01  0.51100000000E-03 0.  1.
        -12    1    3    3    0    0 -0.24608618277E+02 -0.31463105953E+02  0.13207928578E+02  0.42070898577E+02  0.00000000000E+00 0.  1.
</event>
<event>
 7    1  0.2349719E-015  0.9000778E+02  0.7816164E-02  0.1186339E+00
        -11   -1    0    0    0    0  0.00000000000E+00  0.00000000000E+00  0.45593999997E+02  0.45594000000E+02  0.51100000000E-03 0. -1.
         11   -1    0    0    0    0 -0.00000000000E+00 -0.00000000000E+00 -0.45593999997E+02  0.45594000000E+02  0.51100000000E-03 0.  1.
    9900012    2    1    2    0    0  0.11620337039E+01 -0.19794313884E-01  0.20543004783E+00  0.90007781525E+02  0.90000043441E+02 0.  0.
        -12    1    1    2    0    0 -0.11620337039E+01  0.19794313884E-01 -0.20543004783E+00  0.11802184748E+01  0.00000000000E+00 0.  1.
         11    1    3    3    0    0  0.25734367825E+02 -0.19446167626E+01  0.26955096971E+02  0.37317776926E+02  0.51100000000E-03 0. -1.
        -11    1    3    3    0    0  0.61853787068E+01 -0.79119702093E+01  0.10266169948E+01  0.10095153543E+02  0.51100000000E-03 0.  1.
        -12    1    3    3    0    0 -0.30757712828E+02  0.98367926580E+01 -0.27776283918E+02  0.42594851056E+02  0.00000000000E+00 0.  1.
</event>
<event>
 7    1  0.2349719E-015  0.9000773E+02  0.7816164E-02  0.1186339E+00
        -11   -1    0    0    0    0  0.00000000000E+00  0.00000000000E+00  0.45593999997E+02  0.45594000000E+02  0.51100000000E-03 0.  1.
         11   -1    0    0    0    0 -0.00000000000E+00 -0.00000000000E+00 -0.45593999997E+02  0.45594000000E+02  0.51100000000E-03 0. -1.
    9900012    2    1    2    0    0 -0.17054852996E+00 -0.51894433864E+00 -0.10462587484E+01  0.90007725711E+02  0.89999986891E+02 0.  0.
        -12    1    1    2    0    0  0.17054852996E+00  0.51894433864E+00  0.10462587484E+01  0.11802742886E+01  0.00000000000E+00 0.  1.
         11    1    3    3    0    0  0.27837426858E+02  0.32184307791E+02 -0.10969973317E+02  0.43944195485E+02  0.51100000000E-03 0. -1.
        -11    1    3    3    0    0 -0.15697864847E+01 -0.95505657855E+01  0.37640737222E+01  0.10384882651E+02  0.51100000000E-03 0.  1.
        -12    1    3    3    0    0 -0.26438188903E+02 -0.23152686344E+02  0.61596408460E+01  0.35678647575E+02  0.00000000000E+00 0.  1.
</event>
<event>
 7    1  0.2349719E-015  0.9000771E+02  0.7816164E-02  0.1186339E+00
        -11   -1    0    0    0    0  0.00000000000E+00  0.00000000000E+00  0.45593999997E+02  0.45594000000E+02  0.51100000000E-03 0. -1.
         11   -1    0    0    0    0 -0.00000000000E+00 -0.00000000000E+00 -0.45593999997E+02  0.45594000000E+02  0.51100000000E-03 0.  1.
    9900012    2    1    2    0    0  0.60226195861E+00  0.99133712726E+00 -0.21819160333E+00  0.90007713449E+02  0.89999974467E+02 0.  0.
        -12    1    1    2    0    0 -0.60226195861E+00 -0.99133712726E+00  0.21819160333E+00  0.11802865510E+01  0.00000000000E+00 0.  1.
         11    1    3    3    0    0 -0.25598380329E+02 -0.16330868998E+02  0.25971750493E+02  0.39956303403E+02  0.51100000000E-03 0. -1.
        -11    1    3    3    0    0 -0.21269960545E+01  0.74068460928E+01  0.29195829100E+01  0.82407187725E+01  0.51100000000E-03 0.  1.
        -12    1    3    3    0    0  0.28327638342E+02  0.99153600324E+01 -0.29109525007E+02  0.41810691273E+02  0.00000000000E+00 0.  1.
</event>
<event>
 7    1  0.2349719E-015  0.9000763E+02  0.7816164E-02  0.1186339E+00
        -11   -1    0    0    0    0  0.00000000000E+00  0.00000000000E+00  0.45593999997E+02  0.45594000000E+02  0.51100000000E-03 0.  1.
         11   -1    0    0    0    0 -0.00000000000E+00 -0.00000000000E+00 -0.45593999997E+02  0.45594000000E+02  0.51100000000E-03 0. -1.
    9900012    2    1    2    0    0  0.13292819338E+00 -0.66689519374E-02 -0.11728426904E+01  0.90007629568E+02  0.89999889479E+02 0.  0.
        -12    1    1    2    0    0 -0.13292819338E+00  0.66689519375E-02  0.11728426904E+01  0.11803704317E+01  0.00000000000E+00 0.  1.
         11    1    3    3    0    0  0.17738395490E+02 -0.29900590486E+02 -0.19711139436E+02  0.39965297498E+02  0.51100000000E-03 0. -1.
        -11    1    3    3    0    0  0.21623663741E+01 -0.44562559124E+01  0.73465135554E+01  0.88603220468E+01  0.51100000000E-03 0.  1.
        -12    1    3    3    0    0 -0.19767833671E+02  0.34350177446E+02  0.11191783190E+02  0.41182010024E+02  0.00000000000E+00 0.  1.
</event>
<event>
 7    1  0.2349719E-015  0.9000855E+02  0.7816164E-02  0.1186337E+00
        -11   -1    0    0    0    0  0.00000000000E+00  0.00000000000E+00  0.45593999997E+02  0.45594000000E+02  0.51100000000E-03 0.  1.
         11   -1    0    0    0    0 -0.00000000000E+00 -0.00000000000E+00 -0.45593999997E+02  0.45594000000E+02  0.51100000000E-03 0. -1.
    9900012    2    1    2    0    0  0.31749170765E+00 -0.75548580346E+00 -0.84826238039E+00  0.90008547224E+02  0.90000819244E+02 0.  0.
        -12    1    1    2    0    0 -0.31749170765E+00  0.75548580346E+00  0.84826238039E+00  0.11794527755E+01  0.00000000000E+00 0.  1.
         11    1    3    3    0    0 -0.13460027047E+01 -0.16477158435E+02 -0.31787331346E+02  0.35829358182E+02  0.51100000000E-03 0. -1.
        -11    1    3    3    0    0 -0.47218024482E+01 -0.45205899410E+01 -0.76960365146E+01  0.10097530890E+02  0.51100000000E-03 0.  1.
        -12    1    3    3    0    0  0.63852968605E+01  0.20242262573E+02  0.38635105480E+02  0.44081658153E+02  0.00000000000E+00 0.  1.
</event>
<event>
 7    1  0.2349719E-015  0.9000684E+02  0.7816164E-02  0.1186341E+00
        -11   -1    0    0    0    0  0.00000000000E+00  0.00000000000E+00  0.45593999997E+02  0.45594000000E+02  0.51100000000E-03 0. -1.
         11   -1    0    0    0    0 -0.00000000000E+00 -0.00000000000E+00 -0.45593999997E+02  0.45594000000E+02  0.51100000000E-03 0.  1.
    9900012    2    1    2    0    0 -0.85546667445E+00 -0.80097474391E+00 -0.14753244391E+00  0.90006835493E+02  0.89999084916E+02 0.  0.
        -12    1    1    2    0    0  0.85546667445E+00  0.80097474391E+00  0.14753244391E+00  0.11811645074E+01  0.00000000000E+00 0.  1.
         11    1    3    3    0    0  0.14485993374E+02 -0.13194116001E+02  0.31037016667E+02  0.36704565179E+02  0.51100000000E-03 0. -1.
        -11    1    3    3    0    0  0.40259211041E+01  0.80322704783E+01  0.62394492269E+01  0.10938744749E+02  0.51100000000E-03 0.  1.
        -12    1    3    3    0    0 -0.19367381153E+02  0.43608707786E+01 -0.37423998338E+02  0.42363525565E+02  0.00000000000E+00 0.  1.
</event>
<event>
 7    1  0.2349719E-015  0.9000759E+02  0.7816164E-02  0.1186339E+00
        -11   -1    0    0    0    0  0.00000000000E+00  0.00000000000E+00  0.45593999997E+02  0.45594000000E+02  0.51100000000E-03 0. -1.
         11   -1    0    0    0    0 -0.00000000000E+00 -0.00000000000E+00 -0.45593999997E+02  0.45594000000E+02  0.51100000000E-03 0.  1.
    9900012    2    1    2    0    0  0.69562500848E+00  0.92431353856E+00 -0.23477409499E+00  0.90007589671E+02  0.89999849054E+02 0.  0.
        -12    1    1    2    0    0 -0.69562500848E+00 -0.92431353856E+00  0.23477409499E+00  0.11804103294E+01  0.00000000000E+00 0.  1.
         11    1    3    3    0    0  0.41917978395E+01  0.94100555141E+01  0.17930032206E+02  0.20678645243E+02  0.51100000000E-03 0. -1.
        -11    1    3    3    0    0  0.19839124786E+02  0.21203611137E+02 -0.59569775500E+01  0.29642361230E+02  0.51100000000E-03 0.  1.
         12    1    3    3    0    0 -0.23335297617E+02 -0.29689353112E+02 -0.12207828751E+02  0.39686583198E+02  0.00000000000E+00 0. -1.
</event>
<event>
 7    1  0.2349719E-015  0.9000800E+02  0.7816164E-02  0.1186339E+00
        -11   -1    0    0    0    0  0.00000000000E+00  0.00000000000E+00  0.45593999997E+02  0.45594000000E+02  0.51100000000E-03 0. -1.
         11   -1    0    0    0    0 -0.00000000000E+00 -0.00000000000E+00 -0.45593999997E+02  0.45594000000E+02  0.51100000000E-03 0.  1.
    9900012    2    1    2    0    0 -0.65971606897E+00  0.93570344126E+00  0.28572981603E+00  0.90007996716E+02  0.90000261473E+02 0.  0.
        -12    1    1    2    0    0  0.65971606897E+00 -0.93570344126E+00 -0.28572981603E+00  0.11800032836E+01  0.00000000000E+00 0.  1.
         11    1    3    3    0    0  0.42803273763E+01  0.38243983104E+02 -0.23248248603E+01  0.38552927995E+02  0.51100000000E-03 0. -1.
        -11    1    3    3    0    0  0.64253447579E+01  0.35480088602E+01  0.51580075905E+01  0.89709790265E+01  0.51100000000E-03 0.  1.
        -12    1    3    3    0    0 -0.11365388203E+02 -0.40856288523E+02 -0.25474529142E+01  0.42484089695E+02  0.00000000000E+00 0.  1.
</event>
<event>
 7    1  0.2349719E-015  0.9000774E+02  0.7816164E-02  0.1186339E+00
        -11   -1    0    0    0    0  0.00000000000E+00  0.00000000000E+00  0.45593999997E+02  0.45594000000E+02  0.51100000000E-03 0.  1.
         11   -1    0    0    0    0 -0.00000000000E+00 -0.00000000000E+00 -0.45593999997E+02  0.45594000000E+02  0.51100000000E-03 0. -1.
    9900012    2    1    2    0    0  0.34065695504E+00 -0.44352139959E+00 -0.10393532676E+01  0.90007740025E+02  0.90000001394E+02 0.  0.
        -12    1    1    2    0    0 -0.34065695504E+00  0.44352139959E+00  0.10393532676E+01  0.11802599746E+01  0.00000000000E+00 0.  1.
         11    1    3    3    0    0  0.97621257603E+01 -0.43325592685E+01 -0.16371595714E+01  0.10805112720E+02  0.51100000000E-03 0. -1.
        -11    1    3    3    0    0  0.22258392419E+02  0.39791770686E+01  0.28918712595E+02  0.36709151742E+02  0.51100000000E-03 0.  1.
         12    1    3    3    0    0 -0.31679861225E+02 -0.90139199633E-01 -0.28320906291E+02  0.42493475563E+02  0.00000000000E+00 0. -1.
</event>
<event>
 7    1  0.2349719E-015  0.9000774E+02  0.7816164E-02  0.1186339E+00
        -11   -1    0    0    0    0  0.00000000000E+00  0.00000000000E+00  0.45593999997E+02  0.45594000000E+02  0.51100000000E-03 0.  1.
         11   -1    0    0    0    0 -0.00000000000E+00 -0.00000000000E+00 -0.45593999997E+02  0.45594000000E+02  0.51100000000E-03 0. -1.
    9900012    2    1    2    0    0  0.52965750379E+00 -0.94708845738E+00 -0.46422498302E+00  0.90007737973E+02  0.89999999314E+02 0.  0.
        -12    1    1    2    0    0 -0.52965750379E+00  0.94708845738E+00  0.46422498302E+00  0.11802620270E+01  0.00000000000E+00 0.  1.
         11    1    3    3    0    0  0.87824448166E+01 -0.16171778601E+00  0.30867986314E+01  0.93105217711E+01  0.51100000000E-03 0. -1.
        -11    1    3    3    0    0  0.33037896854E+02  0.34836731079E+01  0.13449191160E+02  0.35840191823E+02  0.51100000000E-03 0.  1.
         12    1    3    3    0    0 -0.41290684166E+02 -0.42690437793E+01 -0.17000214774E+02  0.44857024378E+02  0.00000000000E+00 0. -1.
</event>
<event>
 7    1  0.2349719E-015  0.9000798E+02  0.7816164E-02  0.1186339E+00
        -11   -1    0    0    0    0  0.00000000000E+00  0.00000000000E+00  0.45593999997E+02  0.45594000000E+02  0.51100000000E-03 0.  1.
         11   -1    0    0    0    0 -0.00000000000E+00 -0.00000000000E+00 -0.45593999997E+02  0.45594000000E+02  0.51100000000E-03 0. -1.
    9900012    2    1    2    0    0 -0.76205915127E+00 -0.81076627271E+00  0.39290577019E+00  0.90007978372E+02  0.90000242886E+02 0.  0.
        -12    1    1    2    0    0  0.76205915127E+00  0.81076627271E+00 -0.39290577019E+00  0.11800216283E+01  0.00000000000E+00 0.  1.
         11    1    3    3    0    0 -0.27905733498E+02 -0.16054469832E+02 -0.18094781815E+02  0.36930977416E+02  0.51100000000E-03 0. -1.
        -11    1    3    3    0    0  0.49932921902E+01 -0.47733025607E+01 -0.97728192838E+01  0.11967680696E+02  0.51100000000E-03 0.  1.
        -12    1    3    3    0    0  0.22150382157E+02  0.20017006120E+02  0.28260506869E+02  0.41109320260E+02  0.00000000000E+00 0.  1.
</event>
<event>
 7    1  0.2349719E-015  0.9000772E+02  0.7816164E-02  0.1186339E+00
        -11   -1    0    0    0    0  0.00000000000E+00  0.00000000000E+00  0.45593999997E+02  0.45594000000E+02  0.51100000000E-03 0.  1.
         11   -1    0    0    0    0 -0.00000000000E+00 -0.00000000000E+00 -0.45593999997E+02  0.45594000000E+02  0.51100000000E-03 0. -1.
    9900012    2    1    2    0    0  0.33951383004E+00 -0.97239595833E+00 -0.57640651240E+00  0.90007716980E+02  0.89999978044E+02 0.  0.
        -12    1    1    2    0    0 -0.33951383004E+00  0.97239595833E+00  0.57640651240E+00  0.11802830203E+01  0.00000000000E+00 0.  1.
         11    1    3    3    0    0 -0.31691759875E+01  0.28592962281E+02  0.27083779120E+02  0.39511166272E+02  0.51100000000E-03 0. -1.
        -11    1    3    3    0    0 -0.86261386885E+01  0.91414636806E+00 -0.10002839367E+02  0.13240193651E+02  0.51100000000E-03 0.  1.
        -12    1    3    3    0    0  0.12134828506E+02 -0.30479504608E+02 -0.17657346265E+02  0.37256357057E+02  0.00000000000E+00 0.  1.
</event>
<event>
 7    1  0.2349719E-015  0.9000764E+02  0.7816164E-02  0.1186339E+00
        -11   -1    0    0    0    0  0.00000000000E+00  0.00000000000E+00  0.45593999997E+02  0.45594000000E+02  0.51100000000E-03 0.  1.
         11   -1    0    0    0    0 -0.00000000000E+00 -0.00000000000E+00 -0.45593999997E+02  0.45594000000E+02  0.51100000000E-03 0. -1.
    9900012    2    1    2    0    0 -0.27703041302E+00 -0.67563518027E+00 -0.92737656573E+00  0.90007637326E+02  0.89999897339E+02 0.  0.
        -12    1    1    2    0    0  0.27703041302E+00  0.67563518027E+00  0.92737656573E+00  0.11803626736E+01  0.00000000000E+00 0.  1.
         11    1    3    3    0    0  0.54253071227E+01  0.65069532421E+00 -0.79949520880E+01  0.96838329669E+01  0.51100000000E-03 0. -1.
        -11    1    3    3    0    0  0.14135123537E+02  0.35484123261E+02  0.31821346785E+01  0.38328197223E+02  0.51100000000E-03 0.  1.
         12    1    3    3    0    0 -0.19837461073E+02 -0.36810453765E+02  0.38854408438E+01  0.41995607137E+02  0.00000000000E+00 0. -1.
</event>
<event>
 7    1  0.3129673E-015  0.9000782E+02  0.7816164E-02  0.1186339E+00
        -11   -1    0    0    0    0  0.00000000000E+00  0.00000000000E+00  0.45593999997E+02  0.45594000000E+02  0.51100000000E-03 0. -1.
         11   -1    0    0    0    0 -0.00000000000E+00 -0.00000000000E+00 -0.45593999997E+02  0.45594000000E+02  0.51100000000E-03 0.  1.
    9900012    2    1    2    0    0 -0.57206311780E+00  0.71018542875E-01  0.10298190541E+01  0.90007819027E+02  0.90000081438E+02 0.  0.
        -12    1    1    2    0    0  0.57206311780E+00 -0.71018542875E-01 -0.10298190541E+01  0.11801809727E+01  0.00000000000E+00 0.  1.
         11    1    3    3    0    0 -0.31380063535E+02 -0.66514685663E+01  0.23778832783E+02  0.39929729655E+02  0.51100000000E-03 0. -1.
        -11    1    3    3    0    0 -0.35831792759E+01  0.79125335459E+01  0.24751004846E+00  0.86895697432E+01  0.51100000000E-03 0.  1.
        -12    1    3    3    0    0  0.34391179693E+02 -0.11900464367E+01 -0.22996523777E+02  0.41388519629E+02  0.00000000000E+00 0.  1.
</event>
<event>
 7    1  0.2349719E-015  0.9000768E+02  0.7816164E-02  0.1186339E+00
        -11   -1    0    0    0    0  0.00000000000E+00  0.00000000000E+00  0.45593999997E+02  0.45594000000E+02  0.51100000000E-03 0. -1.
         11   -1    0    0    0    0 -0.00000000000E+00 -0.00000000000E+00 -0.45593999997E+02  0.45594000000E+02  0.51100000000E-03 0.  1.
    9900012    2    1    2    0    0 -0.11435800223E+01  0.79038216737E-01  0.28132684172E+00  0.90007675003E+02  0.89999935513E+02 0.  0.
        -12    1    1    2    0    0  0.11435800223E+01 -0.79038216737E-01 -0.28132684172E+00  0.11803249971E+01  0.00000000000E+00 0.  1.
         11    1    3    3    0    0 -0.91203219734E+01 -0.13577161679E+01  0.98283319873E+00  0.92730592282E+01  0.51100000000E-03 0. -1.
        -11    1    3    3    0    0 -0.34683014763E+02 -0.42680204595E+01 -0.10705571682E+02  0.36547732857E+02  0.51100000000E-03 0.  1.
         12    1    3    3    0    0  0.42659756714E+02  0.57047748442E+01  0.10004065325E+02  0.44186882918E+02  0.00000000000E+00 0. -1.
</event>
<event>
 7    1  0.2349719E-015  0.9000773E+02  0.7816164E-02  0.1186339E+00
        -11   -1    0    0    0    0  0.00000000000E+00  0.00000000000E+00  0.45593999997E+02  0.45594000000E+02  0.51100000000E-03 0. -1.
         11   -1    0    0    0    0 -0.00000000000E+00 -0.00000000000E+00 -0.45593999997E+02  0.45594000000E+02  0.51100000000E-03 0.  1.
    9900012    2    1    2    0    0 -0.11400855210E+01  0.10764892480E+00  0.28574036761E+00  0.90007732724E+02  0.89999993996E+02 0.  0.
        -12    1    1    2    0    0  0.11400855210E+01 -0.10764892480E+00 -0.28574036761E+00  0.11802672765E+01  0.00000000000E+00 0.  1.
         11    1    3    3    0    0 -0.49948134253E+01 -0.78532063904E+01 -0.38143960029E+01  0.10058361143E+02  0.51100000000E-03 0. -1.
        -11    1    3    3    0    0  0.27166081144E+02 -0.21476357638E+02 -0.15096404512E+02  0.37777391805E+02  0.51100000000E-03 0.  1.
         12    1    3    3    0    0 -0.23311353240E+02  0.29437212953E+02  0.19196540883E+02  0.42171979775E+02  0.00000000000E+00 0. -1.
</event>
<event>
 7    1  0.2349719E-015  0.9000717E+02  0.7816164E-02  0.1186340E+00
        -11   -1    0    0    0    0  0.00000000000E+00  0.00000000000E+00  0.45593999997E+02  0.45594000000E+02  0.51100000000E-03 0.  1.
         11   -1    0    0    0    0 -0.00000000000E+00 -0.00000000000E+00 -0.45593999997E+02  0.45594000000E+02  0.51100000000E-03 0. -1.
    9900012    2    1    2    0    0  0.77811883411E+00  0.48192756458E+00 -0.74607381244E+00  0.90007174343E+02  0.89999428243E+02 0.  0.
        -12    1    1    2    0    0 -0.77811883411E+00 -0.48192756458E+00  0.74607381244E+00  0.11808256565E+01  0.00000000000E+00 0.  1.
         11    1    3    3    0    0 -0.19214852032E+02  0.82982964248E+01 -0.34657079288E+02  0.40486854745E+02  0.51100000000E-03 0. -1.
        -11    1    3    3    0    0  0.33204611961E+01 -0.54841699770E+01 -0.43309514758E+01  0.77368419810E+01  0.51100000000E-03 0.  1.
        -12    1    3    3    0    0  0.16672509670E+02 -0.23321988832E+01  0.38241956951E+02  0.41783477617E+02  0.00000000000E+00 0.  1.
</event>
<event>
 7    1  0.2349719E-015  0.9000746E+02  0.7816164E-02  0.1186340E+00
        -11   -1    0    0    0    0  0.00000000000E+00  0.00000000000E+00  0.45593999997E+02  0.45594000000E+02  0.51100000000E-03 0.  1.
         11   -1    0    0    0    0 -0.00000000000E+00 -0.00000000000E+00 -0.45593999997E+02  0.45594000000E+02  0.51100000000E-03 0. -1.
    9900012    2    1    2    0    0 -0.43570860128E+00  0.10971731448E+01  0.62273161121E-02  0.90007462125E+02  0.89999719825E+02 0.  0.
        -12    1    1    2    0    0  0.43570860128E+00 -0.10971731448E+01 -0.62273161121E-02  0.11805378751E+01  0.00000000000E+00 0.  1.
         11    1    3    3    0    0  0.46711871227E+01  0.20201738834E+02 -0.35428987840E+02  0.41050498422E+02  0.51100000000E-03 0. -1.
        -11    1    3    3    0    0  0.61049384094E+01  0.41556897486E+01  0.44468562893E+01  0.86205893875E+01  0.51100000000E-03 0.  1.
        -12    1    3    3    0    0 -0.11211834133E+02 -0.23260255438E+02  0.30988358867E+02  0.40336374316E+02  0.00000000000E+00 0.  1.
</event>
<event>
 7    1  0.2349719E-015  0.9000773E+02  0.7816164E-02  0.1186339E+00
        -11   -1    0    0    0    0  0.00000000000E+00  0.00000000000E+00  0.45593999997E+02  0.45594000000E+02  0.51100000000E-03 0.  1.
         11   -1    0    0    0    0 -0.00000000000E+00 -0.00000000000E+00 -0.45593999997E+02  0.45594000000E+02  0.51100000000E-03 0. -1.
    9900012    2    1    2    0    0 -0.48918798493E+00 -0.72143031511E+00  0.79577955451E+00  0.90007732368E+02  0.89999993635E+02 0.  0.
        -12    1    1    2    0    0  0.48918798493E+00  0.72143031511E+00 -0.79577955451E+00  0.11802676322E+01  0.00000000000E+00 0.  1.
         11    1    3    3    0    0  0.72317850880E+01  0.49250593053E+01  0.15867345325E+01  0.88922804419E+01  0.51100000000E-03 0. -1.
        -11    1    3    3    0    0 -0.13398690434E+02 -0.24134100798E+02  0.32483949858E+02  0.42628473176E+02  0.51100000000E-03 0.  1.
         12    1    3    3    0    0  0.56777173611E+01  0.18487611178E+02 -0.33274904836E+02  0.38486978750E+02  0.00000000000E+00 0. -1.
</event>
<event>
 7    1  0.3338956E-015  0.9000778E+02  0.7816164E-02  0.1186339E+00
        -11   -1    0    0    0    0  0.00000000000E+00  0.00000000000E+00  0.45593999997E+02  0.45594000000E+02  0.51100000000E-03 0. -1.
         11   -1    0    0    0    0 -0.00000000000E+00 -0.00000000000E+00 -0.45593999997E+02  0.45594000000E+02  0.51100000000E-03 0.  1.
    9900012    2    1    2    0    0 -0.31351452164E-01 -0.95780190969E+00  0.68887010792E+00  0.90007784156E+02  0.90000046107E+02 0.  0.
        -12    1    1    2    0    0  0.31351452164E-01  0.95780190969E+00 -0.68887010792E+00  0.11802158435E+01  0.00000000000E+00 0.  1.
         11    1    3    3    0    0 -0.15116447518E+02 -0.19778836565E+02  0.26772252285E+02  0.36557664779E+02  0.51100000000E-03 0. -1.
        -11    1    3    3    0    0  0.32174915225E+00 -0.95823973004E+01  0.31573037197E+01  0.10094276972E+02  0.51100000000E-03 0.  1.
        -12    1    3    3    0    0  0.14763346914E+02  0.28403431956E+02 -0.29240685897E+02  0.43355842406E+02  0.00000000000E+00 0.  1.
</event>
<event>
 7    1  0.2349719E-015  0.9000794E+02  0.7816164E-02  0.1186339E+00
        -11   -1    0    0    0    0  0.00000000000E+00  0.00000000000E+00  0.45593999997E+02  0.45594000000E+02  0.51100000000E-03 0. -1.
         11   -1    0    0    0    0 -0.00000000000E+00 -0.00000000000E+00 -0.45593999997E+02  0.45594000000E+02  0.51100000000E-03 0.  1.
    9900012    2    1    2    0    0 -0.69248594684E+00 -0.90456047805E+00  0.30785826485E+00  0.90007939342E+02  0.90000203341E+02 0.  0.
        -12    1    1    2    0    0  0.69248594684E+00  0.90456047805E+00 -0.30785826485E+00  0.11800606579E+01  0.00000000000E+00 0.  1.
         11    1    3    3    0    0  0.74324131623E+01  0.52030300478E+01  0.67031553478E+00  0.90973408351E+01  0.51100000000E-03 0. -1.
        -11    1    3    3    0    0  0.13601768574E+02  0.43330037829E+01 -0.35521038603E+02  0.38282204924E+02  0.51100000000E-03 0.  1.
         12    1    3    3    0    0 -0.21726667683E+02 -0.10440594309E+02  0.35158581333E+02  0.42628393583E+02  0.00000000000E+00 0. -1.
</event>
<event>
 7    1  0.2349719E-015  0.9000772E+02  0.7816164E-02  0.1186339E+00
        -11   -1    0    0    0    0  0.00000000000E+00  0.00000000000E+00  0.45593999997E+02  0.45594000000E+02  0.51100000000E-03 0.  1.
         11   -1    0    0    0    0 -0.00000000000E+00 -0.00000000000E+00 -0.45593999997E+02  0.45594000000E+02  0.51100000000E-03 0. -1.
    9900012    2    1    2    0    0 -0.99436520899E+00 -0.60968832251E+00 -0.18052300666E+00  0.90007715892E+02  0.89999976942E+02 0.  0.
        -12    1    1    2    0    0  0.99436520899E+00  0.60968832251E+00  0.18052300666E+00  0.11802841079E+01  0.00000000000E+00 0.  1.
         11    1    3    3    0    0  0.11468904239E+02 -0.16035463592E+02  0.12343944011E+02  0.23260369968E+02  0.51100000000E-03 0.  1.
        -11    1    3    3    0    0 -0.13797669195E+02 -0.32499776598E+01 -0.34842461360E+02  0.37615623667E+02  0.51100000000E-03 0. -1.
         12    1    3    3    0    0  0.13343997465E+01  0.18675752930E+02  0.22317994342E+02  0.29131722257E+02  0.00000000000E+00 0. -1.
</event>
<event>
 7    1  0.2349719E-015  0.9000774E+02  0.7816164E-02  0.1186339E+00
        -11   -1    0    0    0    0  0.00000000000E+00  0.00000000000E+00  0.45593999997E+02  0.45594000000E+02  0.51100000000E-03 0.  1.
         11   -1    0    0    0    0 -0.00000000000E+00 -0.00000000000E+00 -0.45593999997E+02  0.45594000000E+02  0.51100000000E-03 0. -1.
    9900012    2    1    2    0    0  0.10470185383E+01 -0.38385789805E-01  0.54340494475E+00  0.90007741460E+02  0.90000002847E+02 0.  0.
        -12    1    1    2    0    0 -0.10470185383E+01  0.38385789805E-01 -0.54340494475E+00  0.11802585405E+01  0.00000000000E+00 0.  1.
         11    1    3    3    0    0 -0.33971797088E+02 -0.62782488565E+01 -0.20318624935E+02  0.40079245572E+02  0.51100000000E-03 0. -1.
        -11    1    3    3    0    0  0.26995899918E+01 -0.91657995016E+01  0.46240696622E+01  0.10615163076E+02  0.51100000000E-03 0.  1.
        -12    1    3    3    0    0  0.32319225634E+02  0.15405662568E+02  0.16237960217E+02  0.39313332812E+02  0.00000000000E+00 0.  1.
</event>
<event>
 7    1  0.2349719E-015  0.9000770E+02  0.7816164E-02  0.1186339E+00
        -11   -1    0    0    0    0  0.00000000000E+00  0.00000000000E+00  0.45593999997E+02  0.45594000000E+02  0.51100000000E-03 0.  1.
         11   -1    0    0    0    0 -0.00000000000E+00 -0.00000000000E+00 -0.45593999997E+02  0.45594000000E+02  0.51100000000E-03 0. -1.
    9900012    2    1    2    0    0 -0.25195018251E+00 -0.10461174805E+01 -0.48504254867E+00  0.90007700482E+02  0.89999961329E+02 0.  0.
        -12    1    1    2    0    0  0.25195018251E+00  0.10461174805E+01  0.48504254867E+00  0.11802995177E+01  0.00000000000E+00 0.  1.
         11    1    3    3    0    0 -0.52032754221E+01 -0.78718539373E+01  0.30294157452E+00  0.94409709981E+01  0.51100000000E-03 0. -1.
        -11    1    3    3    0    0 -0.38142292903E+01  0.14385940136E+02  0.37617532202E+02  0.40454695005E+02  0.51100000000E-03 0.  1.
         12    1    3    3    0    0  0.87655545299E+01 -0.75602036793E+01 -0.38405516325E+02  0.40112034480E+02  0.00000000000E+00 0. -1.
</event>
<event>
 7    1  0.2349719E-015  0.9000766E+02  0.7816164E-02  0.1186339E+00
        -11   -1    0    0    0    0  0.00000000000E+00  0.00000000000E+00  0.45593999997E+02  0.45594000000E+02  0.51100000000E-03 0. -1.
         11   -1    0    0    0    0 -0.00000000000E+00 -0.00000000000E+00 -0.45593999997E+02  0.45594000000E+02  0.51100000000E-03 0.  1.
    9900012    2    1    2    0    0  0.10555217097E+01  0.88401686987E-01  0.52082829353E+00  0.90007659774E+02  0.89999920083E+02 0.  0.
        -12    1    1    2    0    0 -0.10555217097E+01 -0.88401686987E-01 -0.52082829353E+00  0.11803402260E+01  0.00000000000E+00 0.  1.
         11    1    3    3    0    0 -0.26846968382E+02  0.23963261871E+02  0.13688853956E+02  0.38501718841E+02  0.51100000000E-03 0. -1.
        -11    1    3    3    0    0 -0.32702254924E+01 -0.32752891555E+01  0.74949577369E+01  0.88088753858E+01  0.51100000000E-03 0.  1.
        -12    1    3    3    0    0  0.31172715584E+02 -0.20599571029E+02 -0.20662983399E+02  0.42697065548E+02  0.00000000000E+00 0.  1.
</event>
<event>
 7    1  0.2349719E-015  0.9000767E+02  0.7816164E-02  0.1186339E+00
        -11   -1    0    0    0    0  0.00000000000E+00  0.00000000000E+00  0.45593999997E+02  0.45594000000E+02  0.51100000000E-03 0. -1.
         11   -1    0    0    0    0 -0.00000000000E+00 -0.00000000000E+00 -0.45593999997E+02  0.45594000000E+02  0.51100000000E-03 0.  1.
    9900012    2    1    2    0    0 -0.48081725109E+00 -0.99907435859E+00  0.40477322940E+00  0.90007671160E+02  0.89999931619E+02 0.  0.
        -12    1    1    2    0    0  0.48081725109E+00  0.99907435859E+00 -0.40477322940E+00  0.11803288398E+01  0.00000000000E+00 0.  1.
         11    1    3    3    0    0 -0.98521216181E+01 -0.31422905797E+00  0.31888072628E+01  0.10360093257E+02  0.51100000000E-03 0. -1.
        -11    1    3    3    0    0  0.80415932834E+01  0.29866679260E+02 -0.26672633939E+02  0.40842565469E+02  0.51100000000E-03 0.  1.
         12    1    3    3    0    0  0.13297110836E+01 -0.30551524561E+02  0.23888599905E+02  0.38805012434E+02  0.00000000000E+00 0. -1.
</event>
<event>
 7    1  0.2349719E-015  0.9000706E+02  0.7816164E-02  0.1186340E+00
        -11   -1    0    0    0    0  0.00000000000E+00  0.00000000000E+00  0.45593999997E+02  0.45594000000E+02  0.51100000000E-03 0.  1.
         11   -1    0    0    0    0 -0.00000000000E+00 -0.00000000000E+00 -0.45593999997E+02  0.45594000000E+02  0.51100000000E-03 0. -1.
    9900012    2    1    2    0    0 -0.10759600093E+01  0.29287481758E+00 -0.38877308096E+00  0.90007063884E+02  0.89999316325E+02 0.  0.
        -12    1    1    2    0    0  0.10759600093E+01 -0.29287481758E+00  0.38877308096E+00  0.11809361155E+01  0.00000000000E+00 0.  1.
         11    1    3    3    0    0 -0.23376274302E+02  0.15655325896E+02  0.22558348471E+02  0.36061316048E+02  0.51100000000E-03 0. -1.
        -11    1    3    3    0    0 -0.43542006460E+01  0.74830973640E+01  0.41481034773E+01  0.96001339649E+01  0.51100000000E-03 0.  1.
        -12    1    3    3    0    0  0.26654514939E+02 -0.22845548442E+02 -0.27095225029E+02  0.44345613871E+02  0.00000000000E+00 0.  1.
</event>
<event>
 7    1  0.2349719E-015  0.9000788E+02  0.7816164E-02  0.1186339E+00
        -11   -1    0    0    0    0  0.00000000000E+00  0.00000000000E+00  0.45593999997E+02  0.45594000000E+02  0.51100000000E-03 0. -1.
         11   -1    0    0    0    0 -0.00000000000E+00 -0.00000000000E+00 -0.45593999997E+02  0.45594000000E+02  0.51100000000E-03 0.  1.
    9900012    2    1    2    0    0  0.69100156972E+00 -0.27665387257E+00 -0.91578783781E+00  0.90007878015E+02  0.90000141205E+02 0.  0.
        -12    1    1    2    0    0 -0.69100156972E+00  0.27665387257E+00  0.91578783781E+00  0.11801219846E+01  0.00000000000E+00 0.  1.
         11    1    3    3    0    0  0.50873211992E+01  0.43600821962E+01 -0.48923571227E+01  0.82961624995E+01  0.51100000000E-03 0. -1.
        -11    1    3    3    0    0  0.80748726659E+01  0.20808128865E+02 -0.30049129693E+02  0.37431697678E+02  0.51100000000E-03 0.  1.
         12    1    3    3    0    0 -0.12471192295E+02 -0.25444864934E+02  0.34025698978E+02  0.44280017838E+02  0.00000000000E+00 0. -1.
</event>
<event>
 7    1  0.2349719E-015  0.9000770E+02  0.7816164E-02  0.1186339E+00
        -11   -1    0    0    0    0  0.00000000000E+00  0.00000000000E+00  0.45593999997E+02  0.45594000000E+02  0.51100000000E-03 0.  1.
         11   -1    0    0    0    0 -0.00000000000E+00 -0.00000000000E+00 -0.45593999997E+02  0.45594000000E+02  0.51100000000E-03 0. -1.
    9900012    2    1    2    0    0  0.10189603556E+00 -0.11393020934E+01 -0.29107072691E+00  0.90007697399E+02  0.89999958205E+02 0.  0.
        -12    1    1    2    0    0 -0.10189603556E+00  0.11393020934E+01  0.29107072691E+00  0.11803026011E+01  0.00000000000E+00 0.  1.
         11    1    3    3    0    0  0.21335197632E+02  0.33060095313E+02  0.17371175287E+00  0.39347054986E+02  0.51100000000E-03 0. -1.
        -11    1    3    3    0    0  0.41245313721E+01 -0.36625979948E+01 -0.85287076664E+01  0.10157028986E+02  0.51100000000E-03 0.  1.
        -12    1    3    3    0    0 -0.25357832968E+02 -0.30536799411E+02  0.80639251867E+01  0.40503613426E+02  0.00000000000E+00 0.  1.
</event>
<event>
 7    1  0.2349719E-015  0.9000771E+02  0.7816164E-02  0.1186339E+00
        -11   -1    0    0    0    0  0.00000000000E+00  0.00000000000E+00  0.45593999997E+02  0.45594000000E+02  0.51100000000E-03 0.  1.
         11   -1    0    0    0    0 -0.00000000000E+00 -0.00000000000E+00 -0.45593999997E+02  0.45594000000E+02  0.51100000000E-03 0. -1.
    9900012    2    1    2    0    0  0.11609742191E+01  0.16612039691E+00 -0.13273287183E+00  0.90007713959E+02  0.89999974983E+02 0.  0.
        -12    1    1    2    0    0 -0.11609742191E+01 -0.16612039691E+00  0.13273287183E+00  0.11802860412E+01  0.00000000000E+00 0.  1.
         11    1    3    3    0    0  0.14113231878E+01  0.51949553472E+01 -0.31640810818E+01  0.62442616499E+01  0.51100000000E-03 0. -1.
        -11    1    3    3    0    0  0.20146892397E+02  0.32540017747E+02  0.11949698223E+02  0.40094205518E+02  0.51100000000E-03 0.  1.
         12    1    3    3    0    0 -0.20397241366E+02 -0.37568852697E+02 -0.89183500128E+01  0.43669246791E+02  0.00000000000E+00 0. -1.
</event>
<event>
 7    1  0.2349719E-015  0.9000781E+02  0.7816164E-02  0.1186339E+00
        -11   -1    0    0    0    0  0.00000000000E+00  0.00000000000E+00  0.45593999997E+02  0.45594000000E+02  0.51100000000E-03 0.  1.
         11   -1    0    0    0    0 -0.00000000000E+00 -0.00000000000E+00 -0.45593999997E+02  0.45594000000E+02  0.51100000000E-03 0. -1.
    9900012    2    1    2    0    0  0.37228292311E+00 -0.10808696958E+01 -0.29321208167E+00  0.90007810524E+02  0.90000072823E+02 0.  0.
        -12    1    1    2    0    0 -0.37228292311E+00  0.10808696958E+01  0.29321208167E+00  0.11801894759E+01  0.00000000000E+00 0.  1.
         11    1    3    3    0    0  0.23154628344E+02 -0.27214543406E+02 -0.12675331613E+02  0.37913483331E+02  0.51100000000E-03 0. -1.
        -11    1    3    3    0    0 -0.18184306800E+01 -0.38730557830E+01 -0.88126860266E+01  0.97964629587E+01  0.51100000000E-03 0.  1.
        -12    1    3    3    0    0 -0.20963914741E+02  0.30006729494E+02  0.21194805558E+02  0.42297864234E+02  0.00000000000E+00 0.  1.
</event>
<event>
 7    1  0.2349719E-015  0.9000757E+02  0.7816164E-02  0.1186339E+00
        -11   -1    0    0    0    0  0.00000000000E+00  0.00000000000E+00  0.45593999997E+02  0.45594000000E+02  0.51100000000E-03 0. -1.
         11   -1    0    0    0    0 -0.00000000000E+00 -0.00000000000E+00 -0.45593999997E+02  0.45594000000E+02  0.51100000000E-03 0.  1.
    9900012    2    1    2    0    0  0.47280691945E+00 -0.10512430820E+01 -0.25445800970E+00  0.90007573264E+02  0.89999832431E+02 0.  0.
        -12    1    1    2    0    0 -0.47280691945E+00  0.10512430820E+01  0.25445800970E+00  0.11804267361E+01  0.00000000000E+00 0.  1.
         11    1    3    3    0    0 -0.15151215025E+02 -0.12808156289E+02  0.31594338602E+02  0.37306975436E+02  0.51100000000E-03 0. -1.
        -11    1    3    3    0    0 -0.21868183315E+01 -0.11564120683E+02 -0.45385414997E+01  0.12613858283E+02  0.51100000000E-03 0.  1.
        -12    1    3    3    0    0  0.17810840276E+02  0.23321033890E+02 -0.27310255112E+02  0.40086739544E+02  0.00000000000E+00 0.  1.
</event>
<event>
 7    1  0.2349719E-015  0.9000776E+02  0.7816164E-02  0.1186339E+00
        -11   -1    0    0    0    0  0.00000000000E+00  0.00000000000E+00  0.45593999997E+02  0.45594000000E+02  0.51100000000E-03 0.  1.
         11   -1    0    0    0    0 -0.00000000000E+00 -0.00000000000E+00 -0.45593999997E+02  0.45594000000E+02  0.51100000000E-03 0. -1.
    9900012    2    1    2    0    0  0.35442320140E+00  0.11170940685E+01 -0.13949712729E+00  0.90007756630E+02  0.90000018218E+02 0.  0.
        -12    1    1    2    0    0 -0.35442320140E+00 -0.11170940685E+01  0.13949712729E+00  0.11802433699E+01  0.00000000000E+00 0.  1.
         11    1    3    3    0    0 -0.32561367035E+01 -0.84893168148E+01  0.13599432930E+01  0.91934961922E+01  0.51100000000E-03 0. -1.
        -11    1    3    3    0    0  0.38197749530E+02  0.16581776816E+02  0.11519294029E+02  0.43205526576E+02  0.51100000000E-03 0.  1.
         12    1    3    3    0    0 -0.34587189625E+02 -0.69753659323E+01 -0.13018734449E+02  0.37608733862E+02  0.00000000000E+00 0. -1.
</event>
<event>
 7    1  0.2349719E-015  0.9000774E+02  0.7816164E-02  0.1186339E+00
        -11   -1    0    0    0    0  0.00000000000E+00  0.00000000000E+00  0.45593999997E+02  0.45594000000E+02  0.51100000000E-03 0.  1.
         11   -1    0    0    0    0 -0.00000000000E+00 -0.00000000000E+00 -0.45593999997E+02  0.45594000000E+02  0.51100000000E-03 0. -1.
    9900012    2    1    2    0    0  0.47396781317E+00  0.70048527684E+00 -0.82321187342E+00  0.90007744562E+02  0.90000005990E+02 0.  0.
        -12    1    1    2    0    0 -0.47396781317E+00 -0.70048527684E+00  0.82321187342E+00  0.11802554383E+01  0.00000000000E+00 0.  1.
         11    1    3    3    0    0  0.30556503929E+01 -0.57407762965E+01  0.16171062530E+01  0.67013837904E+01  0.51100000000E-03 0. -1.
        -11    1    3    3    0    0 -0.39144027612E+02  0.13068649029E+02 -0.15259942411E+02  0.43998980986E+02  0.51100000000E-03 0.  1.
         12    1    3    3    0    0  0.36562345033E+02 -0.66273874560E+01  0.12819624285E+02  0.39307379785E+02  0.00000000000E+00 0. -1.
</event>
<event>
 7    1  0.2349719E-015  0.9000765E+02  0.7816164E-02  0.1186339E+00
        -11   -1    0    0    0    0  0.00000000000E+00  0.00000000000E+00  0.45593999997E+02  0.45594000000E+02  0.51100000000E-03 0.  1.
         11   -1    0    0    0    0 -0.00000000000E+00 -0.00000000000E+00 -0.45593999997E+02  0.45594000000E+02  0.51100000000E-03 0. -1.
    9900012    2    1    2    0    0  0.12862639219E+00 -0.11385996235E+01 -0.28331008242E+00  0.90007653248E+02  0.89999913471E+02 0.  0.
        -12    1    1    2    0    0 -0.12862639219E+00  0.11385996235E+01  0.28331008242E+00  0.11803467517E+01  0.00000000000E+00 0.  1.
         11    1    3    3    0    0 -0.69988806890E+01 -0.63448091995E+01 -0.25635396277E+01  0.97883946774E+01  0.51100000000E-03 0. -1.
        -11    1    3    3    0    0  0.11147904736E+01 -0.22918438412E+02  0.31663418595E+02  0.39103320248E+02  0.51100000000E-03 0.  1.
         12    1    3    3    0    0  0.60127166075E+01  0.28124647988E+02 -0.29383189050E+02  0.41115938323E+02  0.00000000000E+00 0. -1.
</event>
<event>
 7    1  0.2349719E-015  0.9000779E+02  0.7816164E-02  0.1186339E+00
        -11   -1    0    0    0    0  0.00000000000E+00  0.00000000000E+00  0.45593999997E+02  0.45594000000E+02  0.51100000000E-03 0.  1.
         11   -1    0    0    0    0 -0.00000000000E+00 -0.00000000000E+00 -0.45593999997E+02  0.45594000000E+02  0.51100000000E-03 0. -1.
    9900012    2    1    2    0    0 -0.20585696436E+00 -0.11453026821E+01 -0.19700413162E+00  0.90007785633E+02  0.90000047604E+02 0.  0.
        -12    1    1    2    0    0  0.20585696436E+00  0.11453026821E+01  0.19700413162E+00  0.11802143667E+01  0.00000000000E+00 0.  1.
         11    1    3    3    0    0 -0.63893531078E+01  0.78133969595E+01 -0.99277283541E+01  0.14157428994E+02  0.51100000000E-03 0. -1.
        -11    1    3    3    0    0 -0.10217149254E+02 -0.10690778223E+02  0.39301551672E+02  0.41991604422E+02  0.51100000000E-03 0.  1.
         12    1    3    3    0    0  0.16400645398E+02  0.17320785810E+01 -0.29570827449E+02  0.33858752217E+02  0.00000000000E+00 0. -1.
</event>
<event>
 7    1  0.2349719E-015  0.9000768E+02  0.7816164E-02  0.1186339E+00
        -11   -1    0    0    0    0  0.00000000000E+00  0.00000000000E+00  0.45593999997E+02  0.45594000000E+02  0.51100000000E-03 0.  1.
         11   -1    0    0    0    0 -0.00000000000E+00 -0.00000000000E+00 -0.45593999997E+02  0.45594000000E+02  0.51100000000E-03 0. -1.
    9900012    2    1    2    0    0  0.61873722523E+00  0.81063839647E+00 -0.59428766662E+00  0.90007683011E+02  0.89999943627E+02 0.  0.
        -12    1    1    2    0    0 -0.61873722523E+00 -0.81063839647E+00  0.59428766662E+00  0.11803169890E+01  0.00000000000E+00 0.  1.
         11    1    3    3    0    0 -0.57069266538E+01 -0.68378535482E+01  0.76894559841E+01  0.11766604717E+02  0.51100000000E-03 0. -1.
        -11    1    3    3    0    0  0.16206463583E+02 -0.31359867190E+02  0.54572444201E+01  0.35719353983E+02  0.51100000000E-03 0.  1.
         12    1    3    3    0    0 -0.98807997040E+01  0.39008359135E+02 -0.13740988071E+02  0.42521724311E+02  0.00000000000E+00 0. -1.
</event>
<event>
 7    1  0.2349719E-015  0.9000756E+02  0.7816164E-02  0.1186339E+00
        -11   -1    0    0    0    0  0.00000000000E+00  0.00000000000E+00  0.45593999997E+02  0.45594000000E+02  0.51100000000E-03 0. -1.
         11   -1    0    0    0    0 -0.00000000000E+00 -0.00000000000E+00 -0.45593999997E+02  0.45594000000E+02  0.51100000000E-03 0.  1.
    9900012    2    1    2    0    0 -0.92130290132E+00  0.36513917115E+00  0.64133213163E+00  0.90007562558E+02  0.89999821584E+02 0.  0.
        -12    1    1    2    0    0  0.92130290132E+00 -0.36513917115E+00 -0.64133213163E+00  0.11804374415E+01  0.00000000000E+00 0.  1.
         11    1    3    3    0    0 -0.61786809950E+00 -0.89707555915E+01 -0.45513247000E+01  0.10078232665E+02  0.51100000000E-03 0. -1.
        -11    1    3    3    0    0  0.38292541843E+02  0.13835911895E+02  0.53950674976E+01  0.41071376557E+02  0.51100000000E-03 0.  1.
         12    1    3    3    0    0 -0.38595976645E+02 -0.45000171319E+01 -0.20241066600E+00  0.38857953336E+02  0.00000000000E+00 0. -1.
</event>
<event>
 7    1  0.2349719E-015  0.9000785E+02  0.7816164E-02  0.1186339E+00
        -11   -1    0    0    0    0  0.00000000000E+00  0.00000000000E+00  0.45593999997E+02  0.45594000000E+02  0.51100000000E-03 0.  1.
         11   -1    0    0    0    0 -0.00000000000E+00 -0.00000000000E+00 -0.45593999997E+02  0.45594000000E+02  0.51100000000E-03 0. -1.
    9900012    2    1    2    0    0  0.72326318803E+00  0.67983644151E+00 -0.63833485846E+00  0.90007848053E+02  0.90000110847E+02 0.  0.
        -12    1    1    2    0    0 -0.72326318803E+00 -0.67983644151E+00  0.63833485846E+00  0.11801519469E+01  0.00000000000E+00 0.  1.
         11    1    3    3    0    0  0.37843613457E+02  0.18413701603E+02  0.90942580298E+01  0.43057043740E+02  0.51100000000E-03 0. -1.
        -11    1    3    3    0    0 -0.69437212225E+01  0.45522044657E+01 -0.30554310803E+01  0.88472305984E+01  0.51100000000E-03 0.  1.
        -12    1    3    3    0    0 -0.30176629046E+02 -0.22286069628E+02 -0.66771618080E+01  0.38103573715E+02  0.00000000000E+00 0.  1.
</event>
<event>
 7    1  0.2349719E-015  0.9000804E+02  0.7816164E-02  0.1186338E+00
        -11   -1    0    0    0    0  0.00000000000E+00  0.00000000000E+00  0.45593999997E+02  0.45594000000E+02  0.51100000000E-03 0.  1.
         11   -1    0    0    0    0 -0.00000000000E+00 -0.00000000000E+00 -0.45593999997E+02  0.45594000000E+02  0.51100000000E-03 0. -1.
    9900012    2    1    2    0    0  0.60300853086E+00  0.95061402795E+00  0.35357175026E+00  0.90008042670E+02  0.90000308033E+02 0.  0.
        -12    1    1    2    0    0 -0.60300853086E+00 -0.95061402795E+00 -0.35357175026E+00  0.11799573302E+01  0.00000000000E+00 0.  1.
         11    1    3    3    0    0  0.15102824978E+02 -0.12359678250E+02 -0.36118459777E+02  0.41053624757E+02  0.51100000000E-03 0. -1.
        -11    1    3    3    0    0 -0.32926532799E+01 -0.73018514320E+01  0.41682786472E+01  0.90295707040E+01  0.51100000000E-03 0.  1.
        -12    1    3    3    0    0 -0.11207163167E+02  0.20612143710E+02  0.32303752880E+02  0.39924847209E+02  0.00000000000E+00 0.  1.
</event>
<event>
 7    1  0.2349719E-015  0.9000770E+02  0.7816164E-02  0.1186339E+00
        -11   -1    0    0    0    0  0.00000000000E+00  0.00000000000E+00  0.45593999997E+02  0.45594000000E+02  0.51100000000E-03 0.  1.
         11   -1    0    0    0    0 -0.00000000000E+00 -0.00000000000E+00 -0.45593999997E+02  0.45594000000E+02  0.51100000000E-03 0. -1.
    9900012    2    1    2    0    0  0.16869151717E+00 -0.11656471791E+01  0.76982098105E-01  0.90007696472E+02  0.89999957266E+02 0.  0.
        -12    1    1    2    0    0 -0.16869151717E+00  0.11656471791E+01 -0.76982098105E-01  0.11803035277E+01  0.00000000000E+00 0.  1.
         11    1    3    3    0    0  0.13395082255E+02 -0.41284051346E+01 -0.40160271502E+01  0.14580824116E+02  0.51100000000E-03 0. -1.
        -11    1    3    3    0    0  0.18319545106E+02 -0.49980253660E+01  0.28853646625E+02  0.34541553443E+02  0.51100000000E-03 0.  1.
         12    1    3    3    0    0 -0.31545935844E+02  0.79607833215E+01 -0.24760637376E+02  0.40885318913E+02  0.00000000000E+00 0. -1.
</event>
<event>
 7    1  0.2349719E-015  0.9000771E+02  0.7816164E-02  0.1186339E+00
        -11   -1    0    0    0    0  0.00000000000E+00  0.00000000000E+00  0.45593999997E+02  0.45594000000E+02  0.51100000000E-03 0.  1.
         11   -1    0    0    0    0 -0.00000000000E+00 -0.00000000000E+00 -0.45593999997E+02  0.45594000000E+02  0.51100000000E-03 0. -1.
    9900012    2    1    2    0    0  0.75266372119E+00 -0.54515104592E+00 -0.72759650354E+00  0.90007708082E+02  0.89999969029E+02 0.  0.
        -12    1    1    2    0    0 -0.75266372119E+00  0.54515104592E+00  0.72759650354E+00  0.11802919181E+01  0.00000000000E+00 0.  1.
         11    1    3    3    0    0 -0.13869232537E+02 -0.25785079389E+02  0.12889542396E+02  0.31990095868E+02  0.51100000000E-03 0. -1.
        -11    1    3    3    0    0  0.54212380732E+01  0.18482932145E+02  0.16781326898E+02  0.25546458377E+02  0.51100000000E-03 0.  1.
         12    1    3    3    0    0  0.92006581847E+01  0.67569961980E+01 -0.30398465797E+02  0.32471153836E+02  0.00000000000E+00 0. -1.
</event>
<event>
 7    1  0.2349719E-015  0.9000775E+02  0.7816164E-02  0.1186339E+00
        -11   -1    0    0    0    0  0.00000000000E+00  0.00000000000E+00  0.45593999997E+02  0.45594000000E+02  0.51100000000E-03 0. -1.
         11   -1    0    0    0    0 -0.00000000000E+00 -0.00000000000E+00 -0.45593999997E+02  0.45594000000E+02  0.51100000000E-03 0.  1.
    9900012    2    1    2    0    0  0.99918395029E+00  0.56236319091E+00  0.27993313357E+00  0.90007752787E+02  0.90000014324E+02 0.  0.
        -12    1    1    2    0    0 -0.99918395029E+00 -0.56236319091E+00 -0.27993313357E+00  0.11802472132E+01  0.00000000000E+00 0.  1.
         11    1    3    3    0    0  0.37953205546E+02  0.77327199298E+01  0.18326626615E+02  0.42849807608E+02  0.51100000000E-03 0. -1.
        -11    1    3    3    0    0 -0.40059532839E+01  0.55626537570E+01 -0.77888217624E+01  0.10375766152E+02  0.51100000000E-03 0.  1.
        -12    1    3    3    0    0 -0.32948068312E+02 -0.12733010496E+02 -0.10257871719E+02  0.36782179027E+02  0.00000000000E+00 0.  1.
</event>
<event>
 7    1  0.2349719E-015  0.9000720E+02  0.7816164E-02  0.1186340E+00
        -11   -1    0    0    0    0  0.00000000000E+00  0.00000000000E+00  0.45593999997E+02  0.45594000000E+02  0.51100000000E-03 0. -1.
         11   -1    0    0    0    0 -0.00000000000E+00 -0.00000000000E+00 -0.45593999997E+02  0.45594000000E+02  0.51100000000E-03 0.  1.
    9900012    2    1    2    0    0  0.11385816060E+01  0.28472973110E+00  0.12981660807E+00  0.90007198812E+02  0.89999453035E+02 0.  0.
        -12    1    1    2    0    0 -0.11385816060E+01 -0.28472973110E+00 -0.12981660807E+00  0.11808011878E+01  0.00000000000E+00 0.  1.
         11    1    3    3    0    0  0.94780607987E+01  0.86945635016E+00 -0.12720404912E+02  0.15887047940E+02  0.51100000000E-03 0. -1.
        -11    1    3    3    0    0 -0.59503000747E+01  0.21036257074E+02 -0.23287179026E+02  0.31940928132E+02  0.51100000000E-03 0.  1.
         12    1    3    3    0    0 -0.23891791180E+01 -0.21620983693E+02  0.36137400546E+02  0.42179222740E+02  0.00000000000E+00 0. -1.
</event>
<event>
 7    1  0.2349719E-015  0.9000776E+02  0.7816164E-02  0.1186339E+00
        -11   -1    0    0    0    0  0.00000000000E+00  0.00000000000E+00  0.45593999997E+02  0.45594000000E+02  0.51100000000E-03 0.  1.
         11   -1    0    0    0    0 -0.00000000000E+00 -0.00000000000E+00 -0.45593999997E+02  0.45594000000E+02  0.51100000000E-03 0. -1.
    9900012    2    1    2    0    0 -0.73277843778E+00  0.30972590746E+00  0.87182610609E+00  0.90007756324E+02  0.90000017907E+02 0.  0.
        -12    1    1    2    0    0  0.73277843778E+00 -0.30972590746E+00 -0.87182610609E+00  0.11802436765E+01  0.00000000000E+00 0.  1.
         11    1    3    3    0    0 -0.10219619522E+02  0.92417378959E+00 -0.57580171110E+00  0.10277464096E+02  0.51100000000E-03 0. -1.
        -11    1    3    3    0    0 -0.33420093252E+02 -0.11042015932E+02  0.44255651614E+01  0.35474136720E+02  0.51100000000E-03 0.  1.
         12    1    3    3    0    0  0.42906934336E+02  0.10427568050E+02 -0.29779373442E+01  0.44256155508E+02  0.00000000000E+00 0. -1.
</event>
<event>
 7    1  0.2349719E-015  0.9000772E+02  0.7816164E-02  0.1186339E+00
        -11   -1    0    0    0    0  0.00000000000E+00  0.00000000000E+00  0.45593999997E+02  0.45594000000E+02  0.51100000000E-03 0. -1.
         11   -1    0    0    0    0 -0.00000000000E+00 -0.00000000000E+00 -0.45593999997E+02  0.45594000000E+02  0.51100000000E-03 0.  1.
    9900012    2    1    2    0    0 -0.45845706287E+00 -0.19416688851E+00  0.10701321916E+01  0.90007717590E+02  0.89999978663E+02 0.  0.
        -12    1    1    2    0    0  0.45845706287E+00  0.19416688851E+00 -0.10701321916E+01  0.11802824097E+01  0.00000000000E+00 0.  1.
         11    1    3    3    0    0  0.62953107966E+01 -0.51961937432E+01  0.44151842592E+01  0.92803674359E+01  0.51100000000E-03 0. -1.
        -11    1    3    3    0    0  0.15124852777E+02 -0.32638966283E+02  0.52361773664E+01  0.36352177998E+02  0.51100000000E-03 0.  1.
         12    1    3    3    0    0 -0.21878620637E+02  0.37640993137E+02 -0.85812294339E+01  0.44375172156E+02  0.00000000000E+00 0. -1.
</event>
<event>
 7    1  0.2349719E-015  0.9000805E+02  0.7816164E-02  0.1186338E+00
        -11   -1    0    0    0    0  0.00000000000E+00  0.00000000000E+00  0.45593999997E+02  0.45594000000E+02  0.51100000000E-03 0. -1.
         11   -1    0    0    0    0 -0.00000000000E+00 -0.00000000000E+00 -0.45593999997E+02  0.45594000000E+02  0.51100000000E-03 0.  1.
    9900012    2    1    2    0    0 -0.11269835005E+01  0.33668367280E+00 -0.93983663042E-01  0.90008050580E+02  0.90000316047E+02 0.  0.
        -12    1    1    2    0    0  0.11269835005E+01 -0.33668367280E+00  0.93983663042E-01  0.11799494205E+01  0.00000000000E+00 0.  1.
         11    1    3    3    0    0 -0.45858028312E+01  0.10176646479E+02  0.29309810369E+02  0.31363333772E+02  0.51100000000E-03 0. -1.
        -11    1    3    3    0    0 -0.87779391803E+01 -0.79917361574E+01  0.11124641413E+02  0.16268918523E+02  0.51100000000E-03 0.  1.
        -12    1    3    3    0    0  0.12236758511E+02 -0.18482266487E+01 -0.40528435446E+02  0.42375798285E+02  0.00000000000E+00 0.  1.
</event>
<event>
 7    1  0.2349719E-015  0.9000773E+02  0.7816164E-02  0.1186339E+00
        -11   -1    0    0    0    0  0.00000000000E+00  0.00000000000E+00  0.45593999997E+02  0.45594000000E+02  0.51100000000E-03 0.  1.
         11   -1    0    0    0    0 -0.00000000000E+00 -0.00000000000E+00 -0.45593999997E+02  0.45594000000E+02  0.51100000000E-03 0. -1.
    9900012    2    1    2    0    0 -0.36170165401E+00  0.11056592286E+01  0.19934246359E+00  0.90007725526E+02  0.89999986703E+02 0.  0.
        -12    1    1    2    0    0  0.36170165401E+00 -0.11056592286E+01 -0.19934246359E+00  0.11802744741E+01  0.00000000000E+00 0.  1.
         11    1    3    3    0    0 -0.16061926602E+02 -0.38714233448E+02 -0.18656621238E+01  0.41955429363E+02  0.51100000000E-03 0. -1.
        -11    1    3    3    0    0 -0.37511593488E+01  0.76943573298E+01  0.57569980068E+01  0.10315878901E+02  0.51100000000E-03 0.  1.
        -12    1    3    3    0    0  0.19451384296E+02  0.32125535347E+02 -0.36919934194E+01  0.37736417262E+02  0.00000000000E+00 0.  1.
</event>
<event>
 7    1  0.2349719E-015  0.9000790E+02  0.7816164E-02  0.1186339E+00
        -11   -1    0    0    0    0  0.00000000000E+00  0.00000000000E+00  0.45593999997E+02  0.45594000000E+02  0.51100000000E-03 0.  1.
         11   -1    0    0    0    0 -0.00000000000E+00 -0.00000000000E+00 -0.45593999997E+02  0.45594000000E+02  0.51100000000E-03 0. -1.
    9900012    2    1    2    0    0  0.24759430968E+00  0.86964976227E+00 -0.75831420050E+00  0.90007900819E+02  0.90000164309E+02 0.  0.
        -12    1    1    2    0    0 -0.24759430968E+00 -0.86964976227E+00  0.75831420050E+00  0.11800991814E+01  0.00000000000E+00 0.  1.
         11    1    3    3    0    0  0.73431385540E+01 -0.39646141226E+02 -0.15412692149E+02  0.43165834609E+02  0.51100000000E-03 0. -1.
        -11    1    3    3    0    0  0.41448129585E+01  0.92648923833E+01 -0.85992536573E+00  0.10186126704E+02  0.51100000000E-03 0.  1.
        -12    1    3    3    0    0 -0.11240357203E+02  0.31250898605E+02  0.15514303314E+02  0.36655939505E+02  0.00000000000E+00 0.  1.
</event>
<event>
 7    1  0.2534218E-015  0.9000766E+02  0.7816164E-02  0.1186339E+00
        -11   -1    0    0    0    0  0.00000000000E+00  0.00000000000E+00  0.45593999997E+02  0.45594000000E+02  0.51100000000E-03 0. -1.
         11   -1    0    0    0    0 -0.00000000000E+00 -0.00000000000E+00 -0.45593999997E+02  0.45594000000E+02  0.51100000000E-03 0.  1.
    9900012    2    1    2    0    0  0.28553944125E+00 -0.57137511416E+00  0.99257199206E+00  0.90007660450E+02  0.89999920768E+02 0.  0.
        -12    1    1    2    0    0 -0.28553944125E+00  0.57137511416E+00 -0.99257199206E+00  0.11803395499E+01  0.00000000000E+00 0.  1.
         11    1    3    3    0    0 -0.35577086535E+02  0.13265708633E+01  0.11164361884E+02  0.37311283187E+02  0.51100000000E-03 0. -1.
        -11    1    3    3    0    0 -0.50999224835E+01  0.80427222059E+01 -0.25802911551E+01  0.98667366705E+01  0.51100000000E-03 0.  1.
        -12    1    3    3    0    0  0.40962548459E+02 -0.99406681833E+01 -0.75914987366E+01  0.42829640592E+02  0.00000000000E+00 0.  1.
</event>
<event>
 7    1  0.2349719E-015  0.9000764E+02  0.7816164E-02  0.1186339E+00
        -11   -1    0    0    0    0  0.00000000000E+00  0.00000000000E+00  0.45593999997E+02  0.45594000000E+02  0.51100000000E-03 0.  1.
         11   -1    0    0    0    0 -0.00000000000E+00 -0.00000000000E+00 -0.45593999997E+02  0.45594000000E+02  0.51100000000E-03 0. -1.
    9900012    2    1    2    0    0  0.77488845746E+00  0.83684946385E+00 -0.30411806415E+00  0.90007636944E+02  0.89999896952E+02 0.  0.
        -12    1    1    2    0    0 -0.77488845746E+00 -0.83684946385E+00  0.30411806415E+00  0.11803630558E+01  0.00000000000E+00 0.  1.
         11    1    3    3    0    0 -0.50169981079E+01 -0.64065252252E+01 -0.31068997818E+01  0.87101470706E+01  0.51100000000E-03 0. -1.
        -11    1    3    3    0    0 -0.10130205874E+02 -0.34808794485E+02  0.13964787028E+00  0.36253175673E+02  0.51100000000E-03 0.  1.
         12    1    3    3    0    0  0.15922092440E+02  0.42052169174E+02  0.26631338474E+01  0.45044314201E+02  0.00000000000E+00 0. -1.
</event>
<event>
 7    1  0.2349719E-015  0.9000773E+02  0.7816164E-02  0.1186339E+00
        -11   -1    0    0    0    0  0.00000000000E+00  0.00000000000E+00  0.45593999997E+02  0.45594000000E+02  0.51100000000E-03 0.  1.
         11   -1    0    0    0    0 -0.00000000000E+00 -0.00000000000E+00 -0.45593999997E+02  0.45594000000E+02  0.51100000000E-03 0. -1.
    9900012    2    1    2    0    0  0.11579636407E+01 -0.14129631549E+00 -0.17942340857E+00  0.90007730030E+02  0.89999991267E+02 0.  0.
        -12    1    1    2    0    0 -0.11579636407E+01  0.14129631549E+00  0.17942340857E+00  0.11802699697E+01  0.00000000000E+00 0.  1.
         11    1    3    3    0    0  0.84075679099E+01  0.28602281101E+01  0.48630582258E+01  0.10125089559E+02  0.51100000000E-03 0. -1.
        -11    1    3    3    0    0  0.35284390694E+02 -0.16045429266E+01  0.62113865313E+01  0.35862851359E+02  0.51100000000E-03 0.  1.
         12    1    3    3    0    0 -0.42533994963E+02 -0.13969814990E+01 -0.11253868166E+02  0.44019789113E+02  0.00000000000E+00 0. -1.
</event>
<event>
 7    1  0.2349719E-015  0.9000775E+02  0.7816164E-02  0.1186339E+00
        -11   -1    0    0    0    0  0.00000000000E+00  0.00000000000E+00  0.45593999997E+02  0.45594000000E+02  0.51100000000E-03 0.  1.
         11   -1    0    0    0    0 -0.00000000000E+00 -0.00000000000E+00 -0.45593999997E+02  0.45594000000E+02  0.51100000000E-03 0. -1.
    9900012    2    1    2    0    0 -0.61363953609E+00 -0.40396114904E+00 -0.92372226024E+00  0.90007745407E+02  0.90000006846E+02 0.  0.
        -12    1    1    2    0    0  0.61363953609E+00  0.40396114904E+00  0.92372226024E+00  0.11802545930E+01  0.00000000000E+00 0.  1.
         11    1    3    3    0    0 -0.29762794183E+02  0.14874868212E+02 -0.13611332870E+02  0.35949325511E+02  0.51100000000E-03 0. -1.
        -11    1    3    3    0    0  0.54035823147E+01 -0.84227776196E+01 -0.14306284816E+02  0.17458856496E+02  0.51100000000E-03 0.  1.
        -12    1    3    3    0    0  0.23745572333E+02 -0.68560517410E+01  0.26993895425E+02  0.36599563400E+02  0.00000000000E+00 0.  1.
</event>
<event>
 7    1  0.2349719E-015  0.9000803E+02  0.7816164E-02  0.1186338E+00
        -11   -1    0    0    0    0  0.00000000000E+00  0.00000000000E+00  0.45593999997E+02  0.45594000000E+02  0.51100000000E-03 0. -1.
         11   -1    0    0    0    0 -0.00000000000E+00 -0.00000000000E+00 -0.45593999997E+02  0.45594000000E+02  0.51100000000E-03 0.  1.
    9900012    2    1    2    0    0 -0.93026643430E+00 -0.56473006859E+00  0.45607387041E+00  0.90008034295E+02  0.90000299547E+02 0.  0.
        -12    1    1    2    0    0  0.93026643430E+00  0.56473006859E+00 -0.45607387041E+00  0.11799657048E+01  0.00000000000E+00 0.  1.
         11    1    3    3    0    0  0.19612326915E+02 -0.31155663857E+02  0.12853052997E+02  0.38993842193E+02  0.51100000000E-03 0. -1.
        -11    1    3    3    0    0 -0.28902882108E+01 -0.13119881359E+01  0.84414382327E+01  0.90184787247E+01  0.51100000000E-03 0.  1.
        -12    1    3    3    0    0 -0.17652305139E+02  0.31902921924E+02 -0.20838417360E+02  0.41995713377E+02  0.00000000000E+00 0.  1.
</event>
<event>
 7    1  0.2349719E-015  0.9000776E+02  0.7816164E-02  0.1186339E+00
        -11   -1    0    0    0    0  0.00000000000E+00  0.00000000000E+00  0.45593999997E+02  0.45594000000E+02  0.51100000000E-03 0.  1.
         11   -1    0    0    0    0 -0.00000000000E+00 -0.00000000000E+00 -0.45593999997E+02  0.45594000000E+02  0.51100000000E-03 0. -1.
    9900012    2    1    2    0    0 -0.28127239383E-01  0.37267327297E+00 -0.11195081874E+01  0.90007756342E+02  0.90000017926E+02 0.  0.
        -12    1    1    2    0    0  0.28127239383E-01 -0.37267327297E+00  0.11195081874E+01  0.11802436577E+01  0.00000000000E+00 0.  1.
         11    1    3    3    0    0 -0.10121683321E+02  0.38102397699E+02 -0.56998054999E+01  0.39833766664E+02  0.51100000000E-03 0. -1.
        -11    1    3    3    0    0  0.58902382527E+01  0.27336214058E+01  0.68383331271E+01  0.94302912406E+01  0.51100000000E-03 0.  1.
        -12    1    3    3    0    0  0.42033178293E+01 -0.40463345831E+02 -0.22580358145E+01  0.40743698438E+02  0.00000000000E+00 0.  1.
</event>
<event>
 7    1  0.2349719E-015  0.9000742E+02  0.7816164E-02  0.1186340E+00
        -11   -1    0    0    0    0  0.00000000000E+00  0.00000000000E+00  0.45593999997E+02  0.45594000000E+02  0.51100000000E-03 0.  1.
         11   -1    0    0    0    0 -0.00000000000E+00 -0.00000000000E+00 -0.45593999997E+02  0.45594000000E+02  0.51100000000E-03 0. -1.
    9900012    2    1    2    0    0 -0.14765848862E+00 -0.29267788098E+00 -0.11341502436E+01  0.90007423808E+02  0.89999681001E+02 0.  0.
        -12    1    1    2    0    0  0.14765848862E+00  0.29267788098E+00  0.11341502436E+01  0.11805761925E+01  0.00000000000E+00 0.  1.
         11    1    3    3    0    0 -0.80215875443E+01  0.74001727356E+01  0.31023551718E-01  0.10913724661E+02  0.51100000000E-03 0. -1.
        -11    1    3    3    0    0 -0.25496289922E+02  0.20955383027E+02 -0.94726017700E+01  0.34335390811E+02  0.51100000000E-03 0.  1.
         12    1    3    3    0    0  0.33370218978E+02 -0.28648233643E+02  0.83074279747E+01  0.44758308336E+02  0.00000000000E+00 0. -1.
</event>
<event>
 7    1  0.2349719E-015  0.9000784E+02  0.7816164E-02  0.1186339E+00
        -11   -1    0    0    0    0  0.00000000000E+00  0.00000000000E+00  0.45593999997E+02  0.45594000000E+02  0.51100000000E-03 0. -1.
         11   -1    0    0    0    0 -0.00000000000E+00 -0.00000000000E+00 -0.45593999997E+02  0.45594000000E+02  0.51100000000E-03 0.  1.
    9900012    2    1    2    0    0  0.70645672860E+00 -0.42712832035E+00  0.84336158889E+00  0.90007839638E+02  0.90000102321E+02 0.  0.
        -12    1    1    2    0    0 -0.70645672860E+00  0.42712832035E+00 -0.84336158889E+00  0.11801603624E+01  0.00000000000E+00 0.  1.
         11    1    3    3    0    0  0.86750772221E+01  0.82018260039E+01 -0.39093461529E+01  0.12562241130E+02  0.51100000000E-03 0. -1.
        -11    1    3    3    0    0  0.46191063657E+01  0.18903003096E+02 -0.27190459369E+02  0.33436219144E+02  0.51100000000E-03 0.  1.
         12    1    3    3    0    0 -0.12587726859E+02 -0.27531957420E+02  0.31943167111E+02  0.44009379364E+02  0.00000000000E+00 0. -1.
</event>
<event>
 7    1  0.2349719E-015  0.9000782E+02  0.7816164E-02  0.1186339E+00
        -11   -1    0    0    0    0  0.00000000000E+00  0.00000000000E+00  0.45593999997E+02  0.45594000000E+02  0.51100000000E-03 0.  1.
         11   -1    0    0    0    0 -0.00000000000E+00 -0.00000000000E+00 -0.45593999997E+02  0.45594000000E+02  0.51100000000E-03 0. -1.
    9900012    2    1    2    0    0  0.74251565461E+00 -0.74041467534E+00 -0.54154429036E+00  0.90007824756E+02  0.90000087242E+02 0.  0.
        -12    1    1    2    0    0 -0.74251565461E+00  0.74041467534E+00  0.54154429036E+00  0.11801752443E+01  0.00000000000E+00 0.  1.
         11    1    3    3    0    0 -0.33125275922E+01  0.60328357637E+01  0.86278730980E+01  0.11036672545E+02  0.51100000000E-03 0. -1.
        -11    1    3    3    0    0 -0.40586103495E+01 -0.26160820045E+02  0.26571571997E+02  0.37508789131E+02  0.51100000000E-03 0.  1.
         12    1    3    3    0    0  0.81136535962E+01  0.19387569606E+02 -0.35740989386E+02  0.41462363080E+02  0.00000000000E+00 0. -1.
</event>
<event>
 7    1  0.2349719E-015  0.9000772E+02  0.7816164E-02  0.1186339E+00
        -11   -1    0    0    0    0  0.00000000000E+00  0.00000000000E+00  0.45593999997E+02  0.45594000000E+02  0.51100000000E-03 0.  1.
         11   -1    0    0    0    0 -0.00000000000E+00 -0.00000000000E+00 -0.45593999997E+02  0.45594000000E+02  0.51100000000E-03 0. -1.
    9900012    2    1    2    0    0 -0.60814766825E+00  0.92398681266E+00 -0.41164976881E+00  0.90007724291E+02  0.89999985452E+02 0.  0.
        -12    1    1    2    0    0  0.60814766825E+00 -0.92398681266E+00  0.41164976881E+00  0.11802757087E+01  0.00000000000E+00 0.  1.
         11    1    3    3    0    0 -0.28199293779E+02  0.32009663795E+02  0.26763572679E+01  0.42743205710E+02  0.51100000000E-03 0. -1.
        -11    1    3    3    0    0  0.99523674697E+01  0.61611541380E+00  0.31425027852E+01  0.10454881179E+02  0.51100000000E-03 0.  1.
        -12    1    3    3    0    0  0.17638778641E+02 -0.31701792396E+02 -0.62305098219E+01  0.36809637402E+02  0.00000000000E+00 0.  1.
</event>
<event>
 7    1  0.2721790E-015  0.9000778E+02  0.7816164E-02  0.1186339E+00
        -11   -1    0    0    0    0  0.00000000000E+00  0.00000000000E+00  0.45593999997E+02  0.45594000000E+02  0.51100000000E-03 0. -1.
         11   -1    0    0    0    0 -0.00000000000E+00 -0.00000000000E+00 -0.45593999997E+02  0.45594000000E+02  0.51100000000E-03 0.  1.
    9900012    2    1    2    0    0  0.27650299154E+00 -0.10870881478E+01  0.36703270428E+00  0.90007776482E+02  0.90000038332E+02 0.  0.
        -12    1    1    2    0    0 -0.27650299154E+00  0.10870881478E+01 -0.36703270428E+00  0.11802235176E+01  0.00000000000E+00 0.  1.
         11    1    3    3    0    0 -0.63395312544E+01  0.29491484978E+02  0.22163974743E+02  0.37432327197E+02  0.51100000000E-03 0. -1.
        -11    1    3    3    0    0  0.34579704025E+01  0.12306123701E+01  0.80465151564E+01  0.88441151357E+01  0.51100000000E-03 0.  1.
        -12    1    3    3    0    0  0.31580638434E+01 -0.31809185496E+02 -0.29843457195E+02  0.43731334150E+02  0.00000000000E+00 0.  1.
</event>
<event>
 7    1  0.3292157E-015  0.9000783E+02  0.7816164E-02  0.1186339E+00
        -11   -1    0    0    0    0  0.00000000000E+00  0.00000000000E+00  0.45593999997E+02  0.45594000000E+02  0.51100000000E-03 0. -1.
         11   -1    0    0    0    0 -0.00000000000E+00 -0.00000000000E+00 -0.45593999997E+02  0.45594000000E+02  0.51100000000E-03 0.  1.
    9900012    2    1    2    0    0  0.53868317827E+00  0.42644716769E+00  0.95955946188E+00  0.90007834285E+02  0.90000096898E+02 0.  0.
        -12    1    1    2    0    0 -0.53868317827E+00 -0.42644716769E+00 -0.95955946188E+00  0.11801657148E+01  0.00000000000E+00 0.  1.
         11    1    3    3    0    0  0.11923538638E+02  0.13917611960E+01  0.37540494319E+02  0.39413151192E+02  0.51100000000E-03 0. -1.
        -11    1    3    3    0    0 -0.23052624697E+01  0.92189993170E+01  0.19661629928E+01  0.97041218374E+01  0.51100000000E-03 0.  1.
        -12    1    3    3    0    0 -0.90795929900E+01 -0.10184313345E+02 -0.38547097850E+02  0.40890561256E+02  0.00000000000E+00 0.  1.
</event>
<event>
 8    1  0.2349719E-015  0.9000777E+02  0.7816164E-02  0.1186339E+00
        -11   -1    0    0    0    0  0.00000000000E+00  0.00000000000E+00  0.45593999997E+02  0.45594000000E+02  0.51100000000E-03 0. -1.
         11   -1    0    0    0    0 -0.00000000000E+00 -0.00000000000E+00 -0.45593999997E+02  0.45594000000E+02  0.51100000000E-03 0.  1.
    9900012    2    1    2    0    0 -0.55084853458E+00  0.30185872927E+00  0.99919358597E+00  0.90007770945E+02  0.90000032721E+02 0.  0.
         23    2    3    3    0    0  0.14217901523E+02 -0.20426610160E+02  0.13118580308E+02  0.61817968971E+02  0.55045154301E+02 0.  0.
        -12    1    1    2    0    0  0.55084853458E+00 -0.30185872927E+00 -0.99919358597E+00  0.11802290552E+01  0.00000000000E+00 0.  1.
         11    1    4    4    0    0  0.19179944915E+02 -0.37753262500E+02  0.10238752837E+02  0.43566170089E+02  0.51100000000E-03 0. -1.
        -11    1    4    4    0    0 -0.49620433916E+01  0.17326652339E+02  0.28798274718E+01  0.18251798882E+02  0.51100000000E-03 0.  1.
        -12    1    3    3    0    0 -0.14768750058E+02  0.20728468890E+02 -0.12119386723E+02  0.28189801974E+02  0.00000000000E+00 0.  1.
</event>
<event>
 7    1  0.2349719E-015  0.9000774E+02  0.7816164E-02  0.1186339E+00
        -11   -1    0    0    0    0  0.00000000000E+00  0.00000000000E+00  0.45593999997E+02  0.45594000000E+02  0.51100000000E-03 0.  1.
         11   -1    0    0    0    0 -0.00000000000E+00 -0.00000000000E+00 -0.45593999997E+02  0.45594000000E+02  0.51100000000E-03 0. -1.
    9900012    2    1    2    0    0 -0.16502701863E+00  0.95166812615E+00 -0.67831498976E+00  0.90007738434E+02  0.89999999781E+02 0.  0.
        -12    1    1    2    0    0  0.16502701863E+00 -0.95166812615E+00  0.67831498976E+00  0.11802615662E+01  0.00000000000E+00 0.  1.
         11    1    3    3    0    0 -0.32587902593E+01 -0.95568231483E+01  0.41209158807E+01  0.10905710917E+02  0.51100000000E-03 0. -1.
        -11    1    3    3    0    0  0.14945859908E+02  0.20336662762E+01  0.34249332995E+02  0.37423673494E+02  0.51100000000E-03 0.  1.
         12    1    3    3    0    0 -0.11852096667E+02  0.84748249983E+01 -0.39048563865E+02  0.41678354023E+02  0.00000000000E+00 0. -1.
</event>
<event>
 7    1  0.2349719E-015  0.9000771E+02  0.7816164E-02  0.1186339E+00
        -11   -1    0    0    0    0  0.00000000000E+00  0.00000000000E+00  0.45593999997E+02  0.45594000000E+02  0.51100000000E-03 0.  1.
         11   -1    0    0    0    0 -0.00000000000E+00 -0.00000000000E+00 -0.45593999997E+02  0.45594000000E+02  0.51100000000E-03 0. -1.
    9900012    2    1    2    0    0 -0.40218881594E+00 -0.10064620078E+01 -0.46729509793E+00  0.90007709220E+02  0.89999970182E+02 0.  0.
        -12    1    1    2    0    0  0.40218881594E+00  0.10064620078E+01  0.46729509793E+00  0.11802907800E+01  0.00000000000E+00 0.  1.
         11    1    3    3    0    0 -0.80987274230E+01  0.10443835558E+01  0.31342289786E+01  0.87466287468E+01  0.51100000000E-03 0. -1.
        -11    1    3    3    0    0  0.19539362949E+02  0.28554486700E+02  0.20796240017E+02  0.40368663766E+02  0.51100000000E-03 0.  1.
         12    1    3    3    0    0 -0.11842824342E+02 -0.30605332263E+02 -0.24397764094E+02  0.40892416707E+02  0.00000000000E+00 0. -1.
</event>
<event>
 7    1  0.2349719E-015  0.9000784E+02  0.7816164E-02  0.1186339E+00
        -11   -1    0    0    0    0  0.00000000000E+00  0.00000000000E+00  0.45593999997E+02  0.45594000000E+02  0.51100000000E-03 0. -1.
         11   -1    0    0    0    0 -0.00000000000E+00 -0.00000000000E+00 -0.45593999997E+02  0.45594000000E+02  0.51100000000E-03 0.  1.
    9900012    2    1    2    0    0  0.49994928919E+00  0.65690135092E+00  0.84338465182E+00  0.90007844778E+02  0.90000107529E+02 0.  0.
        -12    1    1    2    0    0 -0.49994928919E+00 -0.65690135092E+00 -0.84338465182E+00  0.11801552218E+01  0.00000000000E+00 0.  1.
         11    1    3    3    0    0  0.24051260411E+00 -0.73114704170E+01 -0.47236088269E+01  0.87079232072E+01  0.51100000000E-03 0. -1.
        -11    1    3    3    0    0  0.55358727965E+01 -0.15974109136E+02 -0.32144642737E+02  0.36319362704E+02  0.51100000000E-03 0.  1.
         12    1    3    3    0    0 -0.52764361114E+01  0.23942480904E+02  0.37711636216E+02  0.44980558867E+02  0.00000000000E+00 0. -1.
</event>
<event>
 7    1  0.2349719E-015  0.9000746E+02  0.7816164E-02  0.1186340E+00
        -11   -1    0    0    0    0  0.00000000000E+00  0.00000000000E+00  0.45593999997E+02  0.45594000000E+02  0.51100000000E-03 0. -1.
         11   -1    0    0    0    0 -0.00000000000E+00 -0.00000000000E+00 -0.45593999997E+02  0.45594000000E+02  0.51100000000E-03 0.  1.
    9900012    2    1    2    0    0  0.46615337771E+00  0.14358494014E+00  0.10750652202E+01  0.90007457398E+02  0.89999715036E+02 0.  0.
        -12    1    1    2    0    0 -0.46615337771E+00 -0.14358494014E+00 -0.10750652202E+01  0.11805426016E+01  0.00000000000E+00 0.  1.
         11    1    3    3    0    0  0.15528259353E+02  0.55503781064E+01  0.95591076787E+00  0.16518090123E+02  0.51100000000E-03 0. -1.
        -11    1    3    3    0    0  0.10536818576E+02 -0.24752892683E+02 -0.21803490535E+02  0.34628347372E+02  0.51100000000E-03 0.  1.
         12    1    3    3    0    0 -0.25598924551E+02  0.19346099517E+02  0.21922644988E+02  0.38861019904E+02  0.00000000000E+00 0. -1.
</event>
<event>
 7    1  0.4424733E-015  0.9000790E+02  0.7816164E-02  0.1186339E+00
        -11   -1    0    0    0    0  0.00000000000E+00  0.00000000000E+00  0.45593999997E+02  0.45594000000E+02  0.51100000000E-03 0. -1.
         11   -1    0    0    0    0 -0.00000000000E+00 -0.00000000000E+00 -0.45593999997E+02  0.45594000000E+02  0.51100000000E-03 0.  1.
    9900012    2    1    2    0    0  0.87188794524E+00 -0.44065118648E+00  0.66202226784E+00  0.90007900199E+02  0.90000163681E+02 0.  0.
        -12    1    1    2    0    0 -0.87188794524E+00  0.44065118648E+00 -0.66202226784E+00  0.11800998010E+01  0.00000000000E+00 0.  1.
         11    1    3    3    0    0 -0.55825987125E+01  0.23169015080E+02  0.33075778634E+02  0.40767337425E+02  0.51100000000E-03 0. -1.
        -11    1    3    3    0    0  0.48104211781E+01  0.58206424902E+01 -0.57100940010E+01  0.94670589240E+01  0.51100000000E-03 0.  1.
        -12    1    3    3    0    0  0.16440654796E+01 -0.29430308757E+02 -0.26703662365E+02  0.39773503850E+02  0.00000000000E+00 0.  1.
</event>
<event>
 7    1  0.2349719E-015  0.9000774E+02  0.7816164E-02  0.1186339E+00
        -11   -1    0    0    0    0  0.00000000000E+00  0.00000000000E+00  0.45593999997E+02  0.45594000000E+02  0.51100000000E-03 0. -1.
         11   -1    0    0    0    0 -0.00000000000E+00 -0.00000000000E+00 -0.45593999997E+02  0.45594000000E+02  0.51100000000E-03 0.  1.
    9900012    2    1    2    0    0  0.11363452764E+01  0.31128654630E+00  0.69482664466E-01  0.90007742510E+02  0.90000003912E+02 0.  0.
        -12    1    1    2    0    0 -0.11363452764E+01 -0.31128654630E+00 -0.69482664466E-01  0.11802574896E+01  0.00000000000E+00 0.  1.
         11    1    3    3    0    0  0.75417055243E+01  0.13539918959E+00  0.47688117810E+01  0.89239689163E+01  0.51100000000E-03 0. -1.
        -11    1    3    3    0    0  0.17220225324E+02  0.30540707281E+02 -0.19193625199E+02  0.39970816979E+02  0.51100000000E-03 0.  1.
         12    1    3    3    0    0 -0.23625585572E+02 -0.30364819925E+02  0.14494296083E+02  0.41112956615E+02  0.00000000000E+00 0. -1.
</event>
<event>
 7    1  0.2349719E-015  0.9000779E+02  0.7816164E-02  0.1186339E+00
        -11   -1    0    0    0    0  0.00000000000E+00  0.00000000000E+00  0.45593999997E+02  0.45594000000E+02  0.51100000000E-03 0. -1.
         11   -1    0    0    0    0 -0.00000000000E+00 -0.00000000000E+00 -0.45593999997E+02  0.45594000000E+02  0.51100000000E-03 0.  1.
    9900012    2    1    2    0    0  0.75655502474E+00 -0.90481728051E+00  0.42681644724E-01  0.90007791739E+02  0.90000053790E+02 0.  0.
        -12    1    1    2    0    0 -0.75655502474E+00  0.90481728051E+00 -0.42681644724E-01  0.11802082610E+01  0.00000000000E+00 0.  1.
         11    1    3    3    0    0  0.51348128524E+01 -0.12599131533E+02  0.31541910416E+02  0.34351077587E+02  0.51100000000E-03 0. -1.
        -11    1    3    3    0    0  0.53855422522E+01 -0.27541903467E+01  0.94096429785E+01  0.11186197346E+02  0.51100000000E-03 0.  1.
        -12    1    3    3    0    0 -0.97638000798E+01  0.14448504599E+02 -0.40908871750E+02  0.44470516806E+02  0.00000000000E+00 0.  1.
</event>
<event>
 7    1  0.2349719E-015  0.9000776E+02  0.7816164E-02  0.1186339E+00
        -11   -1    0    0    0    0  0.00000000000E+00  0.00000000000E+00  0.45593999997E+02  0.45594000000E+02  0.51100000000E-03 0.  1.
         11   -1    0    0    0    0 -0.00000000000E+00 -0.00000000000E+00 -0.45593999997E+02  0.45594000000E+02  0.51100000000E-03 0. -1.
    9900012    2    1    2    0    0 -0.83666871128E+00  0.35177608988E+00  0.75445766905E+00  0.90007759633E+02  0.90000021260E+02 0.  0.
        -12    1    1    2    0    0  0.83666871128E+00 -0.35177608988E+00 -0.75445766905E+00  0.11802403671E+01  0.00000000000E+00 0.  1.
         11    1    3    3    0    0  0.13278125910E+01 -0.11001182597E+02 -0.35580869148E+02  0.37266437372E+02  0.51100000000E-03 0. -1.
        -11    1    3    3    0    0 -0.22370354507E+01 -0.10136971260E+02 -0.16769504082E+00  0.10382226921E+02  0.51100000000E-03 0.  1.
        -12    1    3    3    0    0  0.72554148379E-01  0.21489929947E+02  0.36503021858E+02  0.42359095340E+02  0.00000000000E+00 0.  1.
</event>
<event>
 7    1  0.2349719E-015  0.9000778E+02  0.7816164E-02  0.1186339E+00
        -11   -1    0    0    0    0  0.00000000000E+00  0.00000000000E+00  0.45593999997E+02  0.45594000000E+02  0.51100000000E-03 0.  1.
         11   -1    0    0    0    0 -0.00000000000E+00 -0.00000000000E+00 -0.45593999997E+02  0.45594000000E+02  0.51100000000E-03 0. -1.
    9900012    2    1    2    0    0 -0.69429611436E+00  0.63194461033E-01 -0.95229906326E+00  0.90007782164E+02  0.90000044089E+02 0.  0.
        -12    1    1    2    0    0  0.69429611436E+00 -0.63194461033E-01  0.95229906326E+00  0.11802178359E+01  0.00000000000E+00 0.  1.
         11    1    3    3    0    0  0.83307957500E+01  0.46399695131E+01  0.24259445782E+01  0.98395468528E+01  0.51100000000E-03 0. -1.
        -11    1    3    3    0    0 -0.15696582296E+02  0.45808749037E+01  0.35814520502E+02  0.39370636136E+02  0.51100000000E-03 0.  1.
         12    1    3    3    0    0  0.66714904321E+01 -0.91576499558E+01 -0.39192764143E+02  0.40797599176E+02  0.00000000000E+00 0. -1.
</event>
<event>
 7    1  0.2349719E-015  0.9000775E+02  0.7816164E-02  0.1186339E+00
        -11   -1    0    0    0    0  0.00000000000E+00  0.00000000000E+00  0.45593999997E+02  0.45594000000E+02  0.51100000000E-03 0.  1.
         11   -1    0    0    0    0 -0.00000000000E+00 -0.00000000000E+00 -0.45593999997E+02  0.45594000000E+02  0.51100000000E-03 0. -1.
    9900012    2    1    2    0    0  0.93484087544E+00 -0.67134657699E+00 -0.26146386471E+00  0.90007747043E+02  0.90000008504E+02 0.  0.
        -12    1    1    2    0    0 -0.93484087544E+00  0.67134657699E+00  0.26146386471E+00  0.11802529565E+01  0.00000000000E+00 0.  1.
         11    1    3    3    0    0 -0.28470265542E+01  0.45689299671E+01  0.56853217125E+01  0.78296592825E+01  0.51100000000E-03 0. -1.
        -11    1    3    3    0    0 -0.29810208600E+02 -0.20448011861E+02  0.15709072907E+02  0.39415031367E+02  0.51100000000E-03 0.  1.
         12    1    3    3    0    0  0.33592076030E+02  0.15207735316E+02 -0.21655858484E+02  0.42763056394E+02  0.00000000000E+00 0. -1.
</event>
<event>
 7    1  0.2349719E-015  0.9000768E+02  0.7816164E-02  0.1186339E+00
        -11   -1    0    0    0    0  0.00000000000E+00  0.00000000000E+00  0.45593999997E+02  0.45594000000E+02  0.51100000000E-03 0. -1.
         11   -1    0    0    0    0 -0.00000000000E+00 -0.00000000000E+00 -0.45593999997E+02  0.45594000000E+02  0.51100000000E-03 0.  1.
    9900012    2    1    2    0    0 -0.38415037141E+00 -0.28569484377E+00  0.10788741641E+01  0.90007676945E+02  0.89999937481E+02 0.  0.
        -12    1    1    2    0    0  0.38415037141E+00  0.28569484377E+00 -0.10788741641E+01  0.11803230547E+01  0.00000000000E+00 0.  1.
         11    1    3    3    0    0 -0.30150610094E+02 -0.15455558989E+02  0.13079135483E+02  0.36318003496E+02  0.51100000000E-03 0. -1.
        -11    1    3    3    0    0 -0.78336056180E+01 -0.46704182063E+01  0.11412796589E+01  0.91913384619E+01  0.51100000000E-03 0.  1.
        -12    1    3    3    0    0  0.37600065340E+02  0.19840282352E+02 -0.13141540978E+02  0.44498334987E+02  0.00000000000E+00 0.  1.
</event>
<event>
 7    1  0.2349719E-015  0.9000770E+02  0.7816164E-02  0.1186339E+00
        -11   -1    0    0    0    0  0.00000000000E+00  0.00000000000E+00  0.45593999997E+02  0.45594000000E+02  0.51100000000E-03 0. -1.
         11   -1    0    0    0    0 -0.00000000000E+00 -0.00000000000E+00 -0.45593999997E+02  0.45594000000E+02  0.51100000000E-03 0.  1.
    9900012    2    1    2    0    0  0.57225250224E+00 -0.13762012091E+00  0.10230806344E+01  0.90007700797E+02  0.89999961648E+02 0.  0.
        -12    1    1    2    0    0 -0.57225250224E+00  0.13762012091E+00 -0.10230806344E+01  0.11802992030E+01  0.00000000000E+00 0.  1.
         11    1    3    3    0    0 -0.84195823556E+01  0.22173413681E+01  0.33486951234E+01  0.93284365827E+01  0.51100000000E-03 0. -1.
        -11    1    3    3    0    0 -0.17449244954E+02 -0.24850841459E+02 -0.24900162659E+02  0.39269053610E+02  0.51100000000E-03 0.  1.
         12    1    3    3    0    0  0.26441079812E+02  0.22495879970E+02  0.22574548170E+02  0.41410210605E+02  0.00000000000E+00 0. -1.
</event>
<event>
 7    1  0.2349719E-015  0.9000654E+02  0.7816164E-02  0.1186341E+00
        -11   -1    0    0    0    0  0.00000000000E+00  0.00000000000E+00  0.45593999997E+02  0.45594000000E+02  0.51100000000E-03 0.  1.
         11   -1    0    0    0    0 -0.00000000000E+00 -0.00000000000E+00 -0.45593999997E+02  0.45594000000E+02  0.51100000000E-03 0. -1.
    9900012    2    1    2    0    0 -0.29519779668E+00  0.10812085207E+01  0.37375206874E+00  0.90006541489E+02  0.89998787028E+02 0.  0.
        -12    1    1    2    0    0  0.29519779668E+00 -0.10812085207E+01 -0.37375206874E+00  0.11814585110E+01  0.00000000000E+00 0.  1.
         11    1    3    3    0    0  0.23762716403E+01  0.80565750001E+01 -0.33802074499E+01  0.90543288159E+01  0.51100000000E-03 0. -1.
        -11    1    3    3    0    0 -0.25924107003E+02 -0.23601243109E+02  0.26885421000E+02  0.44180356074E+02  0.51100000000E-03 0.  1.
         12    1    3    3    0    0  0.23252637566E+02  0.16625876629E+02 -0.23131461482E+02  0.36771856599E+02  0.00000000000E+00 0. -1.
</event>
<event>
 7    1  0.2349719E-015  0.9000775E+02  0.7816164E-02  0.1186339E+00
        -11   -1    0    0    0    0  0.00000000000E+00  0.00000000000E+00  0.45593999997E+02  0.45594000000E+02  0.51100000000E-03 0. -1.
         11   -1    0    0    0    0 -0.00000000000E+00 -0.00000000000E+00 -0.45593999997E+02  0.45594000000E+02  0.51100000000E-03 0.  1.
    9900012    2    1    2    0    0 -0.57257051119E-01 -0.10005591002E+01 -0.62336927095E+00  0.90007751666E+02  0.90000013188E+02 0.  0.
        -12    1    1    2    0    0  0.57257051119E-01  0.10005591002E+01  0.62336927095E+00  0.11802483344E+01  0.00000000000E+00 0.  1.
         11    1    3    3    0    0  0.14783204439E+00  0.49731805387E+01 -0.21248691717E+02  0.21823411258E+02  0.51100000000E-03 0. -1.
        -11    1    3    3    0    0  0.25185644151E+02  0.16303383971E+02  0.16261435406E+02  0.34125522442E+02  0.51100000000E-03 0.  1.
         12    1    3    3    0    0 -0.25390733246E+02 -0.22277123610E+02  0.43638870399E+01  0.34058817966E+02  0.00000000000E+00 0. -1.
</event>
<event>
 7    1  0.2349719E-015  0.9000770E+02  0.7816164E-02  0.1186339E+00
        -11   -1    0    0    0    0  0.00000000000E+00  0.00000000000E+00  0.45593999997E+02  0.45594000000E+02  0.51100000000E-03 0.  1.
         11   -1    0    0    0    0 -0.00000000000E+00 -0.00000000000E+00 -0.45593999997E+02  0.45594000000E+02  0.51100000000E-03 0. -1.
    9900012    2    1    2    0    0  0.10950426065E+01 -0.28059859441E+00 -0.33948025321E+00  0.90007703121E+02  0.89999964002E+02 0.  0.
        -12    1    1    2    0    0 -0.10950426065E+01  0.28059859441E+00  0.33948025321E+00  0.11802968794E+01  0.00000000000E+00 0.  1.
         11    1    3    3    0    0  0.23695951716E+02  0.21840723302E+02  0.16835569134E+02  0.36358653859E+02  0.51100000000E-03 0. -1.
        -11    1    3    3    0    0  0.59445141666E+00  0.78612522126E+01  0.53747628550E+01  0.95415268613E+01  0.51100000000E-03 0.  1.
        -12    1    3    3    0    0 -0.23195360526E+02 -0.29982574109E+02 -0.22549812242E+02  0.44107522401E+02  0.00000000000E+00 0.  1.
</event>
<event>
 7    1  0.2349719E-015  0.9000772E+02  0.7816164E-02  0.1186339E+00
        -11   -1    0    0    0    0  0.00000000000E+00  0.00000000000E+00  0.45593999997E+02  0.45594000000E+02  0.51100000000E-03 0. -1.
         11   -1    0    0    0    0 -0.00000000000E+00 -0.00000000000E+00 -0.45593999997E+02  0.45594000000E+02  0.51100000000E-03 0.  1.
    9900012    2    1    2    0    0  0.11596803293E+01 -0.35158694088E-01 -0.21670979339E+00  0.90007721332E+02  0.89999982453E+02 0.  0.
        -12    1    1    2    0    0 -0.11596803293E+01  0.35158694088E-01  0.21670979339E+00  0.11802786681E+01  0.00000000000E+00 0.  1.
         11    1    3    3    0    0 -0.31308957939E+02  0.11913968061E+02 -0.27045049631E+02  0.43053782552E+02  0.51100000000E-03 0. -1.
        -11    1    3    3    0    0  0.48440459004E+01 -0.92704347068E+01  0.47429665575E+01  0.11484836628E+02  0.51100000000E-03 0.  1.
        -12    1    3    3    0    0  0.27624592368E+02 -0.26786920488E+01  0.22085373280E+02  0.35469102153E+02  0.00000000000E+00 0.  1.
</event>
<event>
 7    1  0.2349719E-015  0.9000800E+02  0.7816164E-02  0.1186339E+00
        -11   -1    0    0    0    0  0.00000000000E+00  0.00000000000E+00  0.45593999997E+02  0.45594000000E+02  0.51100000000E-03 0.  1.
         11   -1    0    0    0    0 -0.00000000000E+00 -0.00000000000E+00 -0.45593999997E+02  0.45594000000E+02  0.51100000000E-03 0. -1.
    9900012    2    1    2    0    0  0.15482625635E+00 -0.63943401081E+00 -0.97956249859E+00  0.90008004359E+02  0.90000269216E+02 0.  0.
        -12    1    1    2    0    0 -0.15482625635E+00  0.63943401081E+00  0.97956249859E+00  0.11799956409E+01  0.00000000000E+00 0.  1.
         11    1    3    3    0    0 -0.23505788855E+02 -0.24839532366E+02 -0.40367803310E+01  0.34435738319E+02  0.51100000000E-03 0. -1.
        -11    1    3    3    0    0 -0.12091051731E+01 -0.11567974557E+02  0.29844798596E+01  0.12007792927E+02  0.51100000000E-03 0.  1.
        -12    1    3    3    0    0  0.24869720284E+02  0.35768072912E+02  0.72737972751E-01  0.43564473114E+02  0.00000000000E+00 0.  1.
</event>
<event>
 7    1  0.2349719E-015  0.9000703E+02  0.7816164E-02  0.1186340E+00
        -11   -1    0    0    0    0  0.00000000000E+00  0.00000000000E+00  0.45593999997E+02  0.45594000000E+02  0.51100000000E-03 0. -1.
         11   -1    0    0    0    0 -0.00000000000E+00 -0.00000000000E+00 -0.45593999997E+02  0.45594000000E+02  0.51100000000E-03 0.  1.
    9900012    2    1    2    0    0 -0.26008544767E+00 -0.67857484816E+00  0.93090448117E+00  0.90007029459E+02  0.89999281445E+02 0.  0.
        -12    1    1    2    0    0  0.26008544767E+00  0.67857484816E+00 -0.93090448117E+00  0.11809705406E+01  0.00000000000E+00 0.  1.
         11    1    3    3    0    0  0.76453571564E+00  0.83932028706E+01 -0.32389106232E+01  0.90288931533E+01  0.51100000000E-03 0. -1.
        -11    1    3    3    0    0 -0.48493798468E+01  0.35606238207E+02  0.37986595058E+01  0.36135169828E+02  0.51100000000E-03 0.  1.
         12    1    3    3    0    0  0.38247586835E+01 -0.44678015926E+02  0.37115559859E+00  0.44842966478E+02  0.00000000000E+00 0. -1.
</event>
<event>
 7    1  0.2349719E-015  0.9000777E+02  0.7816164E-02  0.1186339E+00
        -11   -1    0    0    0    0  0.00000000000E+00  0.00000000000E+00  0.45593999997E+02  0.45594000000E+02  0.51100000000E-03 0.  1.
         11   -1    0    0    0    0 -0.00000000000E+00 -0.00000000000E+00 -0.45593999997E+02  0.45594000000E+02  0.51100000000E-03 0. -1.
    9900012    2    1    2    0    0  0.83071690670E+00 -0.75338173340E+00 -0.36778461216E+00  0.90007771151E+02  0.90000032930E+02 0.  0.
        -12    1    1    2    0    0 -0.83071690670E+00  0.75338173340E+00  0.36778461216E+00  0.11802288491E+01  0.00000000000E+00 0.  1.
         11    1    3    3    0    0 -0.59511963974E+01 -0.53708800637E+00  0.71566253438E+01  0.93232230833E+01  0.51100000000E-03 0. -1.
        -11    1    3    3    0    0  0.19653184567E+02 -0.19803599144E+02  0.27085594623E+02  0.38885211058E+02  0.51100000000E-03 0.  1.
         12    1    3    3    0    0 -0.12871271263E+02  0.19587305417E+02 -0.34610004579E+02  0.41799337009E+02  0.00000000000E+00 0. -1.
</event>
<event>
 7    1  0.2349719E-015  0.9000775E+02  0.7816164E-02  0.1186339E+00
        -11   -1    0    0    0    0  0.00000000000E+00  0.00000000000E+00  0.45593999997E+02  0.45594000000E+02  0.51100000000E-03 0.  1.
         11   -1    0    0    0    0 -0.00000000000E+00 -0.00000000000E+00 -0.45593999997E+02  0.45594000000E+02  0.51100000000E-03 0. -1.
    9900012    2    1    2    0    0 -0.29123763936E+00 -0.93727219268E+00 -0.65550288797E+00  0.90007753178E+02  0.90000014719E+02 0.  0.
        -12    1    1    2    0    0  0.29123763936E+00  0.93727219268E+00  0.65550288797E+00  0.11802468224E+01  0.00000000000E+00 0.  1.
         11    1    3    3    0    0 -0.24303214661E+02  0.18636491738E+02  0.18928123876E+02  0.36003318471E+02  0.51100000000E-03 0. -1.
        -11    1    3    3    0    0 -0.60849075428E+01  0.66133431602E+01  0.11220258664E+01  0.90565639105E+01  0.51100000000E-03 0.  1.
        -12    1    3    3    0    0  0.30096884565E+02 -0.26187107091E+02 -0.20705652630E+02  0.44947870796E+02  0.00000000000E+00 0.  1.
</event>
<event>
 7    1  0.2349719E-015  0.9000761E+02  0.7816164E-02  0.1186339E+00
        -11   -1    0    0    0    0  0.00000000000E+00  0.00000000000E+00  0.45593999997E+02  0.45594000000E+02  0.51100000000E-03 0.  1.
         11   -1    0    0    0    0 -0.00000000000E+00 -0.00000000000E+00 -0.45593999997E+02  0.45594000000E+02  0.51100000000E-03 0. -1.
    9900012    2    1    2    0    0 -0.10682128980E+01  0.45225220324E+00 -0.21843359558E+00  0.90007608503E+02  0.89999868135E+02 0.  0.
        -12    1    1    2    0    0  0.10682128980E+01 -0.45225220324E+00  0.21843359558E+00  0.11803914971E+01  0.00000000000E+00 0.  1.
         11    1    3    3    0    0  0.43221041445E+01  0.28976741727E+01 -0.71376803285E+01  0.88330957529E+01  0.51100000000E-03 0. -1.
        -11    1    3    3    0    0 -0.27219826633E+02  0.25463583506E+02 -0.14244850221E+02  0.39902741823E+02  0.51100000000E-03 0.  1.
         12    1    3    3    0    0  0.21829509590E+02 -0.27909005476E+02  0.21164096954E+02  0.41271770927E+02  0.00000000000E+00 0. -1.
</event>
<event>
 7    1  0.2349719E-015  0.9000775E+02  0.7816164E-02  0.1186339E+00
        -11   -1    0    0    0    0  0.00000000000E+00  0.00000000000E+00  0.45593999997E+02  0.45594000000E+02  0.51100000000E-03 0.  1.
         11   -1    0    0    0    0 -0.00000000000E+00 -0.00000000000E+00 -0.45593999997E+02  0.45594000000E+02  0.51100000000E-03 0. -1.
    9900012    2    1    2    0    0 -0.14149807414E+00  0.36675341655E+00 -0.11128636430E+01  0.90007747798E+02  0.90000009268E+02 0.  0.
        -12    1    1    2    0    0  0.14149807414E+00 -0.36675341655E+00  0.11128636430E+01  0.11802522024E+01  0.00000000000E+00 0.  1.
         11    1    3    3    0    0  0.30912042079E+02  0.12399201209E+02 -0.17771427060E+02  0.37750737160E+02  0.51100000000E-03 0. -1.
        -11    1    3    3    0    0 -0.28768486316E+00  0.72600339380E+00 -0.97315581037E+01  0.97628411282E+01  0.51100000000E-03 0.  1.
        -12    1    3    3    0    0 -0.30765855290E+02 -0.12758451187E+02  0.26390121520E+02  0.42494169509E+02  0.00000000000E+00 0.  1.
</event>
<event>
 7    1  0.2349719E-015  0.9000781E+02  0.7816164E-02  0.1186339E+00
        -11   -1    0    0    0    0  0.00000000000E+00  0.00000000000E+00  0.45593999997E+02  0.45594000000E+02  0.51100000000E-03 0. -1.
         11   -1    0    0    0    0 -0.00000000000E+00 -0.00000000000E+00 -0.45593999997E+02  0.45594000000E+02  0.51100000000E-03 0.  1.
    9900012    2    1    2    0    0  0.60722833471E+00  0.94431442208E+00 -0.36385035560E+00  0.90007812278E+02  0.90000074600E+02 0.  0.
        -12    1    1    2    0    0 -0.60722833471E+00 -0.94431442208E+00  0.36385035560E+00  0.11801877221E+01  0.00000000000E+00 0.  1.
         11    1    3    3    0    0  0.43300182305E+01 -0.64167966315E+01 -0.14764812256E+00  0.77424890775E+01  0.51100000000E-03 0. -1.
        -11    1    3    3    0    0  0.11682241979E+02 -0.45350697803E+01 -0.37863972151E+02  0.39883856670E+02  0.51100000000E-03 0.  1.
         12    1    3    3    0    0 -0.15405031875E+02  0.11896180834E+02  0.37647769918E+02  0.42381466530E+02  0.00000000000E+00 0. -1.
</event>
<event>
 7    1  0.2349719E-015  0.9000771E+02  0.7816164E-02  0.1186339E+00
        -11   -1    0    0    0    0  0.00000000000E+00  0.00000000000E+00  0.45593999997E+02  0.45594000000E+02  0.51100000000E-03 0.  1.
         11   -1    0    0    0    0 -0.00000000000E+00 -0.00000000000E+00 -0.45593999997E+02  0.45594000000E+02  0.51100000000E-03 0. -1.
    9900012    2    1    2    0    0 -0.66094600968E+00 -0.27844941913E+00 -0.93739299280E+00  0.90007707947E+02  0.89999968892E+02 0.  0.
        -12    1    1    2    0    0  0.66094600968E+00  0.27844941913E+00  0.93739299280E+00  0.11802920527E+01  0.00000000000E+00 0.  1.
         11    1    3    3    0    0  0.24993090871E+01 -0.22969301237E+02 -0.30620393123E+02  0.38359403286E+02  0.51100000000E-03 0. -1.
        -11    1    3    3    0    0  0.82773120807E+01 -0.56427461924E+01  0.15933779400E+01  0.10143635117E+02  0.51100000000E-03 0.  1.
        -12    1    3    3    0    0 -0.11437567177E+02  0.28333598010E+02  0.28089622190E+02  0.41504669544E+02  0.00000000000E+00 0.  1.
</event>
<event>
 7    1  0.2349719E-015  0.9000773E+02  0.7816164E-02  0.1186339E+00
        -11   -1    0    0    0    0  0.00000000000E+00  0.00000000000E+00  0.45593999997E+02  0.45594000000E+02  0.51100000000E-03 0.  1.
         11   -1    0    0    0    0 -0.00000000000E+00 -0.00000000000E+00 -0.45593999997E+02  0.45594000000E+02  0.51100000000E-03 0. -1.
    9900012    2    1    2    0    0 -0.11656032701E+01 -0.92280722284E-02  0.18527147140E+00  0.90007728142E+02  0.89999989354E+02 0.  0.
        -12    1    1    2    0    0  0.11656032701E+01  0.92280722284E-02 -0.18527147140E+00  0.11802718580E+01  0.00000000000E+00 0.  1.
         11    1    3    3    0    0  0.44674530815E+01  0.62211528072E+01 -0.36441335842E+01  0.84817798325E+01  0.51100000000E-03 0. -1.
        -11    1    3    3    0    0 -0.36231282844E+02  0.11241514508E+02 -0.15912131469E+02  0.41137251162E+02  0.51100000000E-03 0.  1.
         12    1    3    3    0    0  0.30598226493E+02 -0.17471895388E+02  0.19741536525E+02  0.40388697148E+02  0.00000000000E+00 0. -1.
</event>
<event>
 7    1  0.2349719E-015  0.9000796E+02  0.7816164E-02  0.1186339E+00
        -11   -1    0    0    0    0  0.00000000000E+00  0.00000000000E+00  0.45593999997E+02  0.45594000000E+02  0.51100000000E-03 0.  1.
         11   -1    0    0    0    0 -0.00000000000E+00 -0.00000000000E+00 -0.45593999997E+02  0.45594000000E+02  0.51100000000E-03 0. -1.
    9900012    2    1    2    0    0  0.77725688503E+00 -0.85884403082E+00 -0.22526265724E+00  0.90007964153E+02  0.90000228480E+02 0.  0.
        -12    1    1    2    0    0 -0.77725688503E+00  0.85884403082E+00  0.22526265724E+00  0.11800358466E+01  0.00000000000E+00 0.  1.
         11    1    3    3    0    0  0.33260711757E+02  0.19231030468E+02 -0.12840654010E+02  0.40509133231E+02  0.51100000000E-03 0. -1.
        -11    1    3    3    0    0  0.27658581306E+01 -0.58960382314E+01  0.93016309318E+01  0.11354892174E+02  0.51100000000E-03 0.  1.
        -12    1    3    3    0    0 -0.35249313003E+02 -0.14193836268E+02  0.33137604206E+01  0.38143938749E+02  0.00000000000E+00 0.  1.
</event>
<event>
 7    1  0.2349719E-015  0.9000761E+02  0.7816164E-02  0.1186339E+00
        -11   -1    0    0    0    0  0.00000000000E+00  0.00000000000E+00  0.45593999997E+02  0.45594000000E+02  0.51100000000E-03 0.  1.
         11   -1    0    0    0    0 -0.00000000000E+00 -0.00000000000E+00 -0.45593999997E+02  0.45594000000E+02  0.51100000000E-03 0. -1.
    9900012    2    1    2    0    0 -0.34424383100E+00 -0.10344309452E+01  0.45252232045E+00  0.90007606995E+02  0.89999866607E+02 0.  0.
        -12    1    1    2    0    0  0.34424383100E+00  0.10344309452E+01 -0.45252232045E+00  0.11803930049E+01  0.00000000000E+00 0.  1.
         11    1    3    3    0    0  0.13499215917E+01 -0.95773440557E+01  0.20593569973E+01  0.98888198976E+01  0.51100000000E-03 0. -1.
        -11    1    3    3    0    0  0.68314535408E+01 -0.31803639442E+02  0.14799566841E+02  0.35737479181E+02  0.51100000000E-03 0.  1.
         12    1    3    3    0    0 -0.85256189634E+01  0.40346552553E+02 -0.16406401518E+02  0.44381307916E+02  0.00000000000E+00 0. -1.
</event>
<event>
 7    1  0.2349719E-015  0.9000772E+02  0.7816164E-02  0.1186339E+00
        -11   -1    0    0    0    0  0.00000000000E+00  0.00000000000E+00  0.45593999997E+02  0.45594000000E+02  0.51100000000E-03 0. -1.
         11   -1    0    0    0    0 -0.00000000000E+00 -0.00000000000E+00 -0.45593999997E+02  0.45594000000E+02  0.51100000000E-03 0.  1.
    9900012    2    1    2    0    0  0.70630326675E+00 -0.70643219729E+00  0.62860659952E+00  0.90007721638E+02  0.89999982764E+02 0.  0.
        -12    1    1    2    0    0 -0.70630326675E+00  0.70643219729E+00 -0.62860659952E+00  0.11802783616E+01  0.00000000000E+00 0.  1.
         11    1    3    3    0    0  0.38140596642E+02  0.15190837428E+02  0.63654648007E+00  0.41059369767E+02  0.51100000000E-03 0. -1.
        -11    1    3    3    0    0  0.10099610338E+01 -0.96453617134E+01 -0.21743747218E+01  0.99388595706E+01  0.51100000000E-03 0.  1.
        -12    1    3    3    0    0 -0.38444254409E+02 -0.62519079116E+01  0.21664348412E+01  0.39009492301E+02  0.00000000000E+00 0.  1.
</event>
<event>
 7    1  0.2349719E-015  0.9000773E+02  0.7816164E-02  0.1186339E+00
        -11   -1    0    0    0    0  0.00000000000E+00  0.00000000000E+00  0.45593999997E+02  0.45594000000E+02  0.51100000000E-03 0.  1.
         11   -1    0    0    0    0 -0.00000000000E+00 -0.00000000000E+00 -0.45593999997E+02  0.45594000000E+02  0.51100000000E-03 0. -1.
    9900012    2    1    2    0    0  0.62765206736E+00 -0.10263308744E+00 -0.99426586796E+00  0.90007726606E+02  0.89999987797E+02 0.  0.
        -12    1    1    2    0    0 -0.62765206736E+00  0.10263308744E+00  0.99426586796E+00  0.11802733940E+01  0.00000000000E+00 0.  1.
         11    1    3    3    0    0  0.27067192699E+01  0.85756093209E+01  0.37390106257E+01  0.97389735162E+01  0.51100000000E-03 0. -1.
        -11    1    3    3    0    0 -0.14106343873E+02 -0.43907038014E+01  0.35290176891E+02  0.38257859357E+02  0.51100000000E-03 0.  1.
         12    1    3    3    0    0  0.12027276670E+02 -0.42875386069E+01 -0.40023453384E+02  0.42010893733E+02  0.00000000000E+00 0. -1.
</event>
<event>
 7    1  0.2349719E-015  0.9000777E+02  0.7816164E-02  0.1186339E+00
        -11   -1    0    0    0    0  0.00000000000E+00  0.00000000000E+00  0.45593999997E+02  0.45594000000E+02  0.51100000000E-03 0.  1.
         11   -1    0    0    0    0 -0.00000000000E+00 -0.00000000000E+00 -0.45593999997E+02  0.45594000000E+02  0.51100000000E-03 0. -1.
    9900012    2    1    2    0    0  0.10570812590E+01 -0.35527856702E+00 -0.38638036160E+00  0.90007773991E+02  0.90000035808E+02 0.  0.
        -12    1    1    2    0    0 -0.10570812590E+01  0.35527856702E+00  0.38638036160E+00  0.11802260089E+01  0.00000000000E+00 0.  1.
         11    1    3    3    0    0 -0.70553062671E+01  0.64344826165E+01 -0.75869102334E+01  0.12195946877E+02  0.51100000000E-03 0. -1.
        -11    1    3    3    0    0 -0.29327259352E+02  0.90544620009E+01 -0.11867994337E+02  0.32907760682E+02  0.51100000000E-03 0.  1.
         12    1    3    3    0    0  0.37439646878E+02 -0.15844223184E+02  0.19068524209E+02  0.44904066433E+02  0.00000000000E+00 0. -1.
</event>
<event>
 7    1  0.2349719E-015  0.9000751E+02  0.7816164E-02  0.1186339E+00
        -11   -1    0    0    0    0  0.00000000000E+00  0.00000000000E+00  0.45593999997E+02  0.45594000000E+02  0.51100000000E-03 0. -1.
         11   -1    0    0    0    0 -0.00000000000E+00 -0.00000000000E+00 -0.45593999997E+02  0.45594000000E+02  0.51100000000E-03 0.  1.
    9900012    2    1    2    0    0  0.46969251223E+00 -0.93685501602E+00  0.54335713699E+00  0.90007514780E+02  0.89999773174E+02 0.  0.
        -12    1    1    2    0    0 -0.46969251223E+00  0.93685501602E+00 -0.54335713699E+00  0.11804852203E+01  0.00000000000E+00 0.  1.
         11    1    3    3    0    0  0.94453067973E+01 -0.66613523185E+00  0.45255620457E+01  0.10494678115E+02  0.51100000000E-03 0. -1.
        -11    1    3    3    0    0  0.18929561274E+02 -0.27195548636E+02  0.14961321010E+02  0.36356117536E+02  0.51100000000E-03 0.  1.
         12    1    3    3    0    0 -0.27905175559E+02  0.26924828852E+02 -0.18943525919E+02  0.43156719129E+02  0.00000000000E+00 0. -1.
</event>
<event>
 7    1  0.2349719E-015  0.9000769E+02  0.7816164E-02  0.1186339E+00
        -11   -1    0    0    0    0  0.00000000000E+00  0.00000000000E+00  0.45593999997E+02  0.45594000000E+02  0.51100000000E-03 0. -1.
         11   -1    0    0    0    0 -0.00000000000E+00 -0.00000000000E+00 -0.45593999997E+02  0.45594000000E+02  0.51100000000E-03 0.  1.
    9900012    2    1    2    0    0 -0.90343317579E+00 -0.63815796685E+00  0.41195002590E+00  0.90007686517E+02  0.89999947179E+02 0.  0.
        -12    1    1    2    0    0  0.90343317579E+00  0.63815796685E+00 -0.41195002590E+00  0.11803134828E+01  0.00000000000E+00 0.  1.
         11    1    3    3    0    0 -0.15917054499E+01  0.26592618744E+02  0.31583255006E+02  0.41318311860E+02  0.51100000000E-03 0. -1.
        -11    1    3    3    0    0 -0.12577447926E+01  0.44835652998E+01 -0.83788300736E+01  0.95858788551E+01  0.51100000000E-03 0.  1.
        -12    1    3    3    0    0  0.19460170667E+01 -0.31714342011E+02 -0.22792474906E+02  0.39103495802E+02  0.00000000000E+00 0.  1.
</event>
<event>
 7    1  0.2349719E-015  0.9000759E+02  0.7816164E-02  0.1186339E+00
        -11   -1    0    0    0    0  0.00000000000E+00  0.00000000000E+00  0.45593999997E+02  0.45594000000E+02  0.51100000000E-03 0.  1.
         11   -1    0    0    0    0 -0.00000000000E+00 -0.00000000000E+00 -0.45593999997E+02  0.45594000000E+02  0.51100000000E-03 0. -1.
    9900012    2    1    2    0    0  0.27294121116E+00 -0.10127220834E+01 -0.54153175483E+00  0.90007593475E+02  0.89999852909E+02 0.  0.
        -12    1    1    2    0    0 -0.27294121116E+00  0.10127220834E+01  0.54153175483E+00  0.11804065251E+01  0.00000000000E+00 0.  1.
         11    1    3    3    0    0  0.43631141185E+01  0.67894326094E+01 -0.50573710913E+01  0.95241882900E+01  0.51100000000E-03 0. -1.
        -11    1    3    3    0    0  0.18261414449E+02  0.20610927253E+02 -0.22331244940E+02  0.35453830269E+02  0.51100000000E-03 0.  1.
         12    1    3    3    0    0 -0.22351587356E+02 -0.28413081946E+02  0.26847084276E+02  0.45029574916E+02  0.00000000000E+00 0. -1.
</event>
<event>
 7    1  0.2349719E-015  0.9000770E+02  0.7816164E-02  0.1186339E+00
        -11   -1    0    0    0    0  0.00000000000E+00  0.00000000000E+00  0.45593999997E+02  0.45594000000E+02  0.51100000000E-03 0. -1.
         11   -1    0    0    0    0 -0.00000000000E+00 -0.00000000000E+00 -0.45593999997E+02  0.45594000000E+02  0.51100000000E-03 0.  1.
    9900012    2    1    2    0    0 -0.20200749008E+00 -0.31109622708E+00  0.11204968169E+01  0.90007703001E+02  0.89999963881E+02 0.  0.
        -12    1    1    2    0    0  0.20200749008E+00  0.31109622708E+00 -0.11204968169E+01  0.11802969988E+01  0.00000000000E+00 0.  1.
         11    1    3    3    0    0 -0.91985637333E+01 -0.34035985663E+01 -0.10438297291E+01  0.98634496359E+01  0.51100000000E-03 0. -1.
        -11    1    3    3    0    0 -0.31245852408E+02 -0.82462187451E+00 -0.16799501365E+02  0.35485300341E+02  0.51100000000E-03 0.  1.
         12    1    3    3    0    0  0.40242408651E+02  0.39171242138E+01  0.18963827911E+02  0.44658953024E+02  0.00000000000E+00 0. -1.
</event>
<event>
 7    1  0.2349719E-015  0.9000776E+02  0.7816164E-02  0.1186339E+00
        -11   -1    0    0    0    0  0.00000000000E+00  0.00000000000E+00  0.45593999997E+02  0.45594000000E+02  0.51100000000E-03 0. -1.
         11   -1    0    0    0    0 -0.00000000000E+00 -0.00000000000E+00 -0.45593999997E+02  0.45594000000E+02  0.51100000000E-03 0.  1.
    9900012    2    1    2    0    0  0.89458163110E+00  0.76261519051E+00 -0.10544912512E+00  0.90007755220E+02  0.90000016789E+02 0.  0.
        -12    1    1    2    0    0 -0.89458163110E+00 -0.76261519051E+00  0.10544912512E+00  0.11802447803E+01  0.00000000000E+00 0.  1.
         11    1    3    3    0    0  0.24622431617E+02 -0.14288217179E+02 -0.24947416972E+01  0.28576931698E+02  0.51100000000E-03 0. -1.
        -11    1    3    3    0    0 -0.55102354422E+01  0.25959166422E+02 -0.17941423985E+02  0.32033353099E+02  0.51100000000E-03 0.  1.
         12    1    3    3    0    0 -0.18217614544E+02 -0.10908334052E+02  0.20330716557E+02  0.29397470422E+02  0.00000000000E+00 0. -1.
</event>
<event>
 7    1  0.2349719E-015  0.9000774E+02  0.7816164E-02  0.1186339E+00
        -11   -1    0    0    0    0  0.00000000000E+00  0.00000000000E+00  0.45593999997E+02  0.45594000000E+02  0.51100000000E-03 0.  1.
         11   -1    0    0    0    0 -0.00000000000E+00 -0.00000000000E+00 -0.45593999997E+02  0.45594000000E+02  0.51100000000E-03 0. -1.
    9900012    2    1    2    0    0 -0.79955140640E+00  0.53020489093E+00 -0.68746245708E+00  0.90007743965E+02  0.90000005386E+02 0.  0.
        -12    1    1    2    0    0  0.79955140640E+00 -0.53020489093E+00  0.68746245708E+00  0.11802560348E+01  0.00000000000E+00 0.  1.
         11    1    3    3    0    0 -0.90967265922E+01 -0.37553488378E+02 -0.14401184498E+02  0.41236016287E+02  0.51100000000E-03 0. -1.
        -11    1    3    3    0    0 -0.39783224982E+01 -0.60846943032E+00  0.63477674508E+01  0.75160785532E+01  0.51100000000E-03 0.  1.
        -12    1    3    3    0    0  0.12275497684E+02  0.38692162699E+02  0.73659545899E+01  0.41255649125E+02  0.00000000000E+00 0.  1.
</event>
<event>
 7    1  0.2349719E-015  0.9000777E+02  0.7816164E-02  0.1186339E+00
        -11   -1    0    0    0    0  0.00000000000E+00  0.00000000000E+00  0.45593999997E+02  0.45594000000E+02  0.51100000000E-03 0. -1.
         11   -1    0    0    0    0 -0.00000000000E+00 -0.00000000000E+00 -0.45593999997E+02  0.45594000000E+02  0.51100000000E-03 0.  1.
    9900012    2    1    2    0    0 -0.10649393094E+01  0.43113195628E+00  0.27013707388E+00  0.90007769287E+02  0.90000031042E+02 0.  0.
        -12    1    1    2    0    0  0.10649393094E+01 -0.43113195628E+00 -0.27013707388E+00  0.11802307127E+01  0.00000000000E+00 0.  1.
         11    1    3    3    0    0 -0.51235319374E+01  0.18878354555E+01  0.43148053214E+01  0.69593137193E+01  0.51100000000E-03 0. -1.
        -11    1    3    3    0    0 -0.21609302798E+02  0.22537259834E+02 -0.26833159683E+02  0.41169266536E+02  0.51100000000E-03 0.  1.
         12    1    3    3    0    0  0.25667895426E+02 -0.23993963334E+02  0.22788491435E+02  0.41879189032E+02  0.00000000000E+00 0. -1.
</event>
<event>
 7    1  0.2349719E-015  0.9000771E+02  0.7816164E-02  0.1186339E+00
        -11   -1    0    0    0    0  0.00000000000E+00  0.00000000000E+00  0.45593999997E+02  0.45594000000E+02  0.51100000000E-03 0.  1.
         11   -1    0    0    0    0 -0.00000000000E+00 -0.00000000000E+00 -0.45593999997E+02  0.45594000000E+02  0.51100000000E-03 0. -1.
    9900012    2    1    2    0    0 -0.53442736536E+00  0.76143123344E+00 -0.72642291206E+00  0.90007711739E+02  0.89999972734E+02 0.  0.
        -12    1    1    2    0    0  0.53442736536E+00 -0.76143123344E+00  0.72642291206E+00  0.11802882611E+01  0.00000000000E+00 0.  1.
         11    1    3    3    0    0 -0.13205401464E+02 -0.32552335274E+02 -0.60737938908E+01  0.35650078991E+02  0.51100000000E-03 0. -1.
        -11    1    3    3    0    0 -0.44877802756E+01 -0.76354324103E+01 -0.26492513810E+01  0.92443784559E+01  0.51100000000E-03 0.  1.
        -12    1    3    3    0    0  0.17158754374E+02  0.40949198917E+02  0.79966223597E+01  0.45113254292E+02  0.00000000000E+00 0.  1.
</event>
<event>
 7    1  0.2349719E-015  0.9000737E+02  0.7816164E-02  0.1186340E+00
        -11   -1    0    0    0    0  0.00000000000E+00  0.00000000000E+00  0.45593999997E+02  0.45594000000E+02  0.51100000000E-03 0.  1.
         11   -1    0    0    0    0 -0.00000000000E+00 -0.00000000000E+00 -0.45593999997E+02  0.45594000000E+02  0.51100000000E-03 0. -1.
    9900012    2    1    2    0    0  0.75244540284E+00 -0.69853779853E+00  0.58287942038E+00  0.90007374082E+02  0.89999630619E+02 0.  0.
        -12    1    1    2    0    0 -0.75244540284E+00  0.69853779853E+00 -0.58287942038E+00  0.11806259183E+01  0.00000000000E+00 0.  1.
         11    1    3    3    0    0  0.21623227177E+02  0.81629827163E+01  0.35183317245E+02  0.42095891165E+02  0.51100000000E-03 0. -1.
        -11    1    3    3    0    0  0.14308133950E+01 -0.87453643133E+01 -0.32521545596E+01  0.94395515510E+01  0.51100000000E-03 0.  1.
        -12    1    3    3    0    0 -0.22301595169E+02 -0.11615620151E+00 -0.31348283265E+02  0.38471931366E+02  0.00000000000E+00 0.  1.
</event>
<event>
 7    1  0.2349719E-015  0.9000769E+02  0.7816164E-02  0.1186339E+00
        -11   -1    0    0    0    0  0.00000000000E+00  0.00000000000E+00  0.45593999997E+02  0.45594000000E+02  0.51100000000E-03 0.  1.
         11   -1    0    0    0    0 -0.00000000000E+00 -0.00000000000E+00 -0.45593999997E+02  0.45594000000E+02  0.51100000000E-03 0. -1.
    9900012    2    1    2    0    0  0.39589566594E-01 -0.38446194873E+00 -0.11152366343E+01  0.90007690263E+02  0.89999950975E+02 0.  0.
        -12    1    1    2    0    0 -0.39589566594E-01  0.38446194873E+00  0.11152366343E+01  0.11803097366E+01  0.00000000000E+00 0.  1.
         11    1    3    3    0    0 -0.15656374357E+01 -0.17219559270E+02  0.70982241857E+01  0.18690886252E+02  0.51100000000E-03 0. -1.
        -11    1    3    3    0    0 -0.10800204603E+02 -0.21800208457E+02 -0.17150368759E+02  0.29766233505E+02  0.51100000000E-03 0.  1.
         12    1    3    3    0    0  0.12405431605E+02  0.38635305779E+02  0.89369079386E+01  0.41550570507E+02  0.00000000000E+00 0. -1.
</event>
<event>
 7    1  0.2349719E-015  0.9000782E+02  0.7816164E-02  0.1186339E+00
        -11   -1    0    0    0    0  0.00000000000E+00  0.00000000000E+00  0.45593999997E+02  0.45594000000E+02  0.51100000000E-03 0. -1.
         11   -1    0    0    0    0 -0.00000000000E+00 -0.00000000000E+00 -0.45593999997E+02  0.45594000000E+02  0.51100000000E-03 0.  1.
    9900012    2    1    2    0    0 -0.53873665470E-01  0.49624492354E+00  0.10694215980E+01  0.90007820374E+02  0.90000082803E+02 0.  0.
        -12    1    1    2    0    0  0.53873665470E-01 -0.49624492354E+00 -0.10694215980E+01  0.11801796262E+01  0.00000000000E+00 0.  1.
         11    1    3    3    0    0 -0.34237272185E+02 -0.58652854467E+01  0.41730838114E+01  0.34985811536E+02  0.51100000000E-03 0. -1.
        -11    1    3    3    0    0 -0.89395287591E+01  0.42078838013E+01  0.50282245535E+01  0.11086230331E+02  0.51100000000E-03 0.  1.
        -12    1    3    3    0    0  0.43122927279E+02  0.21536465689E+01 -0.81318867669E+01  0.43935778507E+02  0.00000000000E+00 0.  1.
</event>
<event>
 7    1  0.2349719E-015  0.9000766E+02  0.7816164E-02  0.1186339E+00
        -11   -1    0    0    0    0  0.00000000000E+00  0.00000000000E+00  0.45593999997E+02  0.45594000000E+02  0.51100000000E-03 0. -1.
         11   -1    0    0    0    0 -0.00000000000E+00 -0.00000000000E+00 -0.45593999997E+02  0.45594000000E+02  0.51100000000E-03 0.  1.
    9900012    2    1    2    0    0  0.32138997588E-01 -0.11334593922E+01  0.32776662425E+00  0.90007663578E+02  0.89999923937E+02 0.  0.
        -12    1    1    2    0    0 -0.32138997588E-01  0.11334593922E+01 -0.32776662425E+00  0.11803364220E+01  0.00000000000E+00 0.  1.
         11    1    3    3    0    0 -0.21251129223E+02  0.35785038190E+02  0.33905713112E+01  0.41757339781E+02  0.51100000000E-03 0. -1.
        -11    1    3    3    0    0  0.10551964375E+02 -0.94931346926E+00 -0.63191685658E-01  0.10594769544E+02  0.51100000000E-03 0.  1.
        -12    1    3    3    0    0  0.10731303846E+02 -0.35969184113E+02 -0.29996130013E+01  0.37655554253E+02  0.00000000000E+00 0.  1.
</event>
<event>
 7    1  0.2804685E-015  0.9000773E+02  0.7816164E-02  0.1186339E+00
        -11   -1    0    0    0    0  0.00000000000E+00  0.00000000000E+00  0.45593999997E+02  0.45594000000E+02  0.51100000000E-03 0. -1.
         11   -1    0    0    0    0 -0.00000000000E+00 -0.00000000000E+00 -0.45593999997E+02  0.45594000000E+02  0.51100000000E-03 0.  1.
    9900012    2    1    2    0    0 -0.70180900896E-01  0.31240503140E+00  0.11360051645E+01  0.90007733083E+02  0.89999994359E+02 0.  0.
        -12    1    1    2    0    0  0.70180900896E-01 -0.31240503140E+00 -0.11360051645E+01  0.11802669174E+01  0.00000000000E+00 0.  1.
         11    1    3    3    0    0 -0.12614268259E+02  0.31017325863E+02  0.16113908486E+02  0.37159821237E+02  0.51100000000E-03 0. -1.
        -11    1    3    3    0    0 -0.88363057156E+01  0.10562987620E+00  0.52088111219E+01  0.10257834564E+02  0.51100000000E-03 0.  1.
        -12    1    3    3    0    0  0.21380393074E+02 -0.30810550707E+02 -0.20186714444E+02  0.42590077282E+02  0.00000000000E+00 0.  1.
</event>
<event>
 7    1  0.2349719E-015  0.9000779E+02  0.7816164E-02  0.1186339E+00
        -11   -1    0    0    0    0  0.00000000000E+00  0.00000000000E+00  0.45593999997E+02  0.45594000000E+02  0.51100000000E-03 0.  1.
         11   -1    0    0    0    0 -0.00000000000E+00 -0.00000000000E+00 -0.45593999997E+02  0.45594000000E+02  0.51100000000E-03 0. -1.
    9900012    2    1    2    0    0  0.44645400407E+00 -0.60902664321E+00 -0.90700851820E+00  0.90007788544E+02  0.90000050552E+02 0.  0.
        -12    1    1    2    0    0 -0.44645400407E+00  0.60902664321E+00  0.90700851820E+00  0.11802114565E+01  0.00000000000E+00 0.  1.
         11    1    3    3    0    0  0.90754378738E+01 -0.27147499291E+02  0.73599750215E+00  0.28633756005E+02  0.51100000000E-03 0. -1.
        -11    1    3    3    0    0 -0.12759411184E+02 -0.79636353394E+01  0.16373043629E+02  0.22232827520E+02  0.51100000000E-03 0.  1.
        -12    1    3    3    0    0  0.41304273143E+01  0.34502107987E+02 -0.18016049650E+02  0.39141205019E+02  0.00000000000E+00 0.  1.
</event>
<event>
 7    1  0.2349719E-015  0.9000769E+02  0.7816164E-02  0.1186339E+00
        -11   -1    0    0    0    0  0.00000000000E+00  0.00000000000E+00  0.45593999997E+02  0.45594000000E+02  0.51100000000E-03 0. -1.
         11   -1    0    0    0    0 -0.00000000000E+00 -0.00000000000E+00 -0.45593999997E+02  0.45594000000E+02  0.51100000000E-03 0.  1.
    9900012    2    1    2    0    0 -0.15453800925E+00 -0.90045685252E+00  0.74728151649E+00  0.90007688937E+02  0.89999949631E+02 0.  0.
        -12    1    1    2    0    0  0.15453800925E+00  0.90045685252E+00 -0.74728151649E+00  0.11803110626E+01  0.00000000000E+00 0.  1.
         11    1    3    3    0    0 -0.28496554976E+02 -0.22508049499E+02 -0.10547342795E+02  0.37814182235E+02  0.51100000000E-03 0. -1.
        -11    1    3    3    0    0  0.22675570649E+01 -0.90388466171E+01 -0.25142549636E+01  0.96521521690E+01  0.51100000000E-03 0.  1.
        -12    1    3    3    0    0  0.26074459902E+02  0.30646439264E+02  0.13808879275E+02  0.42541354534E+02  0.00000000000E+00 0.  1.
</event>
<event>
 7    1  0.2349719E-015  0.9000783E+02  0.7816164E-02  0.1186339E+00
        -11   -1    0    0    0    0  0.00000000000E+00  0.00000000000E+00  0.45593999997E+02  0.45594000000E+02  0.51100000000E-03 0. -1.
         11   -1    0    0    0    0 -0.00000000000E+00 -0.00000000000E+00 -0.45593999997E+02  0.45594000000E+02  0.51100000000E-03 0.  1.
    9900012    2    1    2    0    0 -0.36196949133E+00  0.11208312811E+01 -0.74309508551E-01  0.90007827734E+02  0.90000090261E+02 0.  0.
        -12    1    1    2    0    0  0.36196949133E+00 -0.11208312811E+01  0.74309508551E-01  0.11801722655E+01  0.00000000000E+00 0.  1.
         11    1    3    3    0    0 -0.77943025916E+01  0.14261322418E+02  0.33894085687E+02  0.37589167520E+02  0.51100000000E-03 0. -1.
        -11    1    3    3    0    0 -0.45079577442E+00  0.66778389499E+01  0.47548443069E+01  0.82100727472E+01  0.51100000000E-03 0.  1.
        -12    1    3    3    0    0  0.78831288747E+01 -0.19818330086E+02 -0.38723239503E+02  0.44208587467E+02  0.00000000000E+00 0.  1.
</event>
<event>
 7    1  0.2349719E-015  0.9000773E+02  0.7816164E-02  0.1186339E+00
        -11   -1    0    0    0    0  0.00000000000E+00  0.00000000000E+00  0.45593999997E+02  0.45594000000E+02  0.51100000000E-03 0. -1.
         11   -1    0    0    0    0 -0.00000000000E+00 -0.00000000000E+00 -0.45593999997E+02  0.45594000000E+02  0.51100000000E-03 0.  1.
    9900012    2    1    2    0    0  0.11236489692E+01 -0.13795089000E+00 -0.33380735764E+00  0.90007726809E+02  0.89999988003E+02 0.  0.
        -12    1    1    2    0    0 -0.11236489692E+01  0.13795089000E+00  0.33380735764E+00  0.11802731913E+01  0.00000000000E+00 0.  1.
         11    1    3    3    0    0  0.70429293854E+01  0.67692659322E+01  0.26801319090E+01  0.10129606256E+02  0.51100000000E-03 0. -1.
        -11    1    3    3    0    0  0.20621311469E+02  0.26949553493E+02  0.91986081745E+01  0.35158659143E+02  0.51100000000E-03 0.  1.
         12    1    3    3    0    0 -0.26540591885E+02 -0.33856770315E+02 -0.12212547441E+02  0.44719461410E+02  0.00000000000E+00 0. -1.
</event>
<event>
 7    1  0.2349719E-015  0.9000769E+02  0.7816164E-02  0.1186339E+00
        -11   -1    0    0    0    0  0.00000000000E+00  0.00000000000E+00  0.45593999997E+02  0.45594000000E+02  0.51100000000E-03 0.  1.
         11   -1    0    0    0    0 -0.00000000000E+00 -0.00000000000E+00 -0.45593999997E+02  0.45594000000E+02  0.51100000000E-03 0. -1.
    9900012    2    1    2    0    0 -0.34669948155E+00  0.10612569875E+01  0.38298261284E+00  0.90007685379E+02  0.89999946026E+02 0.  0.
        -12    1    1    2    0    0  0.34669948155E+00 -0.10612569875E+01 -0.38298261284E+00  0.11803146215E+01  0.00000000000E+00 0.  1.
         11    1    3    3    0    0 -0.40396405479E+01  0.96402301519E+01 -0.80190483295E+01  0.13174136386E+02  0.51100000000E-03 0. -1.
        -11    1    3    3    0    0 -0.17049326995E+02  0.79511135092E+01  0.34707296627E+02  0.39477793713E+02  0.51100000000E-03 0.  1.
         12    1    3    3    0    0  0.20742268062E+02 -0.16530086674E+02 -0.26305265685E+02  0.37355755280E+02  0.00000000000E+00 0. -1.
</event>
<event>
 7    1  0.2349719E-015  0.9000785E+02  0.7816164E-02  0.1186339E+00
        -11   -1    0    0    0    0  0.00000000000E+00  0.00000000000E+00  0.45593999997E+02  0.45594000000E+02  0.51100000000E-03 0.  1.
         11   -1    0    0    0    0 -0.00000000000E+00 -0.00000000000E+00 -0.45593999997E+02  0.45594000000E+02  0.51100000000E-03 0. -1.
    9900012    2    1    2    0    0 -0.61848953944E+00  0.98656219755E+00  0.19212163587E+00  0.90007853821E+02  0.90000116692E+02 0.  0.
        -12    1    1    2    0    0  0.61848953944E+00 -0.98656219755E+00 -0.19212163587E+00  0.11801461787E+01  0.00000000000E+00 0.  1.
         11    1    3    3    0    0  0.90303031971E+01 -0.38918422111E+00  0.11823674655E+01  0.91156915960E+01  0.51100000000E-03 0. -1.
        -11    1    3    3    0    0  0.22068969957E+02 -0.92295273131E+01  0.27862413454E+02  0.36722441274E+02  0.51100000000E-03 0.  1.
         12    1    3    3    0    0 -0.31717762694E+02  0.10605273732E+02 -0.28852659283E+02  0.44169720951E+02  0.00000000000E+00 0. -1.
</event>
<event>
 7    1  0.2349719E-015  0.9000795E+02  0.7816164E-02  0.1186339E+00
        -11   -1    0    0    0    0  0.00000000000E+00  0.00000000000E+00  0.45593999997E+02  0.45594000000E+02  0.51100000000E-03 0.  1.
         11   -1    0    0    0    0 -0.00000000000E+00 -0.00000000000E+00 -0.45593999997E+02  0.45594000000E+02  0.51100000000E-03 0. -1.
    9900012    2    1    2    0    0 -0.24940592875E+00 -0.10564283668E+01  0.46290177517E+00  0.90007948194E+02  0.90000212310E+02 0.  0.
        -12    1    1    2    0    0  0.24940592875E+00  0.10564283668E+01 -0.46290177517E+00  0.11800518061E+01  0.00000000000E+00 0.  1.
         11    1    3    3    0    0 -0.11203675428E+02  0.35205267681E+02 -0.22990486129E+01  0.37016467152E+02  0.51100000000E-03 0. -1.
        -11    1    3    3    0    0 -0.97669298866E+00  0.72685935834E+01  0.28153101680E+01  0.78557210667E+01  0.51100000000E-03 0.  1.
        -12    1    3    3    0    0  0.11930962488E+02 -0.43530289632E+02 -0.53359779937E-01  0.45135759975E+02  0.00000000000E+00 0.  1.
</event>
<event>
 7    1  0.2349719E-015  0.9000768E+02  0.7816164E-02  0.1186339E+00
        -11   -1    0    0    0    0  0.00000000000E+00  0.00000000000E+00  0.45593999997E+02  0.45594000000E+02  0.51100000000E-03 0.  1.
         11   -1    0    0    0    0 -0.00000000000E+00 -0.00000000000E+00 -0.45593999997E+02  0.45594000000E+02  0.51100000000E-03 0. -1.
    9900012    2    1    2    0    0 -0.17955634736E+00  0.75419191053E+00 -0.88999869483E+00  0.90007684959E+02  0.89999945600E+02 0.  0.
        -12    1    1    2    0    0  0.17955634736E+00 -0.75419191053E+00  0.88999869483E+00  0.11803150412E+01  0.00000000000E+00 0.  1.
         11    1    3    3    0    0 -0.55683616120E+01  0.59353848454E+01  0.48612281551E+01  0.94798198159E+01  0.51100000000E-03 0. -1.
        -11    1    3    3    0    0  0.56964744829E+01  0.90861847787E+01  0.35391410420E+02  0.36980542278E+02  0.51100000000E-03 0.  1.
         12    1    3    3    0    0 -0.30766921826E+00 -0.14267377714E+02 -0.41142637270E+02  0.43547322865E+02  0.00000000000E+00 0. -1.
</event>
<event>
 7    1  0.2349719E-015  0.9000769E+02  0.7816164E-02  0.1186339E+00
        -11   -1    0    0    0    0  0.00000000000E+00  0.00000000000E+00  0.45593999997E+02  0.45594000000E+02  0.51100000000E-03 0.  1.
         11   -1    0    0    0    0 -0.00000000000E+00 -0.00000000000E+00 -0.45593999997E+02  0.45594000000E+02  0.51100000000E-03 0. -1.
    9900012    2    1    2    0    0  0.64694834840E+00 -0.89445861545E+00 -0.41777666644E+00  0.90007688294E+02  0.89999948979E+02 0.  0.
        -12    1    1    2    0    0 -0.64694834840E+00  0.89445861545E+00  0.41777666644E+00  0.11803117060E+01  0.00000000000E+00 0.  1.
         11    1    3    3    0    0 -0.58989037824E+00 -0.39940211961E+01 -0.60047991418E+01  0.72358682248E+01  0.51100000000E-03 0. -1.
        -11    1    3    3    0    0 -0.62553600291E+01 -0.39162495006E+02  0.30409433789E+01  0.39775342627E+02  0.51100000000E-03 0.  1.
         12    1    3    3    0    0  0.74921987558E+01  0.42262057587E+02  0.25460790964E+01  0.42996477442E+02  0.00000000000E+00 0. -1.
</event>
<event>
 7    1  0.2349719E-015  0.9000776E+02  0.7816164E-02  0.1186339E+00
        -11   -1    0    0    0    0  0.00000000000E+00  0.00000000000E+00  0.45593999997E+02  0.45594000000E+02  0.51100000000E-03 0. -1.
         11   -1    0    0    0    0 -0.00000000000E+00 -0.00000000000E+00 -0.45593999997E+02  0.45594000000E+02  0.51100000000E-03 0.  1.
    9900012    2    1    2    0    0 -0.44585508817E+00  0.10655412625E+01 -0.24249266429E+00  0.90007759502E+02  0.90000021127E+02 0.  0.
        -12    1    1    2    0    0  0.44585508817E+00 -0.10655412625E+01  0.24249266429E+00  0.11802404983E+01  0.00000000000E+00 0.  1.
         11    1    3    3    0    0 -0.20718493826E+01 -0.18456457224E+02  0.30513702004E+02  0.35721413513E+02  0.51100000000E-03 0. -1.
        -11    1    3    3    0    0  0.34075821538E+01  0.21148402578E+01  0.95434001703E+01  0.10351842953E+02  0.51100000000E-03 0.  1.
        -12    1    3    3    0    0 -0.17815878593E+01  0.17407158229E+02 -0.40299594838E+02  0.43934503036E+02  0.00000000000E+00 0.  1.
</event>
<event>
 7    1  0.2349719E-015  0.9000760E+02  0.7816164E-02  0.1186339E+00
        -11   -1    0    0    0    0  0.00000000000E+00  0.00000000000E+00  0.45593999997E+02  0.45594000000E+02  0.51100000000E-03 0. -1.
         11   -1    0    0    0    0 -0.00000000000E+00 -0.00000000000E+00 -0.45593999997E+02  0.45594000000E+02  0.51100000000E-03 0.  1.
    9900012    2    1    2    0    0  0.10685883491E+01 -0.46259426695E+00  0.19358180382E+00  0.90007598191E+02  0.89999857687E+02 0.  0.
        -12    1    1    2    0    0 -0.10685883491E+01  0.46259426695E+00 -0.19358180382E+00  0.11804018089E+01  0.00000000000E+00 0.  1.
         11    1    3    3    0    0  0.79313041626E+00 -0.41650140707E+02  0.92938280660E+00  0.41668057664E+02  0.51100000000E-03 0. -1.
        -11    1    3    3    0    0 -0.29700008681E+01  0.12000623887E+02 -0.11672387848E+02  0.17002367987E+02  0.51100000000E-03 0.  1.
        -12    1    3    3    0    0  0.32454588010E+01  0.29186922553E+02  0.10936586846E+02  0.31337172540E+02  0.00000000000E+00 0.  1.
</event>
<event>
 7    1  0.2349719E-015  0.9000775E+02  0.7816164E-02  0.1186339E+00
        -11   -1    0    0    0    0  0.00000000000E+00  0.00000000000E+00  0.45593999997E+02  0.45594000000E+02  0.51100000000E-03 0. -1.
         11   -1    0    0    0    0 -0.00000000000E+00 -0.00000000000E+00 -0.45593999997E+02  0.45594000000E+02  0.51100000000E-03 0.  1.
    9900012    2    1    2    0    0 -0.37508428344E+00  0.29048439442E+00  0.10807052158E+01  0.90007748685E+02  0.90000010168E+02 0.  0.
        -12    1    1    2    0    0  0.37508428344E+00 -0.29048439442E+00 -0.10807052158E+01  0.11802513150E+01  0.00000000000E+00 0.  1.
         11    1    3    3    0    0  0.29117196372E+02 -0.23550158962E+02  0.10815786732E+02  0.38979511985E+02  0.51100000000E-03 0. -1.
        -11    1    3    3    0    0 -0.16111059797E+01  0.15865969602E+01  0.10004940351E+02  0.10257279565E+02  0.51100000000E-03 0.  1.
        -12    1    3    3    0    0 -0.27881174676E+02  0.22254046396E+02 -0.19740021867E+02  0.40770957134E+02  0.00000000000E+00 0.  1.
</event>
<event>
 7    1  0.2349719E-015  0.9000776E+02  0.7816164E-02  0.1186339E+00
        -11   -1    0    0    0    0  0.00000000000E+00  0.00000000000E+00  0.45593999997E+02  0.45594000000E+02  0.51100000000E-03 0. -1.
         11   -1    0    0    0    0 -0.00000000000E+00 -0.00000000000E+00 -0.45593999997E+02  0.45594000000E+02  0.51100000000E-03 0.  1.
    9900012    2    1    2    0    0 -0.58381178558E+00 -0.99637368359E+00  0.24364499716E+00  0.90007762904E+02  0.90000024574E+02 0.  0.
        -12    1    1    2    0    0  0.58381178558E+00  0.99637368359E+00 -0.24364499716E+00  0.11802370961E+01  0.00000000000E+00 0.  1.
         11    1    3    3    0    0 -0.41752457510E+01  0.86139269142E+01  0.84391386130E+01  0.12761327312E+02  0.51100000000E-03 0. -1.
        -11    1    3    3    0    0 -0.16536406012E+02  0.22219423510E+02  0.16473456605E+02  0.32226235860E+02  0.51100000000E-03 0.  1.
         12    1    3    3    0    0  0.20127839977E+02 -0.31829724108E+02 -0.24668950221E+02  0.45020199732E+02  0.00000000000E+00 0. -1.
</event>
<event>
 7    1  0.2349719E-015  0.9000742E+02  0.7816164E-02  0.1186340E+00
        -11   -1    0    0    0    0  0.00000000000E+00  0.00000000000E+00  0.45593999997E+02  0.45594000000E+02  0.51100000000E-03 0.  1.
         11   -1    0    0    0    0 -0.00000000000E+00 -0.00000000000E+00 -0.45593999997E+02  0.45594000000E+02  0.51100000000E-03 0. -1.
    9900012    2    1    2    0    0  0.78161362848E+00 -0.76933165670E+00 -0.43701790359E+00  0.90007417216E+02  0.89999674322E+02 0.  0.
        -12    1    1    2    0    0 -0.78161362848E+00  0.76933165670E+00  0.43701790359E+00  0.11805827842E+01  0.00000000000E+00 0.  1.
         11    1    3    3    0    0  0.15061345533E+02 -0.22516703756E+02  0.23992068718E+01  0.27195629634E+02  0.51100000000E-03 0. -1.
        -11    1    3    3    0    0 -0.39045827120E+01  0.58261852235E+01  0.26746744954E+02  0.27651013838E+02  0.51100000000E-03 0.  1.
         12    1    3    3    0    0 -0.10375149192E+02  0.15921186876E+02 -0.29582969729E+02  0.35160773744E+02  0.00000000000E+00 0. -1.
</event>
<event>
 7    1  0.2349719E-015  0.9000785E+02  0.7816164E-02  0.1186339E+00
        -11   -1    0    0    0    0  0.00000000000E+00  0.00000000000E+00  0.45593999997E+02  0.45594000000E+02  0.51100000000E-03 0.  1.
         11   -1    0    0    0    0 -0.00000000000E+00 -0.00000000000E+00 -0.45593999997E+02  0.45594000000E+02  0.51100000000E-03 0. -1.
    9900012    2    1    2    0    0  0.61809731557E+00 -0.99244551755E+00  0.16048671867E+00  0.90007852389E+02  0.90000115240E+02 0.  0.
        -12    1    1    2    0    0 -0.61809731557E+00  0.99244551755E+00 -0.16048671867E+00  0.11801476110E+01  0.00000000000E+00 0.  1.
         11    1    3    3    0    0  0.12285716623E+02  0.14358087558E+02  0.35317155109E+01  0.19224113139E+02  0.51100000000E-03 0. -1.
        -11    1    3    3    0    0  0.16080259331E+01 -0.35763563129E+02 -0.20274036919E+02  0.41141885814E+02  0.51100000000E-03 0.  1.
         12    1    3    3    0    0 -0.13275645241E+02  0.20413030053E+02  0.16902808127E+02  0.29641853436E+02  0.00000000000E+00 0. -1.
</event>
<event>
 7    1  0.2938801E-015  0.9000777E+02  0.7816164E-02  0.1186339E+00
        -11   -1    0    0    0    0  0.00000000000E+00  0.00000000000E+00  0.45593999997E+02  0.45594000000E+02  0.51100000000E-03 0.  1.
         11   -1    0    0    0    0 -0.00000000000E+00 -0.00000000000E+00 -0.45593999997E+02  0.45594000000E+02  0.51100000000E-03 0. -1.
    9900012    2    1    2    0    0 -0.19965042228E+00 -0.39713213795E+00 -0.10933287635E+01  0.90007770357E+02  0.90000032125E+02 0.  0.
        -12    1    1    2    0    0  0.19965042228E+00  0.39713213795E+00  0.10933287635E+01  0.11802296434E+01  0.00000000000E+00 0.  1.
         11    1    3    3    0    0  0.22122882577E+02 -0.22768991419E+01 -0.30539282039E+02  0.37779014690E+02  0.51100000000E-03 0. -1.
        -11    1    3    3    0    0 -0.30785756990E+01 -0.55495993696E+01 -0.75545644944E+01  0.98664647397E+01  0.51100000000E-03 0.  1.
        -12    1    3    3    0    0 -0.19243957300E+02  0.74293663736E+01  0.37000517770E+02  0.42362290927E+02  0.00000000000E+00 0.  1.
</event>
<event>
 7    1  0.2349719E-015  0.9000771E+02  0.7816164E-02  0.1186339E+00
        -11   -1    0    0    0    0  0.00000000000E+00  0.00000000000E+00  0.45593999997E+02  0.45594000000E+02  0.51100000000E-03 0. -1.
         11   -1    0    0    0    0 -0.00000000000E+00 -0.00000000000E+00 -0.45593999997E+02  0.45594000000E+02  0.51100000000E-03 0.  1.
    9900012    2    1    2    0    0  0.11140002217E+01 -0.11325685833E+00  0.37318983259E+00  0.90007705858E+02  0.89999966776E+02 0.  0.
        -12    1    1    2    0    0 -0.11140002217E+01  0.11325685833E+00 -0.37318983259E+00  0.11802941417E+01  0.00000000000E+00 0.  1.
         11    1    3    3    0    0  0.62135199536E+01 -0.31391756957E+01 -0.11915080844E+02  0.13799688621E+02  0.51100000000E-03 0. -1.
        -11    1    3    3    0    0 -0.35616783575E+02  0.43409771226E+01 -0.11296806912E+02  0.37616714387E+02  0.51100000000E-03 0.  1.
         12    1    3    3    0    0  0.30517263843E+02 -0.13150582852E+01  0.23585077589E+02  0.38591302850E+02  0.00000000000E+00 0. -1.
</event>
<event>
 7    1  0.2349719E-015  0.9000776E+02  0.7816164E-02  0.1186339E+00
        -11   -1    0    0    0    0  0.00000000000E+00  0.00000000000E+00  0.45593999997E+02  0.45594000000E+02  0.51100000000E-03 0. -1.
         11   -1    0    0    0    0 -0.00000000000E+00 -0.00000000000E+00 -0.45593999997E+02  0.45594000000E+02  0.51100000000E-03 0.  1.
    9900012    2    1    2    0    0  0.11614302755E+01  0.15205622157E+00  0.14467235861E+00  0.90007757876E+02  0.90000019480E+02 0.  0.
        -12    1    1    2    0    0 -0.11614302755E+01 -0.15205622157E+00 -0.14467235861E+00  0.11802421237E+01  0.00000000000E+00 0.  1.
         11    1    3    3    0    0  0.78635194018E+01  0.10827950619E+01 -0.66231572177E+01  0.10337968578E+02  0.51100000000E-03 0. -1.
        -11    1    3    3    0    0 -0.21452231803E+02  0.22476733860E+02 -0.23279722545E+02  0.38824570782E+02  0.51100000000E-03 0.  1.
         12    1    3    3    0    0  0.14750142677E+02 -0.23407472701E+02  0.30047552121E+02  0.40845218517E+02  0.00000000000E+00 0. -1.
</event>
<event>
 7    1  0.2349719E-015  0.9000762E+02  0.7816164E-02  0.1186339E+00
        -11   -1    0    0    0    0  0.00000000000E+00  0.00000000000E+00  0.45593999997E+02  0.45594000000E+02  0.51100000000E-03 0.  1.
         11   -1    0    0    0    0 -0.00000000000E+00 -0.00000000000E+00 -0.45593999997E+02  0.45594000000E+02  0.51100000000E-03 0. -1.
    9900012    2    1    2    0    0 -0.11081483259E+00 -0.11688459386E+01  0.12174298073E+00  0.90007617812E+02  0.89999877567E+02 0.  0.
        -12    1    1    2    0    0  0.11081483259E+00  0.11688459386E+01 -0.12174298073E+00  0.11803821876E+01  0.00000000000E+00 0.  1.
         11    1    3    3    0    0  0.30186079885E+01  0.30192718571E+02  0.24125058734E+02  0.38765070722E+02  0.51100000000E-03 0. -1.
        -11    1    3    3    0    0 -0.97616156214E+01  0.17456380301E+01 -0.17812894200E+00  0.99180704702E+01  0.51100000000E-03 0.  1.
        -12    1    3    3    0    0  0.66321928003E+01 -0.33107202540E+02 -0.23825186811E+02  0.41324476620E+02  0.00000000000E+00 0.  1.
</event>
<event>
 7    1  0.2349719E-015  0.9000750E+02  0.7816164E-02  0.1186340E+00
        -11   -1    0    0    0    0  0.00000000000E+00  0.00000000000E+00  0.45593999997E+02  0.45594000000E+02  0.51100000000E-03 0. -1.
         11   -1    0    0    0    0 -0.00000000000E+00 -0.00000000000E+00 -0.45593999997E+02  0.45594000000E+02  0.51100000000E-03 0.  1.
    9900012    2    1    2    0    0  0.18144592858E+00  0.10726376905E+01 -0.45836793622E+00  0.90007502052E+02  0.89999760279E+02 0.  0.
        -12    1    1    2    0    0 -0.18144592858E+00 -0.10726376905E+01  0.45836793622E+00  0.11804979479E+01  0.00000000000E+00 0.  1.
         11    1    3    3    0    0 -0.14858901055E+02  0.33260872209E+02 -0.13639152094E+02  0.38898573635E+02  0.51100000000E-03 0. -1.
        -11    1    3    3    0    0  0.15189877389E+01 -0.22375469399E+00 -0.95163938283E+01  0.96394575403E+01  0.51100000000E-03 0.  1.
        -12    1    3    3    0    0  0.13521359244E+02 -0.31964479825E+02  0.22697177986E+02  0.41469470877E+02  0.00000000000E+00 0.  1.
</event>
<event>
 7    1  0.2349719E-015  0.9000776E+02  0.7816164E-02  0.1186339E+00
        -11   -1    0    0    0    0  0.00000000000E+00  0.00000000000E+00  0.45593999997E+02  0.45594000000E+02  0.51100000000E-03 0.  1.
         11   -1    0    0    0    0 -0.00000000000E+00 -0.00000000000E+00 -0.45593999997E+02  0.45594000000E+02  0.51100000000E-03 0. -1.
    9900012    2    1    2    0    0 -0.11556632080E+01 -0.12799708931E+00  0.20255932759E+00  0.90007758081E+02  0.90000019688E+02 0.  0.
        -12    1    1    2    0    0  0.11556632080E+01  0.12799708931E+00 -0.20255932759E+00  0.11802419186E+01  0.00000000000E+00 0.  1.
         11    1    3    3    0    0  0.20375650793E+02  0.28942465828E+02 -0.18356639444E+02  0.39872292201E+02  0.51100000000E-03 0. -1.
        -11    1    3    3    0    0 -0.13754969072E+02  0.24158418335E+01  0.36156448483E+01  0.14425961107E+02  0.51100000000E-03 0.  1.
        -12    1    3    3    0    0 -0.77763449289E+01 -0.31486304751E+02  0.14943553923E+02  0.35709504773E+02  0.00000000000E+00 0.  1.
</event>
<event>
 7    1  0.2349719E-015  0.9000776E+02  0.7816164E-02  0.1186339E+00
        -11   -1    0    0    0    0  0.00000000000E+00  0.00000000000E+00  0.45593999997E+02  0.45594000000E+02  0.51100000000E-03 0.  1.
         11   -1    0    0    0    0 -0.00000000000E+00 -0.00000000000E+00 -0.45593999997E+02  0.45594000000E+02  0.51100000000E-03 0. -1.
    9900012    2    1    2    0    0  0.64304819680E+00  0.54110636525E+00 -0.82865462746E+00  0.90007756138E+02  0.90000017719E+02 0.  0.
        -12    1    1    2    0    0 -0.64304819680E+00 -0.54110636525E+00  0.82865462746E+00  0.11802438619E+01  0.00000000000E+00 0.  1.
         11    1    3    3    0    0  0.60076995623E+01 -0.45424947480E+01 -0.72232065038E+01  0.10435584556E+02  0.51100000000E-03 0. -1.
        -11    1    3    3    0    0  0.31585578312E+02  0.85476094895E+01  0.21875513840E+02  0.39360494043E+02  0.51100000000E-03 0.  1.
         12    1    3    3    0    0 -0.36950229677E+02 -0.34640083763E+01 -0.15480961963E+02  0.40211677539E+02  0.00000000000E+00 0. -1.
</event>
<event>
 7    1  0.2349719E-015  0.9000781E+02  0.7816164E-02  0.1186339E+00
        -11   -1    0    0    0    0  0.00000000000E+00  0.00000000000E+00  0.45593999997E+02  0.45594000000E+02  0.51100000000E-03 0.  1.
         11   -1    0    0    0    0 -0.00000000000E+00 -0.00000000000E+00 -0.45593999997E+02  0.45594000000E+02  0.51100000000E-03 0. -1.
    9900012    2    1    2    0    0 -0.58023221320E+00  0.42310905360E+00 -0.93656337623E+00  0.90007812875E+02  0.90000075205E+02 0.  0.
        -12    1    1    2    0    0  0.58023221320E+00 -0.42310905360E+00  0.93656337623E+00  0.11801871251E+01  0.00000000000E+00 0.  1.
         11    1    3    3    0    0  0.23726194050E+01 -0.28685634478E+02 -0.19742898545E+02  0.34903824883E+02  0.51100000000E-03 0. -1.
        -11    1    3    3    0    0  0.56854605845E+01 -0.47917878064E+01 -0.80811612017E+01  0.10981386937E+02  0.51100000000E-03 0.  1.
        -12    1    3    3    0    0 -0.86383122028E+01  0.33900531338E+02  0.26887496370E+02  0.44122601054E+02  0.00000000000E+00 0.  1.
</event>
<event>
 7    1  0.2349719E-015  0.9000774E+02  0.7816164E-02  0.1186339E+00
        -11   -1    0    0    0    0  0.00000000000E+00  0.00000000000E+00  0.45593999997E+02  0.45594000000E+02  0.51100000000E-03 0.  1.
         11   -1    0    0    0    0 -0.00000000000E+00 -0.00000000000E+00 -0.45593999997E+02  0.45594000000E+02  0.51100000000E-03 0. -1.
    9900012    2    1    2    0    0 -0.25293596007E+00 -0.11158532809E+01  0.28965347065E+00  0.90007743978E+02  0.90000005398E+02 0.  0.
        -12    1    1    2    0    0  0.25293596007E+00  0.11158532809E+01 -0.28965347065E+00  0.11802560220E+01  0.00000000000E+00 0.  1.
         11    1    3    3    0    0 -0.27050675872E+01 -0.33905532792E+01  0.86907909301E+01  0.97130370864E+01  0.51100000000E-03 0. -1.
        -11    1    3    3    0    0 -0.37788926807E+02  0.52043238195E-01  0.43132872123E+01  0.38034328501E+02  0.51100000000E-03 0.  1.
         12    1    3    3    0    0  0.40241058434E+02  0.22226567601E+01 -0.12714424672E+02  0.42260378390E+02  0.00000000000E+00 0. -1.
</event>
<event>
 7    1  0.2349719E-015  0.9000790E+02  0.7816164E-02  0.1186339E+00
        -11   -1    0    0    0    0  0.00000000000E+00  0.00000000000E+00  0.45593999997E+02  0.45594000000E+02  0.51100000000E-03 0.  1.
         11   -1    0    0    0    0 -0.00000000000E+00 -0.00000000000E+00 -0.45593999997E+02  0.45594000000E+02  0.51100000000E-03 0. -1.
    9900012    2    1    2    0    0  0.46517285236E+00 -0.96830464361E+00 -0.48851295370E+00  0.90007896373E+02  0.90000159805E+02 0.  0.
        -12    1    1    2    0    0 -0.46517285236E+00  0.96830464361E+00  0.48851295370E+00  0.11801036274E+01  0.00000000000E+00 0.  1.
         11    1    3    3    0    0  0.54110440236E+01  0.47694874581E+01 -0.55232967776E+01  0.90848343734E+01  0.51100000000E-03 0. -1.
        -11    1    3    3    0    0 -0.68159658762E+01  0.19276955697E+02  0.35800094187E+02  0.41227480590E+02  0.51100000000E-03 0.  1.
         12    1    3    3    0    0  0.18700947049E+01 -0.25014747798E+02 -0.30765310364E+02  0.39695581409E+02  0.00000000000E+00 0. -1.
</event>
<event>
 7    1  0.2349719E-015  0.9000768E+02  0.7816164E-02  0.1186339E+00
        -11   -1    0    0    0    0  0.00000000000E+00  0.00000000000E+00  0.45593999997E+02  0.45594000000E+02  0.51100000000E-03 0. -1.
         11   -1    0    0    0    0 -0.00000000000E+00 -0.00000000000E+00 -0.45593999997E+02  0.45594000000E+02  0.51100000000E-03 0.  1.
    9900012    2    1    2    0    0 -0.36111302350E+00  0.61819721915E+00  0.93839132088E+00  0.90007682802E+02  0.89999943415E+02 0.  0.
        -12    1    1    2    0    0  0.36111302350E+00 -0.61819721915E+00 -0.93839132088E+00  0.11803171983E+01  0.00000000000E+00 0.  1.
         11    1    3    3    0    0 -0.54258121782E+01  0.17531298108E+02 -0.29427728107E+02  0.34681076006E+02  0.51100000000E-03 0. -1.
        -11    1    3    3    0    0  0.96150043979E+01 -0.16359676384E+02 -0.50328912678E+01  0.19632048180E+02  0.51100000000E-03 0.  1.
         12    1    3    3    0    0 -0.45503052432E+01 -0.55342450478E+00  0.35399010696E+02  0.35694558615E+02  0.00000000000E+00 0. -1.
</event>
<event>
 7    1  0.2349719E-015  0.9000771E+02  0.7816164E-02  0.1186339E+00
        -11   -1    0    0    0    0  0.00000000000E+00  0.00000000000E+00  0.45593999997E+02  0.45594000000E+02  0.51100000000E-03 0. -1.
         11   -1    0    0    0    0 -0.00000000000E+00 -0.00000000000E+00 -0.45593999997E+02  0.45594000000E+02  0.51100000000E-03 0.  1.
    9900012    2    1    2    0    0  0.93106305784E+00  0.24428570010E+00  0.68303306261E+00  0.90007708474E+02  0.89999969426E+02 0.  0.
        -12    1    1    2    0    0 -0.93106305784E+00 -0.24428570010E+00 -0.68303306261E+00  0.11802915257E+01  0.00000000000E+00 0.  1.
         11    1    3    3    0    0 -0.44615857911E+01 -0.31390109981E+01 -0.65323169791E+01  0.85105994615E+01  0.51100000000E-03 0. -1.
        -11    1    3    3    0    0  0.86321668584E+01 -0.25024917151E+02 -0.26386626119E+02  0.37376661452E+02  0.51100000000E-03 0.  1.
         12    1    3    3    0    0 -0.32395180094E+01  0.28408213849E+02  0.33601976161E+02  0.44120447561E+02  0.00000000000E+00 0. -1.
</event>
<event>
 7    1  0.2349719E-015  0.9000770E+02  0.7816164E-02  0.1186339E+00
        -11   -1    0    0    0    0  0.00000000000E+00  0.00000000000E+00  0.45593999997E+02  0.45594000000E+02  0.51100000000E-03 0.  1.
         11   -1    0    0    0    0 -0.00000000000E+00 -0.00000000000E+00 -0.45593999997E+02  0.45594000000E+02  0.51100000000E-03 0. -1.
    9900012    2    1    2    0    0  0.54153477218E+00 -0.10397518218E+01 -0.13698546098E+00  0.90007699709E+02  0.89999960545E+02 0.  0.
        -12    1    1    2    0    0 -0.54153477218E+00  0.10397518218E+01  0.13698546098E+00  0.11803002910E+01  0.00000000000E+00 0.  1.
         11    1    3    3    0    0 -0.70125179330E+01 -0.48862507001E+01  0.21339853214E+01  0.88093556676E+01  0.51100000000E-03 0. -1.
        -11    1    3    3    0    0 -0.64312322141E+01 -0.36984759284E+02 -0.53952482701E+01  0.37925477864E+02  0.51100000000E-03 0.  1.
         12    1    3    3    0    0  0.13985284919E+02  0.40831258162E+02  0.31242774877E+01  0.43272866177E+02  0.00000000000E+00 0. -1.
</event>
<event>
 7    1  0.2349719E-015  0.9000756E+02  0.7816164E-02  0.1186339E+00
        -11   -1    0    0    0    0  0.00000000000E+00  0.00000000000E+00  0.45593999997E+02  0.45594000000E+02  0.51100000000E-03 0. -1.
         11   -1    0    0    0    0 -0.00000000000E+00 -0.00000000000E+00 -0.45593999997E+02  0.45594000000E+02  0.51100000000E-03 0.  1.
    9900012    2    1    2    0    0  0.23193453525E+00  0.75127980622E+00  0.88047164418E+00  0.90007557163E+02  0.89999816117E+02 0.  0.
        -12    1    1    2    0    0 -0.23193453525E+00 -0.75127980622E+00 -0.88047164418E+00  0.11804428373E+01  0.00000000000E+00 0.  1.
         11    1    3    3    0    0  0.30476296100E+02 -0.59979402610E+01  0.22174193122E+02  0.38163788494E+02  0.51100000000E-03 0. -1.
        -11    1    3    3    0    0 -0.90617612352E+01 -0.45661473978E+01  0.87377637015E+01  0.13390807799E+02  0.51100000000E-03 0.  1.
        -12    1    3    3    0    0 -0.21182600329E+02  0.11315367465E+02 -0.30031485179E+02  0.38452960870E+02  0.00000000000E+00 0.  1.
</event>
<event>
 7    1  0.2349719E-015  0.9000775E+02  0.7816164E-02  0.1186339E+00
        -11   -1    0    0    0    0  0.00000000000E+00  0.00000000000E+00  0.45593999997E+02  0.45594000000E+02  0.51100000000E-03 0.  1.
         11   -1    0    0    0    0 -0.00000000000E+00 -0.00000000000E+00 -0.45593999997E+02  0.45594000000E+02  0.51100000000E-03 0. -1.
    9900012    2    1    2    0    0  0.66216228421E+00  0.37655519361E+00 -0.90152500685E+00  0.90007745772E+02  0.90000007216E+02 0.  0.
        -12    1    1    2    0    0 -0.66216228421E+00 -0.37655519361E+00  0.90152500685E+00  0.11802542279E+01  0.00000000000E+00 0.  1.
         11    1    3    3    0    0 -0.29817998096E+02 -0.15460366342E+02 -0.17193904896E+02  0.37732827931E+02  0.51100000000E-03 0. -1.
        -11    1    3    3    0    0  0.35994184965E+00  0.72692245280E+01 -0.93161622115E+01  0.11822100574E+02  0.51100000000E-03 0.  1.
        -12    1    3    3    0    0  0.30120218530E+02  0.85676970072E+01  0.25608542100E+02  0.40452817267E+02  0.00000000000E+00 0.  1.
</event>
<event>
 7    1  0.2349719E-015  0.9000766E+02  0.7816164E-02  0.1186339E+00
        -11   -1    0    0    0    0  0.00000000000E+00  0.00000000000E+00  0.45593999997E+02  0.45594000000E+02  0.51100000000E-03 0.  1.
         11   -1    0    0    0    0 -0.00000000000E+00 -0.00000000000E+00 -0.45593999997E+02  0.45594000000E+02  0.51100000000E-03 0. -1.
    9900012    2    1    2    0    0 -0.68855871286E+00  0.87121896766E+00 -0.40008280945E+00  0.90007660284E+02  0.89999920600E+02 0.  0.
        -12    1    1    2    0    0  0.68855871286E+00 -0.87121896766E+00  0.40008280945E+00  0.11803397160E+01  0.00000000000E+00 0.  1.
         11    1    3    3    0    0  0.25786472450E+02 -0.44008471268E+01  0.25537278016E+02  0.36557655636E+02  0.51100000000E-03 0. -1.
        -11    1    3    3    0    0  0.80834271195E+01  0.63382337700E+00  0.24684677031E+01  0.84756627547E+01  0.51100000000E-03 0.  1.
        -12    1    3    3    0    0 -0.34558458283E+02  0.46382427175E+01 -0.28405828528E+02  0.44974341894E+02  0.00000000000E+00 0.  1.
</event>
<event>
 7    1  0.2349719E-015  0.9000778E+02  0.7816164E-02  0.1186339E+00
        -11   -1    0    0    0    0  0.00000000000E+00  0.00000000000E+00  0.45593999997E+02  0.45594000000E+02  0.51100000000E-03 0. -1.
         11   -1    0    0    0    0 -0.00000000000E+00 -0.00000000000E+00 -0.45593999997E+02  0.45594000000E+02  0.51100000000E-03 0.  1.
    9900012    2    1    2    0    0  0.11204579172E+01  0.15595187816E+00  0.33642065303E+00  0.90007777229E+02  0.90000039089E+02 0.  0.
        -12    1    1    2    0    0 -0.11204579172E+01 -0.15595187816E+00 -0.33642065303E+00  0.11802227707E+01  0.00000000000E+00 0.  1.
         11    1    3    3    0    0  0.33080274486E+01 -0.82208470830E+01 -0.34768998360E+01  0.95191493892E+01  0.51100000000E-03 0. -1.
        -11    1    3    3    0    0  0.41106999942E+01 -0.25261826415E+02 -0.24980155557E+02  0.35764030815E+02  0.51100000000E-03 0.  1.
         12    1    3    3    0    0 -0.62982695256E+01  0.33638625376E+02  0.28793476046E+02  0.44724597025E+02  0.00000000000E+00 0. -1.
</event>
<event>
 7    1  0.2349719E-015  0.9000775E+02  0.7816164E-02  0.1186339E+00
        -11   -1    0    0    0    0  0.00000000000E+00  0.00000000000E+00  0.45593999997E+02  0.45594000000E+02  0.51100000000E-03 0.  1.
         11   -1    0    0    0    0 -0.00000000000E+00 -0.00000000000E+00 -0.45593999997E+02  0.45594000000E+02  0.51100000000E-03 0. -1.
    9900012    2    1    2    0    0 -0.96420504056E-01  0.10519447811E+01 -0.52641602101E+00  0.90007746399E+02  0.90000007851E+02 0.  0.
        -12    1    1    2    0    0  0.96420504056E-01 -0.10519447811E+01  0.52641602101E+00  0.11802536012E+01  0.00000000000E+00 0.  1.
         11    1    3    3    0    0  0.25143625525E+02 -0.30534954251E+02  0.63829136336E+00  0.39559989279E+02  0.51100000000E-03 0. -1.
        -11    1    3    3    0    0 -0.10888255123E+02 -0.43596094082E+01 -0.23393393214E+00  0.11730942808E+02  0.51100000000E-03 0.  1.
        -12    1    3    3    0    0 -0.14351790906E+02  0.35946508440E+02 -0.93077345223E+00  0.38716814312E+02  0.00000000000E+00 0.  1.
</event>
<event>
 7    1  0.2349719E-015  0.9000770E+02  0.7816164E-02  0.1186339E+00
        -11   -1    0    0    0    0  0.00000000000E+00  0.00000000000E+00  0.45593999997E+02  0.45594000000E+02  0.51100000000E-03 0. -1.
         11   -1    0    0    0    0 -0.00000000000E+00 -0.00000000000E+00 -0.45593999997E+02  0.45594000000E+02  0.51100000000E-03 0.  1.
    9900012    2    1    2    0    0  0.64588213081E+00  0.98788389648E+00  0.49717351213E-02  0.90007702140E+02  0.89999963008E+02 0.  0.
        -12    1    1    2    0    0 -0.64588213081E+00 -0.98788389648E+00 -0.49717351213E-02  0.11802978599E+01  0.00000000000E+00 0.  1.
         11    1    3    3    0    0 -0.61971141812E+01  0.63253231373E+01  0.34687739572E+02  0.35800184550E+02  0.51100000000E-03 0. -1.
        -11    1    3    3    0    0  0.28873105086E+01  0.82796927050E+01  0.63285814934E+01  0.10813917756E+02  0.51100000000E-03 0.  1.
        -12    1    3    3    0    0  0.39556858033E+01 -0.13617131946E+02 -0.41011349330E+02  0.43393599833E+02  0.00000000000E+00 0.  1.
</event>
<event>
 7    1  0.2349719E-015  0.9000772E+02  0.7816164E-02  0.1186339E+00
        -11   -1    0    0    0    0  0.00000000000E+00  0.00000000000E+00  0.45593999997E+02  0.45594000000E+02  0.51100000000E-03 0. -1.
         11   -1    0    0    0    0 -0.00000000000E+00 -0.00000000000E+00 -0.45593999997E+02  0.45594000000E+02  0.51100000000E-03 0.  1.
    9900012    2    1    2    0    0 -0.67875769223E+00  0.23646883648E+00  0.93618279885E+00  0.90007717090E+02  0.89999978155E+02 0.  0.
        -12    1    1    2    0    0  0.67875769223E+00 -0.23646883648E+00 -0.93618279885E+00  0.11802829103E+01  0.00000000000E+00 0.  1.
         11    1    3    3    0    0 -0.98510717194E+01 -0.41474697812E+02  0.23836718247E+01  0.42695152702E+02  0.51100000000E-03 0. -1.
        -11    1    3    3    0    0  0.77617711465E+01  0.36292329027E+01 -0.32447943311E+01  0.91621565859E+01  0.51100000000E-03 0.  1.
        -12    1    3    3    0    0  0.14105428807E+01  0.38081933746E+02  0.17973053052E+01  0.38150407802E+02  0.00000000000E+00 0.  1.
</event>
<event>
 7    1  0.3270067E-015  0.9000779E+02  0.7816164E-02  0.1186339E+00
        -11   -1    0    0    0    0  0.00000000000E+00  0.00000000000E+00  0.45593999997E+02  0.45594000000E+02  0.51100000000E-03 0.  1.
         11   -1    0    0    0    0 -0.00000000000E+00 -0.00000000000E+00 -0.45593999997E+02  0.45594000000E+02  0.51100000000E-03 0. -1.
    9900012    2    1    2    0    0 -0.24031192205E+00  0.11089353129E+01 -0.32466620662E+00  0.90007790064E+02  0.90000052092E+02 0.  0.
        -12    1    1    2    0    0  0.24031192205E+00 -0.11089353129E+01  0.32466620662E+00  0.11802099363E+01  0.00000000000E+00 0.  1.
         11    1    3    3    0    0  0.82684483724E+01  0.26889505840E+02 -0.23438538881E+02  0.36616633761E+02  0.51100000000E-03 0. -1.
        -11    1    3    3    0    0  0.55924304244E+01  0.46283291096E+01 -0.56683503559E+01  0.92101522472E+01  0.51100000000E-03 0.  1.
        -12    1    3    3    0    0 -0.14101190719E+02 -0.30408899637E+02  0.28782223030E+02  0.44181004056E+02  0.00000000000E+00 0.  1.
</event>
<event>
 7    1  0.2349719E-015  0.9000784E+02  0.7816164E-02  0.1186339E+00
        -11   -1    0    0    0    0  0.00000000000E+00  0.00000000000E+00  0.45593999997E+02  0.45594000000E+02  0.51100000000E-03 0.  1.
         11   -1    0    0    0    0 -0.00000000000E+00 -0.00000000000E+00 -0.45593999997E+02  0.45594000000E+02  0.51100000000E-03 0. -1.
    9900012    2    1    2    0    0  0.56063874084E+00 -0.79203813551E+00 -0.67165926552E+00  0.90007844767E+02  0.90000107518E+02 0.  0.
        -12    1    1    2    0    0 -0.56063874084E+00  0.79203813551E+00  0.67165926552E+00  0.11801552333E+01  0.00000000000E+00 0.  1.
         11    1    3    3    0    0 -0.55045817706E+01 -0.72876055319E+01 -0.52085104405E+01  0.10513714668E+02  0.51100000000E-03 0. -1.
        -11    1    3    3    0    0 -0.33555390620E+02  0.10151516984E+02  0.15337107728E+02  0.38265446691E+02  0.51100000000E-03 0.  1.
         12    1    3    3    0    0  0.39620611132E+02 -0.36559495878E+01 -0.10800256553E+02  0.41228683407E+02  0.00000000000E+00 0. -1.
</event>
<event>
 7    1  0.2455325E-015  0.9000773E+02  0.7816164E-02  0.1186339E+00
        -11   -1    0    0    0    0  0.00000000000E+00  0.00000000000E+00  0.45593999997E+02  0.45594000000E+02  0.51100000000E-03 0.  1.
         11   -1    0    0    0    0 -0.00000000000E+00 -0.00000000000E+00 -0.45593999997E+02  0.45594000000E+02  0.51100000000E-03 0. -1.
    9900012    2    1    2    0    0 -0.10355043656E+01  0.46001229308E+00 -0.33040082306E+00  0.90007726597E+02  0.89999987789E+02 0.  0.
        -12    1    1    2    0    0  0.10355043656E+01 -0.46001229308E+00  0.33040082306E+00  0.11802734025E+01  0.00000000000E+00 0.  1.
         11    1    3    3    0    0 -0.22111552951E+02  0.19509577852E+02 -0.23644119995E+02  0.37796677268E+02  0.51100000000E-03 0. -1.
        -11    1    3    3    0    0  0.21340678051E+01  0.81697365473E+01 -0.39110063470E+01  0.93056333238E+01  0.51100000000E-03 0.  1.
        -12    1    3    3    0    0  0.18941980780E+02 -0.27219302107E+02  0.27224725519E+02  0.42905416006E+02  0.00000000000E+00 0.  1.
</event>
<event>
 7    1  0.2349719E-015  0.9000844E+02  0.7816164E-02  0.1186338E+00
        -11   -1    0    0    0    0  0.00000000000E+00  0.00000000000E+00  0.45593999997E+02  0.45594000000E+02  0.51100000000E-03 0.  1.
         11   -1    0    0    0    0 -0.00000000000E+00 -0.00000000000E+00 -0.45593999997E+02  0.45594000000E+02  0.51100000000E-03 0. -1.
    9900012    2    1    2    0    0 -0.55199801895E+00  0.87331510670E+00 -0.56918761263E+00  0.90008442614E+02  0.90000713254E+02 0.  0.
        -12    1    1    2    0    0  0.55199801895E+00 -0.87331510670E+00  0.56918761263E+00  0.11795573860E+01  0.00000000000E+00 0.  1.
         11    1    3    3    0    0 -0.10556200211E+02  0.26072574238E+01  0.53253430882E+01  0.12107453631E+02  0.51100000000E-03 0. -1.
        -11    1    3    3    0    0 -0.31350596911E+02 -0.10870377091E+02 -0.11633376310E+02  0.35161917886E+02  0.51100000000E-03 0.  1.
         12    1    3    3    0    0  0.41354799103E+02  0.91364347740E+01  0.57388456096E+01  0.42739071096E+02  0.00000000000E+00 0. -1.
</event>
<event>
 7    1  0.2349719E-015  0.9000774E+02  0.7816164E-02  0.1186339E+00
        -11   -1    0    0    0    0  0.00000000000E+00  0.00000000000E+00  0.45593999997E+02  0.45594000000E+02  0.51100000000E-03 0. -1.
         11   -1    0    0    0    0 -0.00000000000E+00 -0.00000000000E+00 -0.45593999997E+02  0.45594000000E+02  0.51100000000E-03 0.  1.
    9900012    2    1    2    0    0  0.12356956903E+00  0.10862282895E+01  0.44481883924E+00  0.90007735142E+02  0.89999996446E+02 0.  0.
        -12    1    1    2    0    0 -0.12356956903E+00 -0.10862282895E+01 -0.44481883924E+00  0.11802648580E+01  0.00000000000E+00 0.  1.
         11    1    3    3    0    0 -0.32400084977E+01 -0.74498998235E+01  0.33985828164E+02  0.34943313791E+02  0.51100000000E-03 0. -1.
        -11    1    3    3    0    0 -0.36149703575E+01 -0.66517829100E+00  0.96657043010E+01  0.10341001535E+02  0.51100000000E-03 0.  1.
        -12    1    3    3    0    0  0.69785484243E+01  0.92013064040E+01 -0.43206713626E+02  0.44723419816E+02  0.00000000000E+00 0.  1.
</event>
<event>
 7    1  0.2349719E-015  0.9000778E+02  0.7816164E-02  0.1186339E+00
        -11   -1    0    0    0    0  0.00000000000E+00  0.00000000000E+00  0.45593999997E+02  0.45594000000E+02  0.51100000000E-03 0. -1.
         11   -1    0    0    0    0 -0.00000000000E+00 -0.00000000000E+00 -0.45593999997E+02  0.45594000000E+02  0.51100000000E-03 0.  1.
    9900012    2    1    2    0    0  0.11663386575E+01 -0.17136148848E+00 -0.56577488356E-01  0.90007783225E+02  0.90000045164E+02 0.  0.
        -12    1    1    2    0    0 -0.11663386575E+01  0.17136148848E+00  0.56577488356E-01  0.11802167749E+01  0.00000000000E+00 0.  1.
         11    1    3    3    0    0 -0.10455779518E+01 -0.92786117901E+01 -0.21836121680E+01  0.95892665186E+01  0.51100000000E-03 0. -1.
        -11    1    3    3    0    0  0.22318306381E+02 -0.29414266593E+02  0.17325898898E+01  0.36963600297E+02  0.51100000000E-03 0.  1.
         12    1    3    3    0    0 -0.20106389772E+02  0.38521516894E+02  0.39444478979E+00  0.43454916410E+02  0.00000000000E+00 0. -1.
</event>
<event>
 7    1  0.2349719E-015  0.9000774E+02  0.7816164E-02  0.1186339E+00
        -11   -1    0    0    0    0  0.00000000000E+00  0.00000000000E+00  0.45593999997E+02  0.45594000000E+02  0.51100000000E-03 0.  1.
         11   -1    0    0    0    0 -0.00000000000E+00 -0.00000000000E+00 -0.45593999997E+02  0.45594000000E+02  0.51100000000E-03 0. -1.
    9900012    2    1    2    0    0  0.11356147597E+01  0.20344955846E+00  0.24900082039E+00  0.90007739853E+02  0.90000001219E+02 0.  0.
        -12    1    1    2    0    0 -0.11356147597E+01 -0.20344955846E+00 -0.24900082039E+00  0.11802601467E+01  0.00000000000E+00 0.  1.
         11    1    3    3    0    0 -0.27042728258E+02  0.10523968856E+01 -0.29643032649E+02  0.40138835007E+02  0.51100000000E-03 0. -1.
        -11    1    3    3    0    0 -0.48451682445E+01  0.22399738672E+01  0.96057751613E+01  0.10989269992E+02  0.51100000000E-03 0.  1.
        -12    1    3    3    0    0  0.33023511263E+02 -0.30889211944E+01  0.20286258308E+02  0.38879634854E+02  0.00000000000E+00 0.  1.
</event>
<event>
 7    1  0.2349719E-015  0.9000777E+02  0.7816164E-02  0.1186339E+00
        -11   -1    0    0    0    0  0.00000000000E+00  0.00000000000E+00  0.45593999997E+02  0.45594000000E+02  0.51100000000E-03 0.  1.
         11   -1    0    0    0    0 -0.00000000000E+00 -0.00000000000E+00 -0.45593999997E+02  0.45594000000E+02  0.51100000000E-03 0. -1.
    9900012    2    1    2    0    0  0.91533459452E+00  0.12252387105E+00 -0.73491453693E+00  0.90007767440E+02  0.90000029170E+02 0.  0.
        -12    1    1    2    0    0 -0.91533459452E+00 -0.12252387105E+00  0.73491453693E+00  0.11802325599E+01  0.00000000000E+00 0.  1.
         11    1    3    3    0    0  0.25883568484E+02 -0.19126930743E+02 -0.19262075903E+02  0.37507681419E+02  0.51100000000E-03 0. -1.
        -11    1    3    3    0    0  0.22442553642E+01 -0.40982977407E+01 -0.70491190691E+01  0.84571157271E+01  0.51100000000E-03 0.  1.
        -12    1    3    3    0    0 -0.27212489253E+02  0.23347752355E+02  0.25576280436E+02  0.44042970294E+02  0.00000000000E+00 0.  1.
</event>
<event>
 7    1  0.2349719E-015  0.9000771E+02  0.7816164E-02  0.1186339E+00
        -11   -1    0    0    0    0  0.00000000000E+00  0.00000000000E+00  0.45593999997E+02  0.45594000000E+02  0.51100000000E-03 0. -1.
         11   -1    0    0    0    0 -0.00000000000E+00 -0.00000000000E+00 -0.45593999997E+02  0.45594000000E+02  0.51100000000E-03 0.  1.
    9900012    2    1    2    0    0 -0.20126371620E+00 -0.10915524105E+01 -0.40136715660E+00  0.90007707942E+02  0.89999968887E+02 0.  0.
        -12    1    1    2    0    0  0.20126371620E+00  0.10915524105E+01  0.40136715660E+00  0.11802920582E+01  0.00000000000E+00 0.  1.
         11    1    3    3    0    0 -0.81144753321E+01  0.25387965079E+02  0.29924279130E+02  0.40073132676E+02  0.51100000000E-03 0. -1.
        -11    1    3    3    0    0 -0.51306879290E+00 -0.77463388140E+01  0.48835435809E+01  0.91715867098E+01  0.51100000000E-03 0.  1.
        -12    1    3    3    0    0  0.84262804088E+01 -0.18733178676E+02 -0.35209189868E+02  0.40762988555E+02  0.00000000000E+00 0.  1.
</event>
<event>
 7    1  0.2349719E-015  0.9000795E+02  0.7816164E-02  0.1186339E+00
        -11   -1    0    0    0    0  0.00000000000E+00  0.00000000000E+00  0.45593999997E+02  0.45594000000E+02  0.51100000000E-03 0.  1.
         11   -1    0    0    0    0 -0.00000000000E+00 -0.00000000000E+00 -0.45593999997E+02  0.45594000000E+02  0.51100000000E-03 0. -1.
    9900012    2    1    2    0    0 -0.90602028730E+00 -0.39948298256E+00 -0.64191235148E+00  0.90007953017E+02  0.90000217197E+02 0.  0.
        -12    1    1    2    0    0  0.90602028730E+00  0.39948298256E+00  0.64191235148E+00  0.11800469827E+01  0.00000000000E+00 0.  1.
         11    1    3    3    0    0  0.10147584642E+02 -0.48866310887E+01  0.11114608854E+01  0.11317596168E+02  0.51100000000E-03 0. -1.
        -11    1    3    3    0    0  0.28915543052E+02 -0.82909730946E+01  0.14870183141E+02  0.33555494510E+02  0.51100000000E-03 0.  1.
         12    1    3    3    0    0 -0.39969147981E+02  0.12778121201E+02 -0.16623556378E+02  0.45134862340E+02  0.00000000000E+00 0. -1.
</event>
<event>
 7    1  0.2349719E-015  0.9000765E+02  0.7816164E-02  0.1186339E+00
        -11   -1    0    0    0    0  0.00000000000E+00  0.00000000000E+00  0.45593999997E+02  0.45594000000E+02  0.51100000000E-03 0. -1.
         11   -1    0    0    0    0 -0.00000000000E+00 -0.00000000000E+00 -0.45593999997E+02  0.45594000000E+02  0.51100000000E-03 0.  1.
    9900012    2    1    2    0    0 -0.11259952132E+01 -0.23151385833E+00 -0.26786932967E+00  0.90007653498E+02  0.89999913724E+02 0.  0.
        -12    1    1    2    0    0  0.11259952132E+01  0.23151385833E+00  0.26786932967E+00  0.11803465019E+01  0.00000000000E+00 0.  1.
         11    1    3    3    0    0 -0.78502802796E+01  0.86654588674E+00 -0.64305667048E+01  0.10184792126E+02  0.51100000000E-03 0. -1.
        -11    1    3    3    0    0 -0.18005414905E+02 -0.26763160202E+02 -0.17832672540E+02  0.36857372669E+02  0.51100000000E-03 0.  1.
         12    1    3    3    0    0  0.24729699972E+02  0.25665100457E+02  0.23995369915E+02  0.42965488703E+02  0.00000000000E+00 0. -1.
</event>
<event>
 7    1  0.2349719E-015  0.9000771E+02  0.7816164E-02  0.1186339E+00
        -11   -1    0    0    0    0  0.00000000000E+00  0.00000000000E+00  0.45593999997E+02  0.45594000000E+02  0.51100000000E-03 0.  1.
         11   -1    0    0    0    0 -0.00000000000E+00 -0.00000000000E+00 -0.45593999997E+02  0.45594000000E+02  0.51100000000E-03 0. -1.
    9900012    2    1    2    0    0 -0.85936075197E+00 -0.71756241338E+00 -0.37373940497E+00  0.90007712805E+02  0.89999973814E+02 0.  0.
        -12    1    1    2    0    0  0.85936075197E+00  0.71756241338E+00  0.37373940497E+00  0.11802871947E+01  0.00000000000E+00 0.  1.
         11    1    3    3    0    0 -0.68738492939E+01  0.15443907404E+01 -0.49333874257E+01  0.86007708159E+01  0.51100000000E-03 0. -1.
        -11    1    3    3    0    0 -0.19488378380E+02 -0.30540373656E+02  0.18720396597E+02  0.40779462526E+02  0.51100000000E-03 0.  1.
         12    1    3    3    0    0  0.25502866922E+02  0.28278420502E+02 -0.14160748576E+02  0.40627479463E+02  0.00000000000E+00 0. -1.
</event>
<event>
 7    1  0.2349719E-015  0.9000773E+02  0.7816164E-02  0.1186339E+00
        -11   -1    0    0    0    0  0.00000000000E+00  0.00000000000E+00  0.45593999997E+02  0.45594000000E+02  0.51100000000E-03 0.  1.
         11   -1    0    0    0    0 -0.00000000000E+00 -0.00000000000E+00 -0.45593999997E+02  0.45594000000E+02  0.51100000000E-03 0. -1.
    9900012    2    1    2    0    0 -0.25059922863E+00 -0.39393308664E+00 -0.10839986223E+01  0.90007730428E+02  0.89999991669E+02 0.  0.
        -12    1    1    2    0    0  0.25059922863E+00  0.39393308664E+00  0.10839986223E+01  0.11802695723E+01  0.00000000000E+00 0.  1.
         11    1    3    3    0    0  0.25993865060E+02 -0.32095101721E+02  0.10255183602E+02  0.42555203750E+02  0.51100000000E-03 0. -1.
        -11    1    3    3    0    0  0.19901926084E+01  0.51232314377E+01 -0.62837835989E+01  0.83483114198E+01  0.51100000000E-03 0.  1.
        -12    1    3    3    0    0 -0.28234656897E+02  0.26577937196E+02 -0.50553986255E+01  0.39104215258E+02  0.00000000000E+00 0.  1.
</event>
<event>
 7    1  0.2349719E-015  0.9000689E+02  0.7816164E-02  0.1186341E+00
        -11   -1    0    0    0    0  0.00000000000E+00  0.00000000000E+00  0.45593999997E+02  0.45594000000E+02  0.51100000000E-03 0.  1.
         11   -1    0    0    0    0 -0.00000000000E+00 -0.00000000000E+00 -0.45593999997E+02  0.45594000000E+02  0.51100000000E-03 0. -1.
    9900012    2    1    2    0    0 -0.93887295512E+00  0.69536622531E+00 -0.17318619675E+00  0.90006894555E+02  0.89999144759E+02 0.  0.
        -12    1    1    2    0    0  0.93887295512E+00 -0.69536622531E+00  0.17318619675E+00  0.11811054449E+01  0.00000000000E+00 0.  1.
         11    1    3    3    0    0 -0.10692029935E+01  0.99096766962E+01  0.12641197258E+01  0.10047033702E+02  0.51100000000E-03 0. -1.
        -11    1    3    3    0    0 -0.14984607708E+02  0.17677232957E+02  0.28663265790E+02  0.36859270736E+02  0.51100000000E-03 0.  1.
         12    1    3    3    0    0  0.15114937746E+02 -0.26891543428E+02 -0.30100571713E+02  0.43100590117E+02  0.00000000000E+00 0. -1.
</event>
<event>
 7    1  0.2349719E-015  0.9000772E+02  0.7816164E-02  0.1186339E+00
        -11   -1    0    0    0    0  0.00000000000E+00  0.00000000000E+00  0.45593999997E+02  0.45594000000E+02  0.51100000000E-03 0.  1.
         11   -1    0    0    0    0 -0.00000000000E+00 -0.00000000000E+00 -0.45593999997E+02  0.45594000000E+02  0.51100000000E-03 0. -1.
    9900012    2    1    2    0    0  0.20349307614E+00  0.10341027205E+01 -0.53131159699E+00  0.90007716186E+02  0.89999977240E+02 0.  0.
        -12    1    1    2    0    0 -0.20349307614E+00 -0.10341027205E+01  0.53131159699E+00  0.11802838140E+01  0.00000000000E+00 0.  1.
         11    1    3    3    0    0 -0.73121026579E+01  0.45321873035E+00  0.76913722233E+01  0.10622121231E+02  0.51100000000E-03 0. -1.
        -11    1    3    3    0    0 -0.25634318903E+02 -0.12482889114E+02  0.19242296064E+02  0.34397772956E+02  0.51100000000E-03 0.  1.
         12    1    3    3    0    0  0.33149914637E+02  0.13063773104E+02 -0.27464979885E+02  0.44987821999E+02  0.00000000000E+00 0. -1.
</event>
<event>
 7    1  0.2349719E-015  0.9000773E+02  0.7816164E-02  0.1186339E+00
        -11   -1    0    0    0    0  0.00000000000E+00  0.00000000000E+00  0.45593999997E+02  0.45594000000E+02  0.51100000000E-03 0.  1.
         11   -1    0    0    0    0 -0.00000000000E+00 -0.00000000000E+00 -0.45593999997E+02  0.45594000000E+02  0.51100000000E-03 0. -1.
    9900012    2    1    2    0    0 -0.96578092586E+00  0.67730764081E+00  0.39547274813E-01  0.90007727818E+02  0.89999989025E+02 0.  0.
        -12    1    1    2    0    0  0.96578092586E+00 -0.67730764081E+00 -0.39547274813E-01  0.11802721822E+01  0.00000000000E+00 0.  1.
         11    1    3    3    0    0  0.45081908739E+01 -0.60436126311E+01 -0.27912536553E+01  0.80399089435E+01  0.51100000000E-03 0. -1.
        -11    1    3    3    0    0 -0.16659662113E+02  0.41486230629E+02 -0.37341309150E+01  0.44861959470E+02  0.51100000000E-03 0.  1.
         12    1    3    3    0    0  0.11185690313E+02 -0.34765310357E+02  0.65649318452E+01  0.37105859404E+02  0.00000000000E+00 0. -1.
</event>
<event>
 7    1  0.2349719E-015  0.9000802E+02  0.7816164E-02  0.1186338E+00
        -11   -1    0    0    0    0  0.00000000000E+00  0.00000000000E+00  0.45593999997E+02  0.45594000000E+02  0.51100000000E-03 0. -1.
         11   -1    0    0    0    0 -0.00000000000E+00 -0.00000000000E+00 -0.45593999997E+02  0.45594000000E+02  0.51100000000E-03 0.  1.
    9900012    2    1    2    0    0  0.56689827362E+00  0.89433173230E+00 -0.52071963510E+00  0.90008020408E+02  0.90000285477E+02 0.  0.
        -12    1    1    2    0    0 -0.56689827362E+00 -0.89433173230E+00  0.52071963510E+00  0.11799795924E+01  0.00000000000E+00 0.  1.
         11    1    3    3    0    0 -0.36392974829E+01 -0.32951638761E+02  0.18405278015E+02  0.37918455168E+02  0.51100000000E-03 0. -1.
        -11    1    3    3    0    0  0.21421067766E+01 -0.59482511585E+01 -0.90441864207E+01  0.11034836726E+02  0.51100000000E-03 0.  1.
        -12    1    3    3    0    0  0.20640889799E+01  0.39794221652E+02 -0.98818112296E+01  0.41054728514E+02  0.00000000000E+00 0.  1.
</event>
<event>
 7    1  0.2349719E-015  0.9000757E+02  0.7816164E-02  0.1186339E+00
        -11   -1    0    0    0    0  0.00000000000E+00  0.00000000000E+00  0.45593999997E+02  0.45594000000E+02  0.51100000000E-03 0.  1.
         11   -1    0    0    0    0 -0.00000000000E+00 -0.00000000000E+00 -0.45593999997E+02  0.45594000000E+02  0.51100000000E-03 0. -1.
    9900012    2    1    2    0    0  0.41605048873E+00  0.24618753602E+00 -0.10769022625E+01  0.90007565845E+02  0.89999824914E+02 0.  0.
        -12    1    1    2    0    0 -0.41605048873E+00 -0.24618753602E+00  0.10769022625E+01  0.11804341553E+01  0.00000000000E+00 0.  1.
         11    1    3    3    0    0 -0.25710270111E+02 -0.26044784247E+02 -0.50312483223E+01  0.36941335054E+02  0.51100000000E-03 0. -1.
        -11    1    3    3    0    0  0.41119494571E+01 -0.96306825184E+01 -0.15193246990E+01  0.10581423435E+02  0.51100000000E-03 0.  1.
        -12    1    3    3    0    0  0.22014371142E+02  0.35921654301E+02  0.54736707588E+01  0.42484807356E+02  0.00000000000E+00 0.  1.
</event>
<event>
 7    1  0.2349719E-015  0.9000771E+02  0.7816164E-02  0.1186339E+00
        -11   -1    0    0    0    0  0.00000000000E+00  0.00000000000E+00  0.45593999997E+02  0.45594000000E+02  0.51100000000E-03 0. -1.
         11   -1    0    0    0    0 -0.00000000000E+00 -0.00000000000E+00 -0.45593999997E+02  0.45594000000E+02  0.51100000000E-03 0.  1.
    9900012    2    1    2    0    0  0.25198869870E+00  0.87090072521E+00  0.75571949793E+00  0.90007712604E+02  0.89999973610E+02 0.  0.
        -12    1    1    2    0    0 -0.25198869870E+00 -0.87090072521E+00 -0.75571949793E+00  0.11802873959E+01  0.00000000000E+00 0.  1.
         11    1    3    3    0    0  0.53660737234E+01  0.36003060001E+02  0.14819360201E+02  0.39301762220E+02  0.51100000000E-03 0. -1.
        -11    1    3    3    0    0 -0.87048835187E+01  0.28241826643E+01  0.19443336680E+01  0.93558237729E+01  0.51100000000E-03 0.  1.
        -12    1    3    3    0    0  0.35907984940E+01 -0.37956341940E+02 -0.16007974371E+02  0.41350126611E+02  0.00000000000E+00 0.  1.
</event>
<event>
 7    1  0.2349719E-015  0.9000749E+02  0.7816164E-02  0.1186340E+00
        -11   -1    0    0    0    0  0.00000000000E+00  0.00000000000E+00  0.45593999997E+02  0.45594000000E+02  0.51100000000E-03 0. -1.
         11   -1    0    0    0    0 -0.00000000000E+00 -0.00000000000E+00 -0.45593999997E+02  0.45594000000E+02  0.51100000000E-03 0.  1.
    9900012    2    1    2    0    0 -0.78210844772E+00  0.19521282219E+00  0.86244184437E+00  0.90007488414E+02  0.89999746461E+02 0.  0.
        -12    1    1    2    0    0  0.78210844772E+00 -0.19521282219E+00 -0.86244184437E+00  0.11805115861E+01  0.00000000000E+00 0.  1.
         11    1    3    3    0    0  0.27479013936E+02 -0.11967052792E+02  0.52144010427E+01  0.30421974589E+02  0.51100000000E-03 0. -1.
        -11    1    3    3    0    0 -0.17235542719E+02 -0.17706492749E+02  0.71649170651E+01  0.25727803153E+02  0.51100000000E-03 0.  1.
        -12    1    3    3    0    0 -0.11025579664E+02  0.29868758362E+02 -0.11516876263E+02  0.33857710672E+02  0.00000000000E+00 0.  1.
</event>
<event>
 7    1  0.2349719E-015  0.9000769E+02  0.7816164E-02  0.1186339E+00
        -11   -1    0    0    0    0  0.00000000000E+00  0.00000000000E+00  0.45593999997E+02  0.45594000000E+02  0.51100000000E-03 0. -1.
         11   -1    0    0    0    0 -0.00000000000E+00 -0.00000000000E+00 -0.45593999997E+02  0.45594000000E+02  0.51100000000E-03 0.  1.
    9900012    2    1    2    0    0  0.11760071544E+01  0.93502205294E-01  0.37378036867E-01  0.90007689614E+02  0.89999950317E+02 0.  0.
        -12    1    1    2    0    0 -0.11760071544E+01 -0.93502205294E-01 -0.37378036867E-01  0.11803103860E+01  0.00000000000E+00 0.  1.
         11    1    3    3    0    0  0.20719956649E+01 -0.10190508529E+02  0.25385796557E+01  0.10704392418E+02  0.51100000000E-03 0. -1.
        -11    1    3    3    0    0 -0.37407971300E+02 -0.81722457678E+01  0.35813331963E+00  0.38291907466E+02  0.51100000000E-03 0.  1.
         12    1    3    3    0    0  0.36511982790E+02  0.18456256502E+02 -0.28593349385E+01  0.41011389730E+02  0.00000000000E+00 0. -1.
</event>
<event>
 7    1  0.2349719E-015  0.9000794E+02  0.7816164E-02  0.1186339E+00
        -11   -1    0    0    0    0  0.00000000000E+00  0.00000000000E+00  0.45593999997E+02  0.45594000000E+02  0.51100000000E-03 0. -1.
         11   -1    0    0    0    0 -0.00000000000E+00 -0.00000000000E+00 -0.45593999997E+02  0.45594000000E+02  0.51100000000E-03 0.  1.
    9900012    2    1    2    0    0 -0.17431888403E-02  0.10284492419E+01  0.57863859115E+00  0.90007943433E+02  0.90000207486E+02 0.  0.
        -12    1    1    2    0    0  0.17431888403E-02 -0.10284492419E+01 -0.57863859115E+00  0.11800565669E+01  0.00000000000E+00 0.  1.
         11    1    3    3    0    0 -0.63268567472E+01 -0.19852556205E+02 -0.29424890760E+02  0.36055197970E+02  0.51100000000E-03 0. -1.
        -11    1    3    3    0    0  0.20936672828E+01 -0.14112343392E+01 -0.87161225714E+01  0.90744596529E+01  0.51100000000E-03 0.  1.
        -12    1    3    3    0    0  0.42314462756E+01  0.22292239786E+02  0.38719651923E+02  0.44878285810E+02  0.00000000000E+00 0.  1.
</event>
<event>
 7    1  0.2349719E-015  0.9000806E+02  0.7816164E-02  0.1186338E+00
        -11   -1    0    0    0    0  0.00000000000E+00  0.00000000000E+00  0.45593999997E+02  0.45594000000E+02  0.51100000000E-03 0.  1.
         11   -1    0    0    0    0 -0.00000000000E+00 -0.00000000000E+00 -0.45593999997E+02  0.45594000000E+02  0.51100000000E-03 0. -1.
    9900012    2    1    2    0    0  0.69128343707E+00  0.22348251301E+00 -0.92975082952E+00  0.90008061938E+02  0.90000327555E+02 0.  0.
        -12    1    1    2    0    0 -0.69128343707E+00 -0.22348251301E+00  0.92975082952E+00  0.11799380615E+01  0.00000000000E+00 0.  1.
         11    1    3    3    0    0 -0.19798077948E+02 -0.26788342604E+02  0.16614971747E+02  0.37224138355E+02  0.51100000000E-03 0. -1.
        -11    1    3    3    0    0 -0.10526282940E+02  0.65437827225E+01 -0.66152533578E+01  0.14049387962E+02  0.51100000000E-03 0.  1.
        -12    1    3    3    0    0  0.31015644325E+02  0.20468042394E+02 -0.10929469219E+02  0.38734535621E+02  0.00000000000E+00 0.  1.
</event>
<event>
 7    1  0.2349719E-015  0.9000769E+02  0.7816164E-02  0.1186339E+00
        -11   -1    0    0    0    0  0.00000000000E+00  0.00000000000E+00  0.45593999997E+02  0.45594000000E+02  0.51100000000E-03 0.  1.
         11   -1    0    0    0    0 -0.00000000000E+00 -0.00000000000E+00 -0.45593999997E+02  0.45594000000E+02  0.51100000000E-03 0. -1.
    9900012    2    1    2    0    0 -0.59708218448E+00 -0.10179414732E+01  0.20743145730E-01  0.90007685527E+02  0.89999946176E+02 0.  0.
        -12    1    1    2    0    0  0.59708218448E+00  0.10179414732E+01 -0.20743145730E-01  0.11803144733E+01  0.00000000000E+00 0.  1.
         11    1    3    3    0    0 -0.29653224659E+02 -0.19563834519E+02 -0.19237573417E+02  0.40399772091E+02  0.51100000000E-03 0. -1.
        -11    1    3    3    0    0 -0.33243655872E+01  0.10804144601E+02  0.32702712517E+00  0.11308752987E+02  0.51100000000E-03 0.  1.
        -12    1    3    3    0    0  0.32380508062E+02  0.77417484449E+01  0.18931289437E+02  0.38299160449E+02  0.00000000000E+00 0.  1.
</event>
<event>
 7    1  0.2349719E-015  0.9000774E+02  0.7816164E-02  0.1186339E+00
        -11   -1    0    0    0    0  0.00000000000E+00  0.00000000000E+00  0.45593999997E+02  0.45594000000E+02  0.51100000000E-03 0.  1.
         11   -1    0    0    0    0 -0.00000000000E+00 -0.00000000000E+00 -0.45593999997E+02  0.45594000000E+02  0.51100000000E-03 0. -1.
    9900012    2    1    2    0    0 -0.44348134796E+00 -0.10365207863E+01  0.34922768713E+00  0.90007741120E+02  0.90000002503E+02 0.  0.
        -12    1    1    2    0    0  0.44348134796E+00  0.10365207863E+01 -0.34922768713E+00  0.11802588800E+01  0.00000000000E+00 0.  1.
         11    1    3    3    0    0 -0.17128226780E+02  0.29192506735E+02  0.10993262833E+02  0.35586941848E+02  0.51100000000E-03 0. -1.
        -11    1    3    3    0    0  0.10478986268E+01  0.68068453459E+01  0.76146434538E+01  0.10267133499E+02  0.51100000000E-03 0.  1.
        -12    1    3    3    0    0  0.15636846805E+02 -0.37035872867E+02 -0.18258678600E+02  0.44153665773E+02  0.00000000000E+00 0.  1.
</event>
<event>
 7    1  0.2349719E-015  0.9000771E+02  0.7816164E-02  0.1186339E+00
        -11   -1    0    0    0    0  0.00000000000E+00  0.00000000000E+00  0.45593999997E+02  0.45594000000E+02  0.51100000000E-03 0.  1.
         11   -1    0    0    0    0 -0.00000000000E+00 -0.00000000000E+00 -0.45593999997E+02  0.45594000000E+02  0.51100000000E-03 0. -1.
    9900012    2    1    2    0    0 -0.94460170026E+00 -0.59144955290E-01 -0.70519992782E+00  0.90007712986E+02  0.89999973997E+02 0.  0.
        -12    1    1    2    0    0  0.94460170026E+00  0.59144955290E-01  0.70519992782E+00  0.11802870143E+01  0.00000000000E+00 0.  1.
         11    1    3    3    0    0 -0.25048342353E+00  0.94998759483E+01  0.48207130662E+01  0.10655968267E+02  0.51100000000E-03 0. -1.
        -11    1    3    3    0    0  0.73624087622E+01 -0.21276424680E+02  0.32054387874E+02  0.39171100217E+02  0.51100000000E-03 0.  1.
         12    1    3    3    0    0 -0.80565270389E+01  0.11717403777E+02 -0.37580300868E+02  0.40180644502E+02  0.00000000000E+00 0. -1.
</event>
<event>
 7    1  0.2349719E-015  0.9000774E+02  0.7816164E-02  0.1186339E+00
        -11   -1    0    0    0    0  0.00000000000E+00  0.00000000000E+00  0.45593999997E+02  0.45594000000E+02  0.51100000000E-03 0. -1.
         11   -1    0    0    0    0 -0.00000000000E+00 -0.00000000000E+00 -0.45593999997E+02  0.45594000000E+02  0.51100000000E-03 0.  1.
    9900012    2    1    2    0    0 -0.54223142423E-01 -0.62247143879E-02  0.11789987811E+01  0.90007738579E+02  0.89999999928E+02 0.  0.
        -12    1    1    2    0    0  0.54223142423E-01  0.62247143879E-02 -0.11789987811E+01  0.11802614211E+01  0.00000000000E+00 0.  1.
         11    1    3    3    0    0  0.13175157956E+02 -0.11188997262E+01  0.36530397976E+02  0.38849796658E+02  0.51100000000E-03 0. -1.
        -11    1    3    3    0    0  0.73265971495E+01 -0.71679320470E+01 -0.10270149817E+01  0.10301118175E+02  0.51100000000E-03 0.  1.
        -12    1    3    3    0    0 -0.20555978248E+02  0.82806070588E+01 -0.34324384214E+02  0.40856823746E+02  0.00000000000E+00 0.  1.
</event>
<event>
 7    1  0.3503381E-015  0.9000783E+02  0.7816164E-02  0.1186339E+00
        -11   -1    0    0    0    0  0.00000000000E+00  0.00000000000E+00  0.45593999997E+02  0.45594000000E+02  0.51100000000E-03 0. -1.
         11   -1    0    0    0    0 -0.00000000000E+00 -0.00000000000E+00 -0.45593999997E+02  0.45594000000E+02  0.51100000000E-03 0.  1.
    9900012    2    1    2    0    0  0.19496236573E+00  0.84986034577E+00  0.79532330681E+00  0.90007825397E+02  0.90000087892E+02 0.  0.
        -12    1    1    2    0    0 -0.19496236573E+00 -0.84986034577E+00 -0.79532330681E+00  0.11801746031E+01  0.00000000000E+00 0.  1.
         11    1    3    3    0    0 -0.64673808905E+01 -0.22391357843E+02  0.28233802694E+02  0.36610757113E+02  0.51100000000E-03 0. -1.
        -11    1    3    3    0    0 -0.59131584235E+01 -0.27778136616E+01  0.62297242816E+01  0.90272452147E+01  0.51100000000E-03 0.  1.
        -12    1    3    3    0    0  0.12575501680E+02  0.26019031850E+02 -0.33668203668E+02  0.44369823069E+02  0.00000000000E+00 0.  1.
</event>
<event>
 7    1  0.2349719E-015  0.9000764E+02  0.7816164E-02  0.1186339E+00
        -11   -1    0    0    0    0  0.00000000000E+00  0.00000000000E+00  0.45593999997E+02  0.45594000000E+02  0.51100000000E-03 0. -1.
         11   -1    0    0    0    0 -0.00000000000E+00 -0.00000000000E+00 -0.45593999997E+02  0.45594000000E+02  0.51100000000E-03 0.  1.
    9900012    2    1    2    0    0  0.99858094397E-01  0.32387653745E+00  0.11306580766E+01  0.90007637625E+02  0.89999897641E+02 0.  0.
        -12    1    1    2    0    0 -0.99858094397E-01 -0.32387653745E+00 -0.11306580766E+01  0.11803623752E+01  0.00000000000E+00 0.  1.
         11    1    3    3    0    0  0.14228878061E+02 -0.10515797069E+01  0.23326009258E+02  0.27343545837E+02  0.51100000000E-03 0. -1.
        -11    1    3    3    0    0  0.65717751701E+01  0.25500978211E+02 -0.60961132280E+01  0.27030551518E+02  0.51100000000E-03 0.  1.
        -12    1    3    3    0    0 -0.20700795137E+02 -0.24125521967E+02 -0.16099237953E+02  0.35633540270E+02  0.00000000000E+00 0.  1.
</event>
<event>
 7    1  0.2349719E-015  0.9000774E+02  0.7816164E-02  0.1186339E+00
        -11   -1    0    0    0    0  0.00000000000E+00  0.00000000000E+00  0.45593999997E+02  0.45594000000E+02  0.51100000000E-03 0. -1.
         11   -1    0    0    0    0 -0.00000000000E+00 -0.00000000000E+00 -0.45593999997E+02  0.45594000000E+02  0.51100000000E-03 0.  1.
    9900012    2    1    2    0    0 -0.82586792190E+00  0.34059699603E+00  0.77132603021E+00  0.90007742408E+02  0.90000003808E+02 0.  0.
        -12    1    1    2    0    0  0.82586792190E+00 -0.34059699603E+00 -0.77132603021E+00  0.11802575918E+01  0.00000000000E+00 0.  1.
         11    1    3    3    0    0  0.68125887159E+01 -0.36214935208E+01  0.56759083381E+01  0.95782313636E+01  0.51100000000E-03 0. -1.
        -11    1    3    3    0    0  0.29684967416E+02  0.18439584222E+01 -0.24215042698E+02  0.38353171528E+02  0.51100000000E-03 0.  1.
         12    1    3    3    0    0 -0.37323424054E+02  0.21181320946E+01  0.19310460390E+02  0.42076339517E+02  0.00000000000E+00 0. -1.
</event>
<event>
 7    1  0.2349719E-015  0.9000767E+02  0.7816164E-02  0.1186339E+00
        -11   -1    0    0    0    0  0.00000000000E+00  0.00000000000E+00  0.45593999997E+02  0.45594000000E+02  0.51100000000E-03 0.  1.
         11   -1    0    0    0    0 -0.00000000000E+00 -0.00000000000E+00 -0.45593999997E+02  0.45594000000E+02  0.51100000000E-03 0. -1.
    9900012    2    1    2    0    0 -0.35713563257E-01  0.28487313978E+00 -0.11448852686E+01  0.90007665114E+02  0.89999925494E+02 0.  0.
        -12    1    1    2    0    0  0.35713563257E-01 -0.28487313978E+00  0.11448852686E+01  0.11803348858E+01  0.00000000000E+00 0.  1.
         11    1    3    3    0    0  0.62299425075E+01  0.38302888158E+01  0.76197886115E+01  0.10561461774E+02  0.51100000000E-03 0. -1.
        -11    1    3    3    0    0 -0.21010014531E+02 -0.34809457686E+02 -0.16743031097E+02  0.43970992092E+02  0.51100000000E-03 0.  1.
         12    1    3    3    0    0  0.14744358460E+02  0.31264042010E+02  0.79783572170E+01  0.35475211248E+02  0.00000000000E+00 0. -1.
</event>
<event>
 7    1  0.2349719E-015  0.9000782E+02  0.7816164E-02  0.1186339E+00
        -11   -1    0    0    0    0  0.00000000000E+00  0.00000000000E+00  0.45593999997E+02  0.45594000000E+02  0.51100000000E-03 0.  1.
         11   -1    0    0    0    0 -0.00000000000E+00 -0.00000000000E+00 -0.45593999997E+02  0.45594000000E+02  0.51100000000E-03 0. -1.
    9900012    2    1    2    0    0 -0.11154785013E+01 -0.31206356800E+00  0.22616899291E+00  0.90007818501E+02  0.90000080905E+02 0.  0.
        -12    1    1    2    0    0  0.11154785013E+01  0.31206356800E+00 -0.22616899291E+00  0.11801814990E+01  0.00000000000E+00 0.  1.
         11    1    3    3    0    0  0.22667518261E+01 -0.80015963628E+01 -0.59411488428E+01  0.10220614366E+02  0.51100000000E-03 0. -1.
        -11    1    3    3    0    0  0.24602632140E+02 -0.22492268310E+02  0.16725486906E+02  0.37295221604E+02  0.51100000000E-03 0.  1.
         12    1    3    3    0    0 -0.27984862467E+02  0.30181801105E+02 -0.10558169071E+02  0.42491982531E+02  0.00000000000E+00 0. -1.
</event>
<event>
 7    1  0.2349719E-015  0.9000749E+02  0.7816164E-02  0.1186340E+00
        -11   -1    0    0    0    0  0.00000000000E+00  0.00000000000E+00  0.45593999997E+02  0.45594000000E+02  0.51100000000E-03 0. -1.
         11   -1    0    0    0    0 -0.00000000000E+00 -0.00000000000E+00 -0.45593999997E+02  0.45594000000E+02  0.51100000000E-03 0.  1.
    9900012    2    1    2    0    0 -0.72398303104E-01 -0.11467246376E+01  0.27090982930E+00  0.90007486957E+02  0.89999744985E+02 0.  0.
        -12    1    1    2    0    0  0.72398303104E-01  0.11467246376E+01 -0.27090982930E+00  0.11805130429E+01  0.00000000000E+00 0.  1.
         11    1    3    3    0    0 -0.47557507959E+01 -0.21377124194E+02  0.21390763480E+02  0.30613124097E+02  0.51100000000E-03 0. -1.
        -11    1    3    3    0    0  0.39947750687E+01 -0.72967442236E+01  0.13071311867E+02  0.15493866474E+02  0.51100000000E-03 0.  1.
        -12    1    3    3    0    0  0.68857742408E+00  0.27527143780E+02 -0.34191165518E+02  0.43900496387E+02  0.00000000000E+00 0.  1.
</event>
<event>
 7    1  0.2349719E-015  0.9000766E+02  0.7816164E-02  0.1186339E+00
        -11   -1    0    0    0    0  0.00000000000E+00  0.00000000000E+00  0.45593999997E+02  0.45594000000E+02  0.51100000000E-03 0.  1.
         11   -1    0    0    0    0 -0.00000000000E+00 -0.00000000000E+00 -0.45593999997E+02  0.45594000000E+02  0.51100000000E-03 0. -1.
    9900012    2    1    2    0    0 -0.81669649957E+00  0.24545964934E+00 -0.81606029587E+00  0.90007661905E+02  0.89999922242E+02 0.  0.
        -12    1    1    2    0    0  0.81669649957E+00 -0.24545964934E+00  0.81606029587E+00  0.11803380949E+01  0.00000000000E+00 0.  1.
         11    1    3    3    0    0 -0.30112863876E+02 -0.12477846907E+02 -0.13327145291E+02  0.35214968921E+02  0.51100000000E-03 0. -1.
        -11    1    3    3    0    0 -0.10477848302E+02  0.13124018785E+01 -0.23650576074E+01  0.10821330855E+02  0.51100000000E-03 0.  1.
        -12    1    3    3    0    0  0.39774015678E+02  0.11410904678E+02  0.14876142603E+02  0.43971362129E+02  0.00000000000E+00 0.  1.
</event>
<event>
 7    1  0.2349719E-015  0.9000759E+02  0.7816164E-02  0.1186339E+00
        -11   -1    0    0    0    0  0.00000000000E+00  0.00000000000E+00  0.45593999997E+02  0.45594000000E+02  0.51100000000E-03 0.  1.
         11   -1    0    0    0    0 -0.00000000000E+00 -0.00000000000E+00 -0.45593999997E+02  0.45594000000E+02  0.51100000000E-03 0. -1.
    9900012    2    1    2    0    0 -0.90102965999E+00 -0.16777150864E+00  0.74387873634E+00  0.90007594433E+02  0.89999853880E+02 0.  0.
        -12    1    1    2    0    0  0.90102965999E+00  0.16777150864E+00 -0.74387873634E+00  0.11804055666E+01  0.00000000000E+00 0.  1.
         11    1    3    3    0    0  0.22942879503E+02  0.68908156698E-01  0.33738133415E+02  0.40800025917E+02  0.51100000000E-03 0. -1.
        -11    1    3    3    0    0  0.57213357338E+00 -0.78159611698E+01 -0.48744130656E+00  0.78520179013E+01  0.51100000000E-03 0.  1.
        -12    1    3    3    0    0 -0.24416042737E+02  0.75792815044E+01 -0.32506813372E+02  0.41355550615E+02  0.00000000000E+00 0.  1.
</event>
<event>
 7    1  0.2349719E-015  0.9000781E+02  0.7816164E-02  0.1186339E+00
        -11   -1    0    0    0    0  0.00000000000E+00  0.00000000000E+00  0.45593999997E+02  0.45594000000E+02  0.51100000000E-03 0.  1.
         11   -1    0    0    0    0 -0.00000000000E+00 -0.00000000000E+00 -0.45593999997E+02  0.45594000000E+02  0.51100000000E-03 0. -1.
    9900012    2    1    2    0    0 -0.62261541559E+00  0.97272932004E-01 -0.99786836785E+00  0.90007807957E+02  0.90000070222E+02 0.  0.
        -12    1    1    2    0    0  0.62261541559E+00 -0.97272932004E-01  0.99786836785E+00  0.11801920431E+01  0.00000000000E+00 0.  1.
         11    1    3    3    0    0  0.68001513204E+01 -0.57343177575E+01 -0.58927466657E+01  0.10670001015E+02  0.51100000000E-03 0. -1.
        -11    1    3    3    0    0  0.16470832590E+02  0.36342409245E+02  0.70761768907E+01  0.40523219462E+02  0.51100000000E-03 0.  1.
         12    1    3    3    0    0 -0.23893599326E+02 -0.30510818555E+02 -0.21812985929E+01  0.38814587480E+02  0.00000000000E+00 0. -1.
</event>
<event>
 7    1  0.3465018E-015  0.9000772E+02  0.7816164E-02  0.1186339E+00
        -11   -1    0    0    0    0  0.00000000000E+00  0.00000000000E+00  0.45593999997E+02  0.45594000000E+02  0.51100000000E-03 0. -1.
         11   -1    0    0    0    0 -0.00000000000E+00 -0.00000000000E+00 -0.45593999997E+02  0.45594000000E+02  0.51100000000E-03 0.  1.
    9900012    2    1    2    0    0  0.37036413513E+00  0.73268134942E+00  0.84797401313E+00  0.90007723982E+02  0.89999985138E+02 0.  0.
        -12    1    1    2    0    0 -0.37036413513E+00 -0.73268134942E+00 -0.84797401313E+00  0.11802760183E+01  0.00000000000E+00 0.  1.
         11    1    3    3    0    0 -0.22481506559E+02 -0.78713986191E+01  0.32593226838E+02  0.40369487108E+02  0.51100000000E-03 0. -1.
        -11    1    3    3    0    0 -0.70480333032E+01  0.33030319573E+01 -0.60173578086E+01  0.98383631165E+01  0.51100000000E-03 0.  1.
        -12    1    3    3    0    0  0.29899903998E+02  0.53010480113E+01 -0.25727895017E+02  0.39799873757E+02  0.00000000000E+00 0.  1.
</event>
<event>
 7    1  0.2349719E-015  0.9000776E+02  0.7816164E-02  0.1186339E+00
        -11   -1    0    0    0    0  0.00000000000E+00  0.00000000000E+00  0.45593999997E+02  0.45594000000E+02  0.51100000000E-03 0.  1.
         11   -1    0    0    0    0 -0.00000000000E+00 -0.00000000000E+00 -0.45593999997E+02  0.45594000000E+02  0.51100000000E-03 0. -1.
    9900012    2    1    2    0    0 -0.15538826341E+00 -0.11696547219E+01  0.26948428062E-01  0.90007761084E+02  0.90000022730E+02 0.  0.
        -12    1    1    2    0    0  0.15538826341E+00  0.11696547219E+01 -0.26948428062E-01  0.11802389159E+01  0.00000000000E+00 0.  1.
         11    1    3    3    0    0  0.24683045285E+02  0.22451975458E+02 -0.18970706474E+02  0.38382699630E+02  0.51100000000E-03 0. -1.
        -11    1    3    3    0    0 -0.47808116236E+00  0.45269251183E+00 -0.79922898726E+01  0.80193634271E+01  0.51100000000E-03 0.  1.
        -12    1    3    3    0    0 -0.24360352386E+02 -0.24074322691E+02  0.26989944775E+02  0.43605698027E+02  0.00000000000E+00 0.  1.
</event>
<event>
 7    1  0.2349719E-015  0.9000774E+02  0.7816164E-02  0.1186339E+00
        -11   -1    0    0    0    0  0.00000000000E+00  0.00000000000E+00  0.45593999997E+02  0.45594000000E+02  0.51100000000E-03 0.  1.
         11   -1    0    0    0    0 -0.00000000000E+00 -0.00000000000E+00 -0.45593999997E+02  0.45594000000E+02  0.51100000000E-03 0. -1.
    9900012    2    1    2    0    0 -0.10720687886E+01  0.47254513177E+00 -0.14274541165E+00  0.90007742976E+02  0.90000004384E+02 0.  0.
        -12    1    1    2    0    0  0.10720687886E+01 -0.47254513177E+00  0.14274541165E+00  0.11802570235E+01  0.00000000000E+00 0.  1.
         11    1    3    3    0    0  0.13802876058E+01  0.77457354368E+01 -0.61857136928E+01  0.10008229888E+02  0.51100000000E-03 0. -1.
        -11    1    3    3    0    0  0.19624034501E+02  0.61197837598E+01  0.35379596156E+02  0.40917848279E+02  0.51100000000E-03 0.  1.
         12    1    3    3    0    0 -0.22076390896E+02 -0.13392974065E+02 -0.29336627875E+02  0.39081664810E+02  0.00000000000E+00 0. -1.
</event>
<event>
 7    1  0.2349719E-015  0.9000777E+02  0.7816164E-02  0.1186339E+00
        -11   -1    0    0    0    0  0.00000000000E+00  0.00000000000E+00  0.45593999997E+02  0.45594000000E+02  0.51100000000E-03 0. -1.
         11   -1    0    0    0    0 -0.00000000000E+00 -0.00000000000E+00 -0.45593999997E+02  0.45594000000E+02  0.51100000000E-03 0.  1.
    9900012    2    1    2    0    0 -0.64370610659E-01  0.74223074046E+00  0.91536909099E+00  0.90007766709E+02  0.90000028430E+02 0.  0.
        -12    1    1    2    0    0  0.64370610659E-01 -0.74223074046E+00 -0.91536909099E+00  0.11802332906E+01  0.00000000000E+00 0.  1.
         11    1    3    3    0    0 -0.11767846878E+02  0.85221456333E+01  0.89834607739E+01  0.17082498473E+02  0.51100000000E-03 0. -1.
        -11    1    3    3    0    0  0.42576739428E+01  0.31834275882E+02 -0.22065770166E+01  0.32193444840E+02  0.51100000000E-03 0.  1.
         12    1    3    3    0    0  0.74458023247E+01 -0.39614190774E+02 -0.58615146664E+01  0.40731823396E+02  0.00000000000E+00 0. -1.
</event>
<event>
 7    1  0.2349719E-015  0.9000778E+02  0.7816164E-02  0.1186339E+00
        -11   -1    0    0    0    0  0.00000000000E+00  0.00000000000E+00  0.45593999997E+02  0.45594000000E+02  0.51100000000E-03 0. -1.
         11   -1    0    0    0    0 -0.00000000000E+00 -0.00000000000E+00 -0.45593999997E+02  0.45594000000E+02  0.51100000000E-03 0.  1.
    9900012    2    1    2    0    0  0.51089615761E+00  0.10524045972E+01  0.15603220871E+00  0.90007781219E+02  0.90000043131E+02 0.  0.
        -12    1    1    2    0    0 -0.51089615761E+00 -0.10524045972E+01 -0.15603220871E+00  0.11802187807E+01  0.00000000000E+00 0.  1.
         11    1    3    3    0    0 -0.14464120129E+01  0.17069308964E+02 -0.37509520010E-01  0.17130523152E+02  0.51100000000E-03 0. -1.
        -11    1    3    3    0    0  0.23014429363E+01  0.79923485005E+01 -0.31803245234E+02  0.32872795467E+02  0.51100000000E-03 0.  1.
         12    1    3    3    0    0 -0.34413476577E+00 -0.24009252868E+02  0.31996786963E+02  0.40004462600E+02  0.00000000000E+00 0. -1.
</event>
<event>
 7    1  0.2349719E-015  0.9000775E+02  0.7816164E-02  0.1186339E+00
        -11   -1    0    0    0    0  0.00000000000E+00  0.00000000000E+00  0.45593999997E+02  0.45594000000E+02  0.51100000000E-03 0.  1.
         11   -1    0    0    0    0 -0.00000000000E+00 -0.00000000000E+00 -0.45593999997E+02  0.45594000000E+02  0.51100000000E-03 0. -1.
    9900012    2    1    2    0    0  0.13889495687E+00 -0.11719186553E+01  0.17790121578E-01  0.90007745099E+02  0.90000006534E+02 0.  0.
        -12    1    1    2    0    0 -0.13889495687E+00  0.11719186553E+01 -0.17790121578E-01  0.11802549013E+01  0.00000000000E+00 0.  1.
         11    1    3    3    0    0 -0.51155119478E+01 -0.77494761024E+01 -0.19057344466E+01  0.94791701320E+01  0.51100000000E-03 0. -1.
        -11    1    3    3    0    0  0.20662859279E+01  0.42158912317E+02 -0.90270316072E+01  0.43163998021E+02  0.51100000000E-03 0.  1.
         12    1    3    3    0    0  0.31881209767E+01 -0.35581354870E+02  0.10950556175E+02  0.37364576945E+02  0.00000000000E+00 0. -1.
</event>
<event>
 7    1  0.2349719E-015  0.9000774E+02  0.7816164E-02  0.1186339E+00
        -11   -1    0    0    0    0  0.00000000000E+00  0.00000000000E+00  0.45593999997E+02  0.45594000000E+02  0.51100000000E-03 0.  1.
         11   -1    0    0    0    0 -0.00000000000E+00 -0.00000000000E+00 -0.45593999997E+02  0.45594000000E+02  0.51100000000E-03 0. -1.
    9900012    2    1    2    0    0 -0.11024650567E+01  0.38405799032E+00 -0.17341965143E+00  0.90007744046E+02  0.90000005467E+02 0.  0.
        -12    1    1    2    0    0  0.11024650567E+01 -0.38405799032E+00  0.17341965143E+00  0.11802559539E+01  0.00000000000E+00 0.  1.
         11    1    3    3    0    0  0.70855486676E+01 -0.42206942296E+01 -0.43382190929E+01  0.93187662735E+01  0.51100000000E-03 0. -1.
        -11    1    3    3    0    0 -0.12595774477E+02 -0.22386495708E+01  0.41008034442E+02  0.42957234264E+02  0.51100000000E-03 0.  1.
         12    1    3    3    0    0  0.44077607526E+01  0.68434017907E+01 -0.36843235000E+02  0.37731743509E+02  0.00000000000E+00 0. -1.
</event>
<event>
 7    1  0.2349719E-015  0.9000767E+02  0.7816164E-02  0.1186339E+00
        -11   -1    0    0    0    0  0.00000000000E+00  0.00000000000E+00  0.45593999997E+02  0.45594000000E+02  0.51100000000E-03 0. -1.
         11   -1    0    0    0    0 -0.00000000000E+00 -0.00000000000E+00 -0.45593999997E+02  0.45594000000E+02  0.51100000000E-03 0.  1.
    9900012    2    1    2    0    0  0.37956642306E+00 -0.33712028212E-01  0.11171215529E+01  0.90007674734E+02  0.89999935240E+02 0.  0.
        -12    1    1    2    0    0 -0.37956642306E+00  0.33712028212E-01 -0.11171215529E+01  0.11803252663E+01  0.00000000000E+00 0.  1.
         11    1    3    3    0    0 -0.13220718186E+02 -0.12161545383E+02 -0.79578684900E+01  0.19647347064E+02  0.51100000000E-03 0. -1.
        -11    1    3    3    0    0 -0.18316724861E+02 -0.14142525093E+02 -0.95323337948E+01  0.25027561077E+02  0.51100000000E-03 0.  1.
         12    1    3    3    0    0  0.31917009470E+02  0.26270358449E+02  0.18607323838E+02  0.45332766593E+02  0.00000000000E+00 0. -1.
</event>
<event>
 7    1  0.2349719E-015  0.9000771E+02  0.7816164E-02  0.1186339E+00
        -11   -1    0    0    0    0  0.00000000000E+00  0.00000000000E+00  0.45593999997E+02  0.45594000000E+02  0.51100000000E-03 0.  1.
         11   -1    0    0    0    0 -0.00000000000E+00 -0.00000000000E+00 -0.45593999997E+02  0.45594000000E+02  0.51100000000E-03 0. -1.
    9900012    2    1    2    0    0  0.39242241317E+00  0.11048514754E+01 -0.13561078100E+00  0.90007710876E+02  0.89999971859E+02 0.  0.
        -12    1    1    2    0    0 -0.39242241317E+00 -0.11048514754E+01  0.13561078100E+00  0.11802891243E+01  0.00000000000E+00 0.  1.
         11    1    3    3    0    0  0.83217775332E+01  0.76660014621E+00  0.26019945005E+01  0.87527157351E+01  0.51100000000E-03 0. -1.
        -11    1    3    3    0    0  0.47500480622E+01  0.10260145012E+02  0.36835766290E+02  0.38531898613E+02  0.51100000000E-03 0.  1.
         12    1    3    3    0    0 -0.12679403182E+02 -0.99218936832E+01 -0.39573371572E+02  0.42723096527E+02  0.00000000000E+00 0. -1.
</event>
<event>
 7    1  0.2349719E-015  0.9000771E+02  0.7816164E-02  0.1186339E+00
        -11   -1    0    0    0    0  0.00000000000E+00  0.00000000000E+00  0.45593999997E+02  0.45594000000E+02  0.51100000000E-03 0.  1.
         11   -1    0    0    0    0 -0.00000000000E+00 -0.00000000000E+00 -0.45593999997E+02  0.45594000000E+02  0.51100000000E-03 0. -1.
    9900012    2    1    2    0    0  0.63482932750E+00  0.51215891859E+00 -0.85309194325E+00  0.90007711520E+02  0.89999972512E+02 0.  0.
        -12    1    1    2    0    0 -0.63482932750E+00 -0.51215891859E+00  0.85309194325E+00  0.11802884802E+01  0.00000000000E+00 0.  1.
         11    1    3    3    0    0  0.75657830960E+01  0.57397102772E+01  0.16506692585E+01  0.96389863152E+01  0.51100000000E-03 0. -1.
        -11    1    3    3    0    0  0.17336495187E+02  0.30978150810E+02  0.58814599773E+01  0.35983210872E+02  0.51100000000E-03 0.  1.
         12    1    3    3    0    0 -0.24267448955E+02 -0.36205702168E+02 -0.83852211790E+01  0.44385514332E+02  0.00000000000E+00 0. -1.
</event>
<event>
 7    1  0.2349719E-015  0.9000773E+02  0.7816164E-02  0.1186339E+00
        -11   -1    0    0    0    0  0.00000000000E+00  0.00000000000E+00  0.45593999997E+02  0.45594000000E+02  0.51100000000E-03 0.  1.
         11   -1    0    0    0    0 -0.00000000000E+00 -0.00000000000E+00 -0.45593999997E+02  0.45594000000E+02  0.51100000000E-03 0. -1.
    9900012    2    1    2    0    0  0.83493247020E-03 -0.10715786910E+01 -0.49473533947E+00  0.90007726877E+02  0.89999988072E+02 0.  0.
        -12    1    1    2    0    0 -0.83493247020E-03  0.10715786910E+01  0.49473533947E+00  0.11802731227E+01  0.00000000000E+00 0.  1.
         11    1    3    3    0    0  0.10250080147E+02  0.86029321193E+00 -0.29892628624E+01  0.10711673079E+02  0.51100000000E-03 0. -1.
        -11    1    3    3    0    0 -0.17356122843E+02 -0.18014974747E+02  0.34597091834E+02  0.42693478178E+02  0.51100000000E-03 0.  1.
         12    1    3    3    0    0  0.71068776291E+01  0.16083102844E+02 -0.32102564311E+02  0.36602575621E+02  0.00000000000E+00 0. -1.
</event>
<event>
 7    1  0.2349719E-015  0.9000789E+02  0.7816164E-02  0.1186339E+00
        -11   -1    0    0    0    0  0.00000000000E+00  0.00000000000E+00  0.45593999997E+02  0.45594000000E+02  0.51100000000E-03 0. -1.
         11   -1    0    0    0    0 -0.00000000000E+00 -0.00000000000E+00 -0.45593999997E+02  0.45594000000E+02  0.51100000000E-03 0.  1.
    9900012    2    1    2    0    0 -0.12876555116E-01  0.11463181271E+01  0.28010206671E+00  0.90007886352E+02  0.90000149652E+02 0.  0.
        -12    1    1    2    0    0  0.12876555116E-01 -0.11463181271E+01 -0.28010206671E+00  0.11801136479E+01  0.00000000000E+00 0.  1.
         11    1    3    3    0    0 -0.31315407888E+02  0.22808737349E+02  0.76942161732E+01  0.39498028221E+02  0.51100000000E-03 0. -1.
        -11    1    3    3    0    0  0.57376603042E+01  0.85315256841E+01 -0.13254501007E+00  0.10282278187E+02  0.51100000000E-03 0.  1.
        -12    1    3    3    0    0  0.25564871028E+02 -0.30193944906E+02 -0.72815690965E+01  0.40227579944E+02  0.00000000000E+00 0.  1.
</event>
<event>
 7    1  0.2349719E-015  0.9000774E+02  0.7816164E-02  0.1186339E+00
        -11   -1    0    0    0    0  0.00000000000E+00  0.00000000000E+00  0.45593999997E+02  0.45594000000E+02  0.51100000000E-03 0.  1.
         11   -1    0    0    0    0 -0.00000000000E+00 -0.00000000000E+00 -0.45593999997E+02  0.45594000000E+02  0.51100000000E-03 0. -1.
    9900012    2    1    2    0    0 -0.10582893569E+01  0.25599287294E+00 -0.45552847429E+00  0.90007739476E+02  0.90000000837E+02 0.  0.
        -12    1    1    2    0    0  0.10582893569E+01 -0.25599287294E+00  0.45552847429E+00  0.11802605241E+01  0.00000000000E+00 0.  1.
         11    1    3    3    0    0  0.11099823827E+02  0.10126815590E+01 -0.24945253434E+01  0.11421657930E+02  0.51100000000E-03 0. -1.
        -11    1    3    3    0    0  0.82338922464E+00  0.37215315639E+02  0.78348242661E+01  0.38040007353E+02  0.51100000000E-03 0.  1.
         12    1    3    3    0    0 -0.12981502408E+02 -0.37972004325E+02 -0.57958273970E+01  0.40546074192E+02  0.00000000000E+00 0. -1.
</event>
<event>
 7    1  0.2349719E-015  0.9000774E+02  0.7816164E-02  0.1186339E+00
        -11   -1    0    0    0    0  0.00000000000E+00  0.00000000000E+00  0.45593999997E+02  0.45594000000E+02  0.51100000000E-03 0.  1.
         11   -1    0    0    0    0 -0.00000000000E+00 -0.00000000000E+00 -0.45593999997E+02  0.45594000000E+02  0.51100000000E-03 0. -1.
    9900012    2    1    2    0    0 -0.36595430846E+00  0.73846265522E+00 -0.84484849322E+00  0.90007737900E+02  0.89999999240E+02 0.  0.
        -12    1    1    2    0    0  0.36595430846E+00 -0.73846265522E+00  0.84484849322E+00  0.11802621003E+01  0.00000000000E+00 0.  1.
         11    1    3    3    0    0 -0.30582453156E+02 -0.24039616255E+02 -0.98157597593E+01  0.40119056951E+02  0.51100000000E-03 0. -1.
        -11    1    3    3    0    0  0.60815789289E+01 -0.65036735409E+01 -0.14645605872E+01  0.90237636145E+01  0.51100000000E-03 0.  1.
        -12    1    3    3    0    0  0.24134919919E+02  0.31281752451E+02  0.10435471853E+02  0.40864917334E+02  0.00000000000E+00 0.  1.
</event>
<event>
 7    1  0.2349719E-015  0.9000775E+02  0.7816164E-02  0.1186339E+00
        -11   -1    0    0    0    0  0.00000000000E+00  0.00000000000E+00  0.45593999997E+02  0.45594000000E+02  0.51100000000E-03 0. -1.
         11   -1    0    0    0    0 -0.00000000000E+00 -0.00000000000E+00 -0.45593999997E+02  0.45594000000E+02  0.51100000000E-03 0.  1.
    9900012    2    1    2    0    0 -0.97073034487E+00  0.51662435388E+00  0.42868882711E+00  0.90007749079E+02  0.90000010567E+02 0.  0.
        -12    1    1    2    0    0  0.97073034487E+00 -0.51662435388E+00 -0.42868882711E+00  0.11802509208E+01  0.00000000000E+00 0.  1.
         11    1    3    3    0    0 -0.41644212489E+01  0.36030232888E+02  0.11987228639E+02  0.38199656242E+02  0.51100000000E-03 0. -1.
        -11    1    3    3    0    0  0.61470716513E+00  0.55859320567E+01  0.49044912548E+01  0.74588562508E+01  0.51100000000E-03 0.  1.
        -12    1    3    3    0    0  0.25789837389E+01 -0.41099540591E+02 -0.16463031067E+02  0.44349236586E+02  0.00000000000E+00 0.  1.
</event>
<event>
 7    1  0.2349719E-015  0.9000772E+02  0.7816164E-02  0.1186339E+00
        -11   -1    0    0    0    0  0.00000000000E+00  0.00000000000E+00  0.45593999997E+02  0.45594000000E+02  0.51100000000E-03 0.  1.
         11   -1    0    0    0    0 -0.00000000000E+00 -0.00000000000E+00 -0.45593999997E+02  0.45594000000E+02  0.51100000000E-03 0. -1.
    9900012    2    1    2    0    0 -0.76509743816E+00 -0.58508354025E+00 -0.68217033619E+00  0.90007723250E+02  0.89999984397E+02 0.  0.
        -12    1    1    2    0    0  0.76509743816E+00  0.58508354025E+00  0.68217033619E+00  0.11802767500E+01  0.00000000000E+00 0.  1.
         11    1    3    3    0    0 -0.65304706243E+01  0.81196659735E+01 -0.46725152341E+01  0.11419650650E+02  0.51100000000E-03 0. -1.
        -11    1    3    3    0    0 -0.31765169311E+02 -0.22031779013E+02  0.22720109314E+01  0.38724505185E+02  0.51100000000E-03 0.  1.
         12    1    3    3    0    0  0.37530542498E+02  0.13327029499E+02  0.17183339665E+01  0.39863567415E+02  0.00000000000E+00 0. -1.
</event>
<event>
 7    1  0.2349719E-015  0.9000775E+02  0.7816164E-02  0.1186339E+00
        -11   -1    0    0    0    0  0.00000000000E+00  0.00000000000E+00  0.45593999997E+02  0.45594000000E+02  0.51100000000E-03 0. -1.
         11   -1    0    0    0    0 -0.00000000000E+00 -0.00000000000E+00 -0.45593999997E+02  0.45594000000E+02  0.51100000000E-03 0.  1.
    9900012    2    1    2    0    0 -0.69175726184E+00  0.19403609498E+00  0.93638225528E+00  0.90007750093E+02  0.90000011594E+02 0.  0.
        -12    1    1    2    0    0  0.69175726184E+00 -0.19403609498E+00 -0.93638225528E+00  0.11802499072E+01  0.00000000000E+00 0.  1.
         11    1    3    3    0    0 -0.55012302628E+01  0.59298085610E+01 -0.61569215031E+01  0.10165325702E+02  0.51100000000E-03 0. -1.
        -11    1    3    3    0    0 -0.27547680717E+02  0.12181189051E+02 -0.18053736987E+02  0.35116854914E+02  0.51100000000E-03 0.  1.
         12    1    3    3    0    0  0.32357153718E+02 -0.17916961517E+02  0.25147040745E+02  0.44725569477E+02  0.00000000000E+00 0. -1.
</event>
<event>
 7    1  0.2349719E-015  0.9000783E+02  0.7816164E-02  0.1186339E+00
        -11   -1    0    0    0    0  0.00000000000E+00  0.00000000000E+00  0.45593999997E+02  0.45594000000E+02  0.51100000000E-03 0. -1.
         11   -1    0    0    0    0 -0.00000000000E+00 -0.00000000000E+00 -0.45593999997E+02  0.45594000000E+02  0.51100000000E-03 0.  1.
    9900012    2    1    2    0    0  0.46768172476E+00 -0.60199206549E+00  0.90093820849E+00  0.90007826158E+02  0.90000088663E+02 0.  0.
        -12    1    1    2    0    0 -0.46768172476E+00  0.60199206549E+00 -0.90093820849E+00  0.11801738423E+01  0.00000000000E+00 0.  1.
         11    1    3    3    0    0  0.28720971442E+01  0.47470094229E+01 -0.71493028921E+01  0.90496172610E+01  0.51100000000E-03 0. -1.
        -11    1    3    3    0    0  0.91513083004E+01 -0.15301546722E+02 -0.32811762546E+02  0.37342944948E+02  0.51100000000E-03 0.  1.
         12    1    3    3    0    0 -0.11555723720E+02  0.99525452341E+01  0.40862003647E+02  0.43615263949E+02  0.00000000000E+00 0. -1.
</event>
<event>
 7    1  0.2349719E-015  0.9000778E+02  0.7816164E-02  0.1186339E+00
        -11   -1    0    0    0    0  0.00000000000E+00  0.00000000000E+00  0.45593999997E+02  0.45594000000E+02  0.51100000000E-03 0.  1.
         11   -1    0    0    0    0 -0.00000000000E+00 -0.00000000000E+00 -0.45593999997E+02  0.45594000000E+02  0.51100000000E-03 0. -1.
    9900012    2    1    2    0    0 -0.10923409659E+01 -0.44468845168E+00  0.44235651086E-01  0.90007782479E+02  0.90000044407E+02 0.  0.
        -12    1    1    2    0    0  0.10923409659E+01  0.44468845168E+00 -0.44235651086E-01  0.11802175214E+01  0.00000000000E+00 0.  1.
         11    1    3    3    0    0 -0.95951742926E+01 -0.18839568144E+01  0.72405046634E+00  0.98051472362E+01  0.51100000000E-03 0. -1.
        -11    1    3    3    0    0  0.25766283028E+01 -0.26273894234E+02  0.28965057786E+02  0.39190956922E+02  0.51100000000E-03 0.  1.
         12    1    3    3    0    0  0.59262050239E+01  0.27713162597E+02 -0.29644872602E+02  0.41011678320E+02  0.00000000000E+00 0. -1.
</event>
<event>
 7    1  0.2349719E-015  0.9000777E+02  0.7816164E-02  0.1186339E+00
        -11   -1    0    0    0    0  0.00000000000E+00  0.00000000000E+00  0.45593999997E+02  0.45594000000E+02  0.51100000000E-03 0.  1.
         11   -1    0    0    0    0 -0.00000000000E+00 -0.00000000000E+00 -0.45593999997E+02  0.45594000000E+02  0.51100000000E-03 0. -1.
    9900012    2    1    2    0    0  0.41806361540E+00  0.79114154824E+00  0.76958743261E+00  0.90007768263E+02  0.90000030004E+02 0.  0.
        -12    1    1    2    0    0 -0.41806361540E+00 -0.79114154824E+00 -0.76958743261E+00  0.11802317367E+01  0.00000000000E+00 0.  1.
         11    1    3    3    0    0 -0.18466690084E+01 -0.33495475143E+01  0.83047047931E+01  0.91431819920E+01  0.51100000000E-03 0. -1.
        -11    1    3    3    0    0 -0.94748408764E+01 -0.28039709236E+02  0.20992670503E+02  0.36286224918E+02  0.51100000000E-03 0.  1.
         12    1    3    3    0    0  0.11739573500E+02  0.32180398298E+02 -0.28527787863E+02  0.44578361354E+02  0.00000000000E+00 0. -1.
</event>
<event>
 7    1  0.2349719E-015  0.9000780E+02  0.7816164E-02  0.1186339E+00
        -11   -1    0    0    0    0  0.00000000000E+00  0.00000000000E+00  0.45593999997E+02  0.45594000000E+02  0.51100000000E-03 0.  1.
         11   -1    0    0    0    0 -0.00000000000E+00 -0.00000000000E+00 -0.45593999997E+02  0.45594000000E+02  0.51100000000E-03 0. -1.
    9900012    2    1    2    0    0 -0.11563489376E+01 -0.18512774522E+00  0.14646618613E+00  0.90007801927E+02  0.90000064113E+02 0.  0.
        -12    1    1    2    0    0  0.11563489376E+01  0.18512774522E+00 -0.14646618613E+00  0.11801980729E+01  0.00000000000E+00 0.  1.
         11    1    3    3    0    0 -0.17081883743E+02  0.15917341032E+01  0.11046971212E+02  0.20404899972E+02  0.51100000000E-03 0. -1.
        -11    1    3    3    0    0 -0.22296646133E+01 -0.19327505747E+01  0.27220061235E+02  0.27379529999E+02  0.51100000000E-03 0.  1.
         12    1    3    3    0    0  0.18155199419E+02  0.15588872632E+00 -0.38120566261E+02  0.42223371955E+02  0.00000000000E+00 0. -1.
</event>
<event>
 7    1  0.2349719E-015  0.9000784E+02  0.7816164E-02  0.1186339E+00
        -11   -1    0    0    0    0  0.00000000000E+00  0.00000000000E+00  0.45593999997E+02  0.45594000000E+02  0.51100000000E-03 0.  1.
         11   -1    0    0    0    0 -0.00000000000E+00 -0.00000000000E+00 -0.45593999997E+02  0.45594000000E+02  0.51100000000E-03 0. -1.
    9900012    2    1    2    0    0  0.98003074330E+00  0.64946247938E+00  0.10255724647E+00  0.90007839096E+02  0.90000101772E+02 0.  0.
        -12    1    1    2    0    0 -0.98003074330E+00 -0.64946247938E+00 -0.10255724647E+00  0.11801609037E+01  0.00000000000E+00 0.  1.
         11    1    3    3    0    0 -0.32869917150E+02  0.11914841380E+02 -0.10174656208E+01  0.34977566168E+02  0.51100000000E-03 0. -1.
        -11    1    3    3    0    0 -0.73054378221E+01  0.54070782539E+01 -0.47239490779E+01  0.10243125117E+02  0.51100000000E-03 0.  1.
        -12    1    3    3    0    0  0.41155385715E+02 -0.16672457154E+02  0.58439719452E+01  0.44787147811E+02  0.00000000000E+00 0.  1.
</event>
<event>
 7    1  0.2349719E-015  0.9000786E+02  0.7816164E-02  0.1186339E+00
        -11   -1    0    0    0    0  0.00000000000E+00  0.00000000000E+00  0.45593999997E+02  0.45594000000E+02  0.51100000000E-03 0. -1.
         11   -1    0    0    0    0 -0.00000000000E+00 -0.00000000000E+00 -0.45593999997E+02  0.45594000000E+02  0.51100000000E-03 0.  1.
    9900012    2    1    2    0    0  0.66098390064E+00 -0.29999728934E+00  0.93050270917E+00  0.90007858745E+02  0.90000121680E+02 0.  0.
        -12    1    1    2    0    0 -0.66098390064E+00  0.29999728934E+00 -0.93050270917E+00  0.11801412552E+01  0.00000000000E+00 0.  1.
         11    1    3    3    0    0 -0.11212582118E+02  0.31801366542E+02 -0.26170143427E+01  0.33821556381E+02  0.51100000000E-03 0. -1.
        -11    1    3    3    0    0 -0.92037421467E+00  0.10728580050E+02  0.39918849398E+01  0.11484104851E+02  0.51100000000E-03 0.  1.
        -12    1    3    3    0    0  0.12793940234E+02 -0.42829943882E+02 -0.44436788784E+00  0.44702197513E+02  0.00000000000E+00 0.  1.
</event>
<event>
 7    1  0.2349719E-015  0.9000775E+02  0.7816164E-02  0.1186339E+00
        -11   -1    0    0    0    0  0.00000000000E+00  0.00000000000E+00  0.45593999997E+02  0.45594000000E+02  0.51100000000E-03 0.  1.
         11   -1    0    0    0    0 -0.00000000000E+00 -0.00000000000E+00 -0.45593999997E+02  0.45594000000E+02  0.51100000000E-03 0. -1.
    9900012    2    1    2    0    0 -0.18762435091E+00 -0.32799059180E+00 -0.11181235410E+01  0.90007753848E+02  0.90000015399E+02 0.  0.
        -12    1    1    2    0    0  0.18762435091E+00  0.32799059180E+00  0.11181235410E+01  0.11802461516E+01  0.00000000000E+00 0.  1.
         11    1    3    3    0    0  0.22406818792E+02 -0.14746065590E+02 -0.21637960218E+02  0.34463216644E+02  0.51100000000E-03 0. -1.
        -11    1    3    3    0    0  0.24410936461E+01 -0.16718595975E+01 -0.11474007087E+02  0.11849341400E+02  0.51100000000E-03 0.  1.
        -12    1    3    3    0    0 -0.25035536789E+02  0.16089934596E+02  0.31993843764E+02  0.43695195805E+02  0.00000000000E+00 0.  1.
</event>
<event>
 7    1  0.2349719E-015  0.9000775E+02  0.7816164E-02  0.1186339E+00
        -11   -1    0    0    0    0  0.00000000000E+00  0.00000000000E+00  0.45593999997E+02  0.45594000000E+02  0.51100000000E-03 0.  1.
         11   -1    0    0    0    0 -0.00000000000E+00 -0.00000000000E+00 -0.45593999997E+02  0.45594000000E+02  0.51100000000E-03 0. -1.
    9900012    2    1    2    0    0 -0.13889181954E+00  0.95908026192E+00 -0.67370268608E+00  0.90007745284E+02  0.90000006721E+02 0.  0.
        -12    1    1    2    0    0  0.13889181954E+00 -0.95908026192E+00  0.67370268608E+00  0.11802547164E+01  0.00000000000E+00 0.  1.
         11    1    3    3    0    0  0.10257065607E+02  0.21495379846E+02 -0.23150218101E+02  0.33214324439E+02  0.51100000000E-03 0. -1.
        -11    1    3    3    0    0 -0.19575587901E+02  0.60123707927E+01 -0.52807557147E+00  0.20484899518E+02  0.51100000000E-03 0.  1.
        -12    1    3    3    0    0  0.91796304747E+01 -0.26548670377E+02  0.23004590986E+02  0.36308521326E+02  0.00000000000E+00 0.  1.
</event>
<event>
 7    1  0.2349719E-015  0.9000775E+02  0.7816164E-02  0.1186339E+00
        -11   -1    0    0    0    0  0.00000000000E+00  0.00000000000E+00  0.45593999997E+02  0.45594000000E+02  0.51100000000E-03 0. -1.
         11   -1    0    0    0    0 -0.00000000000E+00 -0.00000000000E+00 -0.45593999997E+02  0.45594000000E+02  0.51100000000E-03 0.  1.
    9900012    2    1    2    0    0 -0.10294846174E+01 -0.53801115303E+00 -0.20905286513E+00  0.90007746774E+02  0.90000008231E+02 0.  0.
        -12    1    1    2    0    0  0.10294846174E+01  0.53801115303E+00  0.20905286513E+00  0.11802532265E+01  0.00000000000E+00 0.  1.
         11    1    3    3    0    0  0.92423404294E+01 -0.33732239675E+02  0.16791156874E+02  0.38797265361E+02  0.51100000000E-03 0. -1.
        -11    1    3    3    0    0  0.37644195929E+01  0.19130315803E+01  0.78174615788E+01  0.88850014348E+01  0.51100000000E-03 0.  1.
        -12    1    3    3    0    0 -0.14036244640E+02  0.31281196942E+02 -0.24817671318E+02  0.42325479977E+02  0.00000000000E+00 0.  1.
</event>
<event>
 7    1  0.2349719E-015  0.9000778E+02  0.7816164E-02  0.1186339E+00
        -11   -1    0    0    0    0  0.00000000000E+00  0.00000000000E+00  0.45593999997E+02  0.45594000000E+02  0.51100000000E-03 0. -1.
         11   -1    0    0    0    0 -0.00000000000E+00 -0.00000000000E+00 -0.45593999997E+02  0.45594000000E+02  0.51100000000E-03 0.  1.
    9900012    2    1    2    0    0 -0.12799887072E+00  0.95900461230E+00  0.67590637379E+00  0.90007778418E+02  0.90000040293E+02 0.  0.
        -12    1    1    2    0    0  0.12799887072E+00 -0.95900461230E+00 -0.67590637379E+00  0.11802215823E+01  0.00000000000E+00 0.  1.
         11    1    3    3    0    0  0.41692978534E+00  0.68457643062E+01 -0.77601819456E+01  0.10356579719E+02  0.51100000000E-03 0. -1.
        -11    1    3    3    0    0  0.38126401014E+02  0.33970834820E+01  0.10916916153E+02  0.39803789883E+02  0.51100000000E-03 0.  1.
         12    1    3    3    0    0 -0.38671329671E+02 -0.92838431759E+01 -0.24808278335E+01  0.39847408816E+02  0.00000000000E+00 0. -1.
</event>
<event>
 7    1  0.2349719E-015  0.9000785E+02  0.7816164E-02  0.1186339E+00
        -11   -1    0    0    0    0  0.00000000000E+00  0.00000000000E+00  0.45593999997E+02  0.45594000000E+02  0.51100000000E-03 0.  1.
         11   -1    0    0    0    0 -0.00000000000E+00 -0.00000000000E+00 -0.45593999997E+02  0.45594000000E+02  0.51100000000E-03 0. -1.
    9900012    2    1    2    0    0  0.26611884350E+00 -0.20378712227E+00 -0.11315479021E+01  0.90007852092E+02  0.90000114940E+02 0.  0.
        -12    1    1    2    0    0 -0.26611884350E+00  0.20378712227E+00  0.11315479021E+01  0.11801479080E+01  0.00000000000E+00 0.  1.
         11    1    3    3    0    0 -0.16086438595E+02  0.16892210399E+01 -0.36022151021E+02  0.39486989488E+02  0.51100000000E-03 0. -1.
        -11    1    3    3    0    0 -0.91413665603E+01  0.25992532714E+01  0.42550510030E+01  0.10412788265E+02  0.51100000000E-03 0.  1.
        -12    1    3    3    0    0  0.25493923999E+02 -0.44922614336E+01  0.30635552116E+02  0.40108074338E+02  0.00000000000E+00 0.  1.
</event>
<event>
 7    1  0.2349719E-015  0.9000774E+02  0.7816164E-02  0.1186339E+00
        -11   -1    0    0    0    0  0.00000000000E+00  0.00000000000E+00  0.45593999997E+02  0.45594000000E+02  0.51100000000E-03 0.  1.
         11   -1    0    0    0    0 -0.00000000000E+00 -0.00000000000E+00 -0.45593999997E+02  0.45594000000E+02  0.51100000000E-03 0. -1.
    9900012    2    1    2    0    0  0.86169622141E+00 -0.78619756519E+00 -0.17998883957E+00  0.90007736058E+02  0.89999997374E+02 0.  0.
        -12    1    1    2    0    0 -0.86169622141E+00  0.78619756519E+00  0.17998883957E+00  0.11802639416E+01  0.00000000000E+00 0.  1.
         11    1    3    3    0    0  0.14325733644E+00  0.14069338880E+01 -0.68634532254E+01  0.70076369817E+01  0.51100000000E-03 0. -1.
        -11    1    3    3    0    0  0.32499229296E+02  0.21016317524E+01 -0.22544979763E+02  0.39609252374E+02  0.51100000000E-03 0.  1.
         12    1    3    3    0    0 -0.31780790411E+02 -0.42947632056E+01  0.29228444149E+02  0.43390846702E+02  0.00000000000E+00 0. -1.
</event>
<event>
 7    1  0.2349719E-015  0.9000772E+02  0.7816164E-02  0.1186339E+00
        -11   -1    0    0    0    0  0.00000000000E+00  0.00000000000E+00  0.45593999997E+02  0.45594000000E+02  0.51100000000E-03 0.  1.
         11   -1    0    0    0    0 -0.00000000000E+00 -0.00000000000E+00 -0.45593999997E+02  0.45594000000E+02  0.51100000000E-03 0. -1.
    9900012    2    1    2    0    0 -0.10251966234E+01 -0.55734656403E+00 -0.17719172062E+00  0.90007720281E+02  0.89999981389E+02 0.  0.
        -12    1    1    2    0    0  0.10251966234E+01  0.55734656403E+00  0.17719172062E+00  0.11802797190E+01  0.00000000000E+00 0.  1.
         11    1    3    3    0    0 -0.32298441847E+02 -0.20597025526E+02 -0.46875601436E+01  0.38592745777E+02  0.51100000000E-03 0. -1.
        -11    1    3    3    0    0 -0.40188830374E+01 -0.78969975521E+00  0.92938278377E+01  0.10156292764E+02  0.51100000000E-03 0.  1.
         12    1    3    3    0    0  0.35292128261E+02  0.20829378717E+02 -0.47834594147E+01  0.41258681740E+02  0.00000000000E+00 0. -1.
</event>
<event>
 7    1  0.2531292E-015  0.9000776E+02  0.7816164E-02  0.1186339E+00
        -11   -1    0    0    0    0  0.00000000000E+00  0.00000000000E+00  0.45593999997E+02  0.45594000000E+02  0.51100000000E-03 0. -1.
         11   -1    0    0    0    0 -0.00000000000E+00 -0.00000000000E+00 -0.45593999997E+02  0.45594000000E+02  0.51100000000E-03 0.  1.
    9900012    2    1    2    0    0 -0.48286372585E+00 -0.46645714393E+00  0.97068078660E+00  0.90007762382E+02  0.90000024046E+02 0.  0.
        -12    1    1    2    0    0  0.48286372585E+00  0.46645714393E+00 -0.97068078660E+00  0.11802376177E+01  0.00000000000E+00 0.  1.
         11    1    3    3    0    0  0.21669984499E+02 -0.17837849677E+02  0.27632553393E+02  0.39386991718E+02  0.51100000000E-03 0. -1.
        -11    1    3    3    0    0  0.75494314608E+00 -0.83338683899E+01 -0.32165048041E+01  0.89648873340E+01  0.51100000000E-03 0.  1.
        -12    1    3    3    0    0 -0.22907791371E+02  0.25705260923E+02 -0.23445367802E+02  0.41655883330E+02  0.00000000000E+00 0.  1.
</event>
<event>
 7    1  0.2349719E-015  0.9000847E+02  0.7816164E-02  0.1186338E+00
        -11   -1    0    0    0    0  0.00000000000E+00  0.00000000000E+00  0.45593999997E+02  0.45594000000E+02  0.51100000000E-03 0. -1.
         11   -1    0    0    0    0 -0.00000000000E+00 -0.00000000000E+00 -0.45593999997E+02  0.45594000000E+02  0.51100000000E-03 0.  1.
    9900012    2    1    2    0    0  0.51332404919E+00 -0.60911318990E+00  0.86992845470E+00  0.90008467900E+02  0.90000738874E+02 0.  0.
        -12    1    1    2    0    0 -0.51332404919E+00  0.60911318990E+00 -0.86992845470E+00  0.11795320996E+01  0.00000000000E+00 0.  1.
         11    1    3    3    0    0  0.36773229938E+02  0.59740979456E+01 -0.25656256567E+01  0.37343576711E+02  0.51100000000E-03 0. -1.
        -11    1    3    3    0    0  0.69996241311E+01  0.35354129534E+01 -0.14333314743E+01  0.79717201471E+01  0.51100000000E-03 0.  1.
        -12    1    3    3    0    0 -0.43259530020E+02 -0.10118624089E+02  0.48688855857E+01  0.44693171042E+02  0.00000000000E+00 0.  1.
</event>
<event>
 7    1  0.2349719E-015  0.9000782E+02  0.7816164E-02  0.1186339E+00
        -11   -1    0    0    0    0  0.00000000000E+00  0.00000000000E+00  0.45593999997E+02  0.45594000000E+02  0.51100000000E-03 0. -1.
         11   -1    0    0    0    0 -0.00000000000E+00 -0.00000000000E+00 -0.45593999997E+02  0.45594000000E+02  0.51100000000E-03 0.  1.
    9900012    2    1    2    0    0 -0.77866368698E+00 -0.51458598090E+00  0.72230015271E+00  0.90007816379E+02  0.90000078755E+02 0.  0.
        -12    1    1    2    0    0  0.77866368698E+00  0.51458598090E+00 -0.72230015271E+00  0.11801836212E+01  0.00000000000E+00 0.  1.
         11    1    3    3    0    0  0.45940269082E+00  0.13117765342E+01  0.32472330763E+02  0.32502062611E+02  0.51100000000E-03 0. -1.
        -11    1    3    3    0    0 -0.52639860071E+01 -0.24761586651E+01  0.12121479699E+02  0.13445117358E+02  0.51100000000E-03 0.  1.
        -12    1    3    3    0    0  0.40259196293E+01  0.64979615000E+00 -0.43871510310E+02  0.44060636409E+02  0.00000000000E+00 0.  1.
</event>
<event>
 7    1  0.2349719E-015  0.9000783E+02  0.7816164E-02  0.1186339E+00
        -11   -1    0    0    0    0  0.00000000000E+00  0.00000000000E+00  0.45593999997E+02  0.45594000000E+02  0.51100000000E-03 0.  1.
         11   -1    0    0    0    0 -0.00000000000E+00 -0.00000000000E+00 -0.45593999997E+02  0.45594000000E+02  0.51100000000E-03 0. -1.
    9900012    2    1    2    0    0 -0.49226103356E+00 -0.87705874427E+00 -0.61745921641E+00  0.90007826771E+02  0.90000089285E+02 0.  0.
        -12    1    1    2    0    0  0.49226103356E+00  0.87705874427E+00  0.61745921641E+00  0.11801732288E+01  0.00000000000E+00 0.  1.
         11    1    3    3    0    0 -0.33820323962E+02  0.57789280594E+00  0.96110036287E+01  0.35164181549E+02  0.51100000000E-03 0. -1.
        -11    1    3    3    0    0 -0.55798502248E+01  0.89918258912E+01  0.50908506085E+01  0.11743271332E+02  0.51100000000E-03 0.  1.
        -12    1    3    3    0    0  0.38907913153E+02 -0.10446777441E+02 -0.15319313454E+02  0.43100373891E+02  0.00000000000E+00 0.  1.
</event>
<event>
 7    1  0.2349719E-015  0.9000773E+02  0.7816164E-02  0.1186339E+00
        -11   -1    0    0    0    0  0.00000000000E+00  0.00000000000E+00  0.45593999997E+02  0.45594000000E+02  0.51100000000E-03 0. -1.
         11   -1    0    0    0    0 -0.00000000000E+00 -0.00000000000E+00 -0.45593999997E+02  0.45594000000E+02  0.51100000000E-03 0.  1.
    9900012    2    1    2    0    0 -0.40605057217E+00 -0.99311549342E+00  0.49182242370E+00  0.90007726834E+02  0.89999988028E+02 0.  0.
        -12    1    1    2    0    0  0.40605057217E+00  0.99311549342E+00 -0.49182242370E+00  0.11802731662E+01  0.00000000000E+00 0.  1.
         11    1    3    3    0    0  0.61691646947E+01  0.52735825892E+01  0.19617049753E+01  0.83497037688E+01  0.51100000000E-03 0. -1.
        -11    1    3    3    0    0  0.29576397236E+02 -0.21799224447E+02 -0.15509326676E+02  0.39881181955E+02  0.51100000000E-03 0.  1.
         12    1    3    3    0    0 -0.36151612502E+02  0.15532526365E+02  0.14039444124E+02  0.41776841110E+02  0.00000000000E+00 0. -1.
</event>
<event>
 7    1  0.2349719E-015  0.9000780E+02  0.7816164E-02  0.1186339E+00
        -11   -1    0    0    0    0  0.00000000000E+00  0.00000000000E+00  0.45593999997E+02  0.45594000000E+02  0.51100000000E-03 0.  1.
         11   -1    0    0    0    0 -0.00000000000E+00 -0.00000000000E+00 -0.45593999997E+02  0.45594000000E+02  0.51100000000E-03 0. -1.
    9900012    2    1    2    0    0 -0.26280996441E+00 -0.65939696985E+00 -0.94287057317E+00  0.90007797323E+02  0.90000059448E+02 0.  0.
        -12    1    1    2    0    0  0.26280996441E+00  0.65939696985E+00  0.94287057317E+00  0.11802026771E+01  0.00000000000E+00 0.  1.
         11    1    3    3    0    0  0.14405823799E+01  0.75826300218E-01 -0.83152652134E+01  0.84394705434E+01  0.51100000000E-03 0. -1.
        -11    1    3    3    0    0  0.27856465333E+02 -0.29079732789E+02  0.43450035305E+01  0.40502994653E+02  0.51100000000E-03 0.  1.
         12    1    3    3    0    0 -0.29559857677E+02  0.28344509519E+02  0.30273911098E+01  0.41065332127E+02  0.00000000000E+00 0. -1.
</event>
<event>
 7    1  0.2349719E-015  0.9000772E+02  0.7816164E-02  0.1186339E+00
        -11   -1    0    0    0    0  0.00000000000E+00  0.00000000000E+00  0.45593999997E+02  0.45594000000E+02  0.51100000000E-03 0. -1.
         11   -1    0    0    0    0 -0.00000000000E+00 -0.00000000000E+00 -0.45593999997E+02  0.45594000000E+02  0.51100000000E-03 0.  1.
    9900012    2    1    2    0    0  0.91793839077E+00 -0.29858521113E+00  0.67919295537E+00  0.90007717369E+02  0.89999978439E+02 0.  0.
        -12    1    1    2    0    0 -0.91793839077E+00  0.29858521113E+00 -0.67919295537E+00  0.11802826306E+01  0.00000000000E+00 0.  1.
         11    1    3    3    0    0  0.34397496757E+01 -0.56459377751E+00 -0.71650642405E+01  0.79679853035E+01  0.51100000000E-03 0. -1.
        -11    1    3    3    0    0 -0.22286356530E+01 -0.67595756424E+01 -0.36476611978E+02  0.37164524771E+02  0.51100000000E-03 0.  1.
         12    1    3    3    0    0 -0.29317563191E+00  0.70255842088E+01  0.44320869174E+02  0.44875207295E+02  0.00000000000E+00 0. -1.
</event>
<event>
 7    1  0.2349719E-015  0.9000770E+02  0.7816164E-02  0.1186339E+00
        -11   -1    0    0    0    0  0.00000000000E+00  0.00000000000E+00  0.45593999997E+02  0.45594000000E+02  0.51100000000E-03 0.  1.
         11   -1    0    0    0    0 -0.00000000000E+00 -0.00000000000E+00 -0.45593999997E+02  0.45594000000E+02  0.51100000000E-03 0. -1.
    9900012    2    1    2    0    0 -0.29459567250E-01 -0.91171979092E+00  0.74900891601E+00  0.90007696988E+02  0.89999957788E+02 0.  0.
        -12    1    1    2    0    0  0.29459567250E-01  0.91171979092E+00 -0.74900891601E+00  0.11803030117E+01  0.00000000000E+00 0.  1.
         11    1    3    3    0    0 -0.14611554207E+02  0.11573392513E+02 -0.31038534052E+02  0.36205407428E+02  0.51100000000E-03 0. -1.
        -11    1    3    3    0    0 -0.51875545677E+01  0.11094071966E+02  0.59167753063E+01  0.13601374396E+02  0.51100000000E-03 0.  1.
        -12    1    3    3    0    0  0.19769649208E+02 -0.23579184270E+02  0.25870767662E+02  0.40200915164E+02  0.00000000000E+00 0.  1.
</event>
<event>
 7    1  0.2349719E-015  0.9000777E+02  0.7816164E-02  0.1186339E+00
        -11   -1    0    0    0    0  0.00000000000E+00  0.00000000000E+00  0.45593999997E+02  0.45594000000E+02  0.51100000000E-03 0.  1.
         11   -1    0    0    0    0 -0.00000000000E+00 -0.00000000000E+00 -0.45593999997E+02  0.45594000000E+02  0.51100000000E-03 0. -1.
    9900012    2    1    2    0    0  0.26568595587E+00  0.45535811891E+00 -0.10559403520E+01  0.90007766942E+02  0.90000028666E+02 0.  0.
        -12    1    1    2    0    0 -0.26568595587E+00 -0.45535811891E+00  0.10559403520E+01  0.11802330577E+01  0.00000000000E+00 0.  1.
         11    1    3    3    0    0 -0.17901121436E+01 -0.97976989081E+01  0.44044680866E+01  0.10890305081E+02  0.51100000000E-03 0. -1.
        -11    1    3    3    0    0  0.31113341868E+02 -0.14599113032E+02  0.12890424802E+02  0.36706092074E+02  0.51100000000E-03 0.  1.
         12    1    3    3    0    0 -0.29057543769E+02  0.24852170059E+02 -0.18350833241E+02  0.42411369786E+02  0.00000000000E+00 0. -1.
</event>
<event>
 7    1  0.2349719E-015  0.9000763E+02  0.7816164E-02  0.1186339E+00
        -11   -1    0    0    0    0  0.00000000000E+00  0.00000000000E+00  0.45593999997E+02  0.45594000000E+02  0.51100000000E-03 0. -1.
         11   -1    0    0    0    0 -0.00000000000E+00 -0.00000000000E+00 -0.45593999997E+02  0.45594000000E+02  0.51100000000E-03 0.  1.
    9900012    2    1    2    0    0 -0.55126900333E+00 -0.18413680090E+00  0.10273601726E+01  0.90007630228E+02  0.89999890146E+02 0.  0.
        -12    1    1    2    0    0  0.55126900333E+00  0.18413680090E+00 -0.10273601726E+01  0.11803697725E+01  0.00000000000E+00 0.  1.
         11    1    3    3    0    0  0.33270087843E+02  0.29876443944E+01  0.80643550597E+01  0.34363623018E+02  0.51100000000E-03 0. -1.
        -11    1    3    3    0    0  0.10560959611E+02 -0.77630039018E+00  0.30985184352E+00  0.10593985021E+02  0.51100000000E-03 0.  1.
        -12    1    3    3    0    0 -0.44382316457E+02 -0.23954808051E+01 -0.73468467307E+01  0.45050022189E+02  0.00000000000E+00 0.  1.
</event>
<event>
 7    1  0.2349719E-015  0.9000768E+02  0.7816164E-02  0.1186339E+00
        -11   -1    0    0    0    0  0.00000000000E+00  0.00000000000E+00  0.45593999997E+02  0.45594000000E+02  0.51100000000E-03 0. -1.
         11   -1    0    0    0    0 -0.00000000000E+00 -0.00000000000E+00 -0.45593999997E+02  0.45594000000E+02  0.51100000000E-03 0.  1.
    9900012    2    1    2    0    0  0.85348016023E-01  0.52665869107E+00  0.10528542529E+01  0.90007679815E+02  0.89999940389E+02 0.  0.
        -12    1    1    2    0    0 -0.85348016023E-01 -0.52665869107E+00 -0.10528542529E+01  0.11803201848E+01  0.00000000000E+00 0.  1.
         11    1    3    3    0    0  0.14576330205E+01  0.45454910995E+01 -0.78800019635E+01  0.92130675979E+01  0.51100000000E-03 0. -1.
        -11    1    3    3    0    0  0.11299874514E+02 -0.15693237303E+01 -0.34052854388E+02  0.35913045447E+02  0.51100000000E-03 0.  1.
         12    1    3    3    0    0 -0.12672159519E+02 -0.24495086782E+01  0.42985710604E+02  0.44881566771E+02  0.00000000000E+00 0. -1.
</event>
<event>
 7    1  0.2349719E-015  0.9000806E+02  0.7816164E-02  0.1186338E+00
        -11   -1    0    0    0    0  0.00000000000E+00  0.00000000000E+00  0.45593999997E+02  0.45594000000E+02  0.51100000000E-03 0. -1.
         11   -1    0    0    0    0 -0.00000000000E+00 -0.00000000000E+00 -0.45593999997E+02  0.45594000000E+02  0.51100000000E-03 0.  1.
    9900012    2    1    2    0    0 -0.13169866847E+00 -0.17642699925E+00  0.11592208858E+01  0.90008057591E+02  0.90000323151E+02 0.  0.
        -12    1    1    2    0    0  0.13169866847E+00  0.17642699925E+00 -0.11592208858E+01  0.11799424085E+01  0.00000000000E+00 0.  1.
         11    1    3    3    0    0 -0.12033839118E+00 -0.51570875470E+01  0.71930423137E+01  0.88515473949E+01  0.51100000000E-03 0. -1.
        -11    1    3    3    0    0  0.16288952969E+02 -0.27066946704E+02 -0.25201847123E+02  0.40411417835E+02  0.51100000000E-03 0.  1.
         12    1    3    3    0    0 -0.16300313246E+02  0.32047607252E+02  0.19168025695E+02  0.40745092362E+02  0.00000000000E+00 0. -1.
</event>
<event>
 7    1  0.2349719E-015  0.9000776E+02  0.7816164E-02  0.1186339E+00
        -11   -1    0    0    0    0  0.00000000000E+00  0.00000000000E+00  0.45593999997E+02  0.45594000000E+02  0.51100000000E-03 0.  1.
         11   -1    0    0    0    0 -0.00000000000E+00 -0.00000000000E+00 -0.45593999997E+02  0.45594000000E+02  0.51100000000E-03 0. -1.
    9900012    2    1    2    0    0  0.23343035339E-02 -0.48682212530E+00 -0.10751613183E+01  0.90007757190E+02  0.90000018785E+02 0.  0.
        -12    1    1    2    0    0 -0.23343035339E-02  0.48682212530E+00  0.10751613183E+01  0.11802428102E+01  0.00000000000E+00 0.  1.
         11    1    3    3    0    0  0.82608368226E+01  0.22801890432E+02 -0.18882992322E+02  0.30736542284E+02  0.51100000000E-03 0. -1.
        -11    1    3    3    0    0  0.89568038576E+01  0.13108286476E+02  0.82395523123E+01  0.17886915113E+02  0.51100000000E-03 0.  1.
        -12    1    3    3    0    0 -0.17215306377E+02 -0.36396999033E+02  0.95682786919E+01  0.41384299793E+02  0.00000000000E+00 0.  1.
</event>
<event>
 7    1  0.2349719E-015  0.9000766E+02  0.7816164E-02  0.1186339E+00
        -11   -1    0    0    0    0  0.00000000000E+00  0.00000000000E+00  0.45593999997E+02  0.45594000000E+02  0.51100000000E-03 0.  1.
         11   -1    0    0    0    0 -0.00000000000E+00 -0.00000000000E+00 -0.45593999997E+02  0.45594000000E+02  0.51100000000E-03 0. -1.
    9900012    2    1    2    0    0 -0.59034762972E+00  0.90390975191E-01 -0.10181002801E+01  0.90007657239E+02  0.89999917515E+02 0.  0.
        -12    1    1    2    0    0  0.59034762972E+00 -0.90390975191E-01  0.10181002801E+01  0.11803427606E+01  0.00000000000E+00 0.  1.
         11    1    3    3    0    0 -0.33431397458E+02  0.11411556119E+02 -0.73428924479E+01  0.36080465890E+02  0.51100000000E-03 0. -1.
        -11    1    3    3    0    0 -0.94367336817E+01  0.67085263237E+00 -0.40512692437E+00  0.94692192878E+01  0.51100000000E-03 0.  1.
        -12    1    3    3    0    0  0.42277783510E+02 -0.11992017776E+02  0.67299190922E+01  0.44457972062E+02  0.00000000000E+00 0.  1.
</event>
<event>
 7    1  0.2349719E-015  0.9000776E+02  0.7816164E-02  0.1186339E+00
        -11   -1    0    0    0    0  0.00000000000E+00  0.00000000000E+00  0.45593999997E+02  0.45594000000E+02  0.51100000000E-03 0.  1.
         11   -1    0    0    0    0 -0.00000000000E+00 -0.00000000000E+00 -0.45593999997E+02  0.45594000000E+02  0.51100000000E-03 0. -1.
    9900012    2    1    2    0    0 -0.63380849028E+00  0.91709468418E+00 -0.38754431844E+00  0.90007759999E+02  0.90000021631E+02 0.  0.
        -12    1    1    2    0    0  0.63380849028E+00 -0.91709468418E+00  0.38754431844E+00  0.11802400014E+01  0.00000000000E+00 0.  1.
         11    1    3    3    0    0 -0.98508194857E+01 -0.74675726820E+00 -0.41917835416E+00  0.98879725784E+01  0.51100000000E-03 0. -1.
        -11    1    3    3    0    0  0.62225949327E+01 -0.31489766336E+02  0.23163047734E+02  0.39583492167E+02  0.51100000000E-03 0.  1.
         12    1    3    3    0    0  0.29944160626E+01  0.33153618288E+02 -0.23131413698E+02  0.40536295253E+02  0.00000000000E+00 0. -1.
</event>
<event>
 7    1  0.2349719E-015  0.9000776E+02  0.7816164E-02  0.1186339E+00
        -11   -1    0    0    0    0  0.00000000000E+00  0.00000000000E+00  0.45593999997E+02  0.45594000000E+02  0.51100000000E-03 0.  1.
         11   -1    0    0    0    0 -0.00000000000E+00 -0.00000000000E+00 -0.45593999997E+02  0.45594000000E+02  0.51100000000E-03 0. -1.
    9900012    2    1    2    0    0 -0.29286602705E+00 -0.81057258346E+00 -0.80633139444E+00  0.90007759033E+02  0.90000020652E+02 0.  0.
        -12    1    1    2    0    0  0.29286602705E+00  0.81057258346E+00  0.80633139444E+00  0.11802409671E+01  0.00000000000E+00 0.  1.
         11    1    3    3    0    0 -0.63531648328E+01 -0.51464138848E+01  0.56570443738E+01  0.99423553837E+01  0.51100000000E-03 0. -1.
        -11    1    3    3    0    0 -0.22677719870E+02 -0.21271739300E+02  0.16545380974E+02  0.35220952616E+02  0.51100000000E-03 0.  1.
         12    1    3    3    0    0  0.28738018676E+02  0.25607580601E+02 -0.23008756742E+02  0.44844451033E+02  0.00000000000E+00 0. -1.
</event>
<event>
 7    1  0.2349719E-015  0.9000890E+02  0.7816164E-02  0.1186337E+00
        -11   -1    0    0    0    0  0.00000000000E+00  0.00000000000E+00  0.45593999997E+02  0.45594000000E+02  0.51100000000E-03 0.  1.
         11   -1    0    0    0    0 -0.00000000000E+00 -0.00000000000E+00 -0.45593999997E+02  0.45594000000E+02  0.51100000000E-03 0. -1.
    9900012    2    1    2    0    0  0.87421169529E+00  0.75568785237E+00 -0.23443629017E+00  0.90008902637E+02  0.90001179344E+02 0.  0.
        -12    1    1    2    0    0 -0.87421169529E+00 -0.75568785237E+00  0.23443629017E+00  0.11790973635E+01  0.00000000000E+00 0.  1.
         11    1    3    3    0    0 -0.38444840971E+01  0.50135521808E+01  0.62174539402E+01  0.88641128830E+01  0.51100000000E-03 0. -1.
        -11    1    3    3    0    0 -0.16292180701E+02  0.15744020713E+02  0.28057116078E+02  0.36062599782E+02  0.51100000000E-03 0.  1.
         12    1    3    3    0    0  0.21010876493E+02 -0.20001885041E+02 -0.34509006308E+02  0.45082189971E+02  0.00000000000E+00 0. -1.
</event>
<event>
 7    1  0.2349719E-015  0.9000719E+02  0.7816164E-02  0.1186340E+00
        -11   -1    0    0    0    0  0.00000000000E+00  0.00000000000E+00  0.45593999997E+02  0.45594000000E+02  0.51100000000E-03 0.  1.
         11   -1    0    0    0    0 -0.00000000000E+00 -0.00000000000E+00 -0.45593999997E+02  0.45594000000E+02  0.51100000000E-03 0. -1.
    9900012    2    1    2    0    0 -0.86892855735E+00 -0.55812706257E+00  0.57250635971E+00  0.90007192570E+02  0.89999446710E+02 0.  0.
        -12    1    1    2    0    0  0.86892855735E+00  0.55812706257E+00 -0.57250635971E+00  0.11808074304E+01  0.00000000000E+00 0.  1.
         11    1    3    3    0    0  0.55468541914E+01 -0.65781974119E+01  0.48303685792E+01  0.98677623342E+01  0.51100000000E-03 0. -1.
        -11    1    3    3    0    0 -0.25912054390E+02 -0.19983994987E+02  0.21083150078E+02  0.38926775308E+02  0.51100000000E-03 0.  1.
         12    1    3    3    0    0  0.19496271642E+02  0.26004065336E+02 -0.25341012298E+02  0.41212654928E+02  0.00000000000E+00 0. -1.
</event>
<event>
 7    1  0.2349719E-015  0.9000773E+02  0.7816164E-02  0.1186339E+00
        -11   -1    0    0    0    0  0.00000000000E+00  0.00000000000E+00  0.45593999997E+02  0.45594000000E+02  0.51100000000E-03 0.  1.
         11   -1    0    0    0    0 -0.00000000000E+00 -0.00000000000E+00 -0.45593999997E+02  0.45594000000E+02  0.51100000000E-03 0. -1.
    9900012    2    1    2    0    0  0.16090293876E+00 -0.11559629737E+01  0.17576062091E+00  0.90007732256E+02  0.89999993522E+02 0.  0.
        -12    1    1    2    0    0 -0.16090293876E+00  0.11559629737E+01 -0.17576062091E+00  0.11802677442E+01  0.00000000000E+00 0.  1.
         11    1    3    3    0    0 -0.15649043012E+01 -0.10141290342E+02 -0.12480728468E+01  0.10336942554E+02  0.51100000000E-03 0. -1.
        -11    1    3    3    0    0  0.29000391337E+02 -0.41236831583E+01  0.27159520961E+02  0.39945801276E+02  0.51100000000E-03 0.  1.
         12    1    3    3    0    0 -0.27274584097E+02  0.13109010526E+02 -0.25735687494E+02  0.39724988426E+02  0.00000000000E+00 0. -1.
</event>
<event>
 7    1  0.2349719E-015  0.9000774E+02  0.7816164E-02  0.1186339E+00
        -11   -1    0    0    0    0  0.00000000000E+00  0.00000000000E+00  0.45593999997E+02  0.45594000000E+02  0.51100000000E-03 0.  1.
         11   -1    0    0    0    0 -0.00000000000E+00 -0.00000000000E+00 -0.45593999997E+02  0.45594000000E+02  0.51100000000E-03 0. -1.
    9900012    2    1    2    0    0 -0.10555008257E+01  0.22493449226E+00 -0.47785623926E+00  0.90007735579E+02  0.89999996888E+02 0.  0.
        -12    1    1    2    0    0  0.10555008257E+01 -0.22493449226E+00  0.47785623926E+00  0.11802644213E+01  0.00000000000E+00 0.  1.
         11    1    3    3    0    0 -0.25558842831E+02  0.21644693606E+02 -0.13001556545E+02  0.35927533745E+02  0.51100000000E-03 0. -1.
        -11    1    3    3    0    0 -0.75351332753E+01  0.28035862177E+01 -0.58192476630E+01  0.99248160074E+01  0.51100000000E-03 0.  1.
        -12    1    3    3    0    0  0.32038475280E+02 -0.24223345331E+02  0.18342947969E+02  0.44155385827E+02  0.00000000000E+00 0.  1.
</event>
<event>
 7    1  0.2349719E-015  0.9000770E+02  0.7816164E-02  0.1186339E+00
        -11   -1    0    0    0    0  0.00000000000E+00  0.00000000000E+00  0.45593999997E+02  0.45594000000E+02  0.51100000000E-03 0.  1.
         11   -1    0    0    0    0 -0.00000000000E+00 -0.00000000000E+00 -0.45593999997E+02  0.45594000000E+02  0.51100000000E-03 0. -1.
    9900012    2    1    2    0    0  0.10100901955E+01  0.38836001890E+00  0.47116624014E+00  0.90007702015E+02  0.89999962882E+02 0.  0.
        -12    1    1    2    0    0 -0.10100901955E+01 -0.38836001890E+00 -0.47116624014E+00  0.11802979849E+01  0.00000000000E+00 0.  1.
         11    1    3    3    0    0 -0.20121997950E+02 -0.61010664661E+01 -0.20143643156E+01  0.21122866220E+02  0.51100000000E-03 0. -1.
        -11    1    3    3    0    0  0.79012986240E+00 -0.27633343830E+01 -0.29624562749E+02  0.29763653009E+02  0.51100000000E-03 0.  1.
        -12    1    3    3    0    0  0.20341958283E+02  0.92527608680E+01  0.32110093305E+02  0.39121182785E+02  0.00000000000E+00 0.  1.
</event>
<event>
 7    1  0.2349719E-015  0.9000778E+02  0.7816164E-02  0.1186339E+00
        -11   -1    0    0    0    0  0.00000000000E+00  0.00000000000E+00  0.45593999997E+02  0.45594000000E+02  0.51100000000E-03 0.  1.
         11   -1    0    0    0    0 -0.00000000000E+00 -0.00000000000E+00 -0.45593999997E+02  0.45594000000E+02  0.51100000000E-03 0. -1.
    9900012    2    1    2    0    0  0.22841066288E+00  0.82505397515E+00 -0.81242849864E+00  0.90007777327E+02  0.90000039188E+02 0.  0.
        -12    1    1    2    0    0 -0.22841066288E+00 -0.82505397515E+00  0.81242849864E+00  0.11802226732E+01  0.00000000000E+00 0.  1.
         11    1    3    3    0    0 -0.36197276234E+02  0.67510659698E+01 -0.16450578354E+02  0.40329161000E+02  0.51100000000E-03 0. -1.
        -11    1    3    3    0    0 -0.31428329110E+01 -0.68640443262E+01  0.19275918671E+01  0.77915411752E+01  0.51100000000E-03 0.  1.
        -12    1    3    3    0    0  0.39568519808E+02  0.93803233150E+00  0.13710557988E+02  0.41887075152E+02  0.00000000000E+00 0.  1.
</event>
<event>
 7    1  0.2349719E-015  0.9000772E+02  0.7816164E-02  0.1186339E+00
        -11   -1    0    0    0    0  0.00000000000E+00  0.00000000000E+00  0.45593999997E+02  0.45594000000E+02  0.51100000000E-03 0.  1.
         11   -1    0    0    0    0 -0.00000000000E+00 -0.00000000000E+00 -0.45593999997E+02  0.45594000000E+02  0.51100000000E-03 0. -1.
    9900012    2    1    2    0    0 -0.20580605315E+00 -0.85074101639E+00 -0.79179912200E+00  0.90007719416E+02  0.89999980512E+02 0.  0.
        -12    1    1    2    0    0  0.20580605315E+00  0.85074101639E+00  0.79179912200E+00  0.11802805845E+01  0.00000000000E+00 0.  1.
         11    1    3    3    0    0 -0.70789189249E+00 -0.30039749477E+02 -0.78622447084E+01  0.31059661165E+02  0.51100000000E-03 0. -1.
        -11    1    3    3    0    0  0.96272794277E+01 -0.84701637597E+01 -0.10335071917E+02  0.16469423034E+02  0.51100000000E-03 0.  1.
        -12    1    3    3    0    0 -0.91251935884E+01  0.37659172220E+02  0.17405517503E+02  0.42478635217E+02  0.00000000000E+00 0.  1.
</event>
<event>
 7    1  0.2349719E-015  0.9000804E+02  0.7816164E-02  0.1186338E+00
        -11   -1    0    0    0    0  0.00000000000E+00  0.00000000000E+00  0.45593999997E+02  0.45594000000E+02  0.51100000000E-03 0. -1.
         11   -1    0    0    0    0 -0.00000000000E+00 -0.00000000000E+00 -0.45593999997E+02  0.45594000000E+02  0.51100000000E-03 0.  1.
    9900012    2    1    2    0    0 -0.11166260451E+01  0.24079672777E+00  0.29574397780E+00  0.90008041827E+02  0.90000307179E+02 0.  0.
        -12    1    1    2    0    0  0.11166260451E+01 -0.24079672777E+00 -0.29574397780E+00  0.11799581726E+01  0.00000000000E+00 0.  1.
         11    1    3    3    0    0 -0.49347364136E+00 -0.16766421941E+01  0.10459883827E+02  0.10604895814E+02  0.51100000000E-03 0. -1.
        -11    1    3    3    0    0 -0.20310966273E+02  0.32511236110E+02 -0.17742376460E+02  0.42241067069E+02  0.51100000000E-03 0.  1.
         12    1    3    3    0    0  0.19687813870E+02 -0.30593797188E+02  0.75782366110E+01  0.37162078945E+02  0.00000000000E+00 0. -1.
</event>
<event>
 8    1  0.2349719E-015  0.9000771E+02  0.7816164E-02  0.1186339E+00
        -11   -1    0    0    0    0  0.00000000000E+00  0.00000000000E+00  0.45593999997E+02  0.45594000000E+02  0.51100000000E-03 0. -1.
         11   -1    0    0    0    0 -0.00000000000E+00 -0.00000000000E+00 -0.45593999997E+02  0.45594000000E+02  0.51100000000E-03 0.  1.
    9900012    2    1    2    0    0 -0.18292854666E+00  0.51374641617E+00  0.10467482128E+01  0.90007711877E+02  0.89999972873E+02 0.  0.
         23    2    3    3    0    0 -0.18941055698E+02 -0.91773832874E+01  0.17166936262E+02  0.63443717601E+02  0.57335971671E+02 0.  0.
        -12    1    1    2    0    0  0.18292854666E+00 -0.51374641617E+00 -0.10467482128E+01  0.11802881235E+01  0.00000000000E+00 0.  1.
         11    1    4    4    0    0 -0.23482581631E+02 -0.14571555432E+02  0.34808327290E+02  0.44445264279E+02  0.51100000000E-03 0. -1.
        -11    1    4    4    0    0  0.45415259336E+01  0.53941721450E+01 -0.17641391029E+02  0.18998453322E+02  0.51100000000E-03 0.  1.
        -12    1    3    3    0    0  0.18758127151E+02  0.96911297036E+01 -0.16120188049E+02  0.26563994276E+02  0.00000000000E+00 0.  1.
</event>
<event>
 7    1  0.2349719E-015  0.9000764E+02  0.7816164E-02  0.1186339E+00
        -11   -1    0    0    0    0  0.00000000000E+00  0.00000000000E+00  0.45593999997E+02  0.45594000000E+02  0.51100000000E-03 0.  1.
         11   -1    0    0    0    0 -0.00000000000E+00 -0.00000000000E+00 -0.45593999997E+02  0.45594000000E+02  0.51100000000E-03 0. -1.
    9900012    2    1    2    0    0 -0.18919655490E-01 -0.11689175314E+01  0.16285975686E+00  0.90007640119E+02  0.89999900168E+02 0.  0.
        -12    1    1    2    0    0  0.18919655490E-01  0.11689175314E+01 -0.16285975686E+00  0.11803598811E+01  0.00000000000E+00 0.  1.
         11    1    3    3    0    0 -0.30850663266E+02  0.21182283875E+02 -0.57601866111E+01  0.37863337468E+02  0.51100000000E-03 0. -1.
        -11    1    3    3    0    0  0.43582951290E+01  0.91122644708E+01 -0.19253051919E+01  0.10282747714E+02  0.51100000000E-03 0.  1.
        -12    1    3    3    0    0  0.26473448481E+02 -0.31463465878E+02  0.78483515600E+01  0.41861554937E+02  0.00000000000E+00 0.  1.
</event>
<event>
 7    1  0.2349719E-015  0.9000780E+02  0.7816164E-02  0.1186339E+00
        -11   -1    0    0    0    0  0.00000000000E+00  0.00000000000E+00  0.45593999997E+02  0.45594000000E+02  0.51100000000E-03 0. -1.
         11   -1    0    0    0    0 -0.00000000000E+00 -0.00000000000E+00 -0.45593999997E+02  0.45594000000E+02  0.51100000000E-03 0.  1.
    9900012    2    1    2    0    0  0.97895122936E-01  0.49104844509E+00  0.10687170273E+01  0.90007801663E+02  0.90000063845E+02 0.  0.
        -12    1    1    2    0    0 -0.97895122936E-01 -0.49104844509E+00 -0.10687170273E+01  0.11801983371E+01  0.00000000000E+00 0.  1.
         11    1    3    3    0    0  0.16904214125E+02 -0.14776348316E+02  0.29882625177E+02  0.37377322168E+02  0.51100000000E-03 0. -1.
        -11    1    3    3    0    0 -0.42148502511E+00  0.69407161771E+01  0.85322185071E+01  0.11006813508E+02  0.51100000000E-03 0.  1.
        -12    1    3    3    0    0 -0.16384833977E+02  0.83266805843E+01 -0.37346126656E+02  0.41623665987E+02  0.00000000000E+00 0.  1.
</event>
<event>
 7    1  0.2349719E-015  0.9000773E+02  0.7816164E-02  0.1186339E+00
        -11   -1    0    0    0    0  0.00000000000E+00  0.00000000000E+00  0.45593999997E+02  0.45594000000E+02  0.51100000000E-03 0. -1.
         11   -1    0    0    0    0 -0.00000000000E+00 -0.00000000000E+00 -0.45593999997E+02  0.45594000000E+02  0.51100000000E-03 0.  1.
    9900012    2    1    2    0    0  0.11504951134E+01 -0.10758366197E-02  0.26345397982E+00  0.90007725387E+02  0.89999986562E+02 0.  0.
        -12    1    1    2    0    0 -0.11504951134E+01  0.10758366197E-02 -0.26345397982E+00  0.11802746134E+01  0.00000000000E+00 0.  1.
         11    1    3    3    0    0  0.21004619256E+01  0.11694875039E+01 -0.88372497224E+01  0.91584182171E+01  0.51100000000E-03 0. -1.
        -11    1    3    3    0    0  0.24069793888E+02 -0.33240467041E+01 -0.27350662018E+02  0.36585010282E+02  0.51100000000E-03 0.  1.
         12    1    3    3    0    0 -0.25019760700E+02  0.21534833636E+01  0.36451365720E+02  0.44264296887E+02  0.00000000000E+00 0. -1.
</event>
<event>
 7    1  0.2349719E-015  0.9000771E+02  0.7816164E-02  0.1186339E+00
        -11   -1    0    0    0    0  0.00000000000E+00  0.00000000000E+00  0.45593999997E+02  0.45594000000E+02  0.51100000000E-03 0.  1.
         11   -1    0    0    0    0 -0.00000000000E+00 -0.00000000000E+00 -0.45593999997E+02  0.45594000000E+02  0.51100000000E-03 0. -1.
    9900012    2    1    2    0    0  0.71020962554E+00  0.93030469511E+00 -0.15237166810E+00  0.90007711195E+02  0.89999972183E+02 0.  0.
        -12    1    1    2    0    0 -0.71020962554E+00 -0.93030469511E+00  0.15237166810E+00  0.11802888050E+01  0.00000000000E+00 0.  1.
         11    1    3    3    0    0 -0.62428398989E-01 -0.26765110738E+01 -0.12523443678E+01  0.29556683694E+01  0.51100000000E-03 0. -1.
        -11    1    3    3    0    0 -0.25525067121E+02 -0.28699951225E+02  0.17596688261E+02  0.42247599812E+02  0.51100000000E-03 0.  1.
         12    1    3    3    0    0  0.26297705146E+02  0.32306766993E+02 -0.16496715561E+02  0.44804443014E+02  0.00000000000E+00 0. -1.
</event>
<event>
 7    1  0.2431075E-015  0.9000781E+02  0.7816164E-02  0.1186339E+00
        -11   -1    0    0    0    0  0.00000000000E+00  0.00000000000E+00  0.45593999997E+02  0.45594000000E+02  0.51100000000E-03 0.  1.
         11   -1    0    0    0    0 -0.00000000000E+00 -0.00000000000E+00 -0.45593999997E+02  0.45594000000E+02  0.51100000000E-03 0. -1.
    9900012    2    1    2    0    0  0.11608008820E+01 -0.14597406191E+00  0.15514566685E+00  0.90007814721E+02  0.90000077075E+02 0.  0.
        -12    1    1    2    0    0 -0.11608008820E+01  0.14597406191E+00 -0.15514566685E+00  0.11801852788E+01  0.00000000000E+00 0.  1.
         11    1    3    3    0    0  0.37621499419E+01 -0.31377057444E+02  0.16707520195E+02  0.35746534620E+02  0.51100000000E-03 0. -1.
        -11    1    3    3    0    0  0.55311170884E+01 -0.73285787098E+01  0.37657455983E+01  0.99238179308E+01  0.51100000000E-03 0.  1.
        -12    1    3    3    0    0 -0.81324661483E+01  0.38559662092E+02 -0.20318120126E+02  0.44337462171E+02  0.00000000000E+00 0.  1.
</event>
<event>
 7    1  0.2349719E-015  0.9000772E+02  0.7816164E-02  0.1186339E+00
        -11   -1    0    0    0    0  0.00000000000E+00  0.00000000000E+00  0.45593999997E+02  0.45594000000E+02  0.51100000000E-03 0. -1.
         11   -1    0    0    0    0 -0.00000000000E+00 -0.00000000000E+00 -0.45593999997E+02  0.45594000000E+02  0.51100000000E-03 0.  1.
    9900012    2    1    2    0    0 -0.26278016425E+00  0.90852208135E+00  0.70611486230E+00  0.90007718684E+02  0.89999979770E+02 0.  0.
        -12    1    1    2    0    0  0.26278016425E+00 -0.90852208135E+00 -0.70611486230E+00  0.11802813164E+01  0.00000000000E+00 0.  1.
         11    1    3    3    0    0 -0.63173644017E+01  0.11190236235E+02 -0.57126519090E+01  0.14062889891E+02  0.51100000000E-03 0. -1.
        -11    1    3    3    0    0 -0.50957893397E+01  0.97221068783E+01 -0.30547258739E+02  0.32459535546E+02  0.51100000000E-03 0.  1.
         12    1    3    3    0    0  0.11150373577E+02 -0.20003821032E+02  0.36966025510E+02  0.43485293247E+02  0.00000000000E+00 0. -1.
</event>
<event>
 7    1  0.2349719E-015  0.9000772E+02  0.7816164E-02  0.1186339E+00
        -11   -1    0    0    0    0  0.00000000000E+00  0.00000000000E+00  0.45593999997E+02  0.45594000000E+02  0.51100000000E-03 0. -1.
         11   -1    0    0    0    0 -0.00000000000E+00 -0.00000000000E+00 -0.45593999997E+02  0.45594000000E+02  0.51100000000E-03 0.  1.
    9900012    2    1    2    0    0 -0.97489242886E+00  0.62766545691E+00 -0.22065069579E+00  0.90007717871E+02  0.89999978947E+02 0.  0.
        -12    1    1    2    0    0  0.97489242886E+00 -0.62766545691E+00  0.22065069579E+00  0.11802821286E+01  0.00000000000E+00 0.  1.
         11    1    3    3    0    0  0.23765063913E+01  0.18355483707E+02  0.33115109988E+02  0.37936553277E+02  0.51100000000E-03 0. -1.
        -11    1    3    3    0    0 -0.23646822037E+01 -0.44607130095E+01  0.75460086271E+01  0.90792031004E+01  0.51100000000E-03 0.  1.
        -12    1    3    3    0    0 -0.98671661646E+00 -0.13267105240E+02 -0.40881769311E+02  0.42991961494E+02  0.00000000000E+00 0.  1.
</event>
<event>
 7    1  0.2349719E-015  0.9000776E+02  0.7816164E-02  0.1186339E+00
        -11   -1    0    0    0    0  0.00000000000E+00  0.00000000000E+00  0.45593999997E+02  0.45594000000E+02  0.51100000000E-03 0. -1.
         11   -1    0    0    0    0 -0.00000000000E+00 -0.00000000000E+00 -0.45593999997E+02  0.45594000000E+02  0.51100000000E-03 0.  1.
    9900012    2    1    2    0    0 -0.10580804935E+01 -0.50601259423E+00  0.13188493499E+00  0.90007755656E+02  0.90000017230E+02 0.  0.
        -12    1    1    2    0    0  0.10580804935E+01  0.50601259423E+00 -0.13188493499E+00  0.11802443444E+01  0.00000000000E+00 0.  1.
         11    1    3    3    0    0  0.30133202482E+02 -0.24432115709E+02 -0.17518634617E+02  0.42565722465E+02  0.51100000000E-03 0. -1.
        -11    1    3    3    0    0 -0.84539090710E+01  0.39024337248E+01  0.14155987973E+02  0.16943717518E+02  0.51100000000E-03 0.  1.
        -12    1    3    3    0    0 -0.22737373905E+02  0.20023669390E+02  0.34945315781E+01  0.30498315673E+02  0.00000000000E+00 0.  1.
</event>
<event>
 7    1  0.2349719E-015  0.9000770E+02  0.7816164E-02  0.1186339E+00
        -11   -1    0    0    0    0  0.00000000000E+00  0.00000000000E+00  0.45593999997E+02  0.45594000000E+02  0.51100000000E-03 0.  1.
         11   -1    0    0    0    0 -0.00000000000E+00 -0.00000000000E+00 -0.45593999997E+02  0.45594000000E+02  0.51100000000E-03 0. -1.
    9900012    2    1    2    0    0 -0.25459120317E+00 -0.58487165092E+00 -0.99307984074E+00  0.90007703809E+02  0.89999964699E+02 0.  0.
        -12    1    1    2    0    0  0.25459120317E+00  0.58487165092E+00  0.99307984074E+00  0.11802961912E+01  0.00000000000E+00 0.  1.
         11    1    3    3    0    0 -0.28700717923E+02  0.26614540180E+02  0.32453780833E+01  0.39275914215E+02  0.51100000000E-03 0. -1.
        -11    1    3    3    0    0 -0.59453683062E+01 -0.58644685825E+01  0.42640573484E+01  0.93766508618E+01  0.51100000000E-03 0.  1.
        -12    1    3    3    0    0  0.34391495026E+02 -0.21334943248E+02 -0.85025152725E+01  0.41355138732E+02  0.00000000000E+00 0.  1.
</event>
<event>
 7    1  0.2349719E-015  0.9000866E+02  0.7816164E-02  0.1186337E+00
        -11   -1    0    0    0    0  0.00000000000E+00  0.00000000000E+00  0.45593999997E+02  0.45594000000E+02  0.51100000000E-03 0.  1.
         11   -1    0    0    0    0 -0.00000000000E+00 -0.00000000000E+00 -0.45593999997E+02  0.45594000000E+02  0.51100000000E-03 0. -1.
    9900012    2    1    2    0    0  0.52050456503E+00 -0.10355838503E+01  0.21790393434E+00  0.90008660762E+02  0.90000934279E+02 0.  0.
        -12    1    1    2    0    0 -0.52050456503E+00  0.10355838503E+01 -0.21790393434E+00  0.11793392378E+01  0.00000000000E+00 0.  1.
         11    1    3    3    0    0 -0.35743822867E+00 -0.37791290969E+01  0.92780801681E+01  0.10024587308E+02  0.51100000000E-03 0. -1.
        -11    1    3    3    0    0 -0.91470233173E+01  0.14904706475E+02  0.31743832809E+02  0.36242091997E+02  0.51100000000E-03 0.  1.
         12    1    3    3    0    0  0.10024966111E+02 -0.12161161228E+02 -0.40804009042E+02  0.43741981458E+02  0.00000000000E+00 0. -1.
</event>
<event>
 7    1  0.2349719E-015  0.9000768E+02  0.7816164E-02  0.1186339E+00
        -11   -1    0    0    0    0  0.00000000000E+00  0.00000000000E+00  0.45593999997E+02  0.45594000000E+02  0.51100000000E-03 0.  1.
         11   -1    0    0    0    0 -0.00000000000E+00 -0.00000000000E+00 -0.45593999997E+02  0.45594000000E+02  0.51100000000E-03 0. -1.
    9900012    2    1    2    0    0 -0.11115594448E+01  0.36017912498E+00  0.16693040131E+00  0.90007678366E+02  0.89999938920E+02 0.  0.
        -12    1    1    2    0    0  0.11115594448E+01 -0.36017912498E+00 -0.16693040131E+00  0.11803216343E+01  0.00000000000E+00 0.  1.
         11    1    3    3    0    0  0.79520155516E+01 -0.23047660937E+01  0.60474451376E+01  0.10252711399E+02  0.51100000000E-03 0. -1.
        -11    1    3    3    0    0 -0.60603407456E+01 -0.38895468371E+00  0.36579144749E+02  0.37079817240E+02  0.51100000000E-03 0.  1.
         12    1    3    3    0    0 -0.30032342509E+01  0.30538999024E+01 -0.42459659485E+02  0.42675149727E+02  0.00000000000E+00 0. -1.
</event>
<event>
 7    1  0.2349719E-015  0.9000769E+02  0.7816164E-02  0.1186339E+00
        -11   -1    0    0    0    0  0.00000000000E+00  0.00000000000E+00  0.45593999997E+02  0.45594000000E+02  0.51100000000E-03 0.  1.
         11   -1    0    0    0    0 -0.00000000000E+00 -0.00000000000E+00 -0.45593999997E+02  0.45594000000E+02  0.51100000000E-03 0. -1.
    9900012    2    1    2    0    0 -0.37413626935E+00 -0.11100681368E+01  0.14458519155E+00  0.90007688984E+02  0.89999949679E+02 0.  0.
        -12    1    1    2    0    0  0.37413626935E+00  0.11100681368E+01 -0.14458519155E+00  0.11803110158E+01  0.00000000000E+00 0.  1.
         11    1    3    3    0    0  0.42723430093E+01  0.95192256441E+01  0.63899351431E+00  0.10453558467E+02  0.51100000000E-03 0. -1.
        -11    1    3    3    0    0  0.27881477943E+02 -0.12526103014E+02  0.23941329009E+02  0.38826116262E+02  0.51100000000E-03 0.  1.
         12    1    3    3    0    0 -0.32527957221E+02  0.18968092326E+01 -0.24435737332E+02  0.40728014256E+02  0.00000000000E+00 0. -1.
</event>
<event>
 7    1  0.2349719E-015  0.9000778E+02  0.7816164E-02  0.1186339E+00
        -11   -1    0    0    0    0  0.00000000000E+00  0.00000000000E+00  0.45593999997E+02  0.45594000000E+02  0.51100000000E-03 0.  1.
         11   -1    0    0    0    0 -0.00000000000E+00 -0.00000000000E+00 -0.45593999997E+02  0.45594000000E+02  0.51100000000E-03 0. -1.
    9900012    2    1    2    0    0  0.62170428708E+00 -0.94014355250E+00 -0.35004842619E+00  0.90007779673E+02  0.90000041565E+02 0.  0.
        -12    1    1    2    0    0 -0.62170428708E+00  0.94014355250E+00  0.35004842619E+00  0.11802203271E+01  0.00000000000E+00 0.  1.
         11    1    3    3    0    0  0.32421379092E+02 -0.29987499800E+02  0.45796116223E+01  0.44400099205E+02  0.51100000000E-03 0. -1.
        -11    1    3    3    0    0 -0.56738578372E+01  0.23993301367E+01 -0.55387317071E+01  0.82841412981E+01  0.51100000000E-03 0.  1.
        -12    1    3    3    0    0 -0.26125816968E+02  0.26648026111E+02  0.60907165861E+00  0.37323539170E+02  0.00000000000E+00 0.  1.
</event>
<event>
 7    1  0.2349719E-015  0.9000778E+02  0.7816164E-02  0.1186339E+00
        -11   -1    0    0    0    0  0.00000000000E+00  0.00000000000E+00  0.45593999997E+02  0.45594000000E+02  0.51100000000E-03 0.  1.
         11   -1    0    0    0    0 -0.00000000000E+00 -0.00000000000E+00 -0.45593999997E+02  0.45594000000E+02  0.51100000000E-03 0. -1.
    9900012    2    1    2    0    0 -0.11041900226E+01  0.20630745875E+00 -0.36209010410E+00  0.90007784928E+02  0.90000046889E+02 0.  0.
        -12    1    1    2    0    0  0.11041900226E+01 -0.20630745875E+00  0.36209010410E+00  0.11802150724E+01  0.00000000000E+00 0.  1.
         11    1    3    3    0    0  0.17433307075E+02  0.13697604677E+02 -0.30930509850E+02  0.38055761841E+02  0.51100000000E-03 0. -1.
        -11    1    3    3    0    0  0.95108134131E+01 -0.49479891752E+01  0.17923937210E+01  0.10869721439E+02  0.51100000000E-03 0.  1.
        -12    1    3    3    0    0 -0.28048310511E+02 -0.85433080428E+01  0.28776026025E+02  0.41082301647E+02  0.00000000000E+00 0.  1.
</event>
<event>
 7    1  0.2349719E-015  0.9000771E+02  0.7816164E-02  0.1186339E+00
        -11   -1    0    0    0    0  0.00000000000E+00  0.00000000000E+00  0.45593999997E+02  0.45594000000E+02  0.51100000000E-03 0. -1.
         11   -1    0    0    0    0 -0.00000000000E+00 -0.00000000000E+00 -0.45593999997E+02  0.45594000000E+02  0.51100000000E-03 0.  1.
    9900012    2    1    2    0    0  0.24094857283E+00 -0.68555203239E+00 -0.93007527888E+00  0.90007712820E+02  0.89999973829E+02 0.  0.
        -12    1    1    2    0    0 -0.24094857283E+00  0.68555203239E+00  0.93007527888E+00  0.11802871804E+01  0.00000000000E+00 0.  1.
         11    1    3    3    0    0  0.17969735748E+01  0.73523452741E+01  0.30370933387E+01  0.81553682484E+01  0.51100000000E-03 0. -1.
        -11    1    3    3    0    0 -0.12815632205E+02  0.30861091608E+02  0.15598477132E+02  0.36877634050E+02  0.51100000000E-03 0.  1.
         12    1    3    3    0    0  0.11259607203E+02 -0.38898988914E+02 -0.19565645749E+02  0.44974710521E+02  0.00000000000E+00 0. -1.
</event>
<event>
 7    1  0.2349719E-015  0.9000769E+02  0.7816164E-02  0.1186339E+00
        -11   -1    0    0    0    0  0.00000000000E+00  0.00000000000E+00  0.45593999997E+02  0.45594000000E+02  0.51100000000E-03 0.  1.
         11   -1    0    0    0    0 -0.00000000000E+00 -0.00000000000E+00 -0.45593999997E+02  0.45594000000E+02  0.51100000000E-03 0. -1.
    9900012    2    1    2    0    0 -0.34302492916E+00  0.16753466479E+00 -0.11168656069E+01  0.90007693790E+02  0.89999954548E+02 0.  0.
        -12    1    1    2    0    0  0.34302492916E+00 -0.16753466479E+00  0.11168656069E+01  0.11803062102E+01  0.00000000000E+00 0.  1.
         11    1    3    3    0    0 -0.99940916074E+01 -0.33051596029E+01  0.23654580616E+01  0.10788945229E+02  0.51100000000E-03 0. -1.
        -11    1    3    3    0    0 -0.69088457431E+01 -0.25808343489E+02  0.23897340895E+02  0.35845301578E+02  0.51100000000E-03 0.  1.
         12    1    3    3    0    0  0.16559912421E+02  0.29281037756E+02 -0.27379664564E+02  0.43373446982E+02  0.00000000000E+00 0. -1.
</event>
<event>
 7    1  0.2349719E-015  0.9000768E+02  0.7816164E-02  0.1186339E+00
        -11   -1    0    0    0    0  0.00000000000E+00  0.00000000000E+00  0.45593999997E+02  0.45594000000E+02  0.51100000000E-03 0. -1.
         11   -1    0    0    0    0 -0.00000000000E+00 -0.00000000000E+00 -0.45593999997E+02  0.45594000000E+02  0.51100000000E-03 0.  1.
    9900012    2    1    2    0    0  0.18170211729E+00 -0.64733423010E+00  0.97010263518E+00  0.90007679540E+02  0.89999940110E+02 0.  0.
        -12    1    1    2    0    0 -0.18170211729E+00  0.64733423010E+00 -0.97010263518E+00  0.11803204597E+01  0.00000000000E+00 0.  1.
         11    1    3    3    0    0 -0.70495978663E+01  0.35086267630E+02 -0.12347051658E+02  0.37857531499E+02  0.51100000000E-03 0. -1.
        -11    1    3    3    0    0 -0.68868725805E+01  0.33438322712E-01 -0.59856126738E+01  0.91245652720E+01  0.51100000000E-03 0.  1.
        -12    1    3    3    0    0  0.14118172564E+02 -0.35767040183E+02  0.19302766967E+02  0.43025582769E+02  0.00000000000E+00 0.  1.
</event>
<event>
 7    1  0.2349719E-015  0.9000796E+02  0.7816164E-02  0.1186339E+00
        -11   -1    0    0    0    0  0.00000000000E+00  0.00000000000E+00  0.45593999997E+02  0.45594000000E+02  0.51100000000E-03 0.  1.
         11   -1    0    0    0    0 -0.00000000000E+00 -0.00000000000E+00 -0.45593999997E+02  0.45594000000E+02  0.51100000000E-03 0. -1.
    9900012    2    1    2    0    0  0.54780235698E+00  0.76173705745E-01 -0.10424048974E+01  0.90007958549E+02  0.90000222802E+02 0.  0.
        -12    1    1    2    0    0 -0.54780235698E+00 -0.76173705745E-01  0.10424048974E+01  0.11800414510E+01  0.00000000000E+00 0.  1.
         11    1    3    3    0    0 -0.35314837957E+01  0.21178561487E+02  0.18641589411E+02  0.28434340163E+02  0.51100000000E-03 0. -1.
        -11    1    3    3    0    0  0.77348969518E+01 -0.82691228743E+01  0.18185257911E+02  0.21422199456E+02  0.51100000000E-03 0.  1.
         12    1    3    3    0    0 -0.36556107992E+01 -0.12833264907E+02 -0.37869252219E+02  0.40151418931E+02  0.00000000000E+00 0. -1.
</event>
<event>
 7    1  0.2349719E-015  0.9000783E+02  0.7816164E-02  0.1186339E+00
        -11   -1    0    0    0    0  0.00000000000E+00  0.00000000000E+00  0.45593999997E+02  0.45594000000E+02  0.51100000000E-03 0.  1.
         11   -1    0    0    0    0 -0.00000000000E+00 -0.00000000000E+00 -0.45593999997E+02  0.45594000000E+02  0.51100000000E-03 0. -1.
    9900012    2    1    2    0    0  0.45946040066E+00 -0.15687523792E+00 -0.10756829571E+01  0.90007827333E+02  0.90000089854E+02 0.  0.
        -12    1    1    2    0    0 -0.45946040066E+00  0.15687523792E+00  0.10756829571E+01  0.11801726671E+01  0.00000000000E+00 0.  1.
         11    1    3    3    0    0  0.28270665885E+02 -0.84545589579E+01 -0.19885421650E+02  0.35582862605E+02  0.51100000000E-03 0. -1.
        -11    1    3    3    0    0  0.10180038604E+02  0.46640665838E+00 -0.20306308731E+01  0.10391062658E+02  0.51100000000E-03 0.  1.
        -12    1    3    3    0    0 -0.37991244089E+02  0.78312770616E+01  0.20840369566E+02  0.44033902069E+02  0.00000000000E+00 0.  1.
</event>
<event>
 7    1  0.2349719E-015  0.9000768E+02  0.7816164E-02  0.1186339E+00
        -11   -1    0    0    0    0  0.00000000000E+00  0.00000000000E+00  0.45593999997E+02  0.45594000000E+02  0.51100000000E-03 0.  1.
         11   -1    0    0    0    0 -0.00000000000E+00 -0.00000000000E+00 -0.45593999997E+02  0.45594000000E+02  0.51100000000E-03 0. -1.
    9900012    2    1    2    0    0  0.40398593649E+00 -0.23903021040E-02 -0.11090295023E+01  0.90007679371E+02  0.89999939939E+02 0.  0.
        -12    1    1    2    0    0 -0.40398593649E+00  0.23903021040E-02  0.11090295023E+01  0.11803206291E+01  0.00000000000E+00 0.  1.
         11    1    3    3    0    0 -0.27871511377E+02 -0.10265920189E+02 -0.20868323120E+02  0.36300098813E+02  0.51100000000E-03 0. -1.
        -11    1    3    3    0    0 -0.87656909421E+01 -0.25033397978E+01 -0.13299602999E+01  0.92126457924E+01  0.51100000000E-03 0.  1.
        -12    1    3    3    0    0  0.37041188256E+02  0.12766869685E+02  0.21089253917E+02  0.44494934765E+02  0.00000000000E+00 0.  1.
</event>
<event>
 7    1  0.2349719E-015  0.9000778E+02  0.7816164E-02  0.1186339E+00
        -11   -1    0    0    0    0  0.00000000000E+00  0.00000000000E+00  0.45593999997E+02  0.45594000000E+02  0.51100000000E-03 0.  1.
         11   -1    0    0    0    0 -0.00000000000E+00 -0.00000000000E+00 -0.45593999997E+02  0.45594000000E+02  0.51100000000E-03 0. -1.
    9900012    2    1    2    0    0 -0.35192541842E+00 -0.41596809967E+00 -0.10469197115E+01  0.90007778901E+02  0.90000040783E+02 0.  0.
        -12    1    1    2    0    0  0.35192541842E+00  0.41596809967E+00  0.10469197115E+01  0.11802210989E+01  0.00000000000E+00 0.  1.
         11    1    3    3    0    0  0.15313127242E+02 -0.28042263416E+02 -0.14555880719E+02  0.35110312833E+02  0.51100000000E-03 0. -1.
        -11    1    3    3    0    0  0.45524754597E+01 -0.55877467918E+01 -0.77487267435E+01  0.10582566486E+02  0.51100000000E-03 0.  1.
        -12    1    3    3    0    0 -0.20217528120E+02  0.33214042109E+02  0.21257687751E+02  0.44314899582E+02  0.00000000000E+00 0.  1.
</event>
<event>
 7    1  0.2349719E-015  0.9000775E+02  0.7816164E-02  0.1186339E+00
        -11   -1    0    0    0    0  0.00000000000E+00  0.00000000000E+00  0.45593999997E+02  0.45594000000E+02  0.51100000000E-03 0. -1.
         11   -1    0    0    0    0 -0.00000000000E+00 -0.00000000000E+00 -0.45593999997E+02  0.45594000000E+02  0.51100000000E-03 0.  1.
    9900012    2    1    2    0    0  0.96430769127E+00 -0.65118942588E+00  0.19763744768E+00  0.90007746827E+02  0.90000008285E+02 0.  0.
        -12    1    1    2    0    0 -0.96430769127E+00  0.65118942588E+00 -0.19763744768E+00  0.11802531731E+01  0.00000000000E+00 0.  1.
         11    1    3    3    0    0 -0.13491497951E+01  0.32186512234E+02  0.12701276291E+02  0.34628228292E+02  0.51100000000E-03 0. -1.
        -11    1    3    3    0    0  0.27695508543E+01  0.10278040540E+02 -0.66368616436E+00  0.10665318038E+02  0.51100000000E-03 0.  1.
        -12    1    3    3    0    0 -0.45609336798E+00 -0.43115742200E+02 -0.11839952679E+02  0.44714200496E+02  0.00000000000E+00 0.  1.
</event>
<event>
 7    1  0.2349719E-015  0.9000775E+02  0.7816164E-02  0.1186339E+00
        -11   -1    0    0    0    0  0.00000000000E+00  0.00000000000E+00  0.45593999997E+02  0.45594000000E+02  0.51100000000E-03 0. -1.
         11   -1    0    0    0    0 -0.00000000000E+00 -0.00000000000E+00 -0.45593999997E+02  0.45594000000E+02  0.51100000000E-03 0.  1.
    9900012    2    1    2    0    0  0.98669976365E+00 -0.49913237966E+00  0.41264335166E+00  0.90007752529E+02  0.90000014063E+02 0.  0.
        -12    1    1    2    0    0 -0.98669976365E+00  0.49913237966E+00 -0.41264335166E+00  0.11802474705E+01  0.00000000000E+00 0.  1.
         11    1    3    3    0    0  0.19596548697E+02  0.30814013671E+02 -0.78776224234E+01  0.37357530629E+02  0.51100000000E-03 0. -1.
        -11    1    3    3    0    0  0.46417969009E+01  0.49721164205E+01 -0.39292596888E+01  0.78553995526E+01  0.51100000000E-03 0.  1.
        -12    1    3    3    0    0 -0.23251645834E+02 -0.36285262472E+02  0.12219525464E+02  0.44794822348E+02  0.00000000000E+00 0.  1.
</event>
<event>
 7    1  0.2349719E-015  0.9000773E+02  0.7816164E-02  0.1186339E+00
        -11   -1    0    0    0    0  0.00000000000E+00  0.00000000000E+00  0.45593999997E+02  0.45594000000E+02  0.51100000000E-03 0.  1.
         11   -1    0    0    0    0 -0.00000000000E+00 -0.00000000000E+00 -0.45593999997E+02  0.45594000000E+02  0.51100000000E-03 0. -1.
    9900012    2    1    2    0    0 -0.63505196585E+00  0.97847433872E+00  0.17983623868E+00  0.90007727106E+02  0.89999988304E+02 0.  0.
        -12    1    1    2    0    0  0.63505196585E+00 -0.97847433872E+00 -0.17983623868E+00  0.11802728937E+01  0.00000000000E+00 0.  1.
         11    1    3    3    0    0 -0.21839224965E+01  0.68135381331E+01  0.41991954328E+01  0.82962076822E+01  0.51100000000E-03 0. -1.
        -11    1    3    3    0    0 -0.22686514886E+02  0.23306780931E+02  0.18703663355E+02  0.37519475185E+02  0.51100000000E-03 0.  1.
         12    1    3    3    0    0  0.24235385416E+02 -0.29141844725E+02 -0.22723022549E+02  0.44192044239E+02  0.00000000000E+00 0. -1.
</event>
<event>
 7    1  0.2349719E-015  0.9000777E+02  0.7816164E-02  0.1186339E+00
        -11   -1    0    0    0    0  0.00000000000E+00  0.00000000000E+00  0.45593999997E+02  0.45594000000E+02  0.51100000000E-03 0. -1.
         11   -1    0    0    0    0 -0.00000000000E+00 -0.00000000000E+00 -0.45593999997E+02  0.45594000000E+02  0.51100000000E-03 0.  1.
    9900012    2    1    2    0    0 -0.52741102560E+00  0.32849422459E+00  0.10034261574E+01  0.90007773370E+02  0.90000035178E+02 0.  0.
        -12    1    1    2    0    0  0.52741102560E+00 -0.32849422459E+00 -0.10034261574E+01  0.11802266303E+01  0.00000000000E+00 0.  1.
         11    1    3    3    0    0 -0.15952677459E+01 -0.90437754852E+01  0.53243250534E+00  0.91988172523E+01  0.51100000000E-03 0. -1.
        -11    1    3    3    0    0 -0.23989609000E+02 -0.16503842434E+02  0.24042796667E+02  0.37761544286E+02  0.51100000000E-03 0.  1.
         12    1    3    3    0    0  0.25057465720E+02  0.25876112144E+02 -0.23571803015E+02  0.43047411831E+02  0.00000000000E+00 0. -1.
</event>
<event>
 7    1  0.2349719E-015  0.9000858E+02  0.7816164E-02  0.1186337E+00
        -11   -1    0    0    0    0  0.00000000000E+00  0.00000000000E+00  0.45593999997E+02  0.45594000000E+02  0.51100000000E-03 0. -1.
         11   -1    0    0    0    0 -0.00000000000E+00 -0.00000000000E+00 -0.45593999997E+02  0.45594000000E+02  0.51100000000E-03 0.  1.
    9900012    2    1    2    0    0  0.17106900192E+00  0.61400881555E+00 -0.99234683828E+00  0.90008583332E+02  0.90000855828E+02 0.  0.
        -12    1    1    2    0    0 -0.17106900192E+00 -0.61400881555E+00  0.99234683828E+00  0.11794166679E+01  0.00000000000E+00 0.  1.
         11    1    3    3    0    0  0.21645471846E+02 -0.27174278492E+02  0.18334885192E+02  0.39282768210E+02  0.51100000000E-03 0. -1.
        -11    1    3    3    0    0  0.49170962102E+00 -0.49987768662E+01 -0.83806375178E+01  0.97706004921E+01  0.51100000000E-03 0.  1.
        -12    1    3    3    0    0 -0.21966112465E+02  0.32787064173E+02 -0.10946594513E+02  0.40955214630E+02  0.00000000000E+00 0.  1.
</event>
<event>
 7    1  0.2349719E-015  0.9000772E+02  0.7816164E-02  0.1186339E+00
        -11   -1    0    0    0    0  0.00000000000E+00  0.00000000000E+00  0.45593999997E+02  0.45594000000E+02  0.51100000000E-03 0.  1.
         11   -1    0    0    0    0 -0.00000000000E+00 -0.00000000000E+00 -0.45593999997E+02  0.45594000000E+02  0.51100000000E-03 0. -1.
    9900012    2    1    2    0    0  0.11126982869E+01  0.32340631122E+00 -0.22443249271E+00  0.90007720769E+02  0.89999981883E+02 0.  0.
        -12    1    1    2    0    0 -0.11126982869E+01 -0.32340631122E+00  0.22443249271E+00  0.11802792312E+01  0.00000000000E+00 0.  1.
         11    1    3    3    0    0  0.44938334543E+01 -0.31592577588E+02  0.19606038767E+02  0.37452399845E+02  0.51100000000E-03 0. -1.
        -11    1    3    3    0    0  0.55194918639E+01 -0.66012430177E+01 -0.68767690886E+00  0.86321549804E+01  0.51100000000E-03 0.  1.
        -12    1    3    3    0    0 -0.89006270312E+01  0.38517226917E+02 -0.19142794351E+02  0.43923165943E+02  0.00000000000E+00 0.  1.
</event>
<event>
 7    1  0.2349719E-015  0.9000781E+02  0.7816164E-02  0.1186339E+00
        -11   -1    0    0    0    0  0.00000000000E+00  0.00000000000E+00  0.45593999997E+02  0.45594000000E+02  0.51100000000E-03 0.  1.
         11   -1    0    0    0    0 -0.00000000000E+00 -0.00000000000E+00 -0.45593999997E+02  0.45594000000E+02  0.51100000000E-03 0. -1.
    9900012    2    1    2    0    0  0.11329816559E+01  0.28332756830E+00 -0.17005583705E+00  0.90007813179E+02  0.90000075513E+02 0.  0.
        -12    1    1    2    0    0 -0.11329816559E+01 -0.28332756830E+00  0.17005583705E+00  0.11801868205E+01  0.00000000000E+00 0.  1.
         11    1    3    3    0    0 -0.88405974678E+01  0.40754850952E+02 -0.23626669131E-01  0.41702692936E+02  0.51100000000E-03 0. -1.
        -11    1    3    3    0    0  0.85511171341E+01 -0.14096634762E+01 -0.28522683681E+01  0.91238254292E+01  0.51100000000E-03 0.  1.
        -12    1    3    3    0    0  0.14224619895E+01 -0.39061859907E+02  0.27058392002E+01  0.39181294814E+02  0.00000000000E+00 0.  1.
</event>
<event>
 7    1  0.2349719E-015  0.9000777E+02  0.7816164E-02  0.1186339E+00
        -11   -1    0    0    0    0  0.00000000000E+00  0.00000000000E+00  0.45593999997E+02  0.45594000000E+02  0.51100000000E-03 0. -1.
         11   -1    0    0    0    0 -0.00000000000E+00 -0.00000000000E+00 -0.45593999997E+02  0.45594000000E+02  0.51100000000E-03 0.  1.
    9900012    2    1    2    0    0  0.17491548525E+00 -0.61127354735E+00  0.99433324994E+00  0.90007767231E+02  0.90000028959E+02 0.  0.
        -12    1    1    2    0    0 -0.17491548525E+00  0.61127354735E+00 -0.99433324994E+00  0.11802327688E+01  0.00000000000E+00 0.  1.
         11    1    3    3    0    0 -0.62486784525E+01 -0.38256705793E+01 -0.79817457191E+01  0.10834666712E+02  0.51100000000E-03 0. -1.
        -11    1    3    3    0    0 -0.96010674902E+01 -0.13347203169E+02 -0.29817908321E+02  0.34050491719E+02  0.51100000000E-03 0.  1.
         12    1    3    3    0    0  0.16024661428E+02  0.16561600201E+02  0.38793987290E+02  0.45122608800E+02  0.00000000000E+00 0. -1.
</event>
<event>
 7    1  0.2349719E-015  0.9000782E+02  0.7816164E-02  0.1186339E+00
        -11   -1    0    0    0    0  0.00000000000E+00  0.00000000000E+00  0.45593999997E+02  0.45594000000E+02  0.51100000000E-03 0.  1.
         11   -1    0    0    0    0 -0.00000000000E+00 -0.00000000000E+00 -0.45593999997E+02  0.45594000000E+02  0.51100000000E-03 0. -1.
    9900012    2    1    2    0    0  0.61317376158E-01  0.11779585691E+01 -0.38475516748E-01  0.90007819261E+02  0.90000081675E+02 0.  0.
        -12    1    1    2    0    0 -0.61317376158E-01 -0.11779585691E+01  0.38475516748E-01  0.11801807390E+01  0.00000000000E+00 0.  1.
         11    1    3    3    0    0  0.30984633145E+02  0.13237785642E+02 -0.26451507466E+02  0.42836534725E+02  0.51100000000E-03 0. -1.
        -11    1    3    3    0    0  0.12298528164E+01 -0.50768000485E+01  0.77440750598E+01  0.93411527915E+01  0.51100000000E-03 0.  1.
        -12    1    3    3    0    0 -0.32153168585E+02 -0.69830270241E+01  0.18668956889E+02  0.37830131744E+02  0.00000000000E+00 0.  1.
</event>
<event>
 7    1  0.2349719E-015  0.9000772E+02  0.7816164E-02  0.1186339E+00
        -11   -1    0    0    0    0  0.00000000000E+00  0.00000000000E+00  0.45593999997E+02  0.45594000000E+02  0.51100000000E-03 0. -1.
         11   -1    0    0    0    0 -0.00000000000E+00 -0.00000000000E+00 -0.45593999997E+02  0.45594000000E+02  0.51100000000E-03 0.  1.
    9900012    2    1    2    0    0  0.11637475341E+01  0.10750498200E-01  0.19658562598E+00  0.90007716219E+02  0.89999977273E+02 0.  0.
        -12    1    1    2    0    0 -0.11637475341E+01 -0.10750498200E-01 -0.19658562598E+00  0.11802837814E+01  0.00000000000E+00 0.  1.
         11    1    3    3    0    0 -0.28862250592E+01  0.60207189097E+01  0.76542607623E+01  0.10157118654E+02  0.51100000000E-03 0. -1.
        -11    1    3    3    0    0 -0.34528624398E+02  0.81475024463E+01 -0.14188129321E+02  0.38208777955E+02  0.51100000000E-03 0.  1.
         12    1    3    3    0    0  0.38578596991E+02 -0.14157470858E+02  0.67304541843E+01  0.41641819610E+02  0.00000000000E+00 0. -1.
</event>
<event>
 7    1  0.3376250E-015  0.9000771E+02  0.7816164E-02  0.1186339E+00
        -11   -1    0    0    0    0  0.00000000000E+00  0.00000000000E+00  0.45593999997E+02  0.45594000000E+02  0.51100000000E-03 0. -1.
         11   -1    0    0    0    0 -0.00000000000E+00 -0.00000000000E+00 -0.45593999997E+02  0.45594000000E+02  0.51100000000E-03 0.  1.
    9900012    2    1    2    0    0  0.65965535674E+00  0.13925285760E+00  0.96878371675E+00  0.90007712561E+02  0.89999973567E+02 0.  0.
        -12    1    1    2    0    0 -0.65965535674E+00 -0.13925285760E+00 -0.96878371675E+00  0.11802874387E+01  0.00000000000E+00 0.  1.
         11    1    3    3    0    0  0.11309892129E+01 -0.85373932736E+01  0.37170368386E+02  0.38154980104E+02  0.51100000000E-03 0. -1.
        -11    1    3    3    0    0 -0.52285079154E+01  0.28387011143E+01  0.63139799184E+01  0.86753594570E+01  0.51100000000E-03 0.  1.
        -12    1    3    3    0    0  0.47571740592E+01  0.58379450169E+01 -0.42515564587E+02  0.43177373001E+02  0.00000000000E+00 0.  1.
</event>
<event>
 7    1  0.2349719E-015  0.9000770E+02  0.7816164E-02  0.1186339E+00
        -11   -1    0    0    0    0  0.00000000000E+00  0.00000000000E+00  0.45593999997E+02  0.45594000000E+02  0.51100000000E-03 0. -1.
         11   -1    0    0    0    0 -0.00000000000E+00 -0.00000000000E+00 -0.45593999997E+02  0.45594000000E+02  0.51100000000E-03 0.  1.
    9900012    2    1    2    0    0  0.56799591710E+00 -0.57675171486E+00  0.85897483538E+00  0.90007703567E+02  0.89999964454E+02 0.  0.
        -12    1    1    2    0    0 -0.56799591710E+00  0.57675171486E+00 -0.85897483538E+00  0.11802964332E+01  0.00000000000E+00 0.  1.
         11    1    3    3    0    0 -0.21359477805E+02  0.24594522415E+02 -0.15773172701E+02  0.36192689901E+02  0.51100000000E-03 0. -1.
        -11    1    3    3    0    0 -0.12378735850E+01 -0.39311197673E+01 -0.11137376251E+02  0.11875486671E+02  0.51100000000E-03 0.  1.
        -12    1    3    3    0    0  0.23165347307E+02 -0.21240154363E+02  0.27769523788E+02  0.41939526996E+02  0.00000000000E+00 0.  1.
</event>
<event>
 7    1  0.2349719E-015  0.9000765E+02  0.7816164E-02  0.1186339E+00
        -11   -1    0    0    0    0  0.00000000000E+00  0.00000000000E+00  0.45593999997E+02  0.45594000000E+02  0.51100000000E-03 0. -1.
         11   -1    0    0    0    0 -0.00000000000E+00 -0.00000000000E+00 -0.45593999997E+02  0.45594000000E+02  0.51100000000E-03 0.  1.
    9900012    2    1    2    0    0  0.58735911190E+00 -0.11517277887E+00 -0.10173344565E+01  0.90007650521E+02  0.89999910708E+02 0.  0.
        -12    1    1    2    0    0 -0.58735911190E+00  0.11517277887E+00  0.10173344565E+01  0.11803494786E+01  0.00000000000E+00 0.  1.
         11    1    3    3    0    0  0.22962840163E+02  0.13218795977E+02  0.25624421594E+02  0.36859728400E+02  0.51100000000E-03 0. -1.
        -11    1    3    3    0    0  0.33331135134E+01  0.86393353711E+01  0.12065264865E+01  0.93382797009E+01  0.51100000000E-03 0.  1.
        -12    1    3    3    0    0 -0.25708594564E+02 -0.21973304127E+02 -0.27848282537E+02  0.43809642420E+02  0.00000000000E+00 0.  1.
</event>
<event>
 7    1  0.2349719E-015  0.9000765E+02  0.7816164E-02  0.1186339E+00
        -11   -1    0    0    0    0  0.00000000000E+00  0.00000000000E+00  0.45593999997E+02  0.45594000000E+02  0.51100000000E-03 0.  1.
         11   -1    0    0    0    0 -0.00000000000E+00 -0.00000000000E+00 -0.45593999997E+02  0.45594000000E+02  0.51100000000E-03 0. -1.
    9900012    2    1    2    0    0  0.10372407436E+01  0.50888232353E+00 -0.24165244564E+00  0.90007650271E+02  0.89999910454E+02 0.  0.
        -12    1    1    2    0    0 -0.10372407436E+01 -0.50888232353E+00  0.24165244564E+00  0.11803497295E+01  0.00000000000E+00 0.  1.
         11    1    3    3    0    0 -0.61490070279E+01  0.51027885009E+01 -0.37221257304E+01  0.88149281408E+01  0.51100000000E-03 0. -1.
        -11    1    3    3    0    0  0.39148921561E+02  0.69223811723E+01  0.18736933459E+02  0.43950313949E+02  0.51100000000E-03 0.  1.
         12    1    3    3    0    0 -0.31962673789E+02 -0.11516287350E+02 -0.15256460174E+02  0.37242408181E+02  0.00000000000E+00 0. -1.
</event>
<event>
 7    1  0.2349719E-015  0.9000901E+02  0.7816164E-02  0.1186336E+00
        -11   -1    0    0    0    0  0.00000000000E+00  0.00000000000E+00  0.45593999997E+02  0.45594000000E+02  0.51100000000E-03 0.  1.
         11   -1    0    0    0    0 -0.00000000000E+00 -0.00000000000E+00 -0.45593999997E+02  0.45594000000E+02  0.51100000000E-03 0. -1.
    9900012    2    1    2    0    0 -0.10888132654E+01  0.44295147662E+00 -0.91032460226E-01  0.90009014315E+02  0.90001292494E+02 0.  0.
        -12    1    1    2    0    0  0.10888132654E+01 -0.44295147662E+00  0.91032460226E-01  0.11789856854E+01  0.00000000000E+00 0.  1.
         11    1    3    3    0    0  0.15599878000E+02  0.36651319768E+02  0.83661934098E+01  0.40702194373E+02  0.51100000000E-03 0. -1.
        -11    1    3    3    0    0  0.32396860462E+01  0.30488725482E+01  0.13334436260E+00  0.44507269601E+01  0.51100000000E-03 0.  1.
        -12    1    3    3    0    0 -0.19928377311E+02 -0.39257240840E+02 -0.85905702327E+01  0.44856092981E+02  0.00000000000E+00 0.  1.
</event>
<event>
 7    1  0.2349719E-015  0.9000763E+02  0.7816164E-02  0.1186339E+00
        -11   -1    0    0    0    0  0.00000000000E+00  0.00000000000E+00  0.45593999997E+02  0.45594000000E+02  0.51100000000E-03 0.  1.
         11   -1    0    0    0    0 -0.00000000000E+00 -0.00000000000E+00 -0.45593999997E+02  0.45594000000E+02  0.51100000000E-03 0. -1.
    9900012    2    1    2    0    0  0.16335986058E+00 -0.69262075180E+00 -0.94173588816E+00  0.90007628689E+02  0.89999888587E+02 0.  0.
        -12    1    1    2    0    0 -0.16335986058E+00  0.69262075180E+00  0.94173588816E+00  0.11803713115E+01  0.00000000000E+00 0.  1.
         11    1    3    3    0    0 -0.32347131981E+02  0.27194349214E+01 -0.19711821146E+02  0.37977469200E+02  0.51100000000E-03 0. -1.
        -11    1    3    3    0    0 -0.58419518316E+01  0.39210783658E+01 -0.26202223420E+01  0.75079172968E+01  0.51100000000E-03 0.  1.
        -12    1    3    3    0    0  0.38352443673E+02 -0.73331340390E+01  0.21390307600E+02  0.44522242192E+02  0.00000000000E+00 0.  1.
</event>
<event>
 7    1  0.2349719E-015  0.9000771E+02  0.7816164E-02  0.1186339E+00
        -11   -1    0    0    0    0  0.00000000000E+00  0.00000000000E+00  0.45593999997E+02  0.45594000000E+02  0.51100000000E-03 0.  1.
         11   -1    0    0    0    0 -0.00000000000E+00 -0.00000000000E+00 -0.45593999997E+02  0.45594000000E+02  0.51100000000E-03 0. -1.
    9900012    2    1    2    0    0 -0.34074902571E+00  0.78596600915E+00 -0.81193820211E+00  0.90007705075E+02  0.89999965982E+02 0.  0.
        -12    1    1    2    0    0  0.34074902571E+00 -0.78596600915E+00  0.81193820211E+00  0.11802949251E+01  0.00000000000E+00 0.  1.
         11    1    3    3    0    0 -0.45117670177E+01 -0.82382544068E+00  0.87141448758E+01  0.98473880373E+01  0.51100000000E-03 0. -1.
        -11    1    3    3    0    0 -0.43657112625E+01 -0.15583480998E+02  0.31194166097E+02  0.35142286687E+02  0.51100000000E-03 0.  1.
         12    1    3    3    0    0  0.85367292545E+01  0.17193272448E+02 -0.40720249175E+02  0.45018030351E+02  0.00000000000E+00 0. -1.
</event>
<event>
 7    1  0.2349719E-015  0.9000779E+02  0.7816164E-02  0.1186339E+00
        -11   -1    0    0    0    0  0.00000000000E+00  0.00000000000E+00  0.45593999997E+02  0.45594000000E+02  0.51100000000E-03 0. -1.
         11   -1    0    0    0    0 -0.00000000000E+00 -0.00000000000E+00 -0.45593999997E+02  0.45594000000E+02  0.51100000000E-03 0.  1.
    9900012    2    1    2    0    0 -0.96901471306E+00  0.41229996089E+00  0.53284643142E+00  0.90007785574E+02  0.90000047544E+02 0.  0.
        -12    1    1    2    0    0  0.96901471306E+00 -0.41229996089E+00 -0.53284643142E+00  0.11802144260E+01  0.00000000000E+00 0.  1.
         11    1    3    3    0    0  0.21964241819E+02 -0.95134481931E+01  0.24724148468E+02  0.34412456073E+02  0.51100000000E-03 0. -1.
        -11    1    3    3    0    0 -0.20103780204E+00  0.40743023809E+01  0.11878925937E+02  0.12559826343E+02  0.51100000000E-03 0.  1.
        -12    1    3    3    0    0 -0.22732218730E+02  0.58514457731E+01 -0.36070227974E+02  0.43035503158E+02  0.00000000000E+00 0.  1.
</event>
<event>
 7    1  0.2349719E-015  0.9000772E+02  0.7816164E-02  0.1186339E+00
        -11   -1    0    0    0    0  0.00000000000E+00  0.00000000000E+00  0.45593999997E+02  0.45594000000E+02  0.51100000000E-03 0. -1.
         11   -1    0    0    0    0 -0.00000000000E+00 -0.00000000000E+00 -0.45593999997E+02  0.45594000000E+02  0.51100000000E-03 0.  1.
    9900012    2    1    2    0    0 -0.76224793768E+00 -0.15707728468E+00  0.88734189817E+00  0.90007715782E+02  0.89999976830E+02 0.  0.
        -12    1    1    2    0    0  0.76224793768E+00  0.15707728468E+00 -0.88734189817E+00  0.11802842184E+01  0.00000000000E+00 0.  1.
         11    1    3    3    0    0 -0.18666209655E+02  0.16228526583E+02  0.32519179364E+02  0.40856939248E+02  0.51100000000E-03 0. -1.
        -11    1    3    3    0    0  0.76924442656E+01 -0.10291807914E+02  0.24265807405E+01  0.13076058400E+02  0.51100000000E-03 0.  1.
        -12    1    3    3    0    0  0.10211517451E+02 -0.60937959539E+01 -0.34058418206E+02  0.36074718134E+02  0.00000000000E+00 0.  1.
</event>
<event>
 7    1  0.2349719E-015  0.9000776E+02  0.7816164E-02  0.1186339E+00
        -11   -1    0    0    0    0  0.00000000000E+00  0.00000000000E+00  0.45593999997E+02  0.45594000000E+02  0.51100000000E-03 0.  1.
         11   -1    0    0    0    0 -0.00000000000E+00 -0.00000000000E+00 -0.45593999997E+02  0.45594000000E+02  0.51100000000E-03 0. -1.
    9900012    2    1    2    0    0  0.72827040106E-01  0.25573381321E+00 -0.11498954989E+01  0.90007761372E+02  0.90000023022E+02 0.  0.
        -12    1    1    2    0    0 -0.72827040106E-01 -0.25573381321E+00  0.11498954989E+01  0.11802386282E+01  0.00000000000E+00 0.  1.
         11    1    3    3    0    0 -0.16940921082E+01  0.32208828731E+01 -0.36355701593E+02  0.36537392807E+02  0.51100000000E-03 0. -1.
        -11    1    3    3    0    0 -0.55653748513E+01 -0.68795597510E+01 -0.64775947071E+01  0.10966356416E+02  0.51100000000E-03 0.  1.
        -12    1    3    3    0    0  0.73322939996E+01  0.39144106911E+01  0.41683400801E+02  0.42504012148E+02  0.00000000000E+00 0.  1.
</event>
<event>
 7    1  0.2349719E-015  0.9000775E+02  0.7816164E-02  0.1186339E+00
        -11   -1    0    0    0    0  0.00000000000E+00  0.00000000000E+00  0.45593999997E+02  0.45594000000E+02  0.51100000000E-03 0.  1.
         11   -1    0    0    0    0 -0.00000000000E+00 -0.00000000000E+00 -0.45593999997E+02  0.45594000000E+02  0.51100000000E-03 0. -1.
    9900012    2    1    2    0    0 -0.17792851727E+00  0.66741249637E-02 -0.11667422925E+01  0.90007749739E+02  0.90000011236E+02 0.  0.
        -12    1    1    2    0    0  0.17792851727E+00 -0.66741249637E-02  0.11667422925E+01  0.11802502609E+01  0.00000000000E+00 0.  1.
         11    1    3    3    0    0  0.29821449995E+02 -0.17257818196E+01 -0.23739447820E+02  0.38155714982E+02  0.51100000000E-03 0. -1.
        -11    1    3    3    0    0  0.64410091398E+01 -0.27360072934E+01 -0.24586770836E+01  0.74173733835E+01  0.51100000000E-03 0.  1.
        -12    1    3    3    0    0 -0.36440387652E+02  0.44684632380E+01  0.25031382611E+02  0.44434661374E+02  0.00000000000E+00 0.  1.
</event>
<event>
 7    1  0.2349719E-015  0.9000781E+02  0.7816164E-02  0.1186339E+00
        -11   -1    0    0    0    0  0.00000000000E+00  0.00000000000E+00  0.45593999997E+02  0.45594000000E+02  0.51100000000E-03 0.  1.
         11   -1    0    0    0    0 -0.00000000000E+00 -0.00000000000E+00 -0.45593999997E+02  0.45594000000E+02  0.51100000000E-03 0. -1.
    9900012    2    1    2    0    0  0.10986126568E+01  0.62686702216E-01 -0.42659135128E+00  0.90007805282E+02  0.90000067511E+02 0.  0.
        -12    1    1    2    0    0 -0.10986126568E+01 -0.62686702216E-01  0.42659135128E+00  0.11801947184E+01  0.00000000000E+00 0.  1.
         11    1    3    3    0    0  0.17266037114E+02 -0.19711412458E+02 -0.27599361090E+02  0.38057595189E+02  0.51100000000E-03 0. -1.
        -11    1    3    3    0    0  0.11393758220E+02  0.34619321255E+01  0.45886977088E+01  0.12761616173E+02  0.51100000000E-03 0.  1.
        -12    1    3    3    0    0 -0.27561182677E+02  0.16312167035E+02  0.22584072030E+02  0.39188593920E+02  0.00000000000E+00 0.  1.
</event>
<event>
 7    1  0.2349719E-015  0.9000792E+02  0.7816164E-02  0.1186339E+00
        -11   -1    0    0    0    0  0.00000000000E+00  0.00000000000E+00  0.45593999997E+02  0.45594000000E+02  0.51100000000E-03 0.  1.
         11   -1    0    0    0    0 -0.00000000000E+00 -0.00000000000E+00 -0.45593999997E+02  0.45594000000E+02  0.51100000000E-03 0. -1.
    9900012    2    1    2    0    0 -0.91798189155E+00  0.67042884964E+00 -0.31690491441E+00  0.90007917664E+02  0.90000181377E+02 0.  0.
        -12    1    1    2    0    0  0.91798189155E+00 -0.67042884964E+00  0.31690491441E+00  0.11800823363E+01  0.00000000000E+00 0.  1.
         11    1    3    3    0    0 -0.11781427749E+01 -0.85953583308E+01  0.22383517299E+01  0.89598227639E+01  0.51100000000E-03 0. -1.
        -11    1    3    3    0    0  0.15472491667E+01 -0.35817275349E+02 -0.26244243044E+01  0.35946610363E+02  0.51100000000E-03 0.  1.
         12    1    3    3    0    0 -0.12870882834E+01  0.45083062529E+02  0.69167660024E-01  0.45101484537E+02  0.00000000000E+00 0. -1.
</event>
<event>
 7    1  0.2349719E-015  0.9000777E+02  0.7816164E-02  0.1186339E+00
        -11   -1    0    0    0    0  0.00000000000E+00  0.00000000000E+00  0.45593999997E+02  0.45594000000E+02  0.51100000000E-03 0.  1.
         11   -1    0    0    0    0 -0.00000000000E+00 -0.00000000000E+00 -0.45593999997E+02  0.45594000000E+02  0.51100000000E-03 0. -1.
    9900012    2    1    2    0    0  0.86653466397E+00  0.75097930244E+00 -0.27945856149E+00  0.90007767258E+02  0.90000028986E+02 0.  0.
        -12    1    1    2    0    0 -0.86653466397E+00 -0.75097930244E+00  0.27945856149E+00  0.11802327415E+01  0.00000000000E+00 0.  1.
         11    1    3    3    0    0 -0.60993702844E+01  0.19444459030E+02 -0.34218023249E+02  0.39826654644E+02  0.51100000000E-03 0. -1.
        -11    1    3    3    0    0  0.72404589516E+01 -0.54736393039E+01 -0.40632486459E+01  0.99445946563E+01  0.51100000000E-03 0.  1.
        -12    1    3    3    0    0 -0.27455400317E+00 -0.13219840424E+02  0.38001813334E+02  0.40236517958E+02  0.00000000000E+00 0.  1.
</event>
<event>
 7    1  0.2349719E-015  0.9000769E+02  0.7816164E-02  0.1186339E+00
        -11   -1    0    0    0    0  0.00000000000E+00  0.00000000000E+00  0.45593999997E+02  0.45594000000E+02  0.51100000000E-03 0. -1.
         11   -1    0    0    0    0 -0.00000000000E+00 -0.00000000000E+00 -0.45593999997E+02  0.45594000000E+02  0.51100000000E-03 0.  1.
    9900012    2    1    2    0    0 -0.56283740481E+00  0.38462728325E+00  0.96354018228E+00  0.90007689120E+02  0.89999949816E+02 0.  0.
        -12    1    1    2    0    0  0.56283740481E+00 -0.38462728325E+00 -0.96354018228E+00  0.11803108803E+01  0.00000000000E+00 0.  1.
         11    1    3    3    0    0  0.17495978985E+02 -0.27254174268E+01 -0.67494193621E+01  0.18949718804E+02  0.51100000000E-03 0. -1.
        -11    1    3    3    0    0 -0.11291465695E+01  0.34741153340E+02  0.35357602204E+01  0.34938865293E+02  0.51100000000E-03 0.  1.
         12    1    3    3    0    0 -0.16929669820E+02 -0.31631108630E+02  0.41771993241E+01  0.36119105022E+02  0.00000000000E+00 0. -1.
</event>
<event>
 7    1  0.2349719E-015  0.9000777E+02  0.7816164E-02  0.1186339E+00
        -11   -1    0    0    0    0  0.00000000000E+00  0.00000000000E+00  0.45593999997E+02  0.45594000000E+02  0.51100000000E-03 0.  1.
         11   -1    0    0    0    0 -0.00000000000E+00 -0.00000000000E+00 -0.45593999997E+02  0.45594000000E+02  0.51100000000E-03 0. -1.
    9900012    2    1    2    0    0  0.10009131882E+01 -0.16528823636E+00 -0.60314958605E+00  0.90007772550E+02  0.90000034347E+02 0.  0.
        -12    1    1    2    0    0 -0.10009131882E+01  0.16528823636E+00  0.60314958605E+00  0.11802274503E+01  0.00000000000E+00 0.  1.
         11    1    3    3    0    0  0.11481561379E+02 -0.10521765571E+02 -0.10937891750E+00  0.15573880905E+02  0.51100000000E-03 0. -1.
        -11    1    3    3    0    0 -0.16964538991E+02 -0.14976661069E+02  0.27840171483E+02  0.35877166951E+02  0.51100000000E-03 0.  1.
         12    1    3    3    0    0  0.64838908005E+01  0.25333138404E+02 -0.28333942151E+02  0.38556724694E+02  0.00000000000E+00 0. -1.
</event>
<event>
 7    1  0.2349719E-015  0.9000755E+02  0.7816164E-02  0.1186339E+00
        -11   -1    0    0    0    0  0.00000000000E+00  0.00000000000E+00  0.45593999997E+02  0.45594000000E+02  0.51100000000E-03 0.  1.
         11   -1    0    0    0    0 -0.00000000000E+00 -0.00000000000E+00 -0.45593999997E+02  0.45594000000E+02  0.51100000000E-03 0. -1.
    9900012    2    1    2    0    0  0.28400473877E+00  0.10647472827E+01  0.42321595560E+00  0.90007552114E+02  0.89999811001E+02 0.  0.
        -12    1    1    2    0    0 -0.28400473877E+00 -0.10647472827E+01 -0.42321595560E+00  0.11804478865E+01  0.00000000000E+00 0.  1.
         11    1    3    3    0    0 -0.35847999184E+00  0.78839525936E+01 -0.18860034556E+01  0.81143222575E+01  0.51100000000E-03 0. -1.
        -11    1    3    3    0    0  0.40631739589E+02 -0.37534800101E+01 -0.50532860558E+01  0.41116451385E+02  0.51100000000E-03 0.  1.
         12    1    3    3    0    0 -0.39989254859E+02 -0.30657253008E+01  0.73625054671E+01  0.40776778472E+02  0.00000000000E+00 0. -1.
</event>
<event>
 7    1  0.2349719E-015  0.9000733E+02  0.7816164E-02  0.1186340E+00
        -11   -1    0    0    0    0  0.00000000000E+00  0.00000000000E+00  0.45593999997E+02  0.45594000000E+02  0.51100000000E-03 0. -1.
         11   -1    0    0    0    0 -0.00000000000E+00 -0.00000000000E+00 -0.45593999997E+02  0.45594000000E+02  0.51100000000E-03 0.  1.
    9900012    2    1    2    0    0  0.59213514784E+00 -0.21848855280E+00  0.99781021135E+00  0.90007327946E+02  0.89999583874E+02 0.  0.
        -12    1    1    2    0    0 -0.59213514784E+00  0.21848855280E+00 -0.99781021135E+00  0.11806720539E+01  0.00000000000E+00 0.  1.
         11    1    3    3    0    0  0.76766070401E+01  0.12843297061E+01  0.40948291990E+02  0.41681439701E+02  0.51100000000E-03 0. -1.
        -11    1    3    3    0    0 -0.23698476332E+01 -0.30907893378E+00  0.37003120840E+01  0.44049991342E+01  0.51100000000E-03 0.  1.
        -12    1    3    3    0    0 -0.47146242591E+01 -0.11937393251E+01 -0.43650793862E+02  0.43920889111E+02  0.00000000000E+00 0.  1.
</event>
<event>
 7    1  0.2349719E-015  0.9000778E+02  0.7816164E-02  0.1186339E+00
        -11   -1    0    0    0    0  0.00000000000E+00  0.00000000000E+00  0.45593999997E+02  0.45594000000E+02  0.51100000000E-03 0. -1.
         11   -1    0    0    0    0 -0.00000000000E+00 -0.00000000000E+00 -0.45593999997E+02  0.45594000000E+02  0.51100000000E-03 0.  1.
    9900012    2    1    2    0    0 -0.47011192127E+00  0.39662112497E+00  0.10072787125E+01  0.90007778012E+02  0.90000039882E+02 0.  0.
        -12    1    1    2    0    0  0.47011192127E+00 -0.39662112497E+00 -0.10072787125E+01  0.11802219876E+01  0.00000000000E+00 0.  1.
         11    1    3    3    0    0 -0.63258356853E+01 -0.70464639875E+01  0.37749518744E+01  0.10194072482E+02  0.51100000000E-03 0. -1.
        -11    1    3    3    0    0 -0.23428963701E+02 -0.23516567136E+02 -0.13551040363E+02  0.35854929440E+02  0.51100000000E-03 0.  1.
         12    1    3    3    0    0  0.29284687465E+02  0.30959652248E+02  0.10783367201E+02  0.43958776091E+02  0.00000000000E+00 0. -1.
</event>
<event>
 7    1  0.2349719E-015  0.9000751E+02  0.7816164E-02  0.1186339E+00
        -11   -1    0    0    0    0  0.00000000000E+00  0.00000000000E+00  0.45593999997E+02  0.45594000000E+02  0.51100000000E-03 0.  1.
         11   -1    0    0    0    0 -0.00000000000E+00 -0.00000000000E+00 -0.45593999997E+02  0.45594000000E+02  0.51100000000E-03 0. -1.
    9900012    2    1    2    0    0  0.72683679626E+00  0.61410878043E+00 -0.69866112042E+00  0.90007513370E+02  0.89999771746E+02 0.  0.
        -12    1    1    2    0    0 -0.72683679626E+00 -0.61410878043E+00  0.69866112042E+00  0.11804866301E+01  0.00000000000E+00 0.  1.
         11    1    3    3    0    0 -0.11798166503E+02  0.31323059014E+02 -0.26906853775E+01  0.33579317249E+02  0.51100000000E-03 0.  1.
        -11    1    3    3    0    0  0.18419393175E+02 -0.77587354227E+01 -0.16860252534E+02  0.26148425117E+02  0.51100000000E-03 0. -1.
        -12    1    3    3    0    0 -0.58943898757E+01 -0.22950214811E+02  0.18852276792E+02  0.30279771005E+02  0.00000000000E+00 0.  1.
</event>
<event>
 7    1  0.2349719E-015  0.9000764E+02  0.7816164E-02  0.1186339E+00
        -11   -1    0    0    0    0  0.00000000000E+00  0.00000000000E+00  0.45593999997E+02  0.45594000000E+02  0.51100000000E-03 0.  1.
         11   -1    0    0    0    0 -0.00000000000E+00 -0.00000000000E+00 -0.45593999997E+02  0.45594000000E+02  0.51100000000E-03 0. -1.
    9900012    2    1    2    0    0 -0.13218409196E+00  0.44765347386E+00 -0.10841512526E+01  0.90007639799E+02  0.89999899844E+02 0.  0.
        -12    1    1    2    0    0  0.13218409196E+00 -0.44765347386E+00  0.10841512526E+01  0.11803602015E+01  0.00000000000E+00 0.  1.
         11    1    3    3    0    0 -0.37426688131E+02  0.10251492512E+02 -0.16105035166E+02  0.42014547971E+02  0.51100000000E-03 0. -1.
        -11    1    3    3    0    0 -0.45306167331E-01 -0.40782345334E+01  0.88119265100E+01  0.97099999299E+01  0.51100000000E-03 0.  1.
        -12    1    3    3    0    0  0.37339810207E+02 -0.57256045052E+01  0.62089574036E+01  0.38283091898E+02  0.00000000000E+00 0.  1.
</event>
<event>
 7    1  0.2349719E-015  0.9000773E+02  0.7816164E-02  0.1186339E+00
        -11   -1    0    0    0    0  0.00000000000E+00  0.00000000000E+00  0.45593999997E+02  0.45594000000E+02  0.51100000000E-03 0.  1.
         11   -1    0    0    0    0 -0.00000000000E+00 -0.00000000000E+00 -0.45593999997E+02  0.45594000000E+02  0.51100000000E-03 0. -1.
    9900012    2    1    2    0    0  0.65325148939E+00 -0.33854209155E+00 -0.92286569362E+00  0.90007733359E+02  0.89999994639E+02 0.  0.
        -12    1    1    2    0    0 -0.65325148939E+00  0.33854209155E+00  0.92286569362E+00  0.11802666413E+01  0.00000000000E+00 0.  1.
         11    1    3    3    0    0 -0.20670848306E+01 -0.65423244487E+01 -0.35485885472E+02  0.36143089476E+02  0.51100000000E-03 0. -1.
        -11    1    3    3    0    0 -0.28461261116E+01 -0.47759874356E+01 -0.78960517661E+01  0.96570245720E+01  0.51100000000E-03 0.  1.
        -12    1    3    3    0    0  0.55664624316E+01  0.10979769793E+02  0.42459071544E+02  0.44207619311E+02  0.00000000000E+00 0.  1.
</event>
<event>
 7    1  0.2349719E-015  0.9000775E+02  0.7816164E-02  0.1186339E+00
        -11   -1    0    0    0    0  0.00000000000E+00  0.00000000000E+00  0.45593999997E+02  0.45594000000E+02  0.51100000000E-03 0. -1.
         11   -1    0    0    0    0 -0.00000000000E+00 -0.00000000000E+00 -0.45593999997E+02  0.45594000000E+02  0.51100000000E-03 0.  1.
    9900012    2    1    2    0    0 -0.36326425599E+00  0.69328399970E+00  0.88339419749E+00  0.90007750479E+02  0.90000011985E+02 0.  0.
        -12    1    1    2    0    0  0.36326425599E+00 -0.69328399970E+00 -0.88339419749E+00  0.11802495211E+01  0.00000000000E+00 0.  1.
         11    1    3    3    0    0 -0.18583037612E+02  0.82949371910E+01  0.38748991870E+02  0.43767792280E+02  0.51100000000E-03 0. -1.
        -11    1    3    3    0    0  0.20128010934E+01  0.49104032971E+01 -0.39206533544E+01  0.65981021338E+01  0.51100000000E-03 0.  1.
        -12    1    3    3    0    0  0.16206972263E+02 -0.12512056488E+02 -0.33944944318E+02  0.39641856065E+02  0.00000000000E+00 0.  1.
</event>
<event>
 7    1  0.2349719E-015  0.9000779E+02  0.7816164E-02  0.1186339E+00
        -11   -1    0    0    0    0  0.00000000000E+00  0.00000000000E+00  0.45593999997E+02  0.45594000000E+02  0.51100000000E-03 0.  1.
         11   -1    0    0    0    0 -0.00000000000E+00 -0.00000000000E+00 -0.45593999997E+02  0.45594000000E+02  0.51100000000E-03 0. -1.
    9900012    2    1    2    0    0  0.94004792678E+00 -0.11880677829E+00  0.70363146870E+00  0.90007787138E+02  0.90000049128E+02 0.  0.
        -12    1    1    2    0    0 -0.94004792678E+00  0.11880677829E+00 -0.70363146870E+00  0.11802128617E+01  0.00000000000E+00 0.  1.
         11    1    3    3    0    0 -0.31860596978E+02  0.22410707810E+02  0.60265850272E+00  0.38957677830E+02  0.51100000000E-03 0. -1.
        -11    1    3    3    0    0  0.76418169310E+01  0.82767403170E+01 -0.41073573592E+00  0.11272555185E+02  0.51100000000E-03 0.  1.
        -12    1    3    3    0    0  0.25158827974E+02 -0.30806254905E+02  0.51170870190E+00  0.39777554124E+02  0.00000000000E+00 0.  1.
</event>
<event>
 7    1  0.2349719E-015  0.9000776E+02  0.7816164E-02  0.1186339E+00
        -11   -1    0    0    0    0  0.00000000000E+00  0.00000000000E+00  0.45593999997E+02  0.45594000000E+02  0.51100000000E-03 0. -1.
         11   -1    0    0    0    0 -0.00000000000E+00 -0.00000000000E+00 -0.45593999997E+02  0.45594000000E+02  0.51100000000E-03 0.  1.
    9900012    2    1    2    0    0 -0.84418403049E+00  0.82426569628E+00  0.29946911772E-01  0.90007763823E+02  0.90000025506E+02 0.  0.
        -12    1    1    2    0    0  0.84418403049E+00 -0.82426569628E+00 -0.29946911772E-01  0.11802361768E+01  0.00000000000E+00 0.  1.
         11    1    3    3    0    0  0.25534376361E+01 -0.29349930622E+02  0.22543588228E+02  0.37096520615E+02  0.51100000000E-03 0. -1.
        -11    1    3    3    0    0  0.59942312983E+01 -0.32993510255E+01  0.50829477286E+01  0.85236661079E+01  0.51100000000E-03 0.  1.
        -12    1    3    3    0    0 -0.93918529648E+01  0.33473547344E+02 -0.27596589045E+02  0.44387577100E+02  0.00000000000E+00 0.  1.
</event>
<event>
 7    1  0.3015753E-015  0.9000765E+02  0.7816164E-02  0.1186339E+00
        -11   -1    0    0    0    0  0.00000000000E+00  0.00000000000E+00  0.45593999997E+02  0.45594000000E+02  0.51100000000E-03 0.  1.
         11   -1    0    0    0    0 -0.00000000000E+00 -0.00000000000E+00 -0.45593999997E+02  0.45594000000E+02  0.51100000000E-03 0. -1.
    9900012    2    1    2    0    0 -0.60949719077E+00  0.10049471907E+01  0.10867495713E+00  0.90007654318E+02  0.89999914555E+02 0.  0.
        -12    1    1    2    0    0  0.60949719077E+00 -0.10049471907E+01 -0.10867495713E+00  0.11803456815E+01  0.00000000000E+00 0.  1.
         11    1    3    3    0    0 -0.35790155526E+02 -0.94704451318E+01  0.85159430625E+01  0.37988759523E+02  0.51100000000E-03 0. -1.
        -11    1    3    3    0    0 -0.62366106162E+01  0.74618989820E+01 -0.27662241725E+01  0.10110748975E+02  0.51100000000E-03 0.  1.
        -12    1    3    3    0    0  0.41417268951E+02  0.30134933404E+01 -0.56410439329E+01  0.41908145821E+02  0.00000000000E+00 0.  1.
</event>
<event>
 7    1  0.2349719E-015  0.9000777E+02  0.7816164E-02  0.1186339E+00
        -11   -1    0    0    0    0  0.00000000000E+00  0.00000000000E+00  0.45593999997E+02  0.45594000000E+02  0.51100000000E-03 0.  1.
         11   -1    0    0    0    0 -0.00000000000E+00 -0.00000000000E+00 -0.45593999997E+02  0.45594000000E+02  0.51100000000E-03 0. -1.
    9900012    2    1    2    0    0 -0.67338614730E+00  0.35528442196E+00 -0.90180738661E+00  0.90007774392E+02  0.90000036214E+02 0.  0.
        -12    1    1    2    0    0  0.67338614730E+00 -0.35528442196E+00  0.90180738661E+00  0.11802256083E+01  0.00000000000E+00 0.  1.
         11    1    3    3    0    0 -0.24501517707E+01  0.11417460980E+01 -0.73562916923E+01  0.78372096805E+01  0.51100000000E-03 0. -1.
        -11    1    3    3    0    0  0.24016831922E+02  0.29394357951E+02 -0.12757082798E+02  0.40044720709E+02  0.51100000000E-03 0.  1.
         12    1    3    3    0    0 -0.22240066298E+02 -0.30180819627E+02  0.19211567104E+02  0.42125844002E+02  0.00000000000E+00 0. -1.
</event>
<event>
 7    1  0.2349719E-015  0.9000778E+02  0.7816164E-02  0.1186339E+00
        -11   -1    0    0    0    0  0.00000000000E+00  0.00000000000E+00  0.45593999997E+02  0.45594000000E+02  0.51100000000E-03 0. -1.
         11   -1    0    0    0    0 -0.00000000000E+00 -0.00000000000E+00 -0.45593999997E+02  0.45594000000E+02  0.51100000000E-03 0.  1.
    9900012    2    1    2    0    0  0.10330463183E+01  0.22554491272E+00  0.52428521625E+00  0.90007775364E+02  0.90000037199E+02 0.  0.
        -12    1    1    2    0    0 -0.10330463183E+01 -0.22554491272E+00 -0.52428521625E+00  0.11802246359E+01  0.00000000000E+00 0.  1.
         11    1    3    3    0    0  0.28178613467E+02 -0.59587870675E+00  0.21361357082E+02  0.35365193411E+02  0.51100000000E-03 0. -1.
        -11    1    3    3    0    0 -0.43701594116E+00  0.60734557219E+01  0.11111559684E+02  0.12670619803E+02  0.51100000000E-03 0.  1.
        -12    1    3    3    0    0 -0.26708551208E+02 -0.52520321024E+01 -0.31948631549E+02  0.41971962150E+02  0.00000000000E+00 0.  1.
</event>
<event>
 7    1  0.2349719E-015  0.9000775E+02  0.7816164E-02  0.1186339E+00
        -11   -1    0    0    0    0  0.00000000000E+00  0.00000000000E+00  0.45593999997E+02  0.45594000000E+02  0.51100000000E-03 0.  1.
         11   -1    0    0    0    0 -0.00000000000E+00 -0.00000000000E+00 -0.45593999997E+02  0.45594000000E+02  0.51100000000E-03 0. -1.
    9900012    2    1    2    0    0 -0.66281685172E+00 -0.67690864757E-02 -0.97653485561E+00  0.90007749042E+02  0.90000010529E+02 0.  0.
        -12    1    1    2    0    0  0.66281685172E+00  0.67690864757E-02  0.97653485561E+00  0.11802509579E+01  0.00000000000E+00 0.  1.
         11    1    3    3    0    0 -0.90377352321E+01 -0.87464414823E+00 -0.30443041622E+01  0.95767138729E+01  0.51100000000E-03 0. -1.
        -11    1    3    3    0    0 -0.49490401177E+01 -0.13303956160E+02  0.37452522010E+02  0.40052211584E+02  0.51100000000E-03 0.  1.
         12    1    3    3    0    0  0.13323958498E+02  0.14171831222E+02 -0.35384752703E+02  0.40378823585E+02  0.00000000000E+00 0. -1.
</event>
<event>
 7    1  0.2349719E-015  0.9000786E+02  0.7816164E-02  0.1186339E+00
        -11   -1    0    0    0    0  0.00000000000E+00  0.00000000000E+00  0.45593999997E+02  0.45594000000E+02  0.51100000000E-03 0.  1.
         11   -1    0    0    0    0 -0.00000000000E+00 -0.00000000000E+00 -0.45593999997E+02  0.45594000000E+02  0.51100000000E-03 0. -1.
    9900012    2    1    2    0    0  0.87844273102E+00 -0.28288260741E+00  0.73555611430E+00  0.90007861449E+02  0.90000124420E+02 0.  0.
        -12    1    1    2    0    0 -0.87844273102E+00  0.28288260741E+00 -0.73555611430E+00  0.11801385506E+01  0.00000000000E+00 0.  1.
         11    1    3    3    0    0 -0.33074418309E+01 -0.38200824699E+02  0.42897504286E+01  0.38582951392E+02  0.51100000000E-03 0. -1.
        -11    1    3    3    0    0 -0.22813520850E+01 -0.48790079085E+01 -0.60127206813E+01  0.80723042410E+01  0.51100000000E-03 0.  1.
        -12    1    3    3    0    0  0.64672366469E+01  0.42796950000E+02  0.24585263670E+01  0.43352605816E+02  0.00000000000E+00 0.  1.
</event>
<event>
 7    1  0.2349719E-015  0.9000774E+02  0.7816164E-02  0.1186339E+00
        -11   -1    0    0    0    0  0.00000000000E+00  0.00000000000E+00  0.45593999997E+02  0.45594000000E+02  0.51100000000E-03 0. -1.
         11   -1    0    0    0    0 -0.00000000000E+00 -0.00000000000E+00 -0.45593999997E+02  0.45594000000E+02  0.51100000000E-03 0.  1.
    9900012    2    1    2    0    0  0.11080547788E+01 -0.41893012119E-01  0.40432694269E+00  0.90007737023E+02  0.89999998352E+02 0.  0.
        -12    1    1    2    0    0 -0.11080547788E+01  0.41893012119E-01 -0.40432694269E+00  0.11802629766E+01  0.00000000000E+00 0.  1.
         11    1    3    3    0    0  0.64938028718E+01 -0.24524159268E+01  0.36636915723E+02  0.37288703565E+02  0.51100000000E-03 0. -1.
        -11    1    3    3    0    0 -0.69718822325E+01  0.57803943665E+01  0.56478868076E+01  0.10673271595E+02  0.51100000000E-03 0.  1.
        -12    1    3    3    0    0  0.15861341396E+01 -0.33698714518E+01 -0.41880475588E+02  0.42045761863E+02  0.00000000000E+00 0.  1.
</event>
<event>
 7    1  0.2349719E-015  0.9000776E+02  0.7816164E-02  0.1186339E+00
        -11   -1    0    0    0    0  0.00000000000E+00  0.00000000000E+00  0.45593999997E+02  0.45594000000E+02  0.51100000000E-03 0.  1.
         11   -1    0    0    0    0 -0.00000000000E+00 -0.00000000000E+00 -0.45593999997E+02  0.45594000000E+02  0.51100000000E-03 0. -1.
    9900012    2    1    2    0    0 -0.11373886223E+01 -0.56238917718E-02  0.31509642803E+00  0.90007758387E+02  0.90000019998E+02 0.  0.
        -12    1    1    2    0    0  0.11373886223E+01  0.56238917718E-02 -0.31509642803E+00  0.11802416130E+01  0.00000000000E+00 0.  1.
         11    1    3    3    0    0 -0.28333260781E+01 -0.94530108392E+01 -0.19933647987E+02  0.22242694822E+02  0.51100000000E-03 0. -1.
        -11    1    3    3    0    0  0.15185246847E+01 -0.25295587619E+02 -0.36402034298E+01  0.25601245116E+02  0.51100000000E-03 0.  1.
        -12    1    3    3    0    0  0.17741277112E+00  0.34742974567E+02  0.23888947845E+02  0.42163818449E+02  0.00000000000E+00 0.  1.
</event>
<event>
 7    1  0.2349719E-015  0.9000777E+02  0.7816164E-02  0.1186339E+00
        -11   -1    0    0    0    0  0.00000000000E+00  0.00000000000E+00  0.45593999997E+02  0.45594000000E+02  0.51100000000E-03 0.  1.
         11   -1    0    0    0    0 -0.00000000000E+00 -0.00000000000E+00 -0.45593999997E+02  0.45594000000E+02  0.51100000000E-03 0. -1.
    9900012    2    1    2    0    0 -0.11577136761E+01 -0.21594474899E+00  0.77499269231E-01  0.90007771536E+02  0.90000033320E+02 0.  0.
        -12    1    1    2    0    0  0.11577136761E+01  0.21594474899E+00 -0.77499269231E-01  0.11802284640E+01  0.00000000000E+00 0.  1.
         11    1    3    3    0    0 -0.24194480083E+02 -0.24874373719E+02  0.23873219728E+02  0.42119329943E+02  0.51100000000E-03 0. -1.
        -11    1    3    3    0    0  0.38458332100E+01 -0.26917192696E+01 -0.11266043286E+02  0.12204897266E+02  0.51100000000E-03 0.  1.
        -12    1    3    3    0    0  0.19190933197E+02  0.27350148240E+02 -0.12529677173E+02  0.35683544327E+02  0.00000000000E+00 0.  1.
</event>
<event>
 7    1  0.2349719E-015  0.9000781E+02  0.7816164E-02  0.1186339E+00
        -11   -1    0    0    0    0  0.00000000000E+00  0.00000000000E+00  0.45593999997E+02  0.45594000000E+02  0.51100000000E-03 0.  1.
         11   -1    0    0    0    0 -0.00000000000E+00 -0.00000000000E+00 -0.45593999997E+02  0.45594000000E+02  0.51100000000E-03 0. -1.
    9900012    2    1    2    0    0 -0.19989890191E+00  0.11207512232E+01  0.31112268019E+00  0.90007813490E+02  0.90000075828E+02 0.  0.
        -12    1    1    2    0    0  0.19989890191E+00 -0.11207512232E+01 -0.31112268019E+00  0.11801865096E+01  0.00000000000E+00 0.  1.
         11    1    3    3    0    0 -0.17733588440E+02  0.28637277895E+02  0.13959253847E+02  0.36461412650E+02  0.51100000000E-03 0. -1.
        -11    1    3    3    0    0 -0.46850933285E+01  0.74950416846E+01  0.22760464726E+01  0.91272195743E+01  0.51100000000E-03 0.  1.
        -12    1    3    3    0    0  0.22218782866E+02 -0.35011568357E+02 -0.15924177640E+02  0.44419181266E+02  0.00000000000E+00 0.  1.
</event>
<event>
 7    1  0.2349719E-015  0.9000767E+02  0.7816164E-02  0.1186339E+00
        -11   -1    0    0    0    0  0.00000000000E+00  0.00000000000E+00  0.45593999997E+02  0.45594000000E+02  0.51100000000E-03 0.  1.
         11   -1    0    0    0    0 -0.00000000000E+00 -0.00000000000E+00 -0.45593999997E+02  0.45594000000E+02  0.51100000000E-03 0. -1.
    9900012    2    1    2    0    0  0.41033381038E+00 -0.21636038943E+00 -0.10853528668E+01  0.90007671021E+02  0.89999931478E+02 0.  0.
        -12    1    1    2    0    0 -0.41033381038E+00  0.21636038943E+00  0.10853528668E+01  0.11803289794E+01  0.00000000000E+00 0.  1.
         11    1    3    3    0    0  0.41180586619E+01 -0.30979736357E+02 -0.23957239144E+02  0.39378316109E+02  0.51100000000E-03 0. -1.
        -11    1    3    3    0    0 -0.68262238786E+01 -0.78813080000E+00 -0.49331244090E+01  0.84589715270E+01  0.51100000000E-03 0.  1.
        -12    1    3    3    0    0  0.31184990271E+01  0.31551506768E+02  0.27805010687E+02  0.42170383384E+02  0.00000000000E+00 0.  1.
</event>
<event>
 7    1  0.2349719E-015  0.9000751E+02  0.7816164E-02  0.1186340E+00
        -11   -1    0    0    0    0  0.00000000000E+00  0.00000000000E+00  0.45593999997E+02  0.45594000000E+02  0.51100000000E-03 0.  1.
         11   -1    0    0    0    0 -0.00000000000E+00 -0.00000000000E+00 -0.45593999997E+02  0.45594000000E+02  0.51100000000E-03 0. -1.
    9900012    2    1    2    0    0  0.97621556722E-01 -0.85812028546E+00 -0.80477632134E+00  0.90007506324E+02  0.89999764607E+02 0.  0.
        -12    1    1    2    0    0 -0.97621556722E-01  0.85812028546E+00  0.80477632134E+00  0.11804936764E+01  0.00000000000E+00 0.  1.
         11    1    3    3    0    0 -0.10743086786E+02  0.26699380264E+01  0.13045176013E+01  0.11146490443E+02  0.51100000000E-03 0. -1.
        -11    1    3    3    0    0 -0.30995719240E+02  0.48499336312E+01  0.12486669258E+02  0.33766453424E+02  0.51100000000E-03 0.  1.
         12    1    3    3    0    0  0.41836427583E+02 -0.83779919431E+01 -0.14595963181E+02  0.45094562456E+02  0.00000000000E+00 0. -1.
</event>
<event>
 7    1  0.2349719E-015  0.9000773E+02  0.7816164E-02  0.1186339E+00
        -11   -1    0    0    0    0  0.00000000000E+00  0.00000000000E+00  0.45593999997E+02  0.45594000000E+02  0.51100000000E-03 0.  1.
         11   -1    0    0    0    0 -0.00000000000E+00 -0.00000000000E+00 -0.45593999997E+02  0.45594000000E+02  0.51100000000E-03 0. -1.
    9900012    2    1    2    0    0  0.10751325590E+01 -0.27290625271E+00 -0.40330577327E+00  0.90007727409E+02  0.89999988611E+02 0.  0.
        -12    1    1    2    0    0 -0.10751325590E+01  0.27290625271E+00  0.40330577327E+00  0.11802725909E+01  0.00000000000E+00 0.  1.
         11    1    3    3    0    0  0.42913525050E+01  0.78352166888E+01  0.68773456936E+01  0.11274050334E+02  0.51100000000E-03 0. -1.
        -11    1    3    3    0    0 -0.27066285714E+02  0.14550775378E+02  0.19430707311E+02  0.36357410157E+02  0.51100000000E-03 0.  1.
         12    1    3    3    0    0  0.23850065768E+02 -0.22658898320E+02 -0.26711358778E+02  0.42376266918E+02  0.00000000000E+00 0. -1.
</event>
<event>
 7    1  0.2349719E-015  0.9000789E+02  0.7816164E-02  0.1186339E+00
        -11   -1    0    0    0    0  0.00000000000E+00  0.00000000000E+00  0.45593999997E+02  0.45594000000E+02  0.51100000000E-03 0.  1.
         11   -1    0    0    0    0 -0.00000000000E+00 -0.00000000000E+00 -0.45593999997E+02  0.45594000000E+02  0.51100000000E-03 0. -1.
    9900012    2    1    2    0    0 -0.44067358337E+00 -0.48996951429E+00 -0.97897975455E+00  0.90007887848E+02  0.90000151167E+02 0.  0.
        -12    1    1    2    0    0  0.44067358337E+00  0.48996951429E+00  0.97897975455E+00  0.11801121522E+01  0.00000000000E+00 0.  1.
         11    1    3    3    0    0  0.36211810233E+01  0.10079514921E+01  0.77337510941E+01  0.85988269235E+01  0.51100000000E-03 0. -1.
        -11    1    3    3    0    0 -0.20301264980E+02 -0.66048623900E+01  0.31321826176E+02  0.37905439745E+02  0.51100000000E-03 0.  1.
         12    1    3    3    0    0  0.16239410373E+02  0.51069413837E+01 -0.40034557025E+02  0.43503621180E+02  0.00000000000E+00 0. -1.
</event>
<event>
 7    1  0.2349719E-015  0.9000772E+02  0.7816164E-02  0.1186339E+00
        -11   -1    0    0    0    0  0.00000000000E+00  0.00000000000E+00  0.45593999997E+02  0.45594000000E+02  0.51100000000E-03 0.  1.
         11   -1    0    0    0    0 -0.00000000000E+00 -0.00000000000E+00 -0.45593999997E+02  0.45594000000E+02  0.51100000000E-03 0. -1.
    9900012    2    1    2    0    0  0.32854105979E+00 -0.99637387767E+00 -0.54070286343E+00  0.90007720491E+02  0.89999981602E+02 0.  0.
        -12    1    1    2    0    0 -0.32854105979E+00  0.99637387767E+00  0.54070286343E+00  0.11802795087E+01  0.00000000000E+00 0.  1.
         11    1    3    3    0    0  0.19050499735E+02  0.10419112073E+02 -0.29312421390E+02  0.36478726465E+02  0.51100000000E-03 0. -1.
        -11    1    3    3    0    0  0.11406880766E+02  0.62164158935E+00  0.22943974466E+01  0.11651936619E+02  0.51100000000E-03 0.  1.
        -12    1    3    3    0    0 -0.30128839441E+02 -0.12037127540E+02  0.26477321080E+02  0.41877057407E+02  0.00000000000E+00 0.  1.
</event>
<event>
 7    1  0.2349719E-015  0.9000779E+02  0.7816164E-02  0.1186339E+00
        -11   -1    0    0    0    0  0.00000000000E+00  0.00000000000E+00  0.45593999997E+02  0.45594000000E+02  0.51100000000E-03 0.  1.
         11   -1    0    0    0    0 -0.00000000000E+00 -0.00000000000E+00 -0.45593999997E+02  0.45594000000E+02  0.51100000000E-03 0. -1.
    9900012    2    1    2    0    0  0.11277602826E+00 -0.70456648530E+00 -0.94008406860E+00  0.90007792213E+02  0.90000054270E+02 0.  0.
        -12    1    1    2    0    0 -0.11277602826E+00  0.70456648530E+00  0.94008406860E+00  0.11802077871E+01  0.00000000000E+00 0.  1.
         11    1    3    3    0    0 -0.13350487664E+01  0.46811877569E+01 -0.82607103505E+01  0.95882850281E+01  0.51100000000E-03 0. -1.
        -11    1    3    3    0    0 -0.22572438459E+02 -0.32980666535E+02 -0.79964768918E+01  0.40757612615E+02  0.51100000000E-03 0.  1.
         12    1    3    3    0    0  0.24020263254E+02  0.27594912293E+02  0.15317103174E+02  0.39661894570E+02  0.00000000000E+00 0. -1.
</event>
<event>
 7    1  0.2349719E-015  0.9000758E+02  0.7816164E-02  0.1186339E+00
        -11   -1    0    0    0    0  0.00000000000E+00  0.00000000000E+00  0.45593999997E+02  0.45594000000E+02  0.51100000000E-03 0. -1.
         11   -1    0    0    0    0 -0.00000000000E+00 -0.00000000000E+00 -0.45593999997E+02  0.45594000000E+02  0.51100000000E-03 0.  1.
    9900012    2    1    2    0    0  0.70460510650E+00 -0.94324544502E+00 -0.84984542923E-01  0.90007575204E+02  0.89999834397E+02 0.  0.
        -12    1    1    2    0    0 -0.70460510650E+00  0.94324544502E+00  0.84984542923E-01  0.11804247957E+01  0.00000000000E+00 0.  1.
         11    1    3    3    0    0  0.50576868465E+00  0.47220199337E+01 -0.82259177654E+01  0.94983681525E+01  0.51100000000E-03 0. -1.
        -11    1    3    3    0    0  0.38338809768E+02  0.83460198817E+01  0.70321529264E+01  0.39861906093E+02  0.51100000000E-03 0.  1.
         12    1    3    3    0    0 -0.38139973346E+02 -0.14011285260E+02  0.11087802961E+01  0.40647300959E+02  0.00000000000E+00 0. -1.
</event>
<event>
 7    1  0.2349719E-015  0.9000773E+02  0.7816164E-02  0.1186339E+00
        -11   -1    0    0    0    0  0.00000000000E+00  0.00000000000E+00  0.45593999997E+02  0.45594000000E+02  0.51100000000E-03 0. -1.
         11   -1    0    0    0    0 -0.00000000000E+00 -0.00000000000E+00 -0.45593999997E+02  0.45594000000E+02  0.51100000000E-03 0.  1.
    9900012    2    1    2    0    0 -0.80601794019E+00 -0.67662164385E+00 -0.53437907809E+00  0.90007727672E+02  0.89999988877E+02 0.  0.
        -12    1    1    2    0    0  0.80601794019E+00  0.67662164385E+00  0.53437907809E+00  0.11802723279E+01  0.00000000000E+00 0.  1.
         11    1    3    3    0    0 -0.50945599789E+01  0.93729941418E+00  0.57047463669E+01  0.77056604482E+01  0.51100000000E-03 0. -1.
        -11    1    3    3    0    0 -0.10251293360E+02 -0.28513877699E+02  0.24483370971E+02  0.38955945520E+02  0.51100000000E-03 0.  1.
         12    1    3    3    0    0  0.14539835399E+02  0.26899956641E+02 -0.30722496416E+02  0.43346121704E+02  0.00000000000E+00 0. -1.
</event>
<event>
 7    1  0.2349719E-015  0.9000779E+02  0.7816164E-02  0.1186339E+00
        -11   -1    0    0    0    0  0.00000000000E+00  0.00000000000E+00  0.45593999997E+02  0.45594000000E+02  0.51100000000E-03 0.  1.
         11   -1    0    0    0    0 -0.00000000000E+00 -0.00000000000E+00 -0.45593999997E+02  0.45594000000E+02  0.51100000000E-03 0. -1.
    9900012    2    1    2    0    0  0.93609973396E+00 -0.64237198757E+00  0.32242954514E+00  0.90007794385E+02  0.90000056471E+02 0.  0.
        -12    1    1    2    0    0 -0.93609973396E+00  0.64237198757E+00 -0.32242954514E+00  0.11802056151E+01  0.00000000000E+00 0.  1.
         11    1    3    3    0    0 -0.71722112185E+01 -0.26083957896E+01  0.33773211596E+01  0.83456959466E+01  0.51100000000E-03 0. -1.
        -11    1    3    3    0    0 -0.58064306095E+01 -0.13624643870E+02  0.35134883262E+02  0.38128802488E+02  0.51100000000E-03 0.  1.
         12    1    3    3    0    0  0.13914741562E+02  0.15590667672E+02 -0.38189774877E+02  0.43533295951E+02  0.00000000000E+00 0. -1.
</event>
<event>
 7    1  0.2349719E-015  0.9000774E+02  0.7816164E-02  0.1186339E+00
        -11   -1    0    0    0    0  0.00000000000E+00  0.00000000000E+00  0.45593999997E+02  0.45594000000E+02  0.51100000000E-03 0. -1.
         11   -1    0    0    0    0 -0.00000000000E+00 -0.00000000000E+00 -0.45593999997E+02  0.45594000000E+02  0.51100000000E-03 0.  1.
    9900012    2    1    2    0    0 -0.10357598930E+01  0.35455170456E+00  0.44103623958E+00  0.90007737982E+02  0.89999999323E+02 0.  0.
        -12    1    1    2    0    0  0.10357598930E+01 -0.35455170456E+00 -0.44103623958E+00  0.11802620183E+01  0.00000000000E+00 0.  1.
         11    1    3    3    0    0 -0.18018893185E+02 -0.31766338169E+02 -0.26202515704E+01  0.36614839490E+02  0.51100000000E-03 0. -1.
        -11    1    3    3    0    0 -0.84331405714E+01 -0.32207535905E+01  0.39462136431E+01  0.98520919589E+01  0.51100000000E-03 0.  1.
        -12    1    3    3    0    0  0.25416273863E+02  0.35341643464E+02 -0.88492583314E+00  0.43540806533E+02  0.00000000000E+00 0.  1.
</event>
<event>
 7    1  0.2349719E-015  0.9000785E+02  0.7816164E-02  0.1186339E+00
        -11   -1    0    0    0    0  0.00000000000E+00  0.00000000000E+00  0.45593999997E+02  0.45594000000E+02  0.51100000000E-03 0.  1.
         11   -1    0    0    0    0 -0.00000000000E+00 -0.00000000000E+00 -0.45593999997E+02  0.45594000000E+02  0.51100000000E-03 0. -1.
    9900012    2    1    2    0    0 -0.14417973926E+00 -0.59258657241E+00 -0.10103447556E+01  0.90007854599E+02  0.90000117479E+02 0.  0.
        -12    1    1    2    0    0  0.14417973926E+00  0.59258657241E+00  0.10103447556E+01  0.11801454013E+01  0.00000000000E+00 0.  1.
         11    1    3    3    0    0 -0.10725822849E+01  0.39109780315E+02 -0.31745025822E+01  0.39253061230E+02  0.51100000000E-03 0. -1.
        -11    1    3    3    0    0  0.79191301525E+01  0.68458579065E+00  0.54471488831E+01  0.96360111712E+01  0.51100000000E-03 0.  1.
        -12    1    3    3    0    0 -0.69907276068E+01 -0.40386952678E+02 -0.32829910565E+01  0.41118782197E+02  0.00000000000E+00 0.  1.
</event>
<event>
 7    1  0.2349719E-015  0.9000778E+02  0.7816164E-02  0.1186339E+00
        -11   -1    0    0    0    0  0.00000000000E+00  0.00000000000E+00  0.45593999997E+02  0.45594000000E+02  0.51100000000E-03 0.  1.
         11   -1    0    0    0    0 -0.00000000000E+00 -0.00000000000E+00 -0.45593999997E+02  0.45594000000E+02  0.51100000000E-03 0. -1.
    9900012    2    1    2    0    0  0.34680267024E+00 -0.10001300751E+01 -0.52190008342E+00  0.90007783089E+02  0.90000045026E+02 0.  0.
        -12    1    1    2    0    0 -0.34680267024E+00  0.10001300751E+01  0.52190008342E+00  0.11802169107E+01  0.00000000000E+00 0.  1.
         11    1    3    3    0    0  0.34103444286E+02 -0.83559548079E+01 -0.11988606917E+02  0.37102474163E+02  0.51100000000E-03 0. -1.
        -11    1    3    3    0    0  0.42585067078E+01  0.18465560412E+01 -0.84467964360E+01  0.96381024526E+01  0.51100000000E-03 0.  1.
        -12    1    3    3    0    0 -0.38015148324E+02  0.55092686917E+01  0.19913503269E+02  0.43267206474E+02  0.00000000000E+00 0.  1.
</event>
<event>
 7    1  0.2802574E-015  0.9000775E+02  0.7816164E-02  0.1186339E+00
        -11   -1    0    0    0    0  0.00000000000E+00  0.00000000000E+00  0.45593999997E+02  0.45594000000E+02  0.51100000000E-03 0. -1.
         11   -1    0    0    0    0 -0.00000000000E+00 -0.00000000000E+00 -0.45593999997E+02  0.45594000000E+02  0.51100000000E-03 0.  1.
    9900012    2    1    2    0    0 -0.75285971315E+00  0.76537375484E+00  0.49029483845E+00  0.90007752670E+02  0.90000014205E+02 0.  0.
        -12    1    1    2    0    0  0.75285971315E+00 -0.76537375484E+00 -0.49029483845E+00  0.11802473304E+01  0.00000000000E+00 0.  1.
         11    1    3    3    0    0 -0.38914483467E+01  0.16494633891E+02  0.34281499859E+02  0.38241829850E+02  0.51100000000E-03 0. -1.
        -11    1    3    3    0    0 -0.30665655162E+01  0.88905181908E+01  0.11732470530E+00  0.94052593326E+01  0.51100000000E-03 0.  1.
        -12    1    3    3    0    0  0.62051541498E+01 -0.24619778327E+02 -0.33908529726E+02  0.42360663487E+02  0.00000000000E+00 0.  1.
</event>
<event>
 7    1  0.2349719E-015  0.9000796E+02  0.7816164E-02  0.1186339E+00
        -11   -1    0    0    0    0  0.00000000000E+00  0.00000000000E+00  0.45593999997E+02  0.45594000000E+02  0.51100000000E-03 0.  1.
         11   -1    0    0    0    0 -0.00000000000E+00 -0.00000000000E+00 -0.45593999997E+02  0.45594000000E+02  0.51100000000E-03 0. -1.
    9900012    2    1    2    0    0 -0.10400072310E+01 -0.52684656225E+00 -0.18250160132E+00  0.90007962215E+02  0.90000226515E+02 0.  0.
        -12    1    1    2    0    0  0.10400072310E+01  0.52684656225E+00  0.18250160132E+00  0.11800377855E+01  0.00000000000E+00 0.  1.
         11    1    3    3    0    0 -0.19482425214E+02  0.31054110685E+02  0.30872828202E+01  0.36789319077E+02  0.51100000000E-03 0. -1.
        -11    1    3    3    0    0 -0.55429604105E+01  0.37687138499E+01  0.65650951271E+01  0.93823285214E+01  0.51100000000E-03 0.  1.
        -12    1    3    3    0    0  0.23985378394E+02 -0.35349671097E+02 -0.98348795486E+01  0.43836314616E+02  0.00000000000E+00 0.  1.
</event>
<event>
 7    1  0.2349719E-015  0.9000773E+02  0.7816164E-02  0.1186339E+00
        -11   -1    0    0    0    0  0.00000000000E+00  0.00000000000E+00  0.45593999997E+02  0.45594000000E+02  0.51100000000E-03 0.  1.
         11   -1    0    0    0    0 -0.00000000000E+00 -0.00000000000E+00 -0.45593999997E+02  0.45594000000E+02  0.51100000000E-03 0. -1.
    9900012    2    1    2    0    0 -0.17184650346E+00  0.47428053266E+00 -0.10670394351E+01  0.90007726133E+02  0.89999987318E+02 0.  0.
        -12    1    1    2    0    0  0.17184650346E+00 -0.47428053266E+00  0.10670394351E+01  0.11802738667E+01  0.00000000000E+00 0.  1.
         11    1    3    3    0    0 -0.28514828303E+00  0.89773243586E+01  0.45462505616E+01  0.10066879189E+02  0.51100000000E-03 0. -1.
        -11    1    3    3    0    0 -0.12471249622E+02  0.10541698059E+02  0.32009737618E+02  0.35934423159E+02  0.51100000000E-03 0.  1.
         12    1    3    3    0    0  0.12584551402E+02 -0.19044741885E+02 -0.37623027615E+02  0.44006423785E+02  0.00000000000E+00 0. -1.
</event>
<event>
 7    1  0.2349719E-015  0.9000769E+02  0.7816164E-02  0.1186339E+00
        -11   -1    0    0    0    0  0.00000000000E+00  0.00000000000E+00  0.45593999997E+02  0.45594000000E+02  0.51100000000E-03 0.  1.
         11   -1    0    0    0    0 -0.00000000000E+00 -0.00000000000E+00 -0.45593999997E+02  0.45594000000E+02  0.51100000000E-03 0. -1.
    9900012    2    1    2    0    0  0.87093877649E+00  0.73777421333E+00 -0.30049486761E+00  0.90007685505E+02  0.89999946153E+02 0.  0.
        -12    1    1    2    0    0 -0.87093877649E+00 -0.73777421333E+00  0.30049486761E+00  0.11803144953E+01  0.00000000000E+00 0.  1.
         11    1    3    3    0    0  0.25643656256E+01  0.49840811241E+01  0.68161710974E+01  0.88248073296E+01  0.51100000000E-03 0. -1.
        -11    1    3    3    0    0  0.16019915693E+02  0.15272678570E+02  0.28993408493E+02  0.36476158595E+02  0.51100000000E-03 0.  1.
         12    1    3    3    0    0 -0.17713342543E+02 -0.19518985481E+02 -0.36110074458E+02  0.44706719580E+02  0.00000000000E+00 0. -1.
</event>
<event>
 7    1  0.2349719E-015  0.9000773E+02  0.7816164E-02  0.1186339E+00
        -11   -1    0    0    0    0  0.00000000000E+00  0.00000000000E+00  0.45593999997E+02  0.45594000000E+02  0.51100000000E-03 0.  1.
         11   -1    0    0    0    0 -0.00000000000E+00 -0.00000000000E+00 -0.45593999997E+02  0.45594000000E+02  0.51100000000E-03 0. -1.
    9900012    2    1    2    0    0 -0.34320484893E+00  0.10133536142E+01 -0.49834790206E+00  0.90007734883E+02  0.89999996183E+02 0.  0.
        -12    1    1    2    0    0  0.34320484893E+00 -0.10133536142E+01  0.49834790206E+00  0.11802651174E+01  0.00000000000E+00 0.  1.
         11    1    3    3    0    0 -0.75392683684E+00 -0.26126026756E+02 -0.12990641000E+02  0.29187230660E+02  0.51100000000E-03 0. -1.
        -11    1    3    3    0    0  0.62540959961E+01  0.48922106659E+00 -0.18497306731E+02  0.19532112291E+02  0.51100000000E-03 0.  1.
        -12    1    3    3    0    0 -0.58433740082E+01  0.26650159304E+02  0.30989599829E+02  0.41288391932E+02  0.00000000000E+00 0.  1.
</event>
<event>
 7    1  0.2349719E-015  0.9000772E+02  0.7816164E-02  0.1186339E+00
        -11   -1    0    0    0    0  0.00000000000E+00  0.00000000000E+00  0.45593999997E+02  0.45594000000E+02  0.51100000000E-03 0.  1.
         11   -1    0    0    0    0 -0.00000000000E+00 -0.00000000000E+00 -0.45593999997E+02  0.45594000000E+02  0.51100000000E-03 0. -1.
    9900012    2    1    2    0    0 -0.94997803488E+00  0.37677523937E+00  0.59045142158E+00  0.90007724300E+02  0.89999985460E+02 0.  0.
        -12    1    1    2    0    0  0.94997803488E+00 -0.37677523937E+00 -0.59045142158E+00  0.11802757004E+01  0.00000000000E+00 0.  1.
         11    1    3    3    0    0 -0.34354292209E+02  0.20064059455E+02  0.10776690370E+02  0.41217968540E+02  0.51100000000E-03 0. -1.
        -11    1    3    3    0    0  0.37062840984E+01  0.62090267807E+01 -0.55491171377E+01  0.91148920262E+01  0.51100000000E-03 0.  1.
        -12    1    3    3    0    0  0.29698030075E+02 -0.25896310996E+02 -0.46371218105E+01  0.39674863733E+02  0.00000000000E+00 0.  1.
</event>
<event>
 7    1  0.2349719E-015  0.9000769E+02  0.7816164E-02  0.1186339E+00
        -11   -1    0    0    0    0  0.00000000000E+00  0.00000000000E+00  0.45593999997E+02  0.45594000000E+02  0.51100000000E-03 0.  1.
         11   -1    0    0    0    0 -0.00000000000E+00 -0.00000000000E+00 -0.45593999997E+02  0.45594000000E+02  0.51100000000E-03 0. -1.
    9900012    2    1    2    0    0  0.77159307884E+00  0.27285158441E+00 -0.85048141712E+00  0.90007693893E+02  0.89999954652E+02 0.  0.
        -12    1    1    2    0    0 -0.77159307884E+00 -0.27285158441E+00  0.85048141712E+00  0.11803061075E+01  0.00000000000E+00 0.  1.
         11    1    3    3    0    0  0.53993130943E+01  0.57911096248E+01  0.12403059441E+02  0.14714802627E+02  0.51100000000E-03 0. -1.
        -11    1    3    3    0    0 -0.24298348847E+02  0.14872790990E+02  0.17534387230E+02  0.33452420007E+02  0.51100000000E-03 0.  1.
         12    1    3    3    0    0  0.19670628832E+02 -0.20391049030E+02 -0.30787928089E+02  0.41840471259E+02  0.00000000000E+00 0. -1.
</event>
<event>
 7    1  0.2349719E-015  0.9000771E+02  0.7816164E-02  0.1186339E+00
        -11   -1    0    0    0    0  0.00000000000E+00  0.00000000000E+00  0.45593999997E+02  0.45594000000E+02  0.51100000000E-03 0.  1.
         11   -1    0    0    0    0 -0.00000000000E+00 -0.00000000000E+00 -0.45593999997E+02  0.45594000000E+02  0.51100000000E-03 0. -1.
    9900012    2    1    2    0    0  0.53184449548E+00  0.51999194896E+00 -0.91643055283E+00  0.90007705481E+02  0.89999966393E+02 0.  0.
        -12    1    1    2    0    0 -0.53184449548E+00 -0.51999194896E+00  0.91643055283E+00  0.11802945194E+01  0.00000000000E+00 0.  1.
         11    1    3    3    0    0 -0.14662677207E+02 -0.11288819786E+02 -0.29062922785E+02  0.34454100426E+02  0.51100000000E-03 0. -1.
        -11    1    3    3    0    0 -0.70898085893E+01  0.47907494798E+01 -0.85207994580E+01  0.12075623797E+02  0.51100000000E-03 0.  1.
        -12    1    3    3    0    0  0.22284330292E+02  0.70180622556E+01  0.36667291691E+02  0.43477981258E+02  0.00000000000E+00 0.  1.
</event>
<event>
 7    1  0.2349719E-015  0.9000778E+02  0.7816164E-02  0.1186339E+00
        -11   -1    0    0    0    0  0.00000000000E+00  0.00000000000E+00  0.45593999997E+02  0.45594000000E+02  0.51100000000E-03 0. -1.
         11   -1    0    0    0    0 -0.00000000000E+00 -0.00000000000E+00 -0.45593999997E+02  0.45594000000E+02  0.51100000000E-03 0.  1.
    9900012    2    1    2    0    0  0.81327076575E+00  0.85527790319E+00  0.41284718032E-02  0.90007776854E+02  0.90000038708E+02 0.  0.
        -12    1    1    2    0    0 -0.81327076575E+00 -0.85527790319E+00 -0.41284718032E-02  0.11802231460E+01  0.00000000000E+00 0.  1.
         11    1    3    3    0    0  0.16425710427E+02 -0.58847188372E+01  0.16294632397E+02  0.23873603080E+02  0.51100000000E-03 0. -1.
        -11    1    3    3    0    0  0.31941275572E+01 -0.11005530212E+02 -0.33278138137E+02  0.35196002958E+02  0.51100000000E-03 0.  1.
         12    1    3    3    0    0 -0.18806567218E+02  0.17745526952E+02  0.16987634212E+02  0.30938170816E+02  0.00000000000E+00 0. -1.
</event>
<event>
 7    1  0.2349719E-015  0.9000786E+02  0.7816164E-02  0.1186339E+00
        -11   -1    0    0    0    0  0.00000000000E+00  0.00000000000E+00  0.45593999997E+02  0.45594000000E+02  0.51100000000E-03 0. -1.
         11   -1    0    0    0    0 -0.00000000000E+00 -0.00000000000E+00 -0.45593999997E+02  0.45594000000E+02  0.51100000000E-03 0.  1.
    9900012    2    1    2    0    0  0.33421144766E-01 -0.66938584665E+00  0.97135743626E+00  0.90007860325E+02  0.90000123281E+02 0.  0.
        -12    1    1    2    0    0 -0.33421144766E-01  0.66938584665E+00 -0.97135743626E+00  0.11801396755E+01  0.00000000000E+00 0.  1.
         11    1    3    3    0    0 -0.78560703538E+01 -0.20340802334E+02 -0.54959561229E+01  0.22487143326E+02  0.51100000000E-03 0. -1.
        -11    1    3    3    0    0 -0.23481203571E+02  0.51797439759E+01  0.19120142357E+02  0.30720945832E+02  0.51100000000E-03 0.  1.
        -12    1    3    3    0    0  0.31370695070E+02  0.14491672511E+02 -0.12652828798E+02  0.36799771167E+02  0.00000000000E+00 0.  1.
</event>
<event>
 7    1  0.2349719E-015  0.9000745E+02  0.7816164E-02  0.1186340E+00
        -11   -1    0    0    0    0  0.00000000000E+00  0.00000000000E+00  0.45593999997E+02  0.45594000000E+02  0.51100000000E-03 0. -1.
         11   -1    0    0    0    0 -0.00000000000E+00 -0.00000000000E+00 -0.45593999997E+02  0.45594000000E+02  0.51100000000E-03 0.  1.
    9900012    2    1    2    0    0 -0.66430269687E+00 -0.93902632856E+00 -0.26574432055E+00  0.90007454125E+02  0.89999711719E+02 0.  0.
        -12    1    1    2    0    0  0.66430269687E+00  0.93902632856E+00  0.26574432055E+00  0.11805458749E+01  0.00000000000E+00 0.  1.
         11    1    3    3    0    0  0.18413449103E+01 -0.37251242007E+02  0.54326171098E+01  0.37690302613E+02  0.51100000000E-03 0. -1.
        -11    1    3    3    0    0 -0.85838674035E+00 -0.78042376873E+01 -0.11768919613E+01  0.79390193743E+01  0.51100000000E-03 0.  1.
        -12    1    3    3    0    0 -0.16472608668E+01  0.44116453365E+02 -0.45214694690E+01  0.44378132138E+02  0.00000000000E+00 0.  1.
</event>
<event>
 7    1  0.2349719E-015  0.9000778E+02  0.7816164E-02  0.1186339E+00
        -11   -1    0    0    0    0  0.00000000000E+00  0.00000000000E+00  0.45593999997E+02  0.45594000000E+02  0.51100000000E-03 0. -1.
         11   -1    0    0    0    0 -0.00000000000E+00 -0.00000000000E+00 -0.45593999997E+02  0.45594000000E+02  0.51100000000E-03 0.  1.
    9900012    2    1    2    0    0 -0.64165180122E+00  0.19322018238E+00  0.97152926441E+00  0.90007779603E+02  0.90000041494E+02 0.  0.
        -12    1    1    2    0    0  0.64165180122E+00 -0.19322018238E+00 -0.97152926441E+00  0.11802203966E+01  0.00000000000E+00 0.  1.
         11    1    3    3    0    0  0.94209085948E+01  0.39671543469E+01 -0.13494715834E+01  0.10310815010E+02  0.51100000000E-03 0. -1.
        -11    1    3    3    0    0 -0.16345385760E+02 -0.23400994424E+02  0.32435007032E+02  0.43206571920E+02  0.51100000000E-03 0.  1.
         12    1    3    3    0    0  0.62828253642E+01  0.19627060259E+02 -0.30114006184E+02  0.36490392673E+02  0.00000000000E+00 0. -1.
</event>
<event>
 7    1  0.2349719E-015  0.9000766E+02  0.7816164E-02  0.1186339E+00
        -11   -1    0    0    0    0  0.00000000000E+00  0.00000000000E+00  0.45593999997E+02  0.45594000000E+02  0.51100000000E-03 0.  1.
         11   -1    0    0    0    0 -0.00000000000E+00 -0.00000000000E+00 -0.45593999997E+02  0.45594000000E+02  0.51100000000E-03 0. -1.
    9900012    2    1    2    0    0 -0.89067736123E+00  0.76381160279E+00 -0.12837337058E+00  0.90007663587E+02  0.89999923946E+02 0.  0.
        -12    1    1    2    0    0  0.89067736123E+00 -0.76381160279E+00  0.12837337058E+00  0.11803364133E+01  0.00000000000E+00 0.  1.
         11    1    3    3    0    0  0.31630954337E+01 -0.74877133560E+01 -0.32896129559E+02  0.33885488992E+02  0.51100000000E-03 0. -1.
        -11    1    3    3    0    0 -0.28710576527E+01 -0.55611501503E+00 -0.11040708611E+02  0.11421448369E+02  0.51100000000E-03 0.  1.
        -12    1    3    3    0    0 -0.11827151423E+01  0.88076399738E+01  0.43808464799E+02  0.44700726225E+02  0.00000000000E+00 0.  1.
</event>
<event>
 7    1  0.2349719E-015  0.9000785E+02  0.7816164E-02  0.1186339E+00
        -11   -1    0    0    0    0  0.00000000000E+00  0.00000000000E+00  0.45593999997E+02  0.45594000000E+02  0.51100000000E-03 0.  1.
         11   -1    0    0    0    0 -0.00000000000E+00 -0.00000000000E+00 -0.45593999997E+02  0.45594000000E+02  0.51100000000E-03 0. -1.
    9900012    2    1    2    0    0  0.10268518730E+01  0.42830626460E+00 -0.39354069712E+00  0.90007853693E+02  0.90000116562E+02 0.  0.
        -12    1    1    2    0    0 -0.10268518730E+01 -0.42830626460E+00  0.39354069712E+00  0.11801463069E+01  0.00000000000E+00 0.  1.
         11    1    3    3    0    0  0.56149757878E+01  0.15010049999E+01 -0.42081086992E+01  0.71755939261E+01  0.51100000000E-03 0. -1.
        -11    1    3    3    0    0  0.20526075741E+02  0.33381296326E+02  0.79874147939E+01  0.39992868427E+02  0.51100000000E-03 0.  1.
         12    1    3    3    0    0 -0.25114199655E+02 -0.34453995061E+02 -0.41728467918E+01  0.42839391340E+02  0.00000000000E+00 0. -1.
</event>
<event>
 7    1  0.2349719E-015  0.9000775E+02  0.7816164E-02  0.1186339E+00
        -11   -1    0    0    0    0  0.00000000000E+00  0.00000000000E+00  0.45593999997E+02  0.45594000000E+02  0.51100000000E-03 0.  1.
         11   -1    0    0    0    0 -0.00000000000E+00 -0.00000000000E+00 -0.45593999997E+02  0.45594000000E+02  0.51100000000E-03 0. -1.
    9900012    2    1    2    0    0 -0.48099436380E+00 -0.12023884006E+00 -0.10710613659E+01  0.90007751973E+02  0.90000013499E+02 0.  0.
        -12    1    1    2    0    0  0.48099436380E+00  0.12023884006E+00  0.10710613659E+01  0.11802480274E+01  0.00000000000E+00 0.  1.
         11    1    3    3    0    0 -0.37437742413E+02 -0.13545959812E+02 -0.14437875551E+02  0.42350086598E+02  0.51100000000E-03 0. -1.
        -11    1    3    3    0    0  0.35081273295E+01  0.48058226470E+01 -0.56688753059E+01  0.82182136848E+01  0.51100000000E-03 0.  1.
        -12    1    3    3    0    0  0.33448620719E+02  0.86198983245E+01  0.19035689491E+02  0.39439451690E+02  0.00000000000E+00 0.  1.
</event>
<event>
 7    1  0.2349719E-015  0.9000790E+02  0.7816164E-02  0.1186339E+00
        -11   -1    0    0    0    0  0.00000000000E+00  0.00000000000E+00  0.45593999997E+02  0.45594000000E+02  0.51100000000E-03 0.  1.
         11   -1    0    0    0    0 -0.00000000000E+00 -0.00000000000E+00 -0.45593999997E+02  0.45594000000E+02  0.51100000000E-03 0. -1.
    9900012    2    1    2    0    0  0.88187660165E+00  0.49989194378E+00  0.60418724822E+00  0.90007898086E+02  0.90000161541E+02 0.  0.
        -12    1    1    2    0    0 -0.88187660165E+00 -0.49989194378E+00 -0.60418724822E+00  0.11801019138E+01  0.00000000000E+00 0.  1.
         11    1    3    3    0    0 -0.41555040073E+01  0.23715200458E+01 -0.81047428609E+01  0.94116511827E+01  0.51100000000E-03 0. -1.
        -11    1    3    3    0    0 -0.24986956477E+02  0.20319388157E+02 -0.15863113903E+02  0.35900750856E+02  0.51100000000E-03 0.  1.
         12    1    3    3    0    0  0.30024337086E+02 -0.22191016259E+02  0.24572044012E+02  0.44695496048E+02  0.00000000000E+00 0. -1.
</event>
<event>
 7    1  0.2349719E-015  0.9000774E+02  0.7816164E-02  0.1186339E+00
        -11   -1    0    0    0    0  0.00000000000E+00  0.00000000000E+00  0.45593999997E+02  0.45594000000E+02  0.51100000000E-03 0. -1.
         11   -1    0    0    0    0 -0.00000000000E+00 -0.00000000000E+00 -0.45593999997E+02  0.45594000000E+02  0.51100000000E-03 0.  1.
    9900012    2    1    2    0    0 -0.70240149973E+00  0.14098283976E+00  0.93796170523E+00  0.90007738932E+02  0.90000000286E+02 0.  0.
        -12    1    1    2    0    0  0.70240149973E+00 -0.14098283976E+00 -0.93796170523E+00  0.11802610679E+01  0.00000000000E+00 0.  1.
         11    1    3    3    0    0 -0.30814514174E+02  0.88598828516E+01  0.15284603081E+02  0.35519725499E+02  0.51100000000E-03 0. -1.
        -11    1    3    3    0    0 -0.95185137880E+01  0.73412290284E+00  0.32821384821E+01  0.10095220376E+02  0.51100000000E-03 0.  1.
        -12    1    3    3    0    0  0.39630626463E+02 -0.94530229147E+01 -0.17628779858E+02  0.44392793056E+02  0.00000000000E+00 0.  1.
</event>
<event>
 7    1  0.2349719E-015  0.9000784E+02  0.7816164E-02  0.1186339E+00
        -11   -1    0    0    0    0  0.00000000000E+00  0.00000000000E+00  0.45593999997E+02  0.45594000000E+02  0.51100000000E-03 0.  1.
         11   -1    0    0    0    0 -0.00000000000E+00 -0.00000000000E+00 -0.45593999997E+02  0.45594000000E+02  0.51100000000E-03 0. -1.
    9900012    2    1    2    0    0 -0.67587859564E+00 -0.62606096983E+00 -0.73757380057E+00  0.90007839280E+02  0.90000101958E+02 0.  0.
        -12    1    1    2    0    0  0.67587859564E+00  0.62606096983E+00  0.73757380057E+00  0.11801607201E+01  0.00000000000E+00 0.  1.
         11    1    3    3    0    0 -0.14230088971E+00  0.86811018419E+01  0.56154923968E+00  0.87004089871E+01  0.51100000000E-03 0. -1.
        -11    1    3    3    0    0 -0.35481741068E+02  0.21563057395E+01  0.17919833689E+02  0.39808592582E+02  0.51100000000E-03 0.  1.
         12    1    3    3    0    0  0.34948163362E+02 -0.11463468551E+02 -0.19218956730E+02  0.41498837711E+02  0.00000000000E+00 0. -1.
</event>
<event>
 8    1  0.2349719E-015  0.9000778E+02  0.7816164E-02  0.1186339E+00
        -11   -1    0    0    0    0  0.00000000000E+00  0.00000000000E+00  0.45593999997E+02  0.45594000000E+02  0.51100000000E-03 0.  1.
         11   -1    0    0    0    0 -0.00000000000E+00 -0.00000000000E+00 -0.45593999997E+02  0.45594000000E+02  0.51100000000E-03 0. -1.
    9900012    2    1    2    0    0  0.39083055797E+00  0.37930800917E+00  0.10470411295E+01  0.90007780437E+02  0.90000042338E+02 0.  0.
         23    2    3    3    0    0  0.19895482616E+02 -0.18535997446E+02  0.81285881905E+01  0.61929879141E+02  0.55043823946E+02 0.  0.
        -12    1    1    2    0    0 -0.39083055797E+00 -0.37930800917E+00 -0.10470411295E+01  0.11802195633E+01  0.00000000000E+00 0.  1.
         11    1    4    4    0    0  0.28523689386E+02 -0.11802058251E+02 -0.16483273893E+02  0.34994110271E+02  0.51100000000E-03 0. -1.
        -11    1    4    4    0    0 -0.86282067704E+01 -0.67339391955E+01  0.24611862084E+02  0.26935768871E+02  0.51100000000E-03 0.  1.
        -12    1    3    3    0    0 -0.19504652058E+02  0.18915305455E+02 -0.70815470610E+01  0.28077901295E+02  0.00000000000E+00 0.  1.
</event>
<event>
 7    1  0.2349719E-015  0.9000774E+02  0.7816164E-02  0.1186339E+00
        -11   -1    0    0    0    0  0.00000000000E+00  0.00000000000E+00  0.45593999997E+02  0.45594000000E+02  0.51100000000E-03 0.  1.
         11   -1    0    0    0    0 -0.00000000000E+00 -0.00000000000E+00 -0.45593999997E+02  0.45594000000E+02  0.51100000000E-03 0. -1.
    9900012    2    1    2    0    0 -0.10261846856E+01 -0.26072268881E+00 -0.52150923526E+00  0.90007744429E+02  0.90000005856E+02 0.  0.
        -12    1    1    2    0    0  0.10261846856E+01  0.26072268881E+00  0.52150923526E+00  0.11802555706E+01  0.00000000000E+00 0.  1.
         11    1    3    3    0    0 -0.18142554545E+02  0.25442482594E+02 -0.15708211914E+02  0.34974564011E+02  0.51100000000E-03 0. -1.
        -11    1    3    3    0    0  0.25398944028E+01  0.40022140098E+01 -0.11554722018E+02  0.12489210612E+02  0.51100000000E-03 0.  1.
        -12    1    3    3    0    0  0.14576475456E+02 -0.29705419293E+02  0.26741424696E+02  0.42543969806E+02  0.00000000000E+00 0.  1.
</event>
<event>
 7    1  0.2349719E-015  0.9000767E+02  0.7816164E-02  0.1186339E+00
        -11   -1    0    0    0    0  0.00000000000E+00  0.00000000000E+00  0.45593999997E+02  0.45594000000E+02  0.51100000000E-03 0. -1.
         11   -1    0    0    0    0 -0.00000000000E+00 -0.00000000000E+00 -0.45593999997E+02  0.45594000000E+02  0.51100000000E-03 0.  1.
    9900012    2    1    2    0    0  0.54900844313E+00  0.10095673139E+01  0.26935275048E+00  0.90007666430E+02  0.89999926827E+02 0.  0.
        -12    1    1    2    0    0 -0.54900844313E+00 -0.10095673139E+01 -0.26935275048E+00  0.11803335698E+01  0.00000000000E+00 0.  1.
         11    1    3    3    0    0  0.37197969714E+01  0.56757862090E+01 -0.86477835991E+01  0.10992524734E+02  0.51100000000E-03 0. -1.
        -11    1    3    3    0    0  0.54365867320E+01  0.17334831782E+02 -0.29070514063E+02  0.34280426724E+02  0.51100000000E-03 0.  1.
         12    1    3    3    0    0 -0.86073752603E+01 -0.22001050677E+02  0.37987650412E+02  0.44734714972E+02  0.00000000000E+00 0. -1.
</event>
<event>
 7    1  0.2349719E-015  0.9000780E+02  0.7816164E-02  0.1186339E+00
        -11   -1    0    0    0    0  0.00000000000E+00  0.00000000000E+00  0.45593999997E+02  0.45594000000E+02  0.51100000000E-03 0. -1.
         11   -1    0    0    0    0 -0.00000000000E+00 -0.00000000000E+00 -0.45593999997E+02  0.45594000000E+02  0.51100000000E-03 0.  1.
    9900012    2    1    2    0    0  0.96107344104E+00 -0.28246010989E+00  0.62403453593E+00  0.90007802993E+02  0.90000065193E+02 0.  0.
        -12    1    1    2    0    0 -0.96107344104E+00  0.28246010989E+00 -0.62403453593E+00  0.11801970068E+01  0.00000000000E+00 0.  1.
         11    1    3    3    0    0  0.30080863465E+02 -0.54183996861E+01  0.20655666372E+02  0.36890025149E+02  0.51100000000E-03 0. -1.
        -11    1    3    3    0    0  0.65151526367E+01  0.20132499628E+01  0.58342364251E+01  0.89743358650E+01  0.51100000000E-03 0.  1.
        -12    1    3    3    0    0 -0.35634942661E+02  0.31226896134E+01 -0.25865868261E+02  0.44143441979E+02  0.00000000000E+00 0.  1.
</event>
<event>
 7    1  0.2349719E-015  0.9000855E+02  0.7816164E-02  0.1186337E+00
        -11   -1    0    0    0    0  0.00000000000E+00  0.00000000000E+00  0.45593999997E+02  0.45594000000E+02  0.51100000000E-03 0.  1.
         11   -1    0    0    0    0 -0.00000000000E+00 -0.00000000000E+00 -0.45593999997E+02  0.45594000000E+02  0.51100000000E-03 0. -1.
    9900012    2    1    2    0    0  0.10735058273E+01 -0.16222706311E+00 -0.46083368580E+00  0.90008550948E+02  0.90000823016E+02 0.  0.
        -12    1    1    2    0    0 -0.10735058273E+01  0.16222706311E+00  0.46083368580E+00  0.11794490524E+01  0.00000000000E+00 0.  1.
         11    1    3    3    0    0  0.18052892974E+02  0.34459957529E+02  0.10228701084E+02  0.40224643488E+02  0.51100000000E-03 0. -1.
        -11    1    3    3    0    0 -0.52706705690E+01  0.11034229555E+01  0.65036442486E+01  0.84436306906E+01  0.51100000000E-03 0.  1.
        -12    1    3    3    0    0 -0.11708716578E+02 -0.35725607547E+02 -0.17193179019E+02  0.41340276769E+02  0.00000000000E+00 0.  1.
</event>
<event>
 7    1  0.2349719E-015  0.9000777E+02  0.7816164E-02  0.1186339E+00
        -11   -1    0    0    0    0  0.00000000000E+00  0.00000000000E+00  0.45593999997E+02  0.45594000000E+02  0.51100000000E-03 0.  1.
         11   -1    0    0    0    0 -0.00000000000E+00 -0.00000000000E+00 -0.45593999997E+02  0.45594000000E+02  0.51100000000E-03 0. -1.
    9900012    2    1    2    0    0 -0.21043161221E-01  0.71147198618E+00 -0.94143323895E+00  0.90007774706E+02  0.90000036532E+02 0.  0.
        -12    1    1    2    0    0  0.21043161221E-01 -0.71147198618E+00  0.94143323895E+00  0.11802252942E+01  0.00000000000E+00 0.  1.
         11    1    3    3    0    0 -0.23350240841E+02 -0.14472322057E+02 -0.26868437729E+02  0.38426485648E+02  0.51100000000E-03 0. -1.
        -11    1    3    3    0    0 -0.82643160378E+01 -0.12436751649E+01  0.17457256584E+01  0.85377518015E+01  0.51100000000E-03 0.  1.
        -12    1    3    3    0    0  0.31593513717E+02  0.16427469208E+02  0.24181278831E+02  0.43043537256E+02  0.00000000000E+00 0.  1.
</event>
<event>
 7    1  0.2349719E-015  0.9000716E+02  0.7816164E-02  0.1186340E+00
        -11   -1    0    0    0    0  0.00000000000E+00  0.00000000000E+00  0.45593999997E+02  0.45594000000E+02  0.51100000000E-03 0.  1.
         11   -1    0    0    0    0 -0.00000000000E+00 -0.00000000000E+00 -0.45593999997E+02  0.45594000000E+02  0.51100000000E-03 0. -1.
    9900012    2    1    2    0    0 -0.53575868208E+00  0.30042722113E+00  0.10085108016E+01  0.90007157962E+02  0.89999411646E+02 0.  0.
        -12    1    1    2    0    0  0.53575868208E+00 -0.30042722113E+00 -0.10085108016E+01  0.11808420375E+01  0.00000000000E+00 0.  1.
         11    1    3    3    0    0  0.13028751584E+00 -0.83122021436E+01  0.10716960008E+02  0.13563292793E+02  0.51100000000E-03 0. -1.
        -11    1    3    3    0    0 -0.17535064331E+02 -0.15065118761E+02  0.23049746385E+02  0.32645475844E+02  0.51100000000E-03 0.  1.
         12    1    3    3    0    0  0.16869018133E+02  0.23677748126E+02 -0.32758195592E+02  0.43798389326E+02  0.00000000000E+00 0. -1.
</event>
<event>
 7    1  0.2349719E-015  0.9000773E+02  0.7816164E-02  0.1186339E+00
        -11   -1    0    0    0    0  0.00000000000E+00  0.00000000000E+00  0.45593999997E+02  0.45594000000E+02  0.51100000000E-03 0. -1.
         11   -1    0    0    0    0 -0.00000000000E+00 -0.00000000000E+00 -0.45593999997E+02  0.45594000000E+02  0.51100000000E-03 0.  1.
    9900012    2    1    2    0    0  0.82149499443E+00  0.53316264827E+00 -0.65873207729E+00  0.90007726987E+02  0.89999988183E+02 0.  0.
        -12    1    1    2    0    0 -0.82149499443E+00 -0.53316264827E+00  0.65873207729E+00  0.11802730129E+01  0.00000000000E+00 0.  1.
         11    1    3    3    0    0  0.29470777598E+01  0.18925822340E+02  0.11694456078E+02  0.22441753982E+02  0.51100000000E-03 0. -1.
        -11    1    3    3    0    0  0.29407688584E+02 -0.12020051021E+01  0.45491130369E+00  0.29435759014E+02  0.51100000000E-03 0.  1.
        -12    1    3    3    0    0 -0.31533271350E+02 -0.17190654590E+02 -0.12808099459E+02  0.38130213991E+02  0.00000000000E+00 0.  1.
</event>
<event>
 7    1  0.2349719E-015  0.9000780E+02  0.7816164E-02  0.1186339E+00
        -11   -1    0    0    0    0  0.00000000000E+00  0.00000000000E+00  0.45593999997E+02  0.45594000000E+02  0.51100000000E-03 0. -1.
         11   -1    0    0    0    0 -0.00000000000E+00 -0.00000000000E+00 -0.45593999997E+02  0.45594000000E+02  0.51100000000E-03 0.  1.
    9900012    2    1    2    0    0  0.11273882925E+01  0.22045077060E-01  0.34840482067E+00  0.90007798209E+02  0.90000060346E+02 0.  0.
        -12    1    1    2    0    0 -0.11273882925E+01 -0.22045077060E-01 -0.34840482067E+00  0.11802017906E+01  0.00000000000E+00 0.  1.
         11    1    3    3    0    0  0.49746377084E+01 -0.73972906660E+00 -0.91016560559E+01  0.10398767362E+02  0.51100000000E-03 0. -1.
        -11    1    3    3    0    0  0.10408451564E+02  0.28806984173E+01 -0.33029966003E+02  0.34750725773E+02  0.51100000000E-03 0.  1.
         12    1    3    3    0    0 -0.14255700980E+02 -0.21189242736E+01  0.42480026879E+02  0.44858305075E+02  0.00000000000E+00 0. -1.
</event>
<event>
 7    1  0.2990999E-015  0.9000761E+02  0.7816164E-02  0.1186339E+00
        -11   -1    0    0    0    0  0.00000000000E+00  0.00000000000E+00  0.45593999997E+02  0.45594000000E+02  0.51100000000E-03 0. -1.
         11   -1    0    0    0    0 -0.00000000000E+00 -0.00000000000E+00 -0.45593999997E+02  0.45594000000E+02  0.51100000000E-03 0.  1.
    9900012    2    1    2    0    0  0.84499440068E+00 -0.45501732529E+00  0.68721550682E+00  0.90007609617E+02  0.89999869264E+02 0.  0.
        -12    1    1    2    0    0 -0.84499440068E+00  0.45501732529E+00 -0.68721550682E+00  0.11803903830E+01  0.00000000000E+00 0.  1.
         11    1    3    3    0    0 -0.94744721715E+01  0.85606444138E+01  0.37271662216E+02  0.39398312912E+02  0.51100000000E-03 0. -1.
        -11    1    3    3    0    0 -0.29514903508E+01  0.93349955086E+01 -0.32617684364E+01  0.10319523731E+02  0.51100000000E-03 0.  1.
        -12    1    3    3    0    0  0.13270956923E+02 -0.18350657248E+02 -0.33322678273E+02  0.40289772974E+02  0.00000000000E+00 0.  1.
</event>
<event>
 7    1  0.2349719E-015  0.9000773E+02  0.7816164E-02  0.1186339E+00
        -11   -1    0    0    0    0  0.00000000000E+00  0.00000000000E+00  0.45593999997E+02  0.45594000000E+02  0.51100000000E-03 0.  1.
         11   -1    0    0    0    0 -0.00000000000E+00 -0.00000000000E+00 -0.45593999997E+02  0.45594000000E+02  0.51100000000E-03 0. -1.
    9900012    2    1    2    0    0 -0.66276398605E+00  0.85768620142E+00 -0.46707885741E+00  0.90007726989E+02  0.89999988185E+02 0.  0.
        -12    1    1    2    0    0  0.66276398605E+00 -0.85768620142E+00  0.46707885741E+00  0.11802730109E+01  0.00000000000E+00 0.  1.
         11    1    3    3    0    0  0.72803190304E+01 -0.72817024205E+00  0.77225947596E+01  0.10638221053E+02  0.51100000000E-03 0. -1.
        -11    1    3    3    0    0  0.35250673264E+02 -0.33711130659E-01  0.62286827821E+00  0.35256191898E+02  0.51100000000E-03 0.  1.
         12    1    3    3    0    0 -0.43193756281E+02  0.16195675741E+01 -0.88125418952E+01  0.44113314038E+02  0.00000000000E+00 0. -1.
</event>
<event>
 7    1  0.2349719E-015  0.9000775E+02  0.7816164E-02  0.1186339E+00
        -11   -1    0    0    0    0  0.00000000000E+00  0.00000000000E+00  0.45593999997E+02  0.45594000000E+02  0.51100000000E-03 0.  1.
         11   -1    0    0    0    0 -0.00000000000E+00 -0.00000000000E+00 -0.45593999997E+02  0.45594000000E+02  0.51100000000E-03 0. -1.
    9900012    2    1    2    0    0  0.10803732182E+01  0.19540347304E+00  0.43311684855E+00  0.90007754681E+02  0.90000016243E+02 0.  0.
        -12    1    1    2    0    0 -0.10803732182E+01 -0.19540347304E+00 -0.43311684855E+00  0.11802453187E+01  0.00000000000E+00 0.  1.
         11    1    3    3    0    0  0.21341845065E+02 -0.29680600312E+02  0.86748744767E+00  0.36567265695E+02  0.51100000000E-03 0. -1.
        -11    1    3    3    0    0  0.51176667984E+01 -0.67354330700E+01 -0.25721395535E+01  0.88415199057E+01  0.51100000000E-03 0.  1.
        -12    1    3    3    0    0 -0.25379138645E+02  0.36611436855E+02  0.21377689544E+01  0.44598969081E+02  0.00000000000E+00 0.  1.
</event>
<event>
 7    1  0.2349719E-015  0.9000774E+02  0.7816164E-02  0.1186339E+00
        -11   -1    0    0    0    0  0.00000000000E+00  0.00000000000E+00  0.45593999997E+02  0.45594000000E+02  0.51100000000E-03 0.  1.
         11   -1    0    0    0    0 -0.00000000000E+00 -0.00000000000E+00 -0.45593999997E+02  0.45594000000E+02  0.51100000000E-03 0. -1.
    9900012    2    1    2    0    0 -0.56332114351E+00  0.62317142399E+00 -0.82905524753E+00  0.90007743275E+02  0.90000004686E+02 0.  0.
        -12    1    1    2    0    0  0.56332114351E+00 -0.62317142399E+00  0.82905524753E+00  0.11802567254E+01  0.00000000000E+00 0.  1.
         11    1    3    3    0    0 -0.88552345851E+01  0.13696656130E+01 -0.10292509215E+01  0.90194523763E+01  0.51100000000E-03 0. -1.
        -11    1    3    3    0    0 -0.16342551248E+02  0.13056327212E+02  0.32145291207E+02  0.38351876207E+02  0.51100000000E-03 0.  1.
         12    1    3    3    0    0  0.24634464690E+02 -0.13802821401E+02 -0.31945095533E+02  0.42636414692E+02  0.00000000000E+00 0. -1.
</event>
<event>
 7    1  0.2349719E-015  0.9000746E+02  0.7816164E-02  0.1186340E+00
        -11   -1    0    0    0    0  0.00000000000E+00  0.00000000000E+00  0.45593999997E+02  0.45594000000E+02  0.51100000000E-03 0.  1.
         11   -1    0    0    0    0 -0.00000000000E+00 -0.00000000000E+00 -0.45593999997E+02  0.45594000000E+02  0.51100000000E-03 0. -1.
    9900012    2    1    2    0    0 -0.91784925972E+00  0.46381999950E+00 -0.57974930975E+00  0.90007455415E+02  0.89999713026E+02 0.  0.
        -12    1    1    2    0    0  0.91784925972E+00 -0.46381999950E+00  0.57974930975E+00  0.11805445852E+01  0.00000000000E+00 0.  1.
         11    1    3    3    0    0 -0.40820715530E+02  0.19169120884E+00 -0.51468102778E+01  0.41144346127E+02  0.51100000000E-03 0. -1.
        -11    1    3    3    0    0  0.42645695468E+01  0.90667206730E+01 -0.46050038469E+01  0.11027150034E+02  0.51100000000E-03 0.  1.
        -12    1    3    3    0    0  0.35638296723E+02 -0.87945918824E+01  0.91720648150E+01  0.37835959254E+02  0.00000000000E+00 0.  1.
</event>
<event>
 7    1  0.2349719E-015  0.9000772E+02  0.7816164E-02  0.1186339E+00
        -11   -1    0    0    0    0  0.00000000000E+00  0.00000000000E+00  0.45593999997E+02  0.45594000000E+02  0.51100000000E-03 0.  1.
         11   -1    0    0    0    0 -0.00000000000E+00 -0.00000000000E+00 -0.45593999997E+02  0.45594000000E+02  0.51100000000E-03 0. -1.
    9900012    2    1    2    0    0 -0.98048208160E+00 -0.65399812049E+00  0.63266232418E-01  0.90007719834E+02  0.89999980936E+02 0.  0.
        -12    1    1    2    0    0  0.98048208160E+00  0.65399812049E+00 -0.63266232418E-01  0.11802801659E+01  0.00000000000E+00 0.  1.
         11    1    3    3    0    0 -0.40751290605E+02 -0.11960895529E+02  0.35766519494E+01  0.42620689193E+02  0.51100000000E-03 0. -1.
        -11    1    3    3    0    0  0.58591685781E+01 -0.37700961529E+01 -0.72889635973E+01  0.10083276849E+02  0.51100000000E-03 0.  1.
        -12    1    3    3    0    0  0.33911639946E+02  0.15076993561E+02  0.37755778803E+01  0.37303753792E+02  0.00000000000E+00 0.  1.
</event>
<event>
 7    1  0.2349719E-015  0.9000778E+02  0.7816164E-02  0.1186339E+00
        -11   -1    0    0    0    0  0.00000000000E+00  0.00000000000E+00  0.45593999997E+02  0.45594000000E+02  0.51100000000E-03 0. -1.
         11   -1    0    0    0    0 -0.00000000000E+00 -0.00000000000E+00 -0.45593999997E+02  0.45594000000E+02  0.51100000000E-03 0.  1.
    9900012    2    1    2    0    0 -0.65998258153E+00 -0.80841966139E+00  0.55118011075E+00  0.90007780160E+02  0.90000042058E+02 0.  0.
        -12    1    1    2    0    0  0.65998258153E+00  0.80841966139E+00 -0.55118011075E+00  0.11802198402E+01  0.00000000000E+00 0.  1.
         11    1    3    3    0    0  0.87633203964E+01  0.10328899034E+02  0.38863119044E+01  0.14092031795E+02  0.51100000000E-03 0. -1.
        -11    1    3    3    0    0 -0.40356023325E+01  0.21768318022E+02  0.24107648433E+02  0.32731093305E+02  0.51100000000E-03 0.  1.
         12    1    3    3    0    0 -0.53877006454E+01 -0.32905636718E+02 -0.27442780227E+02  0.43184655060E+02  0.00000000000E+00 0. -1.
</event>
<event>
 8    1  0.2349719E-015  0.9000772E+02  0.7816164E-02  0.1186339E+00
        -11   -1    0    0    0    0  0.00000000000E+00  0.00000000000E+00  0.45593999997E+02  0.45594000000E+02  0.51100000000E-03 0. -1.
         11   -1    0    0    0    0 -0.00000000000E+00 -0.00000000000E+00 -0.45593999997E+02  0.45594000000E+02  0.51100000000E-03 0.  1.
    9900012    2    1    2    0    0  0.61367885717E+00 -0.71708204834E+00  0.70869859054E+00  0.90007719484E+02  0.89999980581E+02 0.  0.
         23    2    3    3    0    0  0.25782902966E+02  0.41294433733E+01  0.77462272579E+01  0.63427549043E+02  0.57282104998E+02 0.  0.
        -12    1    1    2    0    0 -0.61367885717E+00  0.71708204834E+00 -0.70869859054E+00  0.11802805158E+01  0.00000000000E+00 0.  1.
         11    1    4    4    0    0  0.38301237439E+01 -0.24126864680E+02 -0.59007691493E+01  0.25131544401E+02  0.51100000000E-03 0. -1.
        -11    1    4    4    0    0  0.21952779222E+02  0.28256308053E+02  0.13646996407E+02  0.38296004642E+02  0.51100000000E-03 0.  1.
         12    1    3    3    0    0 -0.25169224109E+02 -0.48465254217E+01 -0.70375286673E+01  0.26580170441E+02  0.00000000000E+00 0. -1.
</event>
<event>
 7    1  0.2349719E-015  0.9000773E+02  0.7816164E-02  0.1186339E+00
        -11   -1    0    0    0    0  0.00000000000E+00  0.00000000000E+00  0.45593999997E+02  0.45594000000E+02  0.51100000000E-03 0. -1.
         11   -1    0    0    0    0 -0.00000000000E+00 -0.00000000000E+00 -0.45593999997E+02  0.45594000000E+02  0.51100000000E-03 0.  1.
    9900012    2    1    2    0    0  0.90033430068E+00  0.71897091449E+00 -0.25595700403E+00  0.90007730956E+02  0.89999992204E+02 0.  0.
        -12    1    1    2    0    0 -0.90033430068E+00 -0.71897091449E+00  0.25595700403E+00  0.11802690442E+01  0.00000000000E+00 0.  1.
         11    1    3    3    0    0 -0.37938337535E+01  0.78317812788E+01  0.74533079161E+01  0.11457825784E+02  0.51100000000E-03 0. -1.
        -11    1    3    3    0    0  0.20023704278E+02  0.31104750170E+02 -0.38111308667E+01  0.37188424744E+02  0.51100000000E-03 0.  1.
         12    1    3    3    0    0 -0.15329536224E+02 -0.38217560535E+02 -0.38981340535E+01  0.41361480428E+02  0.00000000000E+00 0. -1.
</event>
<event>
 7    1  0.3034169E-015  0.9000775E+02  0.7816164E-02  0.1186339E+00
        -11   -1    0    0    0    0  0.00000000000E+00  0.00000000000E+00  0.45593999997E+02  0.45594000000E+02  0.51100000000E-03 0. -1.
         11   -1    0    0    0    0 -0.00000000000E+00 -0.00000000000E+00 -0.45593999997E+02  0.45594000000E+02  0.51100000000E-03 0.  1.
    9900012    2    1    2    0    0  0.31931988242E+00  0.48255392343E+00  0.10286710686E+01  0.90007751025E+02  0.90000012538E+02 0.  0.
        -12    1    1    2    0    0 -0.31931988242E+00 -0.48255392343E+00 -0.10286710686E+01  0.11802489753E+01  0.00000000000E+00 0.  1.
         11    1    3    3    0    0 -0.36339339442E+02  0.75827124039E+01  0.10079475362E+02  0.38466101210E+02  0.51100000000E-03 0. -1.
        -11    1    3    3    0    0  0.29296913316E+00  0.16816023563E+01  0.95921323601E+01  0.97428240707E+01  0.51100000000E-03 0.  1.
        -12    1    3    3    0    0  0.36365690191E+02 -0.87817608367E+01 -0.18642936653E+02  0.41798825744E+02  0.00000000000E+00 0.  1.
</event>
<event>
 7    1  0.2349719E-015  0.9000791E+02  0.7816164E-02  0.1186339E+00
        -11   -1    0    0    0    0  0.00000000000E+00  0.00000000000E+00  0.45593999997E+02  0.45594000000E+02  0.51100000000E-03 0.  1.
         11   -1    0    0    0    0 -0.00000000000E+00 -0.00000000000E+00 -0.45593999997E+02  0.45594000000E+02  0.51100000000E-03 0. -1.
    9900012    2    1    2    0    0 -0.82650892034E-01 -0.55477404197E+00 -0.10382656079E+01  0.90007914884E+02  0.90000178561E+02 0.  0.
        -12    1    1    2    0    0  0.82650892034E-01  0.55477404197E+00  0.10382656079E+01  0.11800851156E+01  0.00000000000E+00 0.  1.
         11    1    3    3    0    0  0.36307895623E+02  0.89712427481E+01  0.34753653256E+01  0.37560945748E+02  0.51100000000E-03 0. -1.
        -11    1    3    3    0    0  0.30429515834E+01  0.63148090066E+01 -0.69628756076E+01  0.98801823929E+01  0.51100000000E-03 0.  1.
        -12    1    3    3    0    0 -0.39433498099E+02 -0.15840825797E+02  0.24492446741E+01  0.42566786744E+02  0.00000000000E+00 0.  1.
</event>
<event>
 7    1  0.2349719E-015  0.9000775E+02  0.7816164E-02  0.1186339E+00
        -11   -1    0    0    0    0  0.00000000000E+00  0.00000000000E+00  0.45593999997E+02  0.45594000000E+02  0.51100000000E-03 0. -1.
         11   -1    0    0    0    0 -0.00000000000E+00 -0.00000000000E+00 -0.45593999997E+02  0.45594000000E+02  0.51100000000E-03 0.  1.
    9900012    2    1    2    0    0 -0.96361344932E+00 -0.58415933655E+00 -0.35099045464E+00  0.90007751166E+02  0.90000012682E+02 0.  0.
        -12    1    1    2    0    0  0.96361344932E+00  0.58415933655E+00  0.35099045464E+00  0.11802488337E+01  0.00000000000E+00 0.  1.
         11    1    3    3    0    0 -0.56154903266E+01 -0.47559549464E+01 -0.36707636080E+01  0.82235846678E+01  0.51100000000E-03 0. -1.
        -11    1    3    3    0    0  0.25507215557E+02 -0.24433066539E+02  0.22145369321E+02  0.41689449128E+02  0.51100000000E-03 0.  1.
         12    1    3    3    0    0 -0.20855338680E+02  0.28604862148E+02 -0.18825596168E+02  0.40094717371E+02  0.00000000000E+00 0. -1.
</event>
<event>
 7    1  0.2349719E-015  0.9000773E+02  0.7816164E-02  0.1186339E+00
        -11   -1    0    0    0    0  0.00000000000E+00  0.00000000000E+00  0.45593999997E+02  0.45594000000E+02  0.51100000000E-03 0.  1.
         11   -1    0    0    0    0 -0.00000000000E+00 -0.00000000000E+00 -0.45593999997E+02  0.45594000000E+02  0.51100000000E-03 0. -1.
    9900012    2    1    2    0    0  0.56166013533E+00  0.32280816539E-01 -0.10375623037E+01  0.90007728975E+02  0.89999990197E+02 0.  0.
        -12    1    1    2    0    0 -0.56166013533E+00 -0.32280816539E-01  0.10375623037E+01  0.11802710252E+01  0.00000000000E+00 0.  1.
         11    1    3    3    0    0 -0.51720111522E+01  0.34871724109E+02 -0.95258964682E+01  0.36517523813E+02  0.51100000000E-03 0. -1.
        -11    1    3    3    0    0 -0.26365939740E-02  0.87798691647E+01  0.21687198633E+01  0.90437522969E+01  0.51100000000E-03 0.  1.
        -12    1    3    3    0    0  0.57363078815E+01 -0.43619312457E+02  0.63196143012E+01  0.44446452865E+02  0.00000000000E+00 0.  1.
</event>
<event>
 7    1  0.2349719E-015  0.9000783E+02  0.7816164E-02  0.1186339E+00
        -11   -1    0    0    0    0  0.00000000000E+00  0.00000000000E+00  0.45593999997E+02  0.45594000000E+02  0.51100000000E-03 0. -1.
         11   -1    0    0    0    0 -0.00000000000E+00 -0.00000000000E+00 -0.45593999997E+02  0.45594000000E+02  0.51100000000E-03 0.  1.
    9900012    2    1    2    0    0 -0.76165492480E+00 -0.45703518573E-02  0.90147728220E+00  0.90007830350E+02  0.90000092911E+02 0.  0.
        -12    1    1    2    0    0  0.76165492480E+00  0.45703518573E-02 -0.90147728220E+00  0.11801696501E+01  0.00000000000E+00 0.  1.
         11    1    3    3    0    0 -0.79114817081E+01  0.51249558094E+01 -0.95925260585E+00  0.94750662630E+01  0.51100000000E-03 0. -1.
        -11    1    3    3    0    0  0.19910035094E+02  0.33924951926E+02  0.28045053881E+01  0.39435733939E+02  0.51100000000E-03 0.  1.
         12    1    3    3    0    0 -0.12760208310E+02 -0.39054478087E+02 -0.94377550002E+00  0.41097030148E+02  0.00000000000E+00 0. -1.
</event>
<event>
 7    1  0.2349719E-015  0.9000791E+02  0.7816164E-02  0.1186339E+00
        -11   -1    0    0    0    0  0.00000000000E+00  0.00000000000E+00  0.45593999997E+02  0.45594000000E+02  0.51100000000E-03 0. -1.
         11   -1    0    0    0    0 -0.00000000000E+00 -0.00000000000E+00 -0.45593999997E+02  0.45594000000E+02  0.51100000000E-03 0.  1.
    9900012    2    1    2    0    0 -0.10777862479E+01 -0.46427461765E+00  0.12423544083E+00  0.90007911630E+02  0.90000175263E+02 0.  0.
        -12    1    1    2    0    0  0.10777862479E+01  0.46427461765E+00 -0.12423544083E+00  0.11800883702E+01  0.00000000000E+00 0.  1.
         11    1    3    3    0    0  0.16146225964E+02  0.29490701126E+02  0.10058804548E+02  0.35093897118E+02  0.51100000000E-03 0. -1.
        -11    1    3    3    0    0  0.15646495347E+01  0.60989478830E+01  0.82486726690E+01  0.10377181434E+02  0.51100000000E-03 0.  1.
        -12    1    3    3    0    0 -0.18788661746E+02 -0.36053923627E+02 -0.18183241776E+02  0.44536833078E+02  0.00000000000E+00 0.  1.
</event>
<event>
 7    1  0.2349719E-015  0.9000776E+02  0.7816164E-02  0.1186339E+00
        -11   -1    0    0    0    0  0.00000000000E+00  0.00000000000E+00  0.45593999997E+02  0.45594000000E+02  0.51100000000E-03 0.  1.
         11   -1    0    0    0    0 -0.00000000000E+00 -0.00000000000E+00 -0.45593999997E+02  0.45594000000E+02  0.51100000000E-03 0. -1.
    9900012    2    1    2    0    0  0.81101562480E+00 -0.35413991824E+00 -0.78090633642E+00  0.90007755902E+02  0.90000017480E+02 0.  0.
        -12    1    1    2    0    0 -0.81101562480E+00  0.35413991824E+00  0.78090633642E+00  0.11802440983E+01  0.00000000000E+00 0.  1.
         11    1    3    3    0    0  0.76200608669E+01 -0.70125072324E+01 -0.38805295260E+02  0.40163310692E+02  0.51100000000E-03 0. -1.
        -11    1    3    3    0    0 -0.89431312109E+01 -0.57105561310E+01  0.89228003926E+00  0.10648296160E+02  0.51100000000E-03 0.  1.
        -12    1    3    3    0    0  0.21340859688E+01  0.12368923445E+02  0.37132108884E+02  0.39196149049E+02  0.00000000000E+00 0.  1.
</event>
<event>
 7    1  0.2349719E-015  0.9000782E+02  0.7816164E-02  0.1186339E+00
        -11   -1    0    0    0    0  0.00000000000E+00  0.00000000000E+00  0.45593999997E+02  0.45594000000E+02  0.51100000000E-03 0. -1.
         11   -1    0    0    0    0 -0.00000000000E+00 -0.00000000000E+00 -0.45593999997E+02  0.45594000000E+02  0.51100000000E-03 0.  1.
    9900012    2    1    2    0    0  0.48290840957E+00 -0.57566084657E-01  0.10753176340E+01  0.90007821030E+02  0.90000083468E+02 0.  0.
        -12    1    1    2    0    0 -0.48290840957E+00  0.57566084657E-01 -0.10753176340E+01  0.11801789695E+01  0.00000000000E+00 0.  1.
         11    1    3    3    0    0  0.28124169775E+02 -0.90269715020E+01 -0.44164693526E+01  0.29865705112E+02  0.51100000000E-03 0. -1.
        -11    1    3    3    0    0 -0.10662132262E+02 -0.15040013760E+02 -0.15439398383E+02  0.24046997754E+02  0.51100000000E-03 0.  1.
        -12    1    3    3    0    0 -0.16979129104E+02  0.24009419177E+02  0.20931185370E+02  0.36095118165E+02  0.00000000000E+00 0.  1.
</event>
<event>
 7    1  0.2349719E-015  0.9000777E+02  0.7816164E-02  0.1186339E+00
        -11   -1    0    0    0    0  0.00000000000E+00  0.00000000000E+00  0.45593999997E+02  0.45594000000E+02  0.51100000000E-03 0. -1.
         11   -1    0    0    0    0 -0.00000000000E+00 -0.00000000000E+00 -0.45593999997E+02  0.45594000000E+02  0.51100000000E-03 0.  1.
    9900012    2    1    2    0    0 -0.97935136230E+00 -0.64328687202E+00 -0.14142656686E+00  0.90007767580E+02  0.90000029312E+02 0.  0.
        -12    1    1    2    0    0  0.97935136230E+00  0.64328687202E+00  0.14142656686E+00  0.11802324196E+01  0.00000000000E+00 0.  1.
         11    1    3    3    0    0  0.35051064270E+01 -0.78021134764E-01 -0.10284298882E+02  0.10865480298E+02  0.51100000000E-03 0. -1.
        -11    1    3    3    0    0  0.36053844663E+02 -0.60870166020E+01 -0.15330064986E+01  0.36596196459E+02  0.51100000000E-03 0.  1.
         12    1    3    3    0    0 -0.40538302452E+02  0.55217508648E+01  0.11675878813E+02  0.42546090823E+02  0.00000000000E+00 0. -1.
</event>
<event>
 7    1  0.2349719E-015  0.9000760E+02  0.7816164E-02  0.1186339E+00
        -11   -1    0    0    0    0  0.00000000000E+00  0.00000000000E+00  0.45593999997E+02  0.45594000000E+02  0.51100000000E-03 0.  1.
         11   -1    0    0    0    0 -0.00000000000E+00 -0.00000000000E+00 -0.45593999997E+02  0.45594000000E+02  0.51100000000E-03 0. -1.
    9900012    2    1    2    0    0 -0.99849950882E+00 -0.49830177483E-01 -0.62757601613E+00  0.90007603468E+02  0.89999863034E+02 0.  0.
        -12    1    1    2    0    0  0.99849950882E+00  0.49830177483E-01  0.62757601613E+00  0.11803965316E+01  0.00000000000E+00 0.  1.
         11    1    3    3    0    0  0.53609925384E+01  0.17972910415E+01  0.76184342609E+01  0.94874146602E+01  0.51100000000E-03 0. -1.
        -11    1    3    3    0    0 -0.45004045257E+01  0.38783544028E+02 -0.12389015900E+00  0.39043978759E+02  0.51100000000E-03 0.  1.
         12    1    3    3    0    0 -0.18590875215E+01 -0.40630665247E+02 -0.81221201180E+01  0.41476210049E+02  0.00000000000E+00 0. -1.
</event>
<event>
 7    1  0.2349719E-015  0.9000774E+02  0.7816164E-02  0.1186339E+00
        -11   -1    0    0    0    0  0.00000000000E+00  0.00000000000E+00  0.45593999997E+02  0.45594000000E+02  0.51100000000E-03 0.  1.
         11   -1    0    0    0    0 -0.00000000000E+00 -0.00000000000E+00 -0.45593999997E+02  0.45594000000E+02  0.51100000000E-03 0. -1.
    9900012    2    1    2    0    0 -0.11495110206E+01  0.25944251766E+00  0.65836705389E-01  0.90007737115E+02  0.89999998445E+02 0.  0.
        -12    1    1    2    0    0  0.11495110206E+01 -0.25944251766E+00 -0.65836705389E-01  0.11802628853E+01  0.00000000000E+00 0.  1.
         11    1    3    3    0    0 -0.85074242106E+01 -0.25119550142E+01  0.71362536398E+01  0.11384739829E+02  0.51100000000E-03 0. -1.
        -11    1    3    3    0    0  0.74017398910E+01 -0.96940394535E+01  0.33779218802E+02  0.35913726866E+02  0.51100000000E-03 0.  1.
         12    1    3    3    0    0 -0.43826700972E-01  0.12465436985E+02 -0.40849635736E+02  0.42709270420E+02  0.00000000000E+00 0. -1.
</event>
<event>
 7    1  0.2349719E-015  0.9000769E+02  0.7816164E-02  0.1186339E+00
        -11   -1    0    0    0    0  0.00000000000E+00  0.00000000000E+00  0.45593999997E+02  0.45594000000E+02  0.51100000000E-03 0.  1.
         11   -1    0    0    0    0 -0.00000000000E+00 -0.00000000000E+00 -0.45593999997E+02  0.45594000000E+02  0.51100000000E-03 0. -1.
    9900012    2    1    2    0    0 -0.12564339034E-01 -0.41994197449E+00 -0.11030016278E+01  0.90007694228E+02  0.89999954992E+02 0.  0.
        -12    1    1    2    0    0  0.12564339034E-01  0.41994197449E+00  0.11030016278E+01  0.11803057720E+01  0.00000000000E+00 0.  1.
         11    1    3    3    0    0  0.17430500566E+02  0.62008622733E+01 -0.36568805410E+02  0.40982320241E+02  0.51100000000E-03 0. -1.
        -11    1    3    3    0    0  0.72038519478E+01 -0.38089609221E+01  0.43691557209E+01  0.92462526554E+01  0.51100000000E-03 0.  1.
        -12    1    3    3    0    0 -0.24646916853E+02 -0.28118433257E+01  0.31096648062E+02  0.39779121332E+02  0.00000000000E+00 0.  1.
</event>
<event>
 7    1  0.2349719E-015  0.9000772E+02  0.7816164E-02  0.1186339E+00
        -11   -1    0    0    0    0  0.00000000000E+00  0.00000000000E+00  0.45593999997E+02  0.45594000000E+02  0.51100000000E-03 0. -1.
         11   -1    0    0    0    0 -0.00000000000E+00 -0.00000000000E+00 -0.45593999997E+02  0.45594000000E+02  0.51100000000E-03 0.  1.
    9900012    2    1    2    0    0 -0.70533278767E+00  0.82967141870E+00  0.45519525783E+00  0.90007723877E+02  0.89999985032E+02 0.  0.
        -12    1    1    2    0    0  0.70533278767E+00 -0.82967141870E+00 -0.45519525783E+00  0.11802761233E+01  0.00000000000E+00 0.  1.
         11    1    3    3    0    0 -0.16980429405E+01  0.33408705618E+02  0.16133105244E+02  0.37138955909E+02  0.51100000000E-03 0. -1.
        -11    1    3    3    0    0  0.81137190162E+01  0.62254772065E+01 -0.72231823049E+01  0.12520517785E+02  0.51100000000E-03 0.  1.
        -12    1    3    3    0    0 -0.71210088634E+01 -0.38804511406E+02 -0.84547276815E+01  0.40348250183E+02  0.00000000000E+00 0.  1.
</event>
<event>
 7    1  0.2349719E-015  0.9000775E+02  0.7816164E-02  0.1186339E+00
        -11   -1    0    0    0    0  0.00000000000E+00  0.00000000000E+00  0.45593999997E+02  0.45594000000E+02  0.51100000000E-03 0.  1.
         11   -1    0    0    0    0 -0.00000000000E+00 -0.00000000000E+00 -0.45593999997E+02  0.45594000000E+02  0.51100000000E-03 0. -1.
    9900012    2    1    2    0    0 -0.25735225339E+00 -0.10402432369E+01  0.49461897144E+00  0.90007752525E+02  0.90000014059E+02 0.  0.
        -12    1    1    2    0    0  0.25735225339E+00  0.10402432369E+01 -0.49461897144E+00  0.11802474745E+01  0.00000000000E+00 0.  1.
         11    1    3    3    0    0  0.19633061106E+02 -0.23160363455E+02 -0.21351038638E+02  0.37117736662E+02  0.51100000000E-03 0. -1.
        -11    1    3    3    0    0  0.58272700673E+01 -0.25132907056E+01 -0.51740059935E+01  0.81880427997E+01  0.51100000000E-03 0.  1.
        -12    1    3    3    0    0 -0.25717683427E+02  0.24633410923E+02  0.27019663603E+02  0.44701973064E+02  0.00000000000E+00 0.  1.
</event>
<event>
 7    1  0.2349719E-015  0.9000757E+02  0.7816164E-02  0.1186339E+00
        -11   -1    0    0    0    0  0.00000000000E+00  0.00000000000E+00  0.45593999997E+02  0.45594000000E+02  0.51100000000E-03 0. -1.
         11   -1    0    0    0    0 -0.00000000000E+00 -0.00000000000E+00 -0.45593999997E+02  0.45594000000E+02  0.51100000000E-03 0.  1.
    9900012    2    1    2    0    0  0.17755514827E+00 -0.11522392363E+01  0.18499644121E+00  0.90007574326E+02  0.89999833507E+02 0.  0.
        -12    1    1    2    0    0 -0.17755514827E+00  0.11522392363E+01 -0.18499644121E+00  0.11804256739E+01  0.00000000000E+00 0.  1.
         11    1    3    3    0    0  0.16112475713E+02 -0.26340907710E+01  0.32263504098E+02  0.36159148286E+02  0.51100000000E-03 0. -1.
        -11    1    3    3    0    0 -0.92914690834E+00 -0.60654838354E+01  0.81803697170E+01  0.10226038192E+02  0.51100000000E-03 0.  1.
        -12    1    3    3    0    0 -0.15005773656E+02  0.75473353701E+01 -0.40258877374E+02  0.43622387849E+02  0.00000000000E+00 0.  1.
</event>
<event>
 7    1  0.2349719E-015  0.9000770E+02  0.7816164E-02  0.1186339E+00
        -11   -1    0    0    0    0  0.00000000000E+00  0.00000000000E+00  0.45593999997E+02  0.45594000000E+02  0.51100000000E-03 0.  1.
         11   -1    0    0    0    0 -0.00000000000E+00 -0.00000000000E+00 -0.45593999997E+02  0.45594000000E+02  0.51100000000E-03 0. -1.
    9900012    2    1    2    0    0 -0.27252037719E+00 -0.11375400948E+01  0.15763830722E+00  0.90007697217E+02  0.89999958020E+02 0.  0.
        -12    1    1    2    0    0  0.27252037719E+00  0.11375400948E+01 -0.15763830722E+00  0.11803027829E+01  0.00000000000E+00 0.  1.
         11    1    3    3    0    0 -0.12911691790E+02 -0.73863520190E+01 -0.12046447840E+01  0.14923845025E+02  0.51100000000E-03 0. -1.
        -11    1    3    3    0    0 -0.30756045259E+02 -0.21536187996E+01 -0.62985369437E+00  0.30837787045E+02  0.51100000000E-03 0.  1.
         12    1    3    3    0    0  0.43395216671E+02  0.84024307237E+01  0.19921367856E+01  0.44246065147E+02  0.00000000000E+00 0. -1.
</event>
<event>
 7    1  0.2349719E-015  0.9000772E+02  0.7816164E-02  0.1186339E+00
        -11   -1    0    0    0    0  0.00000000000E+00  0.00000000000E+00  0.45593999997E+02  0.45594000000E+02  0.51100000000E-03 0. -1.
         11   -1    0    0    0    0 -0.00000000000E+00 -0.00000000000E+00 -0.45593999997E+02  0.45594000000E+02  0.51100000000E-03 0.  1.
    9900012    2    1    2    0    0  0.30198593557E+00  0.10413736875E+01  0.46627365312E+00  0.90007717923E+02  0.89999978999E+02 0.  0.
        -12    1    1    2    0    0 -0.30198593557E+00 -0.10413736875E+01 -0.46627365312E+00  0.11802820773E+01  0.00000000000E+00 0.  1.
         11    1    3    3    0    0  0.11318538242E+02 -0.11635424724E+02  0.31786402421E+02  0.35691284588E+02  0.51100000000E-03 0. -1.
        -11    1    3    3    0    0  0.20037304408E+01 -0.59730487218E+01  0.72093108856E+01  0.95742576954E+01  0.51100000000E-03 0.  1.
        -12    1    3    3    0    0 -0.13020282747E+02  0.18649847133E+02 -0.38529439653E+02  0.44742175639E+02  0.00000000000E+00 0.  1.
</event>
<event>
 7    1  0.2349719E-015  0.9000753E+02  0.7816164E-02  0.1186339E+00
        -11   -1    0    0    0    0  0.00000000000E+00  0.00000000000E+00  0.45593999997E+02  0.45594000000E+02  0.51100000000E-03 0.  1.
         11   -1    0    0    0    0 -0.00000000000E+00 -0.00000000000E+00 -0.45593999997E+02  0.45594000000E+02  0.51100000000E-03 0. -1.
    9900012    2    1    2    0    0 -0.15556832110E+00  0.11070662187E+01 -0.37910938660E+00  0.90007525078E+02  0.89999783608E+02 0.  0.
        -12    1    1    2    0    0  0.15556832110E+00 -0.11070662187E+01  0.37910938660E+00  0.11804749223E+01  0.00000000000E+00 0.  1.
         11    1    3    3    0    0  0.23778815300E+01  0.99798991462E+00  0.91950594715E+01  0.95498389193E+01  0.51100000000E-03 0. -1.
        -11    1    3    3    0    0 -0.25255267274E+02  0.59636652709E+01  0.26714978186E+02  0.37243575128E+02  0.51100000000E-03 0.  1.
         12    1    3    3    0    0  0.22721817423E+02 -0.58545889668E+01 -0.36289147044E+02  0.43214111031E+02  0.00000000000E+00 0. -1.
</event>
<event>
 7    1  0.2881002E-015  0.9000772E+02  0.7816164E-02  0.1186339E+00
        -11   -1    0    0    0    0  0.00000000000E+00  0.00000000000E+00  0.45593999997E+02  0.45594000000E+02  0.51100000000E-03 0.  1.
         11   -1    0    0    0    0 -0.00000000000E+00 -0.00000000000E+00 -0.45593999997E+02  0.45594000000E+02  0.51100000000E-03 0. -1.
    9900012    2    1    2    0    0  0.76253121031E+00  0.85497211943E+00  0.28395159219E+00  0.90007720508E+02  0.89999981619E+02 0.  0.
        -12    1    1    2    0    0 -0.76253121031E+00 -0.85497211943E+00 -0.28395159219E+00  0.11802794917E+01  0.00000000000E+00 0.  1.
         11    1    3    3    0    0 -0.37256484403E+02 -0.11672361064E+02  0.83378799083E+01  0.39922548572E+02  0.51100000000E-03 0. -1.
        -11    1    3    3    0    0 -0.86680631423E+00  0.99291428373E+01  0.11718030763E+01  0.10035554463E+02  0.51100000000E-03 0.  1.
        -12    1    3    3    0    0  0.38885821927E+02  0.25981903466E+01 -0.92257313924E+01  0.40049617473E+02  0.00000000000E+00 0.  1.
</event>
<event>
 7    1  0.2349719E-015  0.9000769E+02  0.7816164E-02  0.1186339E+00
        -11   -1    0    0    0    0  0.00000000000E+00  0.00000000000E+00  0.45593999997E+02  0.45594000000E+02  0.51100000000E-03 0. -1.
         11   -1    0    0    0    0 -0.00000000000E+00 -0.00000000000E+00 -0.45593999997E+02  0.45594000000E+02  0.51100000000E-03 0.  1.
    9900012    2    1    2    0    0 -0.10910516879E+01 -0.39661994001E+00 -0.21311715454E+00  0.90007694919E+02  0.89999955692E+02 0.  0.
        -12    1    1    2    0    0  0.10910516879E+01  0.39661994001E+00  0.21311715454E+00  0.11803050809E+01  0.00000000000E+00 0.  1.
         11    1    3    3    0    0  0.34739067038E+01  0.48188109377E+01  0.41243680192E+01  0.72318309202E+01  0.51100000000E-03 0. -1.
        -11    1    3    3    0    0  0.16724991633E+02 -0.19563839711E+02 -0.34578716647E+02  0.43106343090E+02  0.51100000000E-03 0.  1.
         12    1    3    3    0    0 -0.21289950025E+02  0.14348408833E+02  0.30241231473E+02  0.39669520909E+02  0.00000000000E+00 0. -1.
</event>
<event>
 7    1  0.2349719E-015  0.9000783E+02  0.7816164E-02  0.1186339E+00
        -11   -1    0    0    0    0  0.00000000000E+00  0.00000000000E+00  0.45593999997E+02  0.45594000000E+02  0.51100000000E-03 0.  1.
         11   -1    0    0    0    0 -0.00000000000E+00 -0.00000000000E+00 -0.45593999997E+02  0.45594000000E+02  0.51100000000E-03 0. -1.
    9900012    2    1    2    0    0 -0.81960426647E+00  0.12810696886E+00 -0.83942745279E+00  0.90007830098E+02  0.90000092655E+02 0.  0.
        -12    1    1    2    0    0  0.81960426647E+00 -0.12810696886E+00  0.83942745279E+00  0.11801699020E+01  0.00000000000E+00 0.  1.
         11    1    3    3    0    0 -0.19714649312E+00 -0.61146543141E+01 -0.92350720709E+01  0.11077654108E+02  0.51100000000E-03 0. -1.
        -11    1    3    3    0    0  0.56281663097E+01  0.38653131579E+02 -0.11084346397E+02  0.40602999547E+02  0.51100000000E-03 0.  1.
         12    1    3    3    0    0 -0.62506240830E+01 -0.32410370296E+02  0.19479991015E+02  0.38327176443E+02  0.00000000000E+00 0. -1.
</event>
<event>
 7    1  0.2349719E-015  0.9000774E+02  0.7816164E-02  0.1186339E+00
        -11   -1    0    0    0    0  0.00000000000E+00  0.00000000000E+00  0.45593999997E+02  0.45594000000E+02  0.51100000000E-03 0.  1.
         11   -1    0    0    0    0 -0.00000000000E+00 -0.00000000000E+00 -0.45593999997E+02  0.45594000000E+02  0.51100000000E-03 0. -1.
    9900012    2    1    2    0    0 -0.99777569538E+00  0.62058579115E+00 -0.11104949456E+00  0.90007739413E+02  0.90000000773E+02 0.  0.
        -12    1    1    2    0    0  0.99777569538E+00 -0.62058579115E+00  0.11104949456E+00  0.11802605868E+01  0.00000000000E+00 0.  1.
         11    1    3    3    0    0  0.73575043300E+01  0.64311410654E+01 -0.31918577431E+01  0.10280097348E+02  0.51100000000E-03 0. -1.
        -11    1    3    3    0    0 -0.16822324553E+02  0.33950260381E+02 -0.51876413517E+01  0.38242939301E+02  0.51100000000E-03 0.  1.
         12    1    3    3    0    0  0.84670445274E+01 -0.39760815656E+02  0.82684496002E+01  0.41484702764E+02  0.00000000000E+00 0. -1.
</event>
<event>
 7    1  0.2349719E-015  0.9000775E+02  0.7816164E-02  0.1186339E+00
        -11   -1    0    0    0    0  0.00000000000E+00  0.00000000000E+00  0.45593999997E+02  0.45594000000E+02  0.51100000000E-03 0. -1.
         11   -1    0    0    0    0 -0.00000000000E+00 -0.00000000000E+00 -0.45593999997E+02  0.45594000000E+02  0.51100000000E-03 0.  1.
    9900012    2    1    2    0    0 -0.67191719309E+00  0.40986516709E+00  0.87950680798E+00  0.90007748165E+02  0.90000009640E+02 0.  0.
        -12    1    1    2    0    0  0.67191719309E+00 -0.40986516709E+00 -0.87950680798E+00  0.11802518354E+01  0.00000000000E+00 0.  1.
         11    1    3    3    0    0  0.60720539658E+01  0.30217058270E+01 -0.64951715887E+01  0.93908359424E+01  0.51100000000E-03 0. -1.
        -11    1    3    3    0    0 -0.58581385814E+01 -0.40767460541E+02 -0.22784212147E+01  0.41249179751E+02  0.51100000000E-03 0.  1.
         12    1    3    3    0    0 -0.88583257749E+00  0.38155619881E+02  0.96530996114E+01  0.39367732472E+02  0.00000000000E+00 0. -1.
</event>
<event>
 7    1  0.2349719E-015  0.9000778E+02  0.7816164E-02  0.1186339E+00
        -11   -1    0    0    0    0  0.00000000000E+00  0.00000000000E+00  0.45593999997E+02  0.45594000000E+02  0.51100000000E-03 0.  1.
         11   -1    0    0    0    0 -0.00000000000E+00 -0.00000000000E+00 -0.45593999997E+02  0.45594000000E+02  0.51100000000E-03 0. -1.
    9900012    2    1    2    0    0  0.41967409390E+00  0.24201977048E+00 -0.10762106373E+01  0.90007775763E+02  0.90000037603E+02 0.  0.
        -12    1    1    2    0    0 -0.41967409390E+00 -0.24201977048E+00  0.10762106373E+01  0.11802242372E+01  0.00000000000E+00 0.  1.
         11    1    3    3    0    0 -0.26502876893E+02 -0.21492172012E+02 -0.62673779597E+01  0.34692880655E+02  0.51100000000E-03 0. -1.
        -11    1    3    3    0    0 -0.10194324922E+02  0.88172003108E-01  0.69051800309E+01  0.12313145270E+02  0.51100000000E-03 0.  1.
        -12    1    3    3    0    0  0.37116875909E+02  0.21646019779E+02 -0.17140127085E+01  0.43001749838E+02  0.00000000000E+00 0.  1.
</event>
<event>
 7    1  0.2349719E-015  0.9000779E+02  0.7816164E-02  0.1186339E+00
        -11   -1    0    0    0    0  0.00000000000E+00  0.00000000000E+00  0.45593999997E+02  0.45594000000E+02  0.51100000000E-03 0.  1.
         11   -1    0    0    0    0 -0.00000000000E+00 -0.00000000000E+00 -0.45593999997E+02  0.45594000000E+02  0.51100000000E-03 0. -1.
    9900012    2    1    2    0    0  0.70594337641E+00 -0.14770071268E-01  0.94568340546E+00  0.90007791837E+02  0.90000053889E+02 0.  0.
        -12    1    1    2    0    0 -0.70594337641E+00  0.14770071268E-01 -0.94568340546E+00  0.11802081634E+01  0.00000000000E+00 0.  1.
         11    1    3    3    0    0  0.35449725536E+02  0.21109163980E+02 -0.23846286170E+00  0.41259383288E+02  0.51100000000E-03 0. -1.
        -11    1    3    3    0    0 -0.28498936641E+01  0.31229808645E+01  0.70864841956E+01  0.82518580872E+01  0.51100000000E-03 0.  1.
        -12    1    3    3    0    0 -0.31893888495E+02 -0.24246914915E+02 -0.59023379284E+01  0.40496550462E+02  0.00000000000E+00 0.  1.
</event>
<event>
 7    1  0.3362610E-015  0.9000780E+02  0.7816164E-02  0.1186339E+00
        -11   -1    0    0    0    0  0.00000000000E+00  0.00000000000E+00  0.45593999997E+02  0.45594000000E+02  0.51100000000E-03 0. -1.
         11   -1    0    0    0    0 -0.00000000000E+00 -0.00000000000E+00 -0.45593999997E+02  0.45594000000E+02  0.51100000000E-03 0.  1.
    9900012    2    1    2    0    0 -0.11462255323E+01 -0.11562814915E+00 -0.25628171576E+00  0.90007795290E+02  0.90000057388E+02 0.  0.
        -12    1    1    2    0    0  0.11462255323E+01  0.11562814915E+00  0.25628171576E+00  0.11802047100E+01  0.00000000000E+00 0.  1.
         11    1    3    3    0    0  0.18870140718E+01 -0.35881707895E+02 -0.11371876366E+02  0.37687894024E+02  0.51100000000E-03 0. -1.
        -11    1    3    3    0    0  0.70743965372E+01 -0.22331758398E+01 -0.58969953447E+01  0.94767460161E+01  0.51100000000E-03 0.  1.
        -12    1    3    3    0    0 -0.10107636141E+02  0.37999255586E+02  0.17012589995E+02  0.42843155250E+02  0.00000000000E+00 0.  1.
</event>
<event>
 7    1  0.2349719E-015  0.9000779E+02  0.7816164E-02  0.1186339E+00
        -11   -1    0    0    0    0  0.00000000000E+00  0.00000000000E+00  0.45593999997E+02  0.45594000000E+02  0.51100000000E-03 0.  1.
         11   -1    0    0    0    0 -0.00000000000E+00 -0.00000000000E+00 -0.45593999997E+02  0.45594000000E+02  0.51100000000E-03 0. -1.
    9900012    2    1    2    0    0  0.84044828118E+00 -0.82204286488E+00  0.10382328704E+00  0.90007793637E+02  0.90000055713E+02 0.  0.
        -12    1    1    2    0    0 -0.84044828118E+00  0.82204286488E+00 -0.10382328704E+00  0.11802063633E+01  0.00000000000E+00 0.  1.
         11    1    3    3    0    0  0.64715609857E+01  0.84583121974E+01 -0.34987302517E+02  0.36572332227E+02  0.51100000000E-03 0. -1.
        -11    1    3    3    0    0 -0.43021212335E+01  0.77992551758E+01 -0.47304258901E+01  0.10085313965E+02  0.51100000000E-03 0.  1.
        -12    1    3    3    0    0 -0.13289914710E+01 -0.17079610238E+02  0.39821551694E+02  0.43350147445E+02  0.00000000000E+00 0.  1.
</event>
<event>
 7    1  0.2349719E-015  0.9000772E+02  0.7816164E-02  0.1186339E+00
        -11   -1    0    0    0    0  0.00000000000E+00  0.00000000000E+00  0.45593999997E+02  0.45594000000E+02  0.51100000000E-03 0. -1.
         11   -1    0    0    0    0 -0.00000000000E+00 -0.00000000000E+00 -0.45593999997E+02  0.45594000000E+02  0.51100000000E-03 0.  1.
    9900012    2    1    2    0    0  0.39435854756E-02  0.84347167067E+00  0.82558945615E+00  0.90007721236E+02  0.89999982356E+02 0.  0.
        -12    1    1    2    0    0 -0.39435854756E-02 -0.84347167067E+00 -0.82558945615E+00  0.11802787642E+01  0.00000000000E+00 0.  1.
         11    1    3    3    0    0 -0.24882697534E+02  0.24419550393E+02  0.16076420611E+02  0.38391592541E+02  0.51100000000E-03 0. -1.
        -11    1    3    3    0    0  0.71910892376E+01  0.77272340887E+01  0.34241957052E+01  0.11097163042E+02  0.51100000000E-03 0.  1.
        -12    1    3    3    0    0  0.17695551882E+02 -0.31303312811E+02 -0.18675026860E+02  0.40518965653E+02  0.00000000000E+00 0.  1.
</event>
<event>
 7    1  0.2349719E-015  0.9000766E+02  0.7816164E-02  0.1186339E+00
        -11   -1    0    0    0    0  0.00000000000E+00  0.00000000000E+00  0.45593999997E+02  0.45594000000E+02  0.51100000000E-03 0. -1.
         11   -1    0    0    0    0 -0.00000000000E+00 -0.00000000000E+00 -0.45593999997E+02  0.45594000000E+02  0.51100000000E-03 0.  1.
    9900012    2    1    2    0    0  0.69205426008E+00  0.40660258342E+00  0.86541579378E+00  0.90007657145E+02  0.89999917419E+02 0.  0.
        -12    1    1    2    0    0 -0.69205426008E+00 -0.40660258342E+00 -0.86541579378E+00  0.11803428552E+01  0.00000000000E+00 0.  1.
         11    1    3    3    0    0  0.94838757489E+01  0.53304469613E+00  0.11355894457E+01  0.95664831322E+01  0.51100000000E-03 0. -1.
        -11    1    3    3    0    0  0.30614325325E+02  0.19568221231E+02  0.13332603932E+01  0.36358352283E+02  0.51100000000E-03 0.  1.
         12    1    3    3    0    0 -0.39406146813E+02 -0.19694663343E+02 -0.16034340451E+01  0.44082821729E+02  0.00000000000E+00 0. -1.
</event>
<event>
 7    1  0.2349719E-015  0.9000781E+02  0.7816164E-02  0.1186339E+00
        -11   -1    0    0    0    0  0.00000000000E+00  0.00000000000E+00  0.45593999997E+02  0.45594000000E+02  0.51100000000E-03 0. -1.
         11   -1    0    0    0    0 -0.00000000000E+00 -0.00000000000E+00 -0.45593999997E+02  0.45594000000E+02  0.51100000000E-03 0.  1.
    9900012    2    1    2    0    0 -0.30280751697E+00  0.16017644084E+00  0.11293754763E+01  0.90007814484E+02  0.90000076836E+02 0.  0.
        -12    1    1    2    0    0  0.30280751697E+00 -0.16017644084E+00 -0.11293754763E+01  0.11801855155E+01  0.00000000000E+00 0.  1.
         11    1    3    3    0    0  0.41323888002E+01 -0.91579596234E+01 -0.25788215624E+01  0.10372809772E+02  0.51100000000E-03 0. -1.
        -11    1    3    3    0    0  0.22970714659E+02  0.18373792762E+02 -0.25237396436E+02  0.38757917533E+02  0.51100000000E-03 0.  1.
         12    1    3    3    0    0 -0.27405910976E+02 -0.90556566977E+01  0.28945593475E+02  0.40877087179E+02  0.00000000000E+00 0. -1.
</event>
<event>
 7    1  0.2349719E-015  0.9000775E+02  0.7816164E-02  0.1186339E+00
        -11   -1    0    0    0    0  0.00000000000E+00  0.00000000000E+00  0.45593999997E+02  0.45594000000E+02  0.51100000000E-03 0.  1.
         11   -1    0    0    0    0 -0.00000000000E+00 -0.00000000000E+00 -0.45593999997E+02  0.45594000000E+02  0.51100000000E-03 0. -1.
    9900012    2    1    2    0    0 -0.18031916017E-03 -0.44856220204E+00 -0.10916825662E+01  0.90007754726E+02  0.90000016288E+02 0.  0.
        -12    1    1    2    0    0  0.18031916018E-03  0.44856220204E+00  0.10916825662E+01  0.11802452741E+01  0.00000000000E+00 0.  1.
         11    1    3    3    0    0 -0.67317942097E+01  0.48378278093E+01 -0.37851615063E+02  0.38748759907E+02  0.51100000000E-03 0. -1.
        -11    1    3    3    0    0 -0.90848780028E+01  0.21911056744E+01 -0.12379697773E+01  0.94270102277E+01  0.51100000000E-03 0.  1.
        -12    1    3    3    0    0  0.15816491893E+02 -0.74774956857E+01  0.37997902275E+02  0.41831984591E+02  0.00000000000E+00 0.  1.
</event>
<event>
 7    1  0.2349719E-015  0.9000780E+02  0.7816164E-02  0.1186339E+00
        -11   -1    0    0    0    0  0.00000000000E+00  0.00000000000E+00  0.45593999997E+02  0.45594000000E+02  0.51100000000E-03 0. -1.
         11   -1    0    0    0    0 -0.00000000000E+00 -0.00000000000E+00 -0.45593999997E+02  0.45594000000E+02  0.51100000000E-03 0.  1.
    9900012    2    1    2    0    0 -0.85699279086E+00 -0.33483427162E+00 -0.73913472946E+00  0.90007800533E+02  0.90000062700E+02 0.  0.
        -12    1    1    2    0    0  0.85699279086E+00  0.33483427162E+00  0.73913472946E+00  0.11801994668E+01  0.00000000000E+00 0.  1.
         11    1    3    3    0    0  0.53340186370E+01 -0.32178917090E+02  0.17028953203E+02  0.36795647940E+02  0.51100000000E-03 0. -1.
        -11    1    3    3    0    0  0.30785209278E+01 -0.81794839425E+01 -0.55415624845E+01  0.10348437742E+02  0.51100000000E-03 0.  1.
        -12    1    3    3    0    0 -0.92695323557E+01  0.40023566761E+02 -0.12226525447E+02  0.42863714851E+02  0.00000000000E+00 0.  1.
</event>
<event>
 7    1  0.2349719E-015  0.9000769E+02  0.7816164E-02  0.1186339E+00
        -11   -1    0    0    0    0  0.00000000000E+00  0.00000000000E+00  0.45593999997E+02  0.45594000000E+02  0.51100000000E-03 0.  1.
         11   -1    0    0    0    0 -0.00000000000E+00 -0.00000000000E+00 -0.45593999997E+02  0.45594000000E+02  0.51100000000E-03 0. -1.
    9900012    2    1    2    0    0 -0.46695223812E-01  0.80253555880E+00 -0.86422080347E+00  0.90007694377E+02  0.89999955143E+02 0.  0.
        -12    1    1    2    0    0  0.46695223812E-01 -0.80253555880E+00  0.86422080347E+00  0.11803056232E+01  0.00000000000E+00 0.  1.
         11    1    3    3    0    0  0.31670226514E+02 -0.18124965646E+02  0.10918794490E+02  0.38088550779E+02  0.51100000000E-03 0. -1.
        -11    1    3    3    0    0 -0.40706531596E+01  0.12023559768E+02  0.99116556096E+01  0.16105189345E+02  0.51100000000E-03 0.  1.
        -12    1    3    3    0    0 -0.27646268578E+02  0.69039414363E+01 -0.21694670903E+02  0.35813954253E+02  0.00000000000E+00 0.  1.
</event>
<event>
 7    1  0.2349719E-015  0.9000784E+02  0.7816164E-02  0.1186339E+00
        -11   -1    0    0    0    0  0.00000000000E+00  0.00000000000E+00  0.45593999997E+02  0.45594000000E+02  0.51100000000E-03 0. -1.
         11   -1    0    0    0    0 -0.00000000000E+00 -0.00000000000E+00 -0.45593999997E+02  0.45594000000E+02  0.51100000000E-03 0.  1.
    9900012    2    1    2    0    0  0.51984015475E+00 -0.87273091391E+00  0.60074134696E+00  0.90007837638E+02  0.90000100295E+02 0.  0.
        -12    1    1    2    0    0 -0.51984015475E+00  0.87273091391E+00 -0.60074134696E+00  0.11801623619E+01  0.00000000000E+00 0.  1.
         11    1    3    3    0    0  0.17887441127E+01 -0.41846903545E+01 -0.12205807106E+02  0.13026625282E+02  0.51100000000E-03 0. -1.
        -11    1    3    3    0    0 -0.42201741205E+01 -0.39168492944E+01 -0.31484777145E+02  0.32006917536E+02  0.51100000000E-03 0.  1.
         12    1    3    3    0    0  0.29512701625E+01  0.72288087350E+01  0.44291325598E+02  0.44974294820E+02  0.00000000000E+00 0. -1.
</event>
<event>
 7    1  0.2349719E-015  0.9000759E+02  0.7816164E-02  0.1186339E+00
        -11   -1    0    0    0    0  0.00000000000E+00  0.00000000000E+00  0.45593999997E+02  0.45594000000E+02  0.51100000000E-03 0.  1.
         11   -1    0    0    0    0 -0.00000000000E+00 -0.00000000000E+00 -0.45593999997E+02  0.45594000000E+02  0.51100000000E-03 0. -1.
    9900012    2    1    2    0    0 -0.26449709452E+00  0.10409829919E+01 -0.48966423903E+00  0.90007586780E+02  0.89999846126E+02 0.  0.
        -12    1    1    2    0    0  0.26449709452E+00 -0.10409829919E+01  0.48966423903E+00  0.11804132198E+01  0.00000000000E+00 0.  1.
         11    1    3    3    0    0 -0.11654757118E+02  0.58329920508E+01 -0.42825612900E+01  0.13718509074E+02  0.51100000000E-03 0. -1.
        -11    1    3    3    0    0 -0.12154446402E+02  0.24154656459E+02  0.21917116408E+02  0.34807154263E+02  0.51100000000E-03 0.  1.
         12    1    3    3    0    0  0.23544706425E+02 -0.28946665518E+02 -0.18124219357E+02  0.41481923443E+02  0.00000000000E+00 0. -1.
</event>
<event>
 7    1  0.2349719E-015  0.9000757E+02  0.7816164E-02  0.1186339E+00
        -11   -1    0    0    0    0  0.00000000000E+00  0.00000000000E+00  0.45593999997E+02  0.45594000000E+02  0.51100000000E-03 0. -1.
         11   -1    0    0    0    0 -0.00000000000E+00 -0.00000000000E+00 -0.45593999997E+02  0.45594000000E+02  0.51100000000E-03 0.  1.
    9900012    2    1    2    0    0  0.36979016962E+00 -0.10973392289E+01 -0.22917789219E+00  0.90007567597E+02  0.89999826689E+02 0.  0.
        -12    1    1    2    0    0 -0.36979016962E+00  0.10973392289E+01  0.22917789219E+00  0.11804324035E+01  0.00000000000E+00 0.  1.
         11    1    3    3    0    0  0.45411105879E+01 -0.11706325595E+02  0.72978275427E+01  0.14523017297E+02  0.51100000000E-03 0. -1.
        -11    1    3    3    0    0  0.12265890756E+02 -0.24537011601E+02 -0.20855092555E+02  0.34459423967E+02  0.51100000000E-03 0.  1.
         12    1    3    3    0    0 -0.16437211174E+02  0.35145997968E+02  0.13328087120E+02  0.41025126333E+02  0.00000000000E+00 0. -1.
</event>
<event>
 7    1  0.2349719E-015  0.9000766E+02  0.7816164E-02  0.1186339E+00
        -11   -1    0    0    0    0  0.00000000000E+00  0.00000000000E+00  0.45593999997E+02  0.45594000000E+02  0.51100000000E-03 0. -1.
         11   -1    0    0    0    0 -0.00000000000E+00 -0.00000000000E+00 -0.45593999997E+02  0.45594000000E+02  0.51100000000E-03 0.  1.
    9900012    2    1    2    0    0 -0.64461614056E+00 -0.96745240414E+00 -0.20424961333E+00  0.90007655971E+02  0.89999916229E+02 0.  0.
        -12    1    1    2    0    0  0.64461614056E+00  0.96745240414E+00  0.20424961333E+00  0.11803440293E+01  0.00000000000E+00 0.  1.
         11    1    3    3    0    0  0.62151506034E+01 -0.46097010507E+01 -0.56313854519E+01  0.95702634849E+01  0.51100000000E-03 0. -1.
        -11    1    3    3    0    0  0.39030294291E+01  0.34834900701E+02 -0.18540539873E+02  0.39654199836E+02  0.51100000000E-03 0.  1.
         12    1    3    3    0    0 -0.10762796173E+02 -0.31192652055E+02  0.23967675712E+02  0.40783192650E+02  0.00000000000E+00 0. -1.
</event>
<event>
 7    1  0.2349719E-015  0.9000781E+02  0.7816164E-02  0.1186339E+00
        -11   -1    0    0    0    0  0.00000000000E+00  0.00000000000E+00  0.45593999997E+02  0.45594000000E+02  0.51100000000E-03 0. -1.
         11   -1    0    0    0    0 -0.00000000000E+00 -0.00000000000E+00 -0.45593999997E+02  0.45594000000E+02  0.51100000000E-03 0.  1.
    9900012    2    1    2    0    0  0.26145188211E+00  0.42020679364E-01  0.11500961364E+01  0.90007811902E+02  0.90000074219E+02 0.  0.
        -12    1    1    2    0    0 -0.26145188211E+00 -0.42020679364E-01 -0.11500961364E+01  0.11801880982E+01  0.00000000000E+00 0.  1.
         11    1    3    3    0    0 -0.61198132234E+01 -0.76474538185E+01 -0.13221848975E+01  0.98835133915E+01  0.51100000000E-03 0. -1.
        -11    1    3    3    0    0 -0.26573787933E+02 -0.16556813166E+02 -0.16084047614E+02  0.35199301914E+02  0.51100000000E-03 0.  1.
         12    1    3    3    0    0  0.32955053039E+02  0.24246287664E+02  0.18556328648E+02  0.44924996596E+02  0.00000000000E+00 0. -1.
</event>
<event>
 7    1  0.2349719E-015  0.9000777E+02  0.7816164E-02  0.1186339E+00
        -11   -1    0    0    0    0  0.00000000000E+00  0.00000000000E+00  0.45593999997E+02  0.45594000000E+02  0.51100000000E-03 0.  1.
         11   -1    0    0    0    0 -0.00000000000E+00 -0.00000000000E+00 -0.45593999997E+02  0.45594000000E+02  0.51100000000E-03 0. -1.
    9900012    2    1    2    0    0 -0.52224271297E+00 -0.10472898311E+00 -0.10532035913E+01  0.90007769761E+02  0.90000031522E+02 0.  0.
        -12    1    1    2    0    0  0.52224271297E+00  0.10472898311E+00  0.10532035913E+01  0.11802302385E+01  0.00000000000E+00 0.  1.
         11    1    3    3    0    0 -0.12533048630E+01 -0.76785020923E-01  0.89301940685E+01  0.90180394422E+01  0.51100000000E-03 0. -1.
        -11    1    3    3    0    0 -0.13372787567E+02  0.34267131983E+02  0.10985792207E+02  0.38389522168E+02  0.51100000000E-03 0.  1.
         12    1    3    3    0    0  0.14103849717E+02 -0.34295075945E+02 -0.20969189866E+02  0.42600208151E+02  0.00000000000E+00 0. -1.
</event>
<event>
 7    1  0.2349719E-015  0.9000775E+02  0.7816164E-02  0.1186339E+00
        -11   -1    0    0    0    0  0.00000000000E+00  0.00000000000E+00  0.45593999997E+02  0.45594000000E+02  0.51100000000E-03 0.  1.
         11   -1    0    0    0    0 -0.00000000000E+00 -0.00000000000E+00 -0.45593999997E+02  0.45594000000E+02  0.51100000000E-03 0. -1.
    9900012    2    1    2    0    0 -0.61969772646E-01  0.11133929252E+01 -0.38664706016E+00  0.90007754260E+02  0.90000015816E+02 0.  0.
        -12    1    1    2    0    0  0.61969772646E-01 -0.11133929252E+01  0.38664706016E+00  0.11802457404E+01  0.00000000000E+00 0.  1.
         11    1    3    3    0    0 -0.35222511676E+01 -0.49451947193E+01  0.77542256947E+01  0.98483105397E+01  0.51100000000E-03 0. -1.
        -11    1    3    3    0    0  0.22908235895E+02 -0.32069104181E+01  0.29077582066E+02  0.37156120967E+02  0.51100000000E-03 0.  1.
         12    1    3    3    0    0 -0.19447954500E+02  0.92654980626E+01 -0.37218454821E+02  0.43003322753E+02  0.00000000000E+00 0. -1.
</event>
<event>
 7    1  0.2349719E-015  0.9000771E+02  0.7816164E-02  0.1186339E+00
        -11   -1    0    0    0    0  0.00000000000E+00  0.00000000000E+00  0.45593999997E+02  0.45594000000E+02  0.51100000000E-03 0.  1.
         11   -1    0    0    0    0 -0.00000000000E+00 -0.00000000000E+00 -0.45593999997E+02  0.45594000000E+02  0.51100000000E-03 0. -1.
    9900012    2    1    2    0    0 -0.81137881009E+00 -0.42603821223E+00 -0.74380785870E+00  0.90007705858E+02  0.89999966775E+02 0.  0.
        -12    1    1    2    0    0  0.81137881009E+00  0.42603821223E+00  0.74380785870E+00  0.11802941423E+01  0.00000000000E+00 0.  1.
         11    1    3    3    0    0  0.28316267185E+01 -0.93049915185E+00 -0.90206317587E+01  0.95003018969E+01  0.51100000000E-03 0. -1.
        -11    1    3    3    0    0  0.32406486564E+02  0.18869267646E+02 -0.52120986053E+01  0.37860211371E+02  0.51100000000E-03 0.  1.
         12    1    3    3    0    0 -0.36049492092E+02 -0.18364806706E+02  0.13488922505E+02  0.42647192590E+02  0.00000000000E+00 0. -1.
</event>
<event>
 7    1  0.2349719E-015  0.9000789E+02  0.7816164E-02  0.1186339E+00
        -11   -1    0    0    0    0  0.00000000000E+00  0.00000000000E+00  0.45593999997E+02  0.45594000000E+02  0.51100000000E-03 0. -1.
         11   -1    0    0    0    0 -0.00000000000E+00 -0.00000000000E+00 -0.45593999997E+02  0.45594000000E+02  0.51100000000E-03 0.  1.
    9900012    2    1    2    0    0 -0.10538943248E+01  0.18255412625E+00  0.49864635139E+00  0.90007886683E+02  0.90000149987E+02 0.  0.
        -12    1    1    2    0    0  0.10538943248E+01 -0.18255412625E+00 -0.49864635139E+00  0.11801133169E+01  0.00000000000E+00 0.  1.
         11    1    3    3    0    0 -0.96406090160E+01  0.29796895188E+00 -0.97827096954E+00  0.96946965938E+01  0.51100000000E-03 0. -1.
        -11    1    3    3    0    0 -0.19238164417E+02 -0.98470800873E+01 -0.30139185278E+02  0.37086957895E+02  0.51100000000E-03 0.  1.
         12    1    3    3    0    0  0.27824879109E+02  0.97316652616E+01  0.31616102599E+02  0.43226232195E+02  0.00000000000E+00 0. -1.
</event>
<event>
 7    1  0.2349719E-015  0.9000777E+02  0.7816164E-02  0.1186339E+00
        -11   -1    0    0    0    0  0.00000000000E+00  0.00000000000E+00  0.45593999997E+02  0.45594000000E+02  0.51100000000E-03 0. -1.
         11   -1    0    0    0    0 -0.00000000000E+00 -0.00000000000E+00 -0.45593999997E+02  0.45594000000E+02  0.51100000000E-03 0.  1.
    9900012    2    1    2    0    0 -0.18417394423E+00 -0.69755758086E+00 -0.93403931924E+00  0.90007772873E+02  0.90000034675E+02 0.  0.
        -12    1    1    2    0    0  0.18417394423E+00  0.69755758086E+00  0.93403931924E+00  0.11802271265E+01  0.00000000000E+00 0.  1.
         11    1    3    3    0    0  0.23535814750E+02 -0.32915316521E+02 -0.10339640410E+02  0.41764348453E+02  0.51100000000E-03 0. -1.
        -11    1    3    3    0    0 -0.30189474595E+01  0.38262335035E+01 -0.77397229573E+01  0.91464429318E+01  0.51100000000E-03 0.  1.
        -12    1    3    3    0    0 -0.20701041235E+02  0.28391525437E+02  0.17145324048E+02  0.39096981489E+02  0.00000000000E+00 0.  1.
</event>
<event>
 7    1  0.2349719E-015  0.9000773E+02  0.7816164E-02  0.1186339E+00
        -11   -1    0    0    0    0  0.00000000000E+00  0.00000000000E+00  0.45593999997E+02  0.45594000000E+02  0.51100000000E-03 0. -1.
         11   -1    0    0    0    0 -0.00000000000E+00 -0.00000000000E+00 -0.45593999997E+02  0.45594000000E+02  0.51100000000E-03 0.  1.
    9900012    2    1    2    0    0  0.58175210652E-01  0.94877178983E+00  0.69963642710E+00  0.90007727407E+02  0.89999988608E+02 0.  0.
        -12    1    1    2    0    0 -0.58175210652E-01 -0.94877178983E+00 -0.69963642710E+00  0.11802725933E+01  0.00000000000E+00 0.  1.
         11    1    3    3    0    0  0.96479351687E+01 -0.14615946165E+01 -0.14919623768E+01  0.98714165061E+01  0.51100000000E-03 0. -1.
        -11    1    3    3    0    0 -0.15389642457E+02  0.13767064202E+02 -0.35100791068E+02  0.40723932589E+02  0.51100000000E-03 0.  1.
         12    1    3    3    0    0  0.57998824991E+01 -0.11356697796E+02  0.37292389872E+02  0.39412378311E+02  0.00000000000E+00 0. -1.
</event>
<event>
 7    1  0.2349719E-015  0.9000752E+02  0.7816164E-02  0.1186339E+00
        -11   -1    0    0    0    0  0.00000000000E+00  0.00000000000E+00  0.45593999997E+02  0.45594000000E+02  0.51100000000E-03 0.  1.
         11   -1    0    0    0    0 -0.00000000000E+00 -0.00000000000E+00 -0.45593999997E+02  0.45594000000E+02  0.51100000000E-03 0. -1.
    9900012    2    1    2    0    0  0.79282701955E+00  0.55347740982E+00 -0.67721046470E+00  0.90007523003E+02  0.89999781507E+02 0.  0.
        -12    1    1    2    0    0 -0.79282701955E+00 -0.55347740982E+00  0.67721046470E+00  0.11804769966E+01  0.00000000000E+00 0.  1.
         11    1    3    3    0    0  0.34776364013E+02 -0.72612402220E+01 -0.18212414154E+02  0.39922589259E+02  0.51100000000E-03 0. -1.
        -11    1    3    3    0    0  0.46944741412E+01  0.22281845269E+01  0.85192560946E+01  0.99790088894E+01  0.51100000000E-03 0.  1.
        -12    1    3    3    0    0 -0.38678011135E+02  0.55865331049E+01  0.90159475942E+01  0.40105924855E+02  0.00000000000E+00 0.  1.
</event>
<event>
 7    1  0.2349719E-015  0.9000768E+02  0.7816164E-02  0.1186339E+00
        -11   -1    0    0    0    0  0.00000000000E+00  0.00000000000E+00  0.45593999997E+02  0.45594000000E+02  0.51100000000E-03 0.  1.
         11   -1    0    0    0    0 -0.00000000000E+00 -0.00000000000E+00 -0.45593999997E+02  0.45594000000E+02  0.51100000000E-03 0. -1.
    9900012    2    1    2    0    0 -0.50933162994E+00  0.84677245801E+00 -0.64552514787E+00  0.90007684355E+02  0.89999944989E+02 0.  0.
        -12    1    1    2    0    0  0.50933162994E+00 -0.84677245801E+00  0.64552514787E+00  0.11803156448E+01  0.00000000000E+00 0.  1.
         11    1    3    3    0    0  0.10390097996E+00 -0.13801346763E+02  0.31636877520E+02  0.34516372743E+02  0.51100000000E-03 0. -1.
        -11    1    3    3    0    0 -0.10712163238E+02 -0.55320270509E+01  0.40525681861E+01  0.12719161674E+02  0.51100000000E-03 0.  1.
        -12    1    3    3    0    0  0.10098930628E+02  0.20180146272E+02 -0.36334970854E+02  0.42772149938E+02  0.00000000000E+00 0.  1.
</event>
<event>
 7    1  0.2349719E-015  0.9000783E+02  0.7816164E-02  0.1186339E+00
        -11   -1    0    0    0    0  0.00000000000E+00  0.00000000000E+00  0.45593999997E+02  0.45594000000E+02  0.51100000000E-03 0.  1.
         11   -1    0    0    0    0 -0.00000000000E+00 -0.00000000000E+00 -0.45593999997E+02  0.45594000000E+02  0.51100000000E-03 0. -1.
    9900012    2    1    2    0    0  0.56550897865E+00 -0.96039363740E+00  0.38811590111E+00  0.90007834632E+02  0.90000097249E+02 0.  0.
        -12    1    1    2    0    0 -0.56550897865E+00  0.96039363740E+00 -0.38811590111E+00  0.11801653682E+01  0.00000000000E+00 0.  1.
         11    1    3    3    0    0 -0.13447528334E+02 -0.28528781061E+02 -0.13124159716E+02  0.34160956305E+02  0.51100000000E-03 0. -1.
        -11    1    3    3    0    0 -0.78398924320E+01 -0.70138982397E+01 -0.41239339175E+01  0.11298916456E+02  0.51100000000E-03 0.  1.
        -12    1    3    3    0    0  0.21852929744E+02  0.34582285664E+02  0.17636209535E+02  0.44547961871E+02  0.00000000000E+00 0.  1.
</event>
<event>
 7    1  0.2349719E-015  0.9000774E+02  0.7816164E-02  0.1186339E+00
        -11   -1    0    0    0    0  0.00000000000E+00  0.00000000000E+00  0.45593999997E+02  0.45594000000E+02  0.51100000000E-03 0. -1.
         11   -1    0    0    0    0 -0.00000000000E+00 -0.00000000000E+00 -0.45593999997E+02  0.45594000000E+02  0.51100000000E-03 0.  1.
    9900012    2    1    2    0    0 -0.76896159637E+00 -0.88409549132E+00 -0.14171234979E+00  0.90007741908E+02  0.90000003301E+02 0.  0.
        -12    1    1    2    0    0  0.76896159637E+00  0.88409549132E+00  0.14171234979E+00  0.11802580924E+01  0.00000000000E+00 0.  1.
         11    1    3    3    0    0  0.16358961778E+01  0.73035829319E+01 -0.63409423750E+01  0.98094867558E+01  0.51100000000E-03 0. -1.
        -11    1    3    3    0    0 -0.37179126046E+02 -0.98839643460E+01  0.19248762908E+02  0.43017380656E+02  0.51100000000E-03 0.  1.
         12    1    3    3    0    0  0.34774268272E+02  0.16962859227E+01 -0.13049532883E+02  0.37180874496E+02  0.00000000000E+00 0. -1.
</event>
<event>
 7    1  0.2349719E-015  0.9000767E+02  0.7816164E-02  0.1186339E+00
        -11   -1    0    0    0    0  0.00000000000E+00  0.00000000000E+00  0.45593999997E+02  0.45594000000E+02  0.51100000000E-03 0. -1.
         11   -1    0    0    0    0 -0.00000000000E+00 -0.00000000000E+00 -0.45593999997E+02  0.45594000000E+02  0.51100000000E-03 0.  1.
    9900012    2    1    2    0    0  0.27256561145E-01  0.11779823394E+01  0.69171909275E-01  0.90007673746E+02  0.89999934240E+02 0.  0.
        -12    1    1    2    0    0 -0.27256561145E-01 -0.11779823394E+01 -0.69171909275E-01  0.11803262537E+01  0.00000000000E+00 0.  1.
         11    1    3    3    0    0 -0.57381688297E+01  0.74738176241E+01  0.25489496148E+01  0.97612333133E+01  0.51100000000E-03 0. -1.
        -11    1    3    3    0    0  0.26614038774E+02  0.44428544376E+01 -0.32442783569E+02  0.42196921943E+02  0.51100000000E-03 0.  1.
         12    1    3    3    0    0 -0.20848613383E+02 -0.10738689722E+02  0.29963005864E+02  0.38049518490E+02  0.00000000000E+00 0. -1.
</event>
<event>
 7    1  0.2349719E-015  0.9000774E+02  0.7816164E-02  0.1186339E+00
        -11   -1    0    0    0    0  0.00000000000E+00  0.00000000000E+00  0.45593999997E+02  0.45594000000E+02  0.51100000000E-03 0.  1.
         11   -1    0    0    0    0 -0.00000000000E+00 -0.00000000000E+00 -0.45593999997E+02  0.45594000000E+02  0.51100000000E-03 0. -1.
    9900012    2    1    2    0    0  0.11034546788E+01  0.24211892911E+00  0.34173982024E+00  0.90007737356E+02  0.89999998689E+02 0.  0.
        -12    1    1    2    0    0 -0.11034546788E+01 -0.24211892911E+00 -0.34173982024E+00  0.11802626440E+01  0.00000000000E+00 0.  1.
         11    1    3    3    0    0  0.74915802536E+01 -0.34626013038E+00  0.49485008924E+01  0.89850616090E+01  0.51100000000E-03 0. -1.
        -11    1    3    3    0    0 -0.25226164352E+01  0.36771050105E+02  0.14876466777E+02  0.39746483914E+02  0.51100000000E-03 0.  1.
         12    1    3    3    0    0 -0.38655091396E+01 -0.36182671045E+02 -0.19483227849E+02  0.41276191833E+02  0.00000000000E+00 0. -1.
</event>
<event>
 7    1  0.2349719E-015  0.9000773E+02  0.7816164E-02  0.1186339E+00
        -11   -1    0    0    0    0  0.00000000000E+00  0.00000000000E+00  0.45593999997E+02  0.45594000000E+02  0.51100000000E-03 0.  1.
         11   -1    0    0    0    0 -0.00000000000E+00 -0.00000000000E+00 -0.45593999997E+02  0.45594000000E+02  0.51100000000E-03 0. -1.
    9900012    2    1    2    0    0 -0.18117685336E+00 -0.95203916795E+00 -0.67367567289E+00  0.90007727768E+02  0.89999988974E+02 0.  0.
        -12    1    1    2    0    0  0.18117685336E+00  0.95203916795E+00  0.67367567289E+00  0.11802722320E+01  0.00000000000E+00 0.  1.
         11    1    3    3    0    0 -0.20154786888E+02  0.71693491903E+01 -0.35483178150E+02  0.41432727815E+02  0.51100000000E-03 0. -1.
        -11    1    3    3    0    0  0.59490237718E+01  0.66268331526E+01  0.80017261592E+00  0.89412570674E+01  0.51100000000E-03 0.  1.
        -12    1    3    3    0    0  0.14024586263E+02 -0.14748221511E+02  0.34009329861E+02  0.39633742886E+02  0.00000000000E+00 0.  1.
</event>
<event>
 7    1  0.2349719E-015  0.9000774E+02  0.7816164E-02  0.1186339E+00
        -11   -1    0    0    0    0  0.00000000000E+00  0.00000000000E+00  0.45593999997E+02  0.45594000000E+02  0.51100000000E-03 0.  1.
         11   -1    0    0    0    0 -0.00000000000E+00 -0.00000000000E+00 -0.45593999997E+02  0.45594000000E+02  0.51100000000E-03 0. -1.
    9900012    2    1    2    0    0  0.92677698296E+00 -0.34326215880E+00 -0.64519299514E+00  0.90007737958E+02  0.89999999299E+02 0.  0.
        -12    1    1    2    0    0 -0.92677698296E+00  0.34326215880E+00  0.64519299514E+00  0.11802620416E+01  0.00000000000E+00 0.  1.
         11    1    3    3    0    0 -0.81338948866E+01  0.44067809618E+01 -0.41316344821E+00  0.92601656988E+01  0.51100000000E-03 0. -1.
        -11    1    3    3    0    0 -0.26392955761E+02 -0.88724184462E+01  0.24690786777E+02  0.37214820634E+02  0.51100000000E-03 0.  1.
         12    1    3    3    0    0  0.35453627631E+02  0.41223753256E+01 -0.24922816324E+02  0.43532751625E+02  0.00000000000E+00 0. -1.
</event>
<event>
 7    1  0.2349719E-015  0.9000771E+02  0.7816164E-02  0.1186339E+00
        -11   -1    0    0    0    0  0.00000000000E+00  0.00000000000E+00  0.45593999997E+02  0.45594000000E+02  0.51100000000E-03 0.  1.
         11   -1    0    0    0    0 -0.00000000000E+00 -0.00000000000E+00 -0.45593999997E+02  0.45594000000E+02  0.51100000000E-03 0. -1.
    9900012    2    1    2    0    0  0.96678279987E+00 -0.51967384468E+00 -0.43398508438E+00  0.90007714890E+02  0.89999975927E+02 0.  0.
        -12    1    1    2    0    0 -0.96678279987E+00  0.51967384468E+00  0.43398508438E+00  0.11802851098E+01  0.00000000000E+00 0.  1.
         11    1    3    3    0    0  0.18049750440E+02 -0.15196652897E+02 -0.31598243040E+02  0.39435779613E+02  0.51100000000E-03 0. -1.
        -11    1    3    3    0    0  0.19806765075E+01 -0.80117025769E+01  0.10458326083E+01  0.83189076034E+01  0.51100000000E-03 0.  1.
        -12    1    3    3    0    0 -0.19063644147E+02  0.22688681629E+02  0.30118425347E+02  0.42253027674E+02  0.00000000000E+00 0.  1.
</event>
<event>
 7    1  0.2349719E-015  0.9000777E+02  0.7816164E-02  0.1186339E+00
        -11   -1    0    0    0    0  0.00000000000E+00  0.00000000000E+00  0.45593999997E+02  0.45594000000E+02  0.51100000000E-03 0. -1.
         11   -1    0    0    0    0 -0.00000000000E+00 -0.00000000000E+00 -0.45593999997E+02  0.45594000000E+02  0.51100000000E-03 0.  1.
    9900012    2    1    2    0    0  0.29464750192E+00  0.95825710939E+00  0.62279235482E+00  0.90007769448E+02  0.90000031205E+02 0.  0.
        -12    1    1    2    0    0 -0.29464750192E+00 -0.95825710939E+00 -0.62279235482E+00  0.11802305518E+01  0.00000000000E+00 0.  1.
         11    1    3    3    0    0 -0.92466324044E+01 -0.82112301795E+01 -0.14930574331E+02  0.19386762546E+02  0.51100000000E-03 0. -1.
        -11    1    3    3    0    0  0.25431806323E+02  0.21169349727E+01 -0.19083459548E+02  0.31865916198E+02  0.51100000000E-03 0.  1.
         12    1    3    3    0    0 -0.15890526417E+02  0.70525523162E+01  0.34636826234E+02  0.38755090705E+02  0.00000000000E+00 0. -1.
</event>
<event>
 7    1  0.2349719E-015  0.9000758E+02  0.7816164E-02  0.1186339E+00
        -11   -1    0    0    0    0  0.00000000000E+00  0.00000000000E+00  0.45593999997E+02  0.45594000000E+02  0.51100000000E-03 0.  1.
         11   -1    0    0    0    0 -0.00000000000E+00 -0.00000000000E+00 -0.45593999997E+02  0.45594000000E+02  0.51100000000E-03 0. -1.
    9900012    2    1    2    0    0 -0.10646053664E+01 -0.49802108395E+00  0.10946350775E+00  0.90007579801E+02  0.89999839054E+02 0.  0.
        -12    1    1    2    0    0  0.10646053664E+01  0.49802108395E+00 -0.10946350775E+00  0.11804201988E+01  0.00000000000E+00 0.  1.
         11    1    3    3    0    0 -0.17147461850E+01  0.10270709545E+02 -0.17474403122E+01  0.10558474177E+02  0.51100000000E-03 0. -1.
        -11    1    3    3    0    0 -0.30917876886E+02  0.17052548298E+02  0.97655317192E+01  0.36634275271E+02  0.51100000000E-03 0.  1.
         12    1    3    3    0    0  0.31568017705E+02 -0.27821278927E+02 -0.79086278992E+01  0.42814830353E+02  0.00000000000E+00 0. -1.
</event>
<event>
 7    1  0.2349719E-015  0.9000774E+02  0.7816164E-02  0.1186339E+00
        -11   -1    0    0    0    0  0.00000000000E+00  0.00000000000E+00  0.45593999997E+02  0.45594000000E+02  0.51100000000E-03 0.  1.
         11   -1    0    0    0    0 -0.00000000000E+00 -0.00000000000E+00 -0.45593999997E+02  0.45594000000E+02  0.51100000000E-03 0. -1.
    9900012    2    1    2    0    0 -0.11673818998E+01  0.11272070447E-01 -0.17352294122E+00  0.90007738262E+02  0.89999999607E+02 0.  0.
        -12    1    1    2    0    0  0.11673818998E+01 -0.11272070447E-01  0.17352294122E+00  0.11802617383E+01  0.00000000000E+00 0.  1.
         11    1    3    3    0    0  0.12909187848E+02 -0.19324336742E+01  0.55674771121E+00  0.13064891851E+02  0.51100000000E-03 0. -1.
        -11    1    3    3    0    0 -0.80785752342E+01 -0.32236557468E+02  0.17696614772E+02  0.37651416837E+02  0.51100000000E-03 0.  1.
         12    1    3    3    0    0 -0.59979945138E+01  0.34180263213E+02 -0.18426885424E+02  0.39291429573E+02  0.00000000000E+00 0. -1.
</event>
<event>
 7    1  0.2349719E-015  0.9000775E+02  0.7816164E-02  0.1186339E+00
        -11   -1    0    0    0    0  0.00000000000E+00  0.00000000000E+00  0.45593999997E+02  0.45594000000E+02  0.51100000000E-03 0. -1.
         11   -1    0    0    0    0 -0.00000000000E+00 -0.00000000000E+00 -0.45593999997E+02  0.45594000000E+02  0.51100000000E-03 0.  1.
    9900012    2    1    2    0    0  0.12406062904E+00  0.28013731808E+00  0.11397892088E+01  0.90007751129E+02  0.90000012644E+02 0.  0.
        -12    1    1    2    0    0 -0.12406062904E+00 -0.28013731808E+00 -0.11397892088E+01  0.11802488709E+01  0.00000000000E+00 0.  1.
         11    1    3    3    0    0  0.55988951131E+01  0.62357878998E+01  0.58551025524E+01  0.10223253072E+02  0.51100000000E-03 0. -1.
        -11    1    3    3    0    0  0.11551438431E+02  0.21833527498E+02 -0.29765107048E+02  0.38679455150E+02  0.51100000000E-03 0.  1.
         12    1    3    3    0    0 -0.17026272915E+02 -0.27789178080E+02  0.25049793705E+02  0.41105042907E+02  0.00000000000E+00 0. -1.
</event>
<event>
 7    1  0.2349719E-015  0.9000774E+02  0.7816164E-02  0.1186339E+00
        -11   -1    0    0    0    0  0.00000000000E+00  0.00000000000E+00  0.45593999997E+02  0.45594000000E+02  0.51100000000E-03 0.  1.
         11   -1    0    0    0    0 -0.00000000000E+00 -0.00000000000E+00 -0.45593999997E+02  0.45594000000E+02  0.51100000000E-03 0. -1.
    9900012    2    1    2    0    0  0.79190602123E+00  0.19409592557E+00  0.85335457877E+00  0.90007744768E+02  0.90000006199E+02 0.  0.
        -12    1    1    2    0    0 -0.79190602123E+00 -0.19409592557E+00 -0.85335457877E+00  0.11802552317E+01  0.00000000000E+00 0.  1.
         11    1    3    3    0    0  0.12631614834E+02 -0.46060878506E+01  0.80464533161E+00  0.13469268465E+02  0.51100000000E-03 0. -1.
        -11    1    3    3    0    0 -0.30882534614E+02  0.70164380014E-01  0.28469099932E+02  0.42002684657E+02  0.51100000000E-03 0.  1.
         12    1    3    3    0    0  0.19042825801E+02  0.47300193961E+01 -0.28420390685E+02  0.34535791646E+02  0.00000000000E+00 0. -1.
</event>
<event>
 7    1  0.2349719E-015  0.9000775E+02  0.7816164E-02  0.1186339E+00
        -11   -1    0    0    0    0  0.00000000000E+00  0.00000000000E+00  0.45593999997E+02  0.45594000000E+02  0.51100000000E-03 0.  1.
         11   -1    0    0    0    0 -0.00000000000E+00 -0.00000000000E+00 -0.45593999997E+02  0.45594000000E+02  0.51100000000E-03 0. -1.
    9900012    2    1    2    0    0  0.50688263487E+00  0.99939977312E+00  0.37047828142E+00  0.90007752539E+02  0.90000014073E+02 0.  0.
        -12    1    1    2    0    0 -0.50688263487E+00 -0.99939977312E+00 -0.37047828142E+00  0.11802474609E+01  0.00000000000E+00 0.  1.
         11    1    3    3    0    0  0.48681525707E+01  0.28878408220E+01  0.77969071486E+01  0.96348479703E+01  0.51100000000E-03 0. -1.
        -11    1    3    3    0    0  0.12150090771E+02  0.13646303028E+02  0.30868415320E+02  0.35870675442E+02  0.51100000000E-03 0.  1.
         12    1    3    3    0    0 -0.16511360706E+02 -0.15534744077E+02 -0.38294844187E+02  0.44502229126E+02  0.00000000000E+00 0. -1.
</event>
<event>
 7    1  0.2349719E-015  0.9000765E+02  0.7816164E-02  0.1186339E+00
        -11   -1    0    0    0    0  0.00000000000E+00  0.00000000000E+00  0.45593999997E+02  0.45594000000E+02  0.51100000000E-03 0.  1.
         11   -1    0    0    0    0 -0.00000000000E+00 -0.00000000000E+00 -0.45593999997E+02  0.45594000000E+02  0.51100000000E-03 0. -1.
    9900012    2    1    2    0    0 -0.20278351782E+00  0.34946388390E+00 -0.11090418253E+01  0.90007652623E+02  0.89999912837E+02 0.  0.
        -12    1    1    2    0    0  0.20278351782E+00 -0.34946388390E+00  0.11090418253E+01  0.11803473774E+01  0.00000000000E+00 0.  1.
         11    1    3    3    0    0 -0.84027077207E+01  0.30547356661E+02 -0.26203776662E+02  0.41114284715E+02  0.51100000000E-03 0. -1.
        -11    1    3    3    0    0 -0.38686196856E+01 -0.69018352432E+01 -0.46925957169E+01  0.91990218404E+01  0.51100000000E-03 0.  1.
        -12    1    3    3    0    0  0.12068543889E+02 -0.23296057534E+02  0.29787330554E+02  0.39694346067E+02  0.00000000000E+00 0.  1.
</event>
<event>
 7    1  0.2349719E-015  0.9000771E+02  0.7816164E-02  0.1186339E+00
        -11   -1    0    0    0    0  0.00000000000E+00  0.00000000000E+00  0.45593999997E+02  0.45594000000E+02  0.51100000000E-03 0.  1.
         11   -1    0    0    0    0 -0.00000000000E+00 -0.00000000000E+00 -0.45593999997E+02  0.45594000000E+02  0.51100000000E-03 0. -1.
    9900012    2    1    2    0    0  0.51610276777E+00 -0.17692954500E+00 -0.10466221049E+01  0.90007710221E+02  0.89999971196E+02 0.  0.
        -12    1    1    2    0    0 -0.51610276777E+00  0.17692954500E+00  0.10466221049E+01  0.11802897785E+01  0.00000000000E+00 0.  1.
         11    1    3    3    0    0 -0.85770244861E+01 -0.39407899921E+02 -0.12164602213E+02  0.42125116884E+02  0.51100000000E-03 0. -1.
        -11    1    3    3    0    0 -0.50072870674E+01  0.16811508296E+01 -0.20508491280E+01  0.56661428057E+01  0.51100000000E-03 0.  1.
        -12    1    3    3    0    0  0.14100414321E+02  0.37549819547E+02  0.13168829236E+02  0.42216450532E+02  0.00000000000E+00 0.  1.
</event>
<event>
 7    1  0.2349719E-015  0.9000785E+02  0.7816164E-02  0.1186339E+00
        -11   -1    0    0    0    0  0.00000000000E+00  0.00000000000E+00  0.45593999997E+02  0.45594000000E+02  0.51100000000E-03 0. -1.
         11   -1    0    0    0    0 -0.00000000000E+00 -0.00000000000E+00 -0.45593999997E+02  0.45594000000E+02  0.51100000000E-03 0.  1.
    9900012    2    1    2    0    0  0.65769037916E+00  0.91585312906E-01  0.97560624604E+00  0.90007850835E+02  0.90000113666E+02 0.  0.
        -12    1    1    2    0    0 -0.65769037916E+00 -0.91585312906E-01 -0.97560624604E+00  0.11801491650E+01  0.00000000000E+00 0.  1.
         11    1    3    3    0    0 -0.36286181267E+00 -0.12385403704E+01 -0.12934536597E+02  0.12998764872E+02  0.51100000000E-03 0. -1.
        -11    1    3    3    0    0  0.83664075707E+00  0.16986168806E+02 -0.27726020587E+02  0.32526329586E+02  0.51100000000E-03 0.  1.
         12    1    3    3    0    0  0.18391143475E+00 -0.15656043123E+02  0.41636163431E+02  0.44482756377E+02  0.00000000000E+00 0. -1.
</event>
<event>
 7    1  0.2388062E-015  0.9000779E+02  0.7816164E-02  0.1186339E+00
        -11   -1    0    0    0    0  0.00000000000E+00  0.00000000000E+00  0.45593999997E+02  0.45594000000E+02  0.51100000000E-03 0.  1.
         11   -1    0    0    0    0 -0.00000000000E+00 -0.00000000000E+00 -0.45593999997E+02  0.45594000000E+02  0.51100000000E-03 0. -1.
    9900012    2    1    2    0    0  0.90014070974E+00 -0.76124998286E+00  0.56031489879E-01  0.90007790543E+02  0.90000052578E+02 0.  0.
        -12    1    1    2    0    0 -0.90014070974E+00  0.76124998286E+00 -0.56031489879E-01  0.11802094567E+01  0.00000000000E+00 0.  1.
         11    1    3    3    0    0 -0.21803446647E+02 -0.31390823459E+02 -0.61013968022E+01  0.38704019511E+02  0.51100000000E-03 0. -1.
        -11    1    3    3    0    0 -0.13202888074E-01 -0.41846892801E+01  0.87018005312E+01  0.96557304971E+01  0.51100000000E-03 0.  1.
        -12    1    3    3    0    0  0.22716790244E+02  0.34814262757E+02 -0.25443722392E+01  0.41648040535E+02  0.00000000000E+00 0.  1.
</event>
<event>
 7    1  0.2349719E-015  0.9000763E+02  0.7816164E-02  0.1186339E+00
        -11   -1    0    0    0    0  0.00000000000E+00  0.00000000000E+00  0.45593999997E+02  0.45594000000E+02  0.51100000000E-03 0. -1.
         11   -1    0    0    0    0 -0.00000000000E+00 -0.00000000000E+00 -0.45593999997E+02  0.45594000000E+02  0.51100000000E-03 0.  1.
    9900012    2    1    2    0    0 -0.87794755289E+00  0.78530856282E+00  0.75925962296E-01  0.90007633025E+02  0.89999892981E+02 0.  0.
        -12    1    1    2    0    0  0.87794755289E+00 -0.78530856282E+00 -0.75925962296E-01  0.11803669752E+01  0.00000000000E+00 0.  1.
         11    1    3    3    0    0  0.10715478069E+02  0.27328019902E+01  0.58645084450E+01  0.12517273526E+02  0.51100000000E-03 0. -1.
        -11    1    3    3    0    0 -0.36368065779E+02 -0.11792377435E+02  0.17541662677E+02  0.42064311522E+02  0.51100000000E-03 0.  1.
         12    1    3    3    0    0  0.24774640157E+02  0.98448840079E+01 -0.23330245159E+02  0.35426047976E+02  0.00000000000E+00 0. -1.
</event>
<event>
 7    1  0.2881627E-015  0.9000778E+02  0.7816164E-02  0.1186339E+00
        -11   -1    0    0    0    0  0.00000000000E+00  0.00000000000E+00  0.45593999997E+02  0.45594000000E+02  0.51100000000E-03 0. -1.
         11   -1    0    0    0    0 -0.00000000000E+00 -0.00000000000E+00 -0.45593999997E+02  0.45594000000E+02  0.51100000000E-03 0.  1.
    9900012    2    1    2    0    0 -0.43743450296E+00 -0.14911995519E+00  0.10859703703E+01  0.90007780804E+02  0.90000042711E+02 0.  0.
        -12    1    1    2    0    0  0.43743450296E+00  0.14911995519E+00 -0.10859703703E+01  0.11802191960E+01  0.00000000000E+00 0.  1.
         11    1    3    3    0    0  0.14584573345E+02 -0.15737739365E+02  0.33808428964E+02  0.40042428613E+02  0.51100000000E-03 0. -1.
        -11    1    3    3    0    0 -0.81073133228E+01 -0.59259564738E+01  0.18696719049E+00  0.10043925848E+02  0.51100000000E-03 0.  1.
        -12    1    3    3    0    0 -0.69146945254E+01  0.21514575883E+02 -0.32909425784E+02  0.39921426343E+02  0.00000000000E+00 0.  1.
</event>
<event>
 7    1  0.2349719E-015  0.9000739E+02  0.7816164E-02  0.1186340E+00
        -11   -1    0    0    0    0  0.00000000000E+00  0.00000000000E+00  0.45593999997E+02  0.45594000000E+02  0.51100000000E-03 0. -1.
         11   -1    0    0    0    0 -0.00000000000E+00 -0.00000000000E+00 -0.45593999997E+02  0.45594000000E+02  0.51100000000E-03 0.  1.
    9900012    2    1    2    0    0 -0.60827684184E+00 -0.31001976859E-01  0.10113765154E+01  0.90007388169E+02  0.89999644892E+02 0.  0.
        -12    1    1    2    0    0  0.60827684184E+00  0.31001976859E-01 -0.10113765154E+01  0.11806118307E+01  0.00000000000E+00 0.  1.
         11    1    3    3    0    0  0.62574156133E+01 -0.63898002994E+01 -0.32455954365E+01  0.95141309652E+01  0.51100000000E-03 0. -1.
        -11    1    3    3    0    0  0.27411069934E+02 -0.16138942727E+02 -0.15031674966E+02  0.35182147174E+02  0.51100000000E-03 0.  1.
         12    1    3    3    0    0 -0.34276762389E+02  0.22497741049E+02  0.19288646918E+02  0.45311110030E+02  0.00000000000E+00 0. -1.
</event>
<event>
 7    1  0.2349719E-015  0.9000746E+02  0.7816164E-02  0.1186340E+00
        -11   -1    0    0    0    0  0.00000000000E+00  0.00000000000E+00  0.45593999997E+02  0.45594000000E+02  0.51100000000E-03 0.  1.
         11   -1    0    0    0    0 -0.00000000000E+00 -0.00000000000E+00 -0.45593999997E+02  0.45594000000E+02  0.51100000000E-03 0. -1.
    9900012    2    1    2    0    0  0.12066719241E+00  0.47972559652E-01 -0.11733771258E+01  0.90007459523E+02  0.89999717189E+02 0.  0.
        -12    1    1    2    0    0 -0.12066719241E+00 -0.47972559652E-01  0.11733771258E+01  0.11805404767E+01  0.00000000000E+00 0.  1.
         11    1    3    3    0    0 -0.21954244405E+02 -0.27418328270E+02 -0.13501748879E+02  0.37630450376E+02  0.51100000000E-03 0. -1.
        -11    1    3    3    0    0  0.25888765899E+01 -0.58736478919E+01 -0.67412114572E+01  0.93083808328E+01  0.51100000000E-03 0.  1.
        -12    1    3    3    0    0  0.19486035007E+02  0.33339948721E+02  0.19069583210E+02  0.43068628314E+02  0.00000000000E+00 0.  1.
</event>
<event>
 7    1  0.2349719E-015  0.9000776E+02  0.7816164E-02  0.1186339E+00
        -11   -1    0    0    0    0  0.00000000000E+00  0.00000000000E+00  0.45593999997E+02  0.45594000000E+02  0.51100000000E-03 0. -1.
         11   -1    0    0    0    0 -0.00000000000E+00 -0.00000000000E+00 -0.45593999997E+02  0.45594000000E+02  0.51100000000E-03 0.  1.
    9900012    2    1    2    0    0  0.88411976749E+00  0.23435624597E+00 -0.74591312420E+00  0.90007755533E+02  0.90000017106E+02 0.  0.
        -12    1    1    2    0    0 -0.88411976749E+00 -0.23435624597E+00  0.74591312420E+00  0.11802444671E+01  0.00000000000E+00 0.  1.
         11    1    3    3    0    0 -0.88843676605E+01  0.17929891587E+02  0.29218671378E+02  0.35413892167E+02  0.51100000000E-03 0. -1.
        -11    1    3    3    0    0 -0.50588356958E+01  0.45822374704E+01  0.64583483542E+01  0.93967538308E+01  0.51100000000E-03 0.  1.
        -12    1    3    3    0    0  0.14827323124E+02 -0.22277772811E+02 -0.36422932857E+02  0.45197109535E+02  0.00000000000E+00 0.  1.
</event>
<event>
 7    1  0.2349719E-015  0.9000772E+02  0.7816164E-02  0.1186339E+00
        -11   -1    0    0    0    0  0.00000000000E+00  0.00000000000E+00  0.45593999997E+02  0.45594000000E+02  0.51100000000E-03 0.  1.
         11   -1    0    0    0    0 -0.00000000000E+00 -0.00000000000E+00 -0.45593999997E+02  0.45594000000E+02  0.51100000000E-03 0. -1.
    9900012    2    1    2    0    0 -0.11346590777E+01 -0.20020453458E+00 -0.25598688485E+00  0.90007719371E+02  0.89999980467E+02 0.  0.
        -12    1    1    2    0    0  0.11346590777E+01  0.20020453458E+00  0.25598688485E+00  0.11802806291E+01  0.00000000000E+00 0.  1.
         11    1    3    3    0    0 -0.43773862575E+01  0.81120785809E+01  0.12754162897E+01  0.93055905950E+01  0.51100000000E-03 0. -1.
        -11    1    3    3    0    0 -0.36859444415E+02  0.44625390836E+00 -0.11210081036E+02  0.38528998200E+02  0.51100000000E-03 0.  1.
         12    1    3    3    0    0  0.40102171595E+02 -0.87585370238E+01  0.96786778617E+01  0.42173130576E+02  0.00000000000E+00 0. -1.
</event>
<event>
 7    1  0.2349719E-015  0.9000773E+02  0.7816164E-02  0.1186339E+00
        -11   -1    0    0    0    0  0.00000000000E+00  0.00000000000E+00  0.45593999997E+02  0.45594000000E+02  0.51100000000E-03 0.  1.
         11   -1    0    0    0    0 -0.00000000000E+00 -0.00000000000E+00 -0.45593999997E+02  0.45594000000E+02  0.51100000000E-03 0. -1.
    9900012    2    1    2    0    0 -0.73865313999E+00  0.19711695395E+00 -0.89920475465E+00  0.90007731918E+02  0.89999993179E+02 0.  0.
        -12    1    1    2    0    0  0.73865313999E+00 -0.19711695395E+00  0.89920475465E+00  0.11802680821E+01  0.00000000000E+00 0.  1.
         11    1    3    3    0    0 -0.78188701782E+01  0.36316100782E+01  0.64139392642E+01  0.10745321762E+02  0.51100000000E-03 0. -1.
        -11    1    3    3    0    0  0.37465859904E+01  0.98599693355E+01  0.34071678925E+02  0.35667004456E+02  0.51100000000E-03 0.  1.
         12    1    3    3    0    0  0.33336310478E+01 -0.13294462460E+02 -0.41384822943E+02  0.43595405700E+02  0.00000000000E+00 0. -1.
</event>
<event>
 7    1  0.2349719E-015  0.9000776E+02  0.7816164E-02  0.1186339E+00
        -11   -1    0    0    0    0  0.00000000000E+00  0.00000000000E+00  0.45593999997E+02  0.45594000000E+02  0.51100000000E-03 0.  1.
         11   -1    0    0    0    0 -0.00000000000E+00 -0.00000000000E+00 -0.45593999997E+02  0.45594000000E+02  0.51100000000E-03 0. -1.
    9900012    2    1    2    0    0  0.64751794166E-01  0.63834940956E+00 -0.99060263297E+00  0.90007755813E+02  0.90000017390E+02 0.  0.
        -12    1    1    2    0    0 -0.64751794166E-01 -0.63834940956E+00  0.99060263297E+00  0.11802441866E+01  0.00000000000E+00 0.  1.
         11    1    3    3    0    0  0.95478180883E+01 -0.53346078315E+01 -0.44004981421E+00  0.10945890328E+02  0.51100000000E-03 0. -1.
        -11    1    3    3    0    0 -0.10963461008E+02  0.41564507388E+02 -0.45012197094E+01  0.43221137546E+02  0.51100000000E-03 0.  1.
         12    1    3    3    0    0  0.14803947141E+01 -0.35591550147E+02  0.39506668907E+01  0.35840727939E+02  0.00000000000E+00 0. -1.
</event>
<event>
 7    1  0.2349719E-015  0.9000836E+02  0.7816164E-02  0.1186338E+00
        -11   -1    0    0    0    0  0.00000000000E+00  0.00000000000E+00  0.45593999997E+02  0.45594000000E+02  0.51100000000E-03 0.  1.
         11   -1    0    0    0    0 -0.00000000000E+00 -0.00000000000E+00 -0.45593999997E+02  0.45594000000E+02  0.51100000000E-03 0. -1.
    9900012    2    1    2    0    0  0.49186807883E+00 -0.10473935648E+01 -0.22931052954E+00  0.90008359883E+02  0.90000629431E+02 0.  0.
        -12    1    1    2    0    0 -0.49186807883E+00  0.10473935648E+01  0.22931052954E+00  0.11796401170E+01  0.00000000000E+00 0.  1.
         11    1    3    3    0    0  0.17335446625E+02  0.71935923077E+01 -0.29730966084E+02  0.35159576569E+02  0.51100000000E-03 0. -1.
        -11    1    3    3    0    0  0.11411958860E+01  0.43618652319E+01 -0.92594012584E+01  0.10298772173E+02  0.51100000000E-03 0.  1.
        -12    1    3    3    0    0 -0.17984774432E+02 -0.12602851104E+02  0.38761056813E+02  0.44550011140E+02  0.00000000000E+00 0.  1.
</event>
<event>
 7    1  0.2349719E-015  0.9000781E+02  0.7816164E-02  0.1186339E+00
        -11   -1    0    0    0    0  0.00000000000E+00  0.00000000000E+00  0.45593999997E+02  0.45594000000E+02  0.51100000000E-03 0. -1.
         11   -1    0    0    0    0 -0.00000000000E+00 -0.00000000000E+00 -0.45593999997E+02  0.45594000000E+02  0.51100000000E-03 0.  1.
    9900012    2    1    2    0    0  0.90144970451E+00  0.34163873318E+00  0.68082486680E+00  0.90007808874E+02  0.90000071151E+02 0.  0.
        -12    1    1    2    0    0 -0.90144970451E+00 -0.34163873318E+00 -0.68082486680E+00  0.11801911256E+01  0.00000000000E+00 0.  1.
         11    1    3    3    0    0 -0.19501356304E+00 -0.30078617506E+00  0.11034495532E+02  0.11040316776E+02  0.51100000000E-03 0. -1.
        -11    1    3    3    0    0 -0.35909126186E+02 -0.31054094995E+01  0.88413239803E+01  0.37111695213E+02  0.51100000000E-03 0.  1.
         12    1    3    3    0    0  0.37005589453E+02  0.37478344077E+01 -0.19194994645E+02  0.41855796886E+02  0.00000000000E+00 0. -1.
</event>
<event>
 7    1  0.2349719E-015  0.9000763E+02  0.7816164E-02  0.1186339E+00
        -11   -1    0    0    0    0  0.00000000000E+00  0.00000000000E+00  0.45593999997E+02  0.45594000000E+02  0.51100000000E-03 0.  1.
         11   -1    0    0    0    0 -0.00000000000E+00 -0.00000000000E+00 -0.45593999997E+02  0.45594000000E+02  0.51100000000E-03 0. -1.
    9900012    2    1    2    0    0 -0.84176307721E+00 -0.16704764628E+00 -0.81043769221E+00  0.90007627496E+02  0.89999887379E+02 0.  0.
        -12    1    1    2    0    0  0.84176307721E+00  0.16704764628E+00  0.81043769221E+00  0.11803725036E+01  0.00000000000E+00 0.  1.
         11    1    3    3    0    0  0.24560581572E+01 -0.58024398850E+01  0.79897797518E+01  0.10175318719E+02  0.51100000000E-03 0. -1.
        -11    1    3    3    0    0  0.80212389321E+00  0.37172802708E+02 -0.24336086655E+02  0.44437661706E+02  0.51100000000E-03 0.  1.
         12    1    3    3    0    0 -0.40999451276E+01 -0.31537410470E+02  0.15535869211E+02  0.35394647072E+02  0.00000000000E+00 0. -1.
</event>
<event>
 7    1  0.2349719E-015  0.9000795E+02  0.7816164E-02  0.1186339E+00
        -11   -1    0    0    0    0  0.00000000000E+00  0.00000000000E+00  0.45593999997E+02  0.45594000000E+02  0.51100000000E-03 0.  1.
         11   -1    0    0    0    0 -0.00000000000E+00 -0.00000000000E+00 -0.45593999997E+02  0.45594000000E+02  0.51100000000E-03 0. -1.
    9900012    2    1    2    0    0  0.62366650868E+00 -0.14984454706E-01 -0.10016618806E+01  0.90007952979E+02  0.90000217158E+02 0.  0.
        -12    1    1    2    0    0 -0.62366650868E+00  0.14984454706E-01  0.10016618806E+01  0.11800470207E+01  0.00000000000E+00 0.  1.
         11    1    3    3    0    0 -0.58960939879E+01  0.38398783011E+01  0.82998268556E+01  0.10880979541E+02  0.51100000000E-03 0. -1.
        -11    1    3    3    0    0 -0.19016425587E+02 -0.57158284351E+01  0.27729720788E+02  0.34106195215E+02  0.51100000000E-03 0.  1.
         12    1    3    3    0    0  0.25536186084E+02  0.18609656793E+01 -0.37031209524E+02  0.45020778223E+02  0.00000000000E+00 0. -1.
</event>
<event>
 7    1  0.2349719E-015  0.9000851E+02  0.7816164E-02  0.1186337E+00
        -11   -1    0    0    0    0  0.00000000000E+00  0.00000000000E+00  0.45593999997E+02  0.45594000000E+02  0.51100000000E-03 0.  1.
         11   -1    0    0    0    0 -0.00000000000E+00 -0.00000000000E+00 -0.45593999997E+02  0.45594000000E+02  0.51100000000E-03 0. -1.
    9900012    2    1    2    0    0  0.91275458078E+00 -0.21612503350E+00 -0.71509065084E+00  0.90008514691E+02  0.90000786282E+02 0.  0.
        -12    1    1    2    0    0 -0.91275458078E+00  0.21612503350E+00  0.71509065084E+00  0.11794853088E+01  0.00000000000E+00 0.  1.
         11    1    3    3    0    0 -0.18470915446E+02  0.10663386398E+02 -0.30855067108E+02  0.37508901522E+02  0.51100000000E-03 0. -1.
        -11    1    3    3    0    0 -0.35898149468E+01 -0.79749916291E+00 -0.68672457365E+01  0.77898549752E+01  0.51100000000E-03 0.  1.
        -12    1    3    3    0    0  0.22973484973E+02 -0.10082012269E+02  0.37007222194E+02  0.44709758194E+02  0.00000000000E+00 0.  1.
</event>
<event>
 7    1  0.2349719E-015  0.9000768E+02  0.7816164E-02  0.1186339E+00
        -11   -1    0    0    0    0  0.00000000000E+00  0.00000000000E+00  0.45593999997E+02  0.45594000000E+02  0.51100000000E-03 0.  1.
         11   -1    0    0    0    0 -0.00000000000E+00 -0.00000000000E+00 -0.45593999997E+02  0.45594000000E+02  0.51100000000E-03 0. -1.
    9900012    2    1    2    0    0  0.24530756725E+00  0.11117412282E+01  0.31146888117E+00  0.90007679186E+02  0.89999939751E+02 0.  0.
        -12    1    1    2    0    0 -0.24530756725E+00 -0.11117412282E+01 -0.31146888117E+00  0.11803208144E+01  0.00000000000E+00 0.  1.
         11    1    3    3    0    0 -0.27026183656E+01 -0.88493436209E+01  0.52731759154E+01  0.10649948969E+02  0.51100000000E-03 0. -1.
        -11    1    3    3    0    0  0.39564746834E+02  0.12275816754E+02  0.39128133839E+01  0.41609794254E+02  0.51100000000E-03 0.  1.
         12    1    3    3    0    0 -0.36616820902E+02 -0.23147319050E+01 -0.88745204181E+01  0.37747935962E+02  0.00000000000E+00 0. -1.
</event>
<event>
 7    1  0.2349719E-015  0.9000745E+02  0.7816164E-02  0.1186340E+00
        -11   -1    0    0    0    0  0.00000000000E+00  0.00000000000E+00  0.45593999997E+02  0.45594000000E+02  0.51100000000E-03 0. -1.
         11   -1    0    0    0    0 -0.00000000000E+00 -0.00000000000E+00 -0.45593999997E+02  0.45594000000E+02  0.51100000000E-03 0.  1.
    9900012    2    1    2    0    0  0.10873119038E+01 -0.27782690954E+00  0.36642889520E+00  0.90007447120E+02  0.89999704621E+02 0.  0.
        -12    1    1    2    0    0 -0.10873119038E+01  0.27782690954E+00 -0.36642889520E+00  0.11805528803E+01  0.00000000000E+00 0.  1.
         11    1    3    3    0    0 -0.25542184360E+02  0.19729411766E+01  0.32214779035E+02  0.41159296244E+02  0.51100000000E-03 0. -1.
        -11    1    3    3    0    0 -0.36179757843E+01 -0.55316271717E+01 -0.59441364289E+01  0.88893985223E+01  0.51100000000E-03 0.  1.
        -12    1    3    3    0    0  0.30247472048E+02  0.32808590856E+01 -0.25904213711E+02  0.39958752353E+02  0.00000000000E+00 0.  1.
</event>
<event>
 7    1  0.2349719E-015  0.9000773E+02  0.7816164E-02  0.1186339E+00
        -11   -1    0    0    0    0  0.00000000000E+00  0.00000000000E+00  0.45593999997E+02  0.45594000000E+02  0.51100000000E-03 0.  1.
         11   -1    0    0    0    0 -0.00000000000E+00 -0.00000000000E+00 -0.45593999997E+02  0.45594000000E+02  0.51100000000E-03 0. -1.
    9900012    2    1    2    0    0  0.63842737738E-01 -0.66589865671E+00 -0.97238679946E+00  0.90007731808E+02  0.89999993068E+02 0.  0.
        -12    1    1    2    0    0 -0.63842737738E-01  0.66589865671E+00  0.97238679946E+00  0.11802681915E+01  0.00000000000E+00 0.  1.
         11    1    3    3    0    0  0.77218989694E+01 -0.34960477636E+02  0.21280809261E+02  0.41650156822E+02  0.51100000000E-03 0. -1.
        -11    1    3    3    0    0 -0.75622407677E+01 -0.55743288656E+00 -0.69781676435E+01  0.10305000765E+02  0.51100000000E-03 0.  1.
        -12    1    3    3    0    0 -0.95815463937E-01  0.34852011866E+02 -0.15275028417E+02  0.38052574221E+02  0.00000000000E+00 0.  1.
</event>
<event>
 7    1  0.2349719E-015  0.9000765E+02  0.7816164E-02  0.1186339E+00
        -11   -1    0    0    0    0  0.00000000000E+00  0.00000000000E+00  0.45593999997E+02  0.45594000000E+02  0.51100000000E-03 0.  1.
         11   -1    0    0    0    0 -0.00000000000E+00 -0.00000000000E+00 -0.45593999997E+02  0.45594000000E+02  0.51100000000E-03 0. -1.
    9900012    2    1    2    0    0 -0.10968337199E+01 -0.10533260862E+00 -0.42319704115E+00  0.90007646280E+02  0.89999906411E+02 0.  0.
        -12    1    1    2    0    0  0.10968337199E+01  0.10533260862E+00  0.42319704115E+00  0.11803537195E+01  0.00000000000E+00 0.  1.
         11    1    3    3    0    0  0.13622851504E+02 -0.25284523551E+02 -0.27322963130E+02  0.39641310886E+02  0.51100000000E-03 0. -1.
        -11    1    3    3    0    0 -0.93808438676E+01  0.76832875123E+01 -0.53786000891E+01  0.13265084917E+02  0.51100000000E-03 0.  1.
        -12    1    3    3    0    0 -0.53388413560E+01  0.17495903430E+02  0.32278366178E+02  0.37101250478E+02  0.00000000000E+00 0.  1.
</event>
<event>
 7    1  0.2349719E-015  0.9000744E+02  0.7816164E-02  0.1186340E+00
        -11   -1    0    0    0    0  0.00000000000E+00  0.00000000000E+00  0.45593999997E+02  0.45594000000E+02  0.51100000000E-03 0. -1.
         11   -1    0    0    0    0 -0.00000000000E+00 -0.00000000000E+00 -0.45593999997E+02  0.45594000000E+02  0.51100000000E-03 0.  1.
    9900012    2    1    2    0    0  0.10970455325E+01  0.43442501091E+00  0.38433604178E-01  0.90007444566E+02  0.89999702034E+02 0.  0.
        -12    1    1    2    0    0 -0.10970455325E+01 -0.43442501091E+00 -0.38433604178E-01  0.11805554339E+01  0.00000000000E+00 0.  1.
         11    1    3    3    0    0  0.15318107793E+02  0.15946784134E+02 -0.38114154731E+02  0.44063966477E+02  0.51100000000E-03 0. -1.
        -11    1    3    3    0    0  0.26288368889E+01 -0.51421806131E+01  0.96691842576E+01  0.11262589814E+02  0.51100000000E-03 0.  1.
        -12    1    3    3    0    0 -0.16849899149E+02 -0.10370178510E+02  0.28483404078E+02  0.34680888275E+02  0.00000000000E+00 0.  1.
</event>
<event>
 7    1  0.2349719E-015  0.9000759E+02  0.7816164E-02  0.1186339E+00
        -11   -1    0    0    0    0  0.00000000000E+00  0.00000000000E+00  0.45593999997E+02  0.45594000000E+02  0.51100000000E-03 0.  1.
         11   -1    0    0    0    0 -0.00000000000E+00 -0.00000000000E+00 -0.45593999997E+02  0.45594000000E+02  0.51100000000E-03 0. -1.
    9900012    2    1    2    0    0 -0.54991353110E+00 -0.41082567450E+00 -0.96030028075E+00  0.90007593606E+02  0.89999853041E+02 0.  0.
        -12    1    1    2    0    0  0.54991353110E+00  0.41082567450E+00  0.96030028075E+00  0.11804063943E+01  0.00000000000E+00 0.  1.
         11    1    3    3    0    0  0.12652977915E+01 -0.71073093535E+01 -0.33376728243E+01  0.79532939648E+01  0.51100000000E-03 0. -1.
        -11    1    3    3    0    0  0.10132930470E+02 -0.25303760989E+02 -0.25983070631E+02  0.37657357312E+02  0.51100000000E-03 0.  1.
         12    1    3    3    0    0 -0.11948141793E+02  0.32000244668E+02  0.28360443174E+02  0.44396942329E+02  0.00000000000E+00 0. -1.
</event>
<event>
 7    1  0.2349719E-015  0.9000775E+02  0.7816164E-02  0.1186339E+00
        -11   -1    0    0    0    0  0.00000000000E+00  0.00000000000E+00  0.45593999997E+02  0.45594000000E+02  0.51100000000E-03 0. -1.
         11   -1    0    0    0    0 -0.00000000000E+00 -0.00000000000E+00 -0.45593999997E+02  0.45594000000E+02  0.51100000000E-03 0.  1.
    9900012    2    1    2    0    0  0.33867280578E+00 -0.39540784254E+00  0.10592136567E+01  0.90007754177E+02  0.90000015733E+02 0.  0.
        -12    1    1    2    0    0 -0.33867280578E+00  0.39540784254E+00 -0.10592136567E+01  0.11802458226E+01  0.00000000000E+00 0.  1.
         11    1    3    3    0    0 -0.63638798302E+01 -0.40247519657E-02  0.18041100542E+02  0.19130611379E+02  0.51100000000E-03 0. -1.
        -11    1    3    3    0    0 -0.15880642267E+02  0.10809105520E+02 -0.34976864383E+02  0.39905044835E+02  0.51100000000E-03 0.  1.
         12    1    3    3    0    0  0.22583194903E+02 -0.11200488610E+02  0.17994977497E+02  0.30972097963E+02  0.00000000000E+00 0. -1.
</event>
<event>
 7    1  0.2349719E-015  0.9000793E+02  0.7816164E-02  0.1186339E+00
        -11   -1    0    0    0    0  0.00000000000E+00  0.00000000000E+00  0.45593999997E+02  0.45594000000E+02  0.51100000000E-03 0.  1.
         11   -1    0    0    0    0 -0.00000000000E+00 -0.00000000000E+00 -0.45593999997E+02  0.45594000000E+02  0.51100000000E-03 0. -1.
    9900012    2    1    2    0    0  0.21898304549E+00 -0.10155704110E+01 -0.55966697161E+00  0.90007930530E+02  0.90000194413E+02 0.  0.
        -12    1    1    2    0    0 -0.21898304549E+00  0.10155704110E+01  0.55966697161E+00  0.11800694696E+01  0.00000000000E+00 0.  1.
         11    1    3    3    0    0 -0.73432655313E+01 -0.16122022845E+02 -0.10630731447E+02  0.20660484521E+02  0.51100000000E-03 0. -1.
        -11    1    3    3    0    0 -0.26171502509E+02 -0.72193129092E+01  0.98908015031E+01  0.28894531958E+02  0.51100000000E-03 0.  1.
         12    1    3    3    0    0  0.33733751086E+02  0.22325765343E+02  0.18026297259E+00  0.40452914051E+02  0.00000000000E+00 0. -1.
</event>
<event>
 7    1  0.3246214E-015  0.9000779E+02  0.7816164E-02  0.1186339E+00
        -11   -1    0    0    0    0  0.00000000000E+00  0.00000000000E+00  0.45593999997E+02  0.45594000000E+02  0.51100000000E-03 0. -1.
         11   -1    0    0    0    0 -0.00000000000E+00 -0.00000000000E+00 -0.45593999997E+02  0.45594000000E+02  0.51100000000E-03 0.  1.
    9900012    2    1    2    0    0  0.89337175627E+00 -0.37688666171E+00  0.67286647563E+00  0.90007785636E+02  0.90000047607E+02 0.  0.
        -12    1    1    2    0    0 -0.89337175627E+00  0.37688666171E+00 -0.67286647563E+00  0.11802143639E+01  0.00000000000E+00 0.  1.
         11    1    3    3    0    0 -0.18435276531E+02 -0.13388690713E+02  0.34122767653E+02  0.41030229494E+02  0.51100000000E-03 0. -1.
        -11    1    3    3    0    0  0.88938452355E+01 -0.77451637671E+00  0.23408328498E+01  0.92292934389E+01  0.51100000000E-03 0.  1.
        -12    1    3    3    0    0  0.10434803052E+02  0.13786320428E+02 -0.35790734028E+02  0.39748262703E+02  0.00000000000E+00 0.  1.
</event>
<event>
 7    1  0.2349719E-015  0.9000773E+02  0.7816164E-02  0.1186339E+00
        -11   -1    0    0    0    0  0.00000000000E+00  0.00000000000E+00  0.45593999997E+02  0.45594000000E+02  0.51100000000E-03 0. -1.
         11   -1    0    0    0    0 -0.00000000000E+00 -0.00000000000E+00 -0.45593999997E+02  0.45594000000E+02  0.51100000000E-03 0.  1.
    9900012    2    1    2    0    0  0.58355241602E+00  0.79451638930E+00  0.64904401132E+00  0.90007725522E+02  0.89999986699E+02 0.  0.
        -12    1    1    2    0    0 -0.58355241602E+00 -0.79451638930E+00 -0.64904401132E+00  0.11802744781E+01  0.00000000000E+00 0.  1.
         11    1    3    3    0    0  0.10201218004E+01  0.71555937953E+01 -0.12889319930E+01  0.73419695583E+01  0.51100000000E-03 0. -1.
        -11    1    3    3    0    0 -0.20547920290E+02  0.29656721728E+02 -0.13637605505E+02  0.38571005380E+02  0.51100000000E-03 0.  1.
         12    1    3    3    0    0  0.20111350905E+02 -0.36017799134E+02  0.15575581510E+02  0.44094750583E+02  0.00000000000E+00 0. -1.
</event>
<event>
 7    1  0.2349719E-015  0.9000789E+02  0.7816164E-02  0.1186339E+00
        -11   -1    0    0    0    0  0.00000000000E+00  0.00000000000E+00  0.45593999997E+02  0.45594000000E+02  0.51100000000E-03 0.  1.
         11   -1    0    0    0    0 -0.00000000000E+00 -0.00000000000E+00 -0.45593999997E+02  0.45594000000E+02  0.51100000000E-03 0. -1.
    9900012    2    1    2    0    0  0.71390805924E+00 -0.89873929651E+00 -0.27435200800E+00  0.90007887266E+02  0.90000150578E+02 0.  0.
        -12    1    1    2    0    0 -0.71390805924E+00  0.89873929651E+00  0.27435200800E+00  0.11801127338E+01  0.00000000000E+00 0.  1.
         11    1    3    3    0    0 -0.20244534953E+01 -0.37627067411E+02 -0.62712092608E+01  0.38199773295E+02  0.51100000000E-03 0. -1.
        -11    1    3    3    0    0 -0.45997290057E+01 -0.24761411856E+01 -0.79859870205E+01  0.95427863358E+01  0.51100000000E-03 0.  1.
        -12    1    3    3    0    0  0.73380905602E+01  0.39204469300E+02  0.13982844273E+02  0.42265327636E+02  0.00000000000E+00 0.  1.
</event>
<event>
 7    1  0.2349719E-015  0.9000769E+02  0.7816164E-02  0.1186339E+00
        -11   -1    0    0    0    0  0.00000000000E+00  0.00000000000E+00  0.45593999997E+02  0.45594000000E+02  0.51100000000E-03 0. -1.
         11   -1    0    0    0    0 -0.00000000000E+00 -0.00000000000E+00 -0.45593999997E+02  0.45594000000E+02  0.51100000000E-03 0.  1.
    9900012    2    1    2    0    0 -0.77151793146E-01 -0.72829418389E+00  0.92561769160E+00  0.90007689478E+02  0.89999950179E+02 0.  0.
        -12    1    1    2    0    0  0.77151793146E-01  0.72829418389E+00 -0.92561769160E+00  0.11803105221E+01  0.00000000000E+00 0.  1.
         11    1    3    3    0    0 -0.51623344868E+01 -0.59519067390E+01 -0.47742241805E+01  0.92123888308E+01  0.51100000000E-03 0. -1.
        -11    1    3    3    0    0  0.55402154860E-02  0.46884616381E+00 -0.37266399458E+02  0.37269349018E+02  0.51100000000E-03 0.  1.
         12    1    3    3    0    0  0.50796424781E+01  0.47547663913E+01  0.42966241330E+02  0.43525951629E+02  0.00000000000E+00 0. -1.
</event>
<event>
 7    1  0.2349719E-015  0.9000773E+02  0.7816164E-02  0.1186339E+00
        -11   -1    0    0    0    0  0.00000000000E+00  0.00000000000E+00  0.45593999997E+02  0.45594000000E+02  0.51100000000E-03 0. -1.
         11   -1    0    0    0    0 -0.00000000000E+00 -0.00000000000E+00 -0.45593999997E+02  0.45594000000E+02  0.51100000000E-03 0.  1.
    9900012    2    1    2    0    0 -0.35444888709E+00  0.88290404298E+00  0.69848161062E+00  0.90007733029E+02  0.89999994305E+02 0.  0.
        -12    1    1    2    0    0  0.35444888709E+00 -0.88290404298E+00 -0.69848161062E+00  0.11802669711E+01  0.00000000000E+00 0.  1.
         11    1    3    3    0    0 -0.84491720914E+00  0.25465905512E+01 -0.86474105082E+01  0.90540994740E+01  0.51100000000E-03 0. -1.
        -11    1    3    3    0    0 -0.38899573002E+01  0.14718004637E+02 -0.32452921518E+02  0.35846109184E+02  0.51100000000E-03 0.  1.
         12    1    3    3    0    0  0.43804256223E+01 -0.16381691145E+02  0.41798813637E+02  0.45107524371E+02  0.00000000000E+00 0. -1.
</event>
<event>
 7    1  0.2349719E-015  0.9000784E+02  0.7816164E-02  0.1186339E+00
        -11   -1    0    0    0    0  0.00000000000E+00  0.00000000000E+00  0.45593999997E+02  0.45594000000E+02  0.51100000000E-03 0.  1.
         11   -1    0    0    0    0 -0.00000000000E+00 -0.00000000000E+00 -0.45593999997E+02  0.45594000000E+02  0.51100000000E-03 0. -1.
    9900012    2    1    2    0    0 -0.87128952800E-01 -0.10552311844E+01 -0.52121296211E+00  0.90007844392E+02  0.90000107138E+02 0.  0.
        -12    1    1    2    0    0  0.87128952800E-01  0.10552311844E+01  0.52121296211E+00  0.11801556079E+01  0.00000000000E+00 0.  1.
         11    1    3    3    0    0  0.73015123820E+01 -0.18723659374E+02  0.10704837819E+02  0.22770179104E+02  0.51100000000E-03 0. -1.
        -11    1    3    3    0    0 -0.27334631856E+01 -0.18920694568E+02  0.12991490845E+02  0.23113704561E+02  0.51100000000E-03 0.  1.
        -12    1    3    3    0    0 -0.46551781492E+01  0.36589122758E+02 -0.24217541626E+02  0.44123960727E+02  0.00000000000E+00 0.  1.
</event>
<event>
 7    1  0.2349719E-015  0.9000761E+02  0.7816164E-02  0.1186339E+00
        -11   -1    0    0    0    0  0.00000000000E+00  0.00000000000E+00  0.45593999997E+02  0.45594000000E+02  0.51100000000E-03 0. -1.
         11   -1    0    0    0    0 -0.00000000000E+00 -0.00000000000E+00 -0.45593999997E+02  0.45594000000E+02  0.51100000000E-03 0.  1.
    9900012    2    1    2    0    0  0.64017967954E+00  0.81979378944E-01  0.98831755666E+00  0.90007609288E+02  0.89999868930E+02 0.  0.
        -12    1    1    2    0    0 -0.64017967954E+00 -0.81979378944E-01 -0.98831755666E+00  0.11803907122E+01  0.00000000000E+00 0.  1.
         11    1    3    3    0    0 -0.66917183259E+01 -0.13789092041E+01  0.47360226682E+01  0.83132662487E+01  0.51100000000E-03 0. -1.
        -11    1    3    3    0    0 -0.10234172108E+02  0.20219750496E+02 -0.34711786802E+02  0.41454610505E+02  0.51100000000E-03 0.  1.
         12    1    3    3    0    0  0.17566070114E+02 -0.18758861913E+02  0.30964081690E+02  0.40239732534E+02  0.00000000000E+00 0. -1.
</event>
<event>
 7    1  0.2349719E-015  0.9000762E+02  0.7816164E-02  0.1186339E+00
        -11   -1    0    0    0    0  0.00000000000E+00  0.00000000000E+00  0.45593999997E+02  0.45594000000E+02  0.51100000000E-03 0.  1.
         11   -1    0    0    0    0 -0.00000000000E+00 -0.00000000000E+00 -0.45593999997E+02  0.45594000000E+02  0.51100000000E-03 0. -1.
    9900012    2    1    2    0    0 -0.30710677246E+00  0.11025300173E+01 -0.28881016709E+00  0.90007619417E+02  0.89999879193E+02 0.  0.
        -12    1    1    2    0    0  0.30710677246E+00 -0.11025300173E+01  0.28881016709E+00  0.11803805832E+01  0.00000000000E+00 0.  1.
         11    1    3    3    0    0 -0.34711461855E+02 -0.15524327339E+02 -0.52485854643E+01  0.38385387494E+02  0.51100000000E-03 0. -1.
        -11    1    3    3    0    0 -0.46280489234E+01  0.23427070421E+01  0.84466177371E+01  0.99122381216E+01  0.51100000000E-03 0.  1.
        -12    1    3    3    0    0  0.39032404006E+02  0.14284150315E+02 -0.34868424399E+01  0.41709993801E+02  0.00000000000E+00 0.  1.
</event>
