<event>
 7    1  0.3861961E-015  0.9000779E+02  0.7816164E-02  0.1186339E+00
        -11   -1    0    0    0    0  0.00000000000E+00  0.00000000000E+00  0.45593999997E+02  0.45594000000E+02  0.51100000000E-03 0.  1.
         11   -1    0    0    0    0 -0.00000000000E+00 -0.00000000000E+00 -0.45593999997E+02  0.45594000000E+02  0.51100000000E-03 0. -1.
    9900012    2    1    2    0    0  0.33980930306E+00 -0.16997344444E-01 -0.11301033146E+01  0.90007791216E+02  0.90000053260E+02 0.  0.
        -12    1    1    2    0    0 -0.33980930306E+00  0.16997344444E-01  0.11301033146E+01  0.11802087840E+01  0.00000000000E+00 0.  1.
         11    1    3    3    0    0 -0.32144776558E+02  0.19184996805E+01 -0.27246280161E+02  0.42182070645E+02  0.51100000000E-03 0. -1.
        -11    1    3    3    0    0  0.29622788713E+01 -0.84397725514E+01  0.20269991019E+01  0.91713457274E+01  0.51100000000E-03 0.  1.
        -12    1    3    3    0    0  0.29522306990E+02  0.65042755265E+01  0.24089177745E+02  0.38654374844E+02  0.00000000000E+00 0.  1.
</event>
<event>
 7    1  0.4659443E-015  0.9000772E+02  0.7816164E-02  0.1186339E+00
        -11   -1    0    0    0    0  0.00000000000E+00  0.00000000000E+00  0.45593999997E+02  0.45594000000E+02  0.51100000000E-03 0. -1.
         11   -1    0    0    0    0 -0.00000000000E+00 -0.00000000000E+00 -0.45593999997E+02  0.45594000000E+02  0.51100000000E-03 0.  1.
    9900012    2    1    2    0    0  0.55966096805E+00  0.46694388223E+00  0.92833455758E+00  0.90007719508E+02  0.89999980606E+02 0.  0.
        -12    1    1    2    0    0 -0.55966096805E+00 -0.46694388223E+00 -0.92833455758E+00  0.11802804917E+01  0.00000000000E+00 0.  1.
         11    1    3    3    0    0 -0.52957678983E+01 -0.42115781112E+01  0.63491640104E+01  0.92787085153E+01  0.51100000000E-03 0. -1.
        -11    1    3    3    0    0 -0.65981537611E+01 -0.32977236613E+02 -0.19219805168E+02  0.38735444733E+02  0.51100000000E-03 0.  1.
         12    1    3    3    0    0  0.12453582628E+02  0.37655758606E+02  0.13798975715E+02  0.41993566260E+02  0.00000000000E+00 0. -1.
</event>
<event>
 7    1  0.3861961E-015  0.9000774E+02  0.7816164E-02  0.1186339E+00
        -11   -1    0    0    0    0  0.00000000000E+00  0.00000000000E+00  0.45593999997E+02  0.45594000000E+02  0.51100000000E-03 0.  1.
         11   -1    0    0    0    0 -0.00000000000E+00 -0.00000000000E+00 -0.45593999997E+02  0.45594000000E+02  0.51100000000E-03 0. -1.
    9900012    2    1    2    0    0 -0.85559444067E-01 -0.12113526365E-01 -0.11770928832E+01  0.90007739515E+02  0.90000000877E+02 0.  0.
        -12    1    1    2    0    0  0.85559444067E-01  0.12113526365E-01  0.11770928832E+01  0.11802604847E+01  0.00000000000E+00 0.  1.
         11    1    3    3    0    0  0.33275107966E+02 -0.15390569129E+02 -0.15112891689E+02  0.39654784374E+02  0.51100000000E-03 0. -1.
        -11    1    3    3    0    0  0.31675776645E+01  0.72987907043E+01 -0.39535560830E+01  0.88846215434E+01  0.51100000000E-03 0.  1.
        -12    1    3    3    0    0 -0.36528245075E+02  0.80796648981E+01  0.17889354888E+02  0.41468333598E+02  0.00000000000E+00 0.  1.
</event>
<event>
 7    1  0.3861961E-015  0.9000780E+02  0.7816164E-02  0.1186339E+00
        -11   -1    0    0    0    0  0.00000000000E+00  0.00000000000E+00  0.45593999997E+02  0.45594000000E+02  0.51100000000E-03 0.  1.
         11   -1    0    0    0    0 -0.00000000000E+00 -0.00000000000E+00 -0.45593999997E+02  0.45594000000E+02  0.51100000000E-03 0. -1.
    9900012    2    1    2    0    0 -0.93860699795E+00  0.62375133275E+00 -0.35044608737E+00  0.90007804558E+02  0.90000066778E+02 0.  0.
        -12    1    1    2    0    0  0.93860699795E+00 -0.62375133275E+00  0.35044608737E+00  0.11801954422E+01  0.00000000000E+00 0.  1.
         11    1    3    3    0    0 -0.14945152872E+01 -0.10778754461E+02 -0.35346570370E+02  0.36983714806E+02  0.51100000000E-03 0. -1.
        -11    1    3    3    0    0 -0.37682278074E+01 -0.63115460848E+01 -0.51200949666E+01  0.89582658767E+01  0.51100000000E-03 0.  1.
        -12    1    3    3    0    0  0.43241360967E+01  0.17714051878E+02  0.40116219249E+02  0.44065823875E+02  0.00000000000E+00 0.  1.
</event>
<event>
 7    1  0.3861961E-015  0.9000763E+02  0.7816164E-02  0.1186339E+00
        -11   -1    0    0    0    0  0.00000000000E+00  0.00000000000E+00  0.45593999997E+02  0.45594000000E+02  0.51100000000E-03 0.  1.
         11   -1    0    0    0    0 -0.00000000000E+00 -0.00000000000E+00 -0.45593999997E+02  0.45594000000E+02  0.51100000000E-03 0. -1.
    9900012    2    1    2    0    0 -0.40155736647E+00 -0.91556918552E+00  0.62750723134E+00  0.90007626933E+02  0.89999886808E+02 0.  0.
        -12    1    1    2    0    0  0.40155736647E+00  0.91556918552E+00 -0.62750723134E+00  0.11803730671E+01  0.00000000000E+00 0.  1.
         11    1    3    3    0    0  0.14852765371E+01  0.22852755851E+01  0.76858644054E+01  0.81548171537E+01  0.51100000000E-03 0. -1.
        -11    1    3    3    0    0 -0.15480611178E+02  0.42516985012E+01  0.34198676427E+02  0.37779302960E+02  0.51100000000E-03 0.  1.
         12    1    3    3    0    0  0.13593777274E+02 -0.74525432718E+01 -0.41257033601E+02  0.44073506819E+02  0.00000000000E+00 0. -1.
</event>
<event>
 7    1  0.3861961E-015  0.9000781E+02  0.7816164E-02  0.1186339E+00
        -11   -1    0    0    0    0  0.00000000000E+00  0.00000000000E+00  0.45593999997E+02  0.45594000000E+02  0.51100000000E-03 0.  1.
         11   -1    0    0    0    0 -0.00000000000E+00 -0.00000000000E+00 -0.45593999997E+02  0.45594000000E+02  0.51100000000E-03 0. -1.
    9900012    2    1    2    0    0 -0.29597539590E-01 -0.25733730892E+00 -0.11514140410E+01  0.90007808152E+02  0.90000070419E+02 0.  0.
        -12    1    1    2    0    0  0.29597539590E-01  0.25733730892E+00  0.11514140410E+01  0.11801918483E+01  0.00000000000E+00 0.  1.
         11    1    3    3    0    0 -0.10640469874E+02  0.10709806296E+02 -0.33066123512E+02  0.36349526468E+02  0.51100000000E-03 0. -1.
        -11    1    3    3    0    0 -0.17097149740E+01  0.51272435466E+01 -0.75545281158E+01  0.92888452992E+01  0.51100000000E-03 0.  1.
        -12    1    3    3    0    0  0.12320587309E+02 -0.16094387151E+02  0.39469237587E+02  0.44369436385E+02  0.00000000000E+00 0.  1.
</event>
<event>
 7    1  0.3861961E-015  0.9000772E+02  0.7816164E-02  0.1186339E+00
        -11   -1    0    0    0    0  0.00000000000E+00  0.00000000000E+00  0.45593999997E+02  0.45594000000E+02  0.51100000000E-03 0. -1.
         11   -1    0    0    0    0 -0.00000000000E+00 -0.00000000000E+00 -0.45593999997E+02  0.45594000000E+02  0.51100000000E-03 0.  1.
    9900012    2    1    2    0    0  0.86870041281E-01 -0.21821767203E+00  0.11566716051E+01  0.90007722677E+02  0.89999983817E+02 0.  0.
        -12    1    1    2    0    0 -0.86870041281E-01  0.21821767203E+00 -0.11566716051E+01  0.11802773227E+01  0.00000000000E+00 0.  1.
         11    1    3    3    0    0 -0.57645820634E+01  0.55440191518E+00  0.72012541271E+01  0.92409863713E+01  0.51100000000E-03 0. -1.
        -11    1    3    3    0    0  0.21722689302E+02 -0.25137763375E+02  0.22415985836E+02  0.40078158631E+02  0.51100000000E-03 0.  1.
         12    1    3    3    0    0 -0.15871237197E+02  0.24365143787E+02 -0.28460568358E+02  0.40688577675E+02  0.00000000000E+00 0. -1.
</event>
<event>
 7    1  0.3861961E-015  0.9000755E+02  0.7816164E-02  0.1186339E+00
        -11   -1    0    0    0    0  0.00000000000E+00  0.00000000000E+00  0.45593999997E+02  0.45594000000E+02  0.51100000000E-03 0. -1.
         11   -1    0    0    0    0 -0.00000000000E+00 -0.00000000000E+00 -0.45593999997E+02  0.45594000000E+02  0.51100000000E-03 0.  1.
    9900012    2    1    2    0    0 -0.11017979188E+01  0.35607586354E+00  0.22957621691E+00  0.90007553511E+02  0.89999812417E+02 0.  0.
        -12    1    1    2    0    0  0.11017979188E+01 -0.35607586354E+00 -0.22957621691E+00  0.11804464892E+01  0.00000000000E+00 0.  1.
         11    1    3    3    0    0 -0.50797092420E+01 -0.34637962219E+00  0.80070474349E+01  0.94887424726E+01  0.51100000000E-03 0. -1.
        -11    1    3    3    0    0 -0.28785148552E+02  0.23158132311E+02 -0.15484351679E+02  0.40058070554E+02  0.51100000000E-03 0.  1.
         12    1    3    3    0    0  0.32763059876E+02 -0.22455676826E+02  0.77068804606E+01  0.40460740484E+02  0.00000000000E+00 0. -1.
</event>
<event>
 7    1  0.3861961E-015  0.9000772E+02  0.7816164E-02  0.1186339E+00
        -11   -1    0    0    0    0  0.00000000000E+00  0.00000000000E+00  0.45593999997E+02  0.45594000000E+02  0.51100000000E-03 0. -1.
         11   -1    0    0    0    0 -0.00000000000E+00 -0.00000000000E+00 -0.45593999997E+02  0.45594000000E+02  0.51100000000E-03 0.  1.
    9900012    2    1    2    0    0  0.28313529065E+00 -0.17350767260E+00  0.11325987030E+01  0.90007724470E+02  0.89999985633E+02 0.  0.
        -12    1    1    2    0    0 -0.28313529065E+00  0.17350767260E+00 -0.11325987030E+01  0.11802755303E+01  0.00000000000E+00 0.  1.
         11    1    3    3    0    0 -0.13112427953E+02  0.20448300165E-01 -0.77366877827E+00  0.13135248326E+02  0.51100000000E-03 0. -1.
        -11    1    3    3    0    0 -0.13919530149E+02  0.86128031185E+01 -0.29865812072E+02  0.34057310935E+02  0.51100000000E-03 0.  1.
         12    1    3    3    0    0  0.27315093392E+02 -0.88067590913E+01  0.31772079553E+02  0.42815165209E+02  0.00000000000E+00 0. -1.
</event>
<event>
 7    1  0.3861961E-015  0.9000774E+02  0.7816164E-02  0.1186339E+00
        -11   -1    0    0    0    0  0.00000000000E+00  0.00000000000E+00  0.45593999997E+02  0.45594000000E+02  0.51100000000E-03 0.  1.
         11   -1    0    0    0    0 -0.00000000000E+00 -0.00000000000E+00 -0.45593999997E+02  0.45594000000E+02  0.51100000000E-03 0. -1.
    9900012    2    1    2    0    0 -0.47492431622E+00 -0.98399008259E+00 -0.44634825958E+00  0.90007738860E+02  0.90000000213E+02 0.  0.
        -12    1    1    2    0    0  0.47492431622E+00  0.98399008259E+00  0.44634825958E+00  0.11802611396E+01  0.00000000000E+00 0.  1.
         11    1    3    3    0    0  0.43730756423E+01 -0.29818166574E+02 -0.26796477024E+02  0.40327385603E+02  0.51100000000E-03 0. -1.
        -11    1    3    3    0    0 -0.99903495122E+01  0.67632038456E+00 -0.10349741613E+01  0.10066561698E+02  0.51100000000E-03 0.  1.
        -12    1    3    3    0    0  0.51423495538E+01  0.28157856107E+02  0.27385102926E+02  0.39613791560E+02  0.00000000000E+00 0.  1.
</event>
<event>
 7    1  0.3861961E-015  0.9000770E+02  0.7816164E-02  0.1186339E+00
        -11   -1    0    0    0    0  0.00000000000E+00  0.00000000000E+00  0.45593999997E+02  0.45594000000E+02  0.51100000000E-03 0.  1.
         11   -1    0    0    0    0 -0.00000000000E+00 -0.00000000000E+00 -0.45593999997E+02  0.45594000000E+02  0.51100000000E-03 0. -1.
    9900012    2    1    2    0    0 -0.10933970738E+01  0.43753505484E+00  0.78508296558E-01  0.90007695955E+02  0.89999956742E+02 0.  0.
        -12    1    1    2    0    0  0.10933970738E+01 -0.43753505484E+00 -0.78508296558E-01  0.11803040446E+01  0.00000000000E+00 0.  1.
         11    1    3    3    0    0 -0.32610437188E+02  0.44308408081E+01  0.87376187987E+01  0.34050241502E+02  0.51100000000E-03 0. -1.
        -11    1    3    3    0    0  0.10413763767E+01  0.16141557160E+02  0.50469274945E+01  0.16944196933E+02  0.51100000000E-03 0.  1.
        -12    1    3    3    0    0  0.30475663737E+02 -0.20134862913E+02 -0.13706037997E+02  0.39013257520E+02  0.00000000000E+00 0.  1.
</event>
<event>
 7    1  0.3861961E-015  0.9000764E+02  0.7816164E-02  0.1186339E+00
        -11   -1    0    0    0    0  0.00000000000E+00  0.00000000000E+00  0.45593999997E+02  0.45594000000E+02  0.51100000000E-03 0. -1.
         11   -1    0    0    0    0 -0.00000000000E+00 -0.00000000000E+00 -0.45593999997E+02  0.45594000000E+02  0.51100000000E-03 0.  1.
    9900012    2    1    2    0    0 -0.77741923948E+00 -0.17867992538E+00 -0.87001797423E+00  0.90007644772E+02  0.89999904883E+02 0.  0.
        -12    1    1    2    0    0  0.77741923948E+00  0.17867992538E+00  0.87001797423E+00  0.11803552284E+01  0.00000000000E+00 0.  1.
         11    1    3    3    0    0 -0.19591032992E+01  0.35776130817E+01  0.89732099905E+01  0.98567691915E+01  0.51100000000E-03 0. -1.
        -11    1    3    3    0    0  0.65797630993E+01  0.37259303558E+02 -0.83965053303E+01  0.38756293503E+02  0.51100000000E-03 0.  1.
         12    1    3    3    0    0 -0.53980790396E+01 -0.41015596565E+02 -0.14467226344E+01  0.41394582077E+02  0.00000000000E+00 0. -1.
</event>
<event>
 7    1  0.3861961E-015  0.9000782E+02  0.7816164E-02  0.1186339E+00
        -11   -1    0    0    0    0  0.00000000000E+00  0.00000000000E+00  0.45593999997E+02  0.45594000000E+02  0.51100000000E-03 0. -1.
         11   -1    0    0    0    0 -0.00000000000E+00 -0.00000000000E+00 -0.45593999997E+02  0.45594000000E+02  0.51100000000E-03 0.  1.
    9900012    2    1    2    0    0 -0.76756137150E+00  0.77626211291E+00  0.44843743934E+00  0.90007818038E+02  0.90000080436E+02 0.  0.
        -12    1    1    2    0    0  0.76756137150E+00 -0.77626211291E+00 -0.44843743934E+00  0.11801819622E+01  0.00000000000E+00 0.  1.
         11    1    3    3    0    0  0.18689176086E+01  0.12518476050E+01  0.90504293580E+01  0.93257840034E+01  0.51100000000E-03 0. -1.
        -11    1    3    3    0    0  0.30453778833E+02  0.23403407282E+02 -0.10545930720E+02  0.39829245193E+02  0.51100000000E-03 0.  1.
         12    1    3    3    0    0 -0.33090257813E+02 -0.23878992774E+02  0.19439388013E+01  0.40852788841E+02  0.00000000000E+00 0. -1.
</event>
<event>
 7    1  0.3861961E-015  0.9000776E+02  0.7816164E-02  0.1186339E+00
        -11   -1    0    0    0    0  0.00000000000E+00  0.00000000000E+00  0.45593999997E+02  0.45594000000E+02  0.51100000000E-03 0. -1.
         11   -1    0    0    0    0 -0.00000000000E+00 -0.00000000000E+00 -0.45593999997E+02  0.45594000000E+02  0.51100000000E-03 0.  1.
    9900012    2    1    2    0    0  0.70286430792E+00 -0.94019029691E+00 -0.12245678954E+00  0.90007757781E+02  0.90000019384E+02 0.  0.
        -12    1    1    2    0    0 -0.70286430792E+00  0.94019029691E+00  0.12245678954E+00  0.11802422188E+01  0.00000000000E+00 0.  1.
         11    1    3    3    0    0 -0.60876180752E+01 -0.10224289705E+02 -0.65727425383E+00  0.11917516667E+02  0.51100000000E-03 0. -1.
        -11    1    3    3    0    0 -0.30617462804E+02  0.94613833583E+00 -0.17987859279E+02  0.35523052909E+02  0.51100000000E-03 0.  1.
         12    1    3    3    0    0  0.37407945187E+02  0.83379610722E+01  0.18522676743E+02  0.42567188205E+02  0.00000000000E+00 0. -1.
</event>
<event>
 7    1  0.3861961E-015  0.9000773E+02  0.7816164E-02  0.1186339E+00
        -11   -1    0    0    0    0  0.00000000000E+00  0.00000000000E+00  0.45593999997E+02  0.45594000000E+02  0.51100000000E-03 0.  1.
         11   -1    0    0    0    0 -0.00000000000E+00 -0.00000000000E+00 -0.45593999997E+02  0.45594000000E+02  0.51100000000E-03 0. -1.
    9900012    2    1    2    0    0  0.85747134259E+00 -0.35107378012E+00  0.73112124728E+00  0.90007725379E+02  0.89999986554E+02 0.  0.
        -12    1    1    2    0    0 -0.85747134259E+00  0.35107378012E+00 -0.73112124728E+00  0.11802746209E+01  0.00000000000E+00 0.  1.
         11    1    3    3    0    0  0.38094627626E+02 -0.96650012084E+01 -0.81938331902E+00  0.39310104192E+02  0.51100000000E-03 0. -1.
        -11    1    3    3    0    0  0.92083778469E-02 -0.33767327018E+01  0.99108154264E+01  0.10470275603E+02  0.51100000000E-03 0.  1.
        -12    1    3    3    0    0 -0.37246364661E+02  0.12690660130E+02 -0.83603108601E+01  0.40227345583E+02  0.00000000000E+00 0.  1.
</event>
<event>
 7    1  0.3861961E-015  0.9000772E+02  0.7816164E-02  0.1186339E+00
        -11   -1    0    0    0    0  0.00000000000E+00  0.00000000000E+00  0.45593999997E+02  0.45594000000E+02  0.51100000000E-03 0.  1.
         11   -1    0    0    0    0 -0.00000000000E+00 -0.00000000000E+00 -0.45593999997E+02  0.45594000000E+02  0.51100000000E-03 0. -1.
    9900012    2    1    2    0    0 -0.70784707212E+00 -0.14505152428E+00 -0.93325578462E+00  0.90007723006E+02  0.89999984150E+02 0.  0.
        -12    1    1    2    0    0  0.70784707212E+00  0.14505152428E+00  0.93325578462E+00  0.11802769936E+01  0.00000000000E+00 0.  1.
         11    1    3    3    0    0  0.13370776963E+01 -0.24821106234E+01  0.84292215501E+01  0.88882183881E+01  0.51100000000E-03 0. -1.
        -11    1    3    3    0    0  0.38206601142E+02  0.98514294142E+01 -0.19294487601E+01  0.39503389793E+02  0.51100000000E-03 0.  1.
         12    1    3    3    0    0 -0.40251525911E+02 -0.75143703151E+01 -0.74330285746E+01  0.41616114825E+02  0.00000000000E+00 0. -1.
</event>
<event>
 7    1  0.3861961E-015  0.9000829E+02  0.7816164E-02  0.1186338E+00
        -11   -1    0    0    0    0  0.00000000000E+00  0.00000000000E+00  0.45593999997E+02  0.45594000000E+02  0.51100000000E-03 0. -1.
         11   -1    0    0    0    0 -0.00000000000E+00 -0.00000000000E+00 -0.45593999997E+02  0.45594000000E+02  0.51100000000E-03 0.  1.
    9900012    2    1    2    0    0 -0.31393181415E+00 -0.47380948190E+00  0.10337656155E+01  0.90008288189E+02  0.90000556791E+02 0.  0.
        -12    1    1    2    0    0  0.31393181415E+00  0.47380948190E+00 -0.10337656155E+01  0.11797118109E+01  0.00000000000E+00 0.  1.
         11    1    3    3    0    0  0.28436698055E+02 -0.72478648378E+00  0.26492001919E+02  0.38871548434E+02  0.51100000000E-03 0. -1.
        -11    1    3    3    0    0  0.12390425274E+01  0.10340053019E+02  0.17475336687E+00  0.10415491434E+02  0.51100000000E-03 0.  1.
        -12    1    3    3    0    0 -0.29989672397E+02 -0.10089076017E+02 -0.25632989670E+02  0.40721248321E+02  0.00000000000E+00 0.  1.
</event>
<event>
 7    1  0.3861961E-015  0.9000743E+02  0.7816164E-02  0.1186340E+00
        -11   -1    0    0    0    0  0.00000000000E+00  0.00000000000E+00  0.45593999997E+02  0.45594000000E+02  0.51100000000E-03 0.  1.
         11   -1    0    0    0    0 -0.00000000000E+00 -0.00000000000E+00 -0.45593999997E+02  0.45594000000E+02  0.51100000000E-03 0. -1.
    9900012    2    1    2    0    0  0.63849508944E+00  0.37480486645E+00 -0.91955982936E+00  0.90007430245E+02  0.89999687523E+02 0.  0.
        -12    1    1    2    0    0 -0.63849508944E+00 -0.37480486645E+00  0.91955982936E+00  0.11805697552E+01  0.00000000000E+00 0.  1.
         11    1    3    3    0    0  0.10154736881E+02 -0.87789670109E+00  0.37223891124E+01  0.10851062837E+02  0.51100000000E-03 0. -1.
        -11    1    3    3    0    0  0.52614848544E+01  0.38541870183E+02 -0.16508452953E+01  0.38934358484E+02  0.51100000000E-03 0.  1.
         12    1    3    3    0    0 -0.14777726646E+02 -0.37289168616E+02 -0.29911036464E+01  0.40222008924E+02  0.00000000000E+00 0. -1.
</event>
<event>
 7    1  0.3861961E-015  0.9000769E+02  0.7816164E-02  0.1186339E+00
        -11   -1    0    0    0    0  0.00000000000E+00  0.00000000000E+00  0.45593999997E+02  0.45594000000E+02  0.51100000000E-03 0. -1.
         11   -1    0    0    0    0 -0.00000000000E+00 -0.00000000000E+00 -0.45593999997E+02  0.45594000000E+02  0.51100000000E-03 0.  1.
    9900012    2    1    2    0    0  0.68672083328E-01  0.11771319060E+01  0.52747708323E-01  0.90007687457E+02  0.89999948131E+02 0.  0.
        -12    1    1    2    0    0 -0.68672083328E-01 -0.11771319060E+01 -0.52747708323E-01  0.11803125434E+01  0.00000000000E+00 0.  1.
         11    1    3    3    0    0 -0.18978801789E+01 -0.10037169728E+02 -0.30394007259E+01  0.10657611475E+02  0.51100000000E-03 0. -1.
        -11    1    3    3    0    0 -0.13404256887E+02 -0.30590753465E+02  0.85500329271E+01  0.34475663352E+02  0.51100000000E-03 0.  1.
         12    1    3    3    0    0  0.15370809149E+02  0.41805055099E+02 -0.54578844928E+01  0.44874412630E+02  0.00000000000E+00 0. -1.
</event>
<event>
 7    1  0.3861961E-015  0.9000757E+02  0.7816164E-02  0.1186339E+00
        -11   -1    0    0    0    0  0.00000000000E+00  0.00000000000E+00  0.45593999997E+02  0.45594000000E+02  0.51100000000E-03 0. -1.
         11   -1    0    0    0    0 -0.00000000000E+00 -0.00000000000E+00 -0.45593999997E+02  0.45594000000E+02  0.51100000000E-03 0.  1.
    9900012    2    1    2    0    0 -0.87509413113E+00 -0.65942875131E+00 -0.43906498138E+00  0.90007570386E+02  0.89999829515E+02 0.  0.
        -12    1    1    2    0    0  0.87509413113E+00  0.65942875131E+00  0.43906498138E+00  0.11804296143E+01  0.00000000000E+00 0.  1.
         11    1    3    3    0    0 -0.77170861552E-02  0.61652100304E+01  0.76373580319E+01  0.98152489648E+01  0.51100000000E-03 0. -1.
        -11    1    3    3    0    0 -0.30936758823E+02 -0.76609978342E+01 -0.29367806179E+02  0.43338689116E+02  0.51100000000E-03 0.  1.
         12    1    3    3    0    0  0.30069381778E+02  0.83635905251E+00  0.21291383165E+02  0.36853632305E+02  0.00000000000E+00 0. -1.
</event>
<event>
 7    1  0.3861961E-015  0.9000682E+02  0.7816164E-02  0.1186341E+00
        -11   -1    0    0    0    0  0.00000000000E+00  0.00000000000E+00  0.45593999997E+02  0.45594000000E+02  0.51100000000E-03 0. -1.
         11   -1    0    0    0    0 -0.00000000000E+00 -0.00000000000E+00 -0.45593999997E+02  0.45594000000E+02  0.51100000000E-03 0.  1.
    9900012    2    1    2    0    0  0.10329858984E+01 -0.45459043444E+00  0.34852622435E+00  0.90006821411E+02  0.89999070649E+02 0.  0.
        -12    1    1    2    0    0 -0.10329858984E+01  0.45459043444E+00 -0.34852622435E+00  0.11811785887E+01  0.00000000000E+00 0.  1.
         11    1    3    3    0    0  0.84646396069E+01  0.17012803385E+02 -0.67114258584E+01  0.20152638537E+02  0.51100000000E-03 0. -1.
        -11    1    3    3    0    0 -0.23675797300E+02  0.18287338853E+02 -0.20138942131E+00  0.29916729401E+02  0.51100000000E-03 0.  1.
         12    1    3    3    0    0  0.16244143591E+02 -0.35754732672E+02  0.72613415041E+01  0.39937453473E+02  0.00000000000E+00 0. -1.
</event>
<event>
 7    1  0.3861961E-015  0.9000771E+02  0.7816164E-02  0.1186339E+00
        -11   -1    0    0    0    0  0.00000000000E+00  0.00000000000E+00  0.45593999997E+02  0.45594000000E+02  0.51100000000E-03 0.  1.
         11   -1    0    0    0    0 -0.00000000000E+00 -0.00000000000E+00 -0.45593999997E+02  0.45594000000E+02  0.51100000000E-03 0. -1.
    9900012    2    1    2    0    0 -0.93047964172E+00  0.67643486699E+00 -0.26405702523E+00  0.90007710796E+02  0.89999971778E+02 0.  0.
        -12    1    1    2    0    0  0.93047964172E+00 -0.67643486699E+00  0.26405702523E+00  0.11802892042E+01  0.00000000000E+00 0.  1.
         11    1    3    3    0    0 -0.65921651512E+01 -0.50057489267E+01  0.58760768873E+01  0.10150982393E+02  0.51100000000E-03 0. -1.
        -11    1    3    3    0    0 -0.55760635180E+01  0.41256915254E+02 -0.84380574156E+01  0.42478539922E+02  0.51100000000E-03 0.  1.
         12    1    3    3    0    0  0.11237749028E+02 -0.35574731461E+02  0.22979235030E+01  0.37378188481E+02  0.00000000000E+00 0. -1.
</event>
<event>
 7    1  0.3861961E-015  0.9000772E+02  0.7816164E-02  0.1186339E+00
        -11   -1    0    0    0    0  0.00000000000E+00  0.00000000000E+00  0.45593999997E+02  0.45594000000E+02  0.51100000000E-03 0.  1.
         11   -1    0    0    0    0 -0.00000000000E+00 -0.00000000000E+00 -0.45593999997E+02  0.45594000000E+02  0.51100000000E-03 0. -1.
    9900012    2    1    2    0    0 -0.56319312807E+00  0.19423067647E+00 -0.10188957961E+01  0.90007720076E+02  0.89999981181E+02 0.  0.
        -12    1    1    2    0    0  0.56319312807E+00 -0.19423067647E+00  0.10188957961E+01  0.11802799238E+01  0.00000000000E+00 0.  1.
         11    1    3    3    0    0  0.85352167421E+01  0.73994602416E+00 -0.41767185482E+01  0.95311291590E+01  0.51100000000E-03 0. -1.
        -11    1    3    3    0    0  0.15797101361E+02  0.31843308972E+02 -0.11051193140E+02  0.37224637107E+02  0.51100000000E-03 0.  1.
         12    1    3    3    0    0 -0.24895511231E+02 -0.32389024319E+02  0.14209015892E+02  0.43251953810E+02  0.00000000000E+00 0. -1.
</event>
<event>
 7    1  0.3861961E-015  0.9000779E+02  0.7816164E-02  0.1186339E+00
        -11   -1    0    0    0    0  0.00000000000E+00  0.00000000000E+00  0.45593999997E+02  0.45594000000E+02  0.51100000000E-03 0. -1.
         11   -1    0    0    0    0 -0.00000000000E+00 -0.00000000000E+00 -0.45593999997E+02  0.45594000000E+02  0.51100000000E-03 0.  1.
    9900012    2    1    2    0    0 -0.35309563082E+00  0.92335699757E+00  0.64469027366E+00  0.90007792299E+02  0.90000054357E+02 0.  0.
        -12    1    1    2    0    0  0.35309563082E+00 -0.92335699757E+00 -0.64469027366E+00  0.11802077014E+01  0.00000000000E+00 0.  1.
         11    1    3    3    0    0 -0.79863198297E+01  0.20125524622E+01 -0.17976085213E+01  0.84298913689E+01  0.51100000000E-03 0. -1.
        -11    1    3    3    0    0 -0.18615575224E+02 -0.57969213821E+01 -0.32331726919E+02  0.37755589046E+02  0.51100000000E-03 0.  1.
         12    1    3    3    0    0  0.26248799423E+02  0.47077259175E+01  0.34774025714E+02  0.43822311883E+02  0.00000000000E+00 0. -1.
</event>
<event>
 7    1  0.3861961E-015  0.9000773E+02  0.7816164E-02  0.1186339E+00
        -11   -1    0    0    0    0  0.00000000000E+00  0.00000000000E+00  0.45593999997E+02  0.45594000000E+02  0.51100000000E-03 0.  1.
         11   -1    0    0    0    0 -0.00000000000E+00 -0.00000000000E+00 -0.45593999997E+02  0.45594000000E+02  0.51100000000E-03 0. -1.
    9900012    2    1    2    0    0 -0.86383302926E+00 -0.32779177178E+00 -0.73442574850E+00  0.90007730485E+02  0.89999991727E+02 0.  0.
        -12    1    1    2    0    0  0.86383302926E+00  0.32779177178E+00  0.73442574850E+00  0.11802695150E+01  0.00000000000E+00 0.  1.
         11    1    3    3    0    0  0.17852329961E+02  0.33019023933E+02  0.95933699752E+01  0.38742668652E+02  0.51100000000E-03 0. -1.
        -11    1    3    3    0    0  0.24060146555E+01  0.13735549726E+01 -0.10256917930E+02  0.10624496481E+02  0.51100000000E-03 0.  1.
        -12    1    3    3    0    0 -0.21122177646E+02 -0.34720370678E+02 -0.70877793826E-01  0.40640565352E+02  0.00000000000E+00 0.  1.
</event>
<event>
 7    1  0.3861961E-015  0.9000784E+02  0.7816164E-02  0.1186339E+00
        -11   -1    0    0    0    0  0.00000000000E+00  0.00000000000E+00  0.45593999997E+02  0.45594000000E+02  0.51100000000E-03 0.  1.
         11   -1    0    0    0    0 -0.00000000000E+00 -0.00000000000E+00 -0.45593999997E+02  0.45594000000E+02  0.51100000000E-03 0. -1.
    9900012    2    1    2    0    0 -0.37421380507E+00 -0.11050999573E+01 -0.17748596993E+00  0.90007837657E+02  0.90000100314E+02 0.  0.
        -12    1    1    2    0    0  0.37421380507E+00  0.11050999573E+01  0.17748596993E+00  0.11801623435E+01  0.00000000000E+00 0.  1.
         11    1    3    3    0    0 -0.24755834897E+02 -0.14040502425E+02 -0.26735279242E+02  0.39048203880E+02  0.51100000000E-03 0. -1.
        -11    1    3    3    0    0 -0.18238039700E+01 -0.89416836527E+01  0.35445850925E+01  0.97899975079E+01  0.51100000000E-03 0.  1.
        -12    1    3    3    0    0  0.26205425062E+02  0.21877086120E+02  0.23013208180E+02  0.41169636269E+02  0.00000000000E+00 0.  1.
</event>
<event>
 7    1  0.3861961E-015  0.9000837E+02  0.7816164E-02  0.1186338E+00
        -11   -1    0    0    0    0  0.00000000000E+00  0.00000000000E+00  0.45593999997E+02  0.45594000000E+02  0.51100000000E-03 0. -1.
         11   -1    0    0    0    0 -0.00000000000E+00 -0.00000000000E+00 -0.45593999997E+02  0.45594000000E+02  0.51100000000E-03 0.  1.
    9900012    2    1    2    0    0  0.42105981101E+00 -0.99005121270E+00  0.48378223408E+00  0.90008365303E+02  0.90000634923E+02 0.  0.
        -12    1    1    2    0    0 -0.42105981101E+00  0.99005121270E+00 -0.48378223408E+00  0.11796346969E+01  0.00000000000E+00 0.  1.
         11    1    3    3    0    0  0.12902207523E+00 -0.46519803022E+01  0.66228622938E+01  0.80944346715E+01  0.51100000000E-03 0. -1.
        -11    1    3    3    0    0  0.38492871211E+02 -0.67307421096E+01 -0.14079929776E+02  0.41536110147E+02  0.51100000000E-03 0.  1.
         12    1    3    3    0    0 -0.38200833475E+02  0.10392671199E+02  0.79408497166E+01  0.40377820484E+02  0.00000000000E+00 0. -1.
</event>
<event>
 7    1  0.3861961E-015  0.9000774E+02  0.7816164E-02  0.1186339E+00
        -11   -1    0    0    0    0  0.00000000000E+00  0.00000000000E+00  0.45593999997E+02  0.45594000000E+02  0.51100000000E-03 0.  1.
         11   -1    0    0    0    0 -0.00000000000E+00 -0.00000000000E+00 -0.45593999997E+02  0.45594000000E+02  0.51100000000E-03 0. -1.
    9900012    2    1    2    0    0  0.46449815188E+00 -0.10521151390E+01 -0.26514519674E+00  0.90007742920E+02  0.90000004327E+02 0.  0.
        -12    1    1    2    0    0 -0.46449815188E+00  0.10521151390E+01  0.26514519674E+00  0.11802570797E+01  0.00000000000E+00 0.  1.
         11    1    3    3    0    0 -0.69137673884E+01 -0.48621427954E+01 -0.35661799021E+02  0.36649754730E+02  0.51100000000E-03 0. -1.
        -11    1    3    3    0    0  0.67386519681E+01  0.32034160472E+01 -0.74255936465E+01  0.10526668323E+02  0.51100000000E-03 0.  1.
        -12    1    3    3    0    0  0.63961357218E+00  0.60661160915E+00  0.42822247471E+02  0.42831319868E+02  0.00000000000E+00 0.  1.
</event>
<event>
 7    1  0.3861961E-015  0.9000768E+02  0.7816164E-02  0.1186339E+00
        -11   -1    0    0    0    0  0.00000000000E+00  0.00000000000E+00  0.45593999997E+02  0.45594000000E+02  0.51100000000E-03 0. -1.
         11   -1    0    0    0    0 -0.00000000000E+00 -0.00000000000E+00 -0.45593999997E+02  0.45594000000E+02  0.51100000000E-03 0.  1.
    9900012    2    1    2    0    0  0.55828897237E+00 -0.10399335273E+01 -0.16530850214E-02  0.90007681801E+02  0.89999942401E+02 0.  0.
        -12    1    1    2    0    0 -0.55828897237E+00  0.10399335273E+01  0.16530850214E-02  0.11803181988E+01  0.00000000000E+00 0.  1.
         11    1    3    3    0    0  0.63269430922E+01 -0.34508634142E+02  0.22587774654E+02  0.41726293908E+02  0.51100000000E-03 0. -1.
        -11    1    3    3    0    0  0.76659767961E+01  0.37399666795E+01  0.12279858675E+00  0.85305117523E+01  0.51100000000E-03 0.  1.
        -12    1    3    3    0    0 -0.13434630916E+02  0.29728733935E+02 -0.22712226326E+02  0.39750876140E+02  0.00000000000E+00 0.  1.
</event>
<event>
 7    1  0.3861961E-015  0.9000771E+02  0.7816164E-02  0.1186339E+00
        -11   -1    0    0    0    0  0.00000000000E+00  0.00000000000E+00  0.45593999997E+02  0.45594000000E+02  0.51100000000E-03 0. -1.
         11   -1    0    0    0    0 -0.00000000000E+00 -0.00000000000E+00 -0.45593999997E+02  0.45594000000E+02  0.51100000000E-03 0.  1.
    9900012    2    1    2    0    0  0.84919685299E+00 -0.22761056769E+00  0.78748497421E+00  0.90007714251E+02  0.89999975279E+02 0.  0.
        -12    1    1    2    0    0 -0.84919685299E+00  0.22761056769E+00 -0.78748497421E+00  0.11802857494E+01  0.00000000000E+00 0.  1.
         11    1    3    3    0    0 -0.20610948246E+02  0.30168766133E+02  0.12275944159E+02  0.38544317906E+02  0.51100000000E-03 0. -1.
        -11    1    3    3    0    0 -0.43810892999E+01  0.40757422156E+01 -0.51939612296E+01  0.79235630607E+01  0.51100000000E-03 0.  1.
        -12    1    3    3    0    0  0.25841234399E+02 -0.34472118917E+02 -0.62944979550E+01  0.43539833284E+02  0.00000000000E+00 0.  1.
</event>
<event>
 7    1  0.3861961E-015  0.9000774E+02  0.7816164E-02  0.1186339E+00
        -11   -1    0    0    0    0  0.00000000000E+00  0.00000000000E+00  0.45593999997E+02  0.45594000000E+02  0.51100000000E-03 0. -1.
         11   -1    0    0    0    0 -0.00000000000E+00 -0.00000000000E+00 -0.45593999997E+02  0.45594000000E+02  0.51100000000E-03 0.  1.
    9900012    2    1    2    0    0 -0.31602655209E+00  0.88616390157E+00  0.71264370662E+00  0.90007737193E+02  0.89999998523E+02 0.  0.
        -12    1    1    2    0    0  0.31602655209E+00 -0.88616390157E+00 -0.71264370662E+00  0.11802628074E+01  0.00000000000E+00 0.  1.
         11    1    3    3    0    0  0.61396990677E+01 -0.11931656794E+01 -0.66601619619E+01  0.91365916293E+01  0.51100000000E-03 0. -1.
        -11    1    3    3    0    0  0.33651481606E+02 -0.11328639428E+02 -0.70306095766E+01  0.36196543438E+02  0.51100000000E-03 0.  1.
         12    1    3    3    0    0 -0.40107207225E+02  0.13407969009E+02  0.14403415245E+02  0.44674602126E+02  0.00000000000E+00 0. -1.
</event>
<event>
 7    1  0.3861961E-015  0.9000773E+02  0.7816164E-02  0.1186339E+00
        -11   -1    0    0    0    0  0.00000000000E+00  0.00000000000E+00  0.45593999997E+02  0.45594000000E+02  0.51100000000E-03 0. -1.
         11   -1    0    0    0    0 -0.00000000000E+00 -0.00000000000E+00 -0.45593999997E+02  0.45594000000E+02  0.51100000000E-03 0.  1.
    9900012    2    1    2    0    0 -0.85961370149E+00 -0.71045245850E+00  0.38647692521E+00  0.90007727648E+02  0.89999988853E+02 0.  0.
        -12    1    1    2    0    0  0.85961370149E+00  0.71045245850E+00 -0.38647692521E+00  0.11802723522E+01  0.00000000000E+00 0.  1.
         11    1    3    3    0    0 -0.12742193013E+02 -0.24611135286E+02  0.24208212739E+02  0.36798220434E+02  0.51100000000E-03 0. -1.
        -11    1    3    3    0    0 -0.35175941790E+01 -0.73434168990E+01  0.35754466586E+01  0.88928656591E+01  0.51100000000E-03 0.  1.
        -12    1    3    3    0    0  0.15400173491E+02  0.31244099726E+02 -0.27397182473E+02  0.44316641555E+02  0.00000000000E+00 0.  1.
</event>
<event>
 7    1  0.3861961E-015  0.9000777E+02  0.7816164E-02  0.1186339E+00
        -11   -1    0    0    0    0  0.00000000000E+00  0.00000000000E+00  0.45593999997E+02  0.45594000000E+02  0.51100000000E-03 0.  1.
         11   -1    0    0    0    0 -0.00000000000E+00 -0.00000000000E+00 -0.45593999997E+02  0.45594000000E+02  0.51100000000E-03 0. -1.
    9900012    2    1    2    0    0  0.24014589349E+00  0.11555340140E+01 -0.48382421419E-02  0.90007765991E+02  0.90000027702E+02 0.  0.
        -12    1    1    2    0    0 -0.24014589349E+00 -0.11555340140E+01  0.48382421419E-02  0.11802340092E+01  0.00000000000E+00 0.  1.
         11    1    3    3    0    0  0.36079985558E+02 -0.66202591621E+00 -0.17326945356E+02  0.40030321905E+02  0.51100000000E-03 0. -1.
        -11    1    3    3    0    0  0.26469936156E+01  0.75465488346E+00  0.10527013042E+02  0.10880904514E+02  0.51100000000E-03 0.  1.
        -12    1    3    3    0    0 -0.38486833280E+02  0.10629050468E+01  0.67950940716E+01  0.39096539572E+02  0.00000000000E+00 0.  1.
</event>
<event>
 7    1  0.3861961E-015  0.9000766E+02  0.7816164E-02  0.1186339E+00
        -11   -1    0    0    0    0  0.00000000000E+00  0.00000000000E+00  0.45593999997E+02  0.45594000000E+02  0.51100000000E-03 0.  1.
         11   -1    0    0    0    0 -0.00000000000E+00 -0.00000000000E+00 -0.45593999997E+02  0.45594000000E+02  0.51100000000E-03 0. -1.
    9900012    2    1    2    0    0 -0.32795076496E+00 -0.10517869960E+01 -0.42355130438E+00  0.90007659669E+02  0.89999919977E+02 0.  0.
        -12    1    1    2    0    0  0.32795076496E+00  0.10517869960E+01  0.42355130438E+00  0.11803403309E+01  0.00000000000E+00 0.  1.
         11    1    3    3    0    0 -0.45971025462E+01 -0.46496533832E+01 -0.14555790902E+02  0.15956931956E+02  0.51100000000E-03 0. -1.
        -11    1    3    3    0    0  0.34824972297E+02  0.16999121165E+02  0.12208067198E+02  0.40629862427E+02  0.51100000000E-03 0.  1.
         12    1    3    3    0    0 -0.30555820516E+02 -0.13401254778E+02  0.19241723998E+01  0.33420865286E+02  0.00000000000E+00 0. -1.
</event>
<event>
 7    1  0.3861961E-015  0.9000775E+02  0.7816164E-02  0.1186339E+00
        -11   -1    0    0    0    0  0.00000000000E+00  0.00000000000E+00  0.45593999997E+02  0.45594000000E+02  0.51100000000E-03 0.  1.
         11   -1    0    0    0    0 -0.00000000000E+00 -0.00000000000E+00 -0.45593999997E+02  0.45594000000E+02  0.51100000000E-03 0. -1.
    9900012    2    1    2    0    0  0.10671025932E+01  0.26384583706E+00 -0.42973356441E+00  0.90007748541E+02  0.90000010022E+02 0.  0.
        -12    1    1    2    0    0 -0.10671025932E+01 -0.26384583706E+00  0.42973356441E+00  0.11802514591E+01  0.00000000000E+00 0.  1.
         11    1    3    3    0    0  0.95044124189E+01 -0.21699906619E+02  0.57550907879E+01  0.24379107304E+02  0.51100000000E-03 0. -1.
        -11    1    3    3    0    0  0.17246672725E+02 -0.99436837197E+01  0.91263636573E+01  0.21900115978E+02  0.51100000000E-03 0.  1.
         12    1    3    3    0    0 -0.25683982551E+02  0.31907436176E+02 -0.15311188010E+02  0.43728525258E+02  0.00000000000E+00 0. -1.
</event>
<event>
 7    1  0.3861961E-015  0.9000755E+02  0.7816164E-02  0.1186339E+00
        -11   -1    0    0    0    0  0.00000000000E+00  0.00000000000E+00  0.45593999997E+02  0.45594000000E+02  0.51100000000E-03 0. -1.
         11   -1    0    0    0    0 -0.00000000000E+00 -0.00000000000E+00 -0.45593999997E+02  0.45594000000E+02  0.51100000000E-03 0.  1.
    9900012    2    1    2    0    0  0.11556988023E+01  0.23902072294E+00 -0.26393501381E-01  0.90007547864E+02  0.89999806696E+02 0.  0.
        -12    1    1    2    0    0 -0.11556988023E+01 -0.23902072294E+00  0.26393501381E-01  0.11804521357E+01  0.00000000000E+00 0.  1.
         11    1    3    3    0    0  0.11234708070E+02 -0.30502997195E+02  0.18890969031E+02  0.37596811228E+02  0.51100000000E-03 0. -1.
        -11    1    3    3    0    0  0.67665528519E+01 -0.30012872259E+00  0.61115708287E+01  0.91229169131E+01  0.51100000000E-03 0.  1.
        -12    1    3    3    0    0 -0.16845562120E+02  0.31042146641E+02 -0.25028933361E+02  0.43287819723E+02  0.00000000000E+00 0.  1.
</event>
<event>
 7    1  0.3861961E-015  0.9000781E+02  0.7816164E-02  0.1186339E+00
        -11   -1    0    0    0    0  0.00000000000E+00  0.00000000000E+00  0.45593999997E+02  0.45594000000E+02  0.51100000000E-03 0.  1.
         11   -1    0    0    0    0 -0.00000000000E+00 -0.00000000000E+00 -0.45593999997E+02  0.45594000000E+02  0.51100000000E-03 0. -1.
    9900012    2    1    2    0    0 -0.21880127645E+00 -0.75108409093E+00  0.88364890660E+00  0.90007814972E+02  0.90000077330E+02 0.  0.
        -12    1    1    2    0    0  0.21880127645E+00  0.75108409093E+00 -0.88364890660E+00  0.11801850280E+01  0.00000000000E+00 0.  1.
         11    1    3    3    0    0  0.84160523502E+01  0.53226826670E+01 -0.90119414292E-01  0.99583638066E+01  0.51100000000E-03 0. -1.
        -11    1    3    3    0    0 -0.11842025031E+01  0.34663995279E+02  0.12815678261E+02  0.36976161426E+02  0.51100000000E-03 0.  1.
         12    1    3    3    0    0 -0.74506511236E+01 -0.40737762037E+02 -0.11841909940E+02  0.43073289739E+02  0.00000000000E+00 0. -1.
</event>
<event>
 7    1  0.3861961E-015  0.9000751E+02  0.7816164E-02  0.1186340E+00
        -11   -1    0    0    0    0  0.00000000000E+00  0.00000000000E+00  0.45593999997E+02  0.45594000000E+02  0.51100000000E-03 0.  1.
         11   -1    0    0    0    0 -0.00000000000E+00 -0.00000000000E+00 -0.45593999997E+02  0.45594000000E+02  0.51100000000E-03 0. -1.
    9900012    2    1    2    0    0  0.88998086378E+00 -0.26406595160E+00 -0.72921699301E+00  0.90007511039E+02  0.89999769384E+02 0.  0.
        -12    1    1    2    0    0 -0.88998086378E+00  0.26406595160E+00  0.72921699301E+00  0.11804889612E+01  0.00000000000E+00 0.  1.
         11    1    3    3    0    0 -0.25052496045E+01  0.16641067753E+02  0.59036577939E+01  0.17834084982E+02  0.51100000000E-03 0. -1.
        -11    1    3    3    0    0 -0.30856387783E+02 -0.18162812220E+02 -0.11383387167E+02  0.37571078218E+02  0.51100000000E-03 0.  1.
         12    1    3    3    0    0  0.34251618252E+02  0.12576785158E+01  0.47505123805E+01  0.34602347839E+02  0.00000000000E+00 0. -1.
</event>
<event>
 7    1  0.3861961E-015  0.9000772E+02  0.7816164E-02  0.1186339E+00
        -11   -1    0    0    0    0  0.00000000000E+00  0.00000000000E+00  0.45593999997E+02  0.45594000000E+02  0.51100000000E-03 0.  1.
         11   -1    0    0    0    0 -0.00000000000E+00 -0.00000000000E+00 -0.45593999997E+02  0.45594000000E+02  0.51100000000E-03 0. -1.
    9900012    2    1    2    0    0 -0.98265841779E+00  0.19693140500E+00 -0.62343514592E+00  0.90007715744E+02  0.89999976792E+02 0.  0.
        -12    1    1    2    0    0  0.98265841779E+00 -0.19693140500E+00  0.62343514592E+00  0.11802842562E+01  0.00000000000E+00 0.  1.
         11    1    3    3    0    0  0.10027348067E+02  0.12607717556E+01 -0.52812912553E+01  0.11403038729E+02  0.51100000000E-03 0. -1.
        -11    1    3    3    0    0 -0.11793149653E+02  0.37797476052E+02  0.20181736732E+01  0.39645940522E+02  0.51100000000E-03 0.  1.
         12    1    3    3    0    0  0.78314316798E+00 -0.38861316402E+02  0.26396824361E+01  0.38958736493E+02  0.00000000000E+00 0. -1.
</event>
<event>
 7    1  0.3861961E-015  0.9000773E+02  0.7816164E-02  0.1186339E+00
        -11   -1    0    0    0    0  0.00000000000E+00  0.00000000000E+00  0.45593999997E+02  0.45594000000E+02  0.51100000000E-03 0.  1.
         11   -1    0    0    0    0 -0.00000000000E+00 -0.00000000000E+00 -0.45593999997E+02  0.45594000000E+02  0.51100000000E-03 0. -1.
    9900012    2    1    2    0    0  0.19115277886E+00 -0.87398267277E+00 -0.76984338695E+00  0.90007727177E+02  0.89999988375E+02 0.  0.
        -12    1    1    2    0    0 -0.19115277886E+00  0.87398267277E+00  0.76984338695E+00  0.11802728234E+01  0.00000000000E+00 0.  1.
         11    1    3    3    0    0  0.75219330798E+01 -0.20758989825E+01 -0.49052360571E+01  0.92168419146E+01  0.51100000000E-03 0. -1.
        -11    1    3    3    0    0 -0.82217584336E+01 -0.35896215532E+02  0.18235667032E+02  0.41093492838E+02  0.51100000000E-03 0.  1.
         12    1    3    3    0    0  0.89097813268E+00  0.37098131842E+02 -0.14100274362E+02  0.39697392424E+02  0.00000000000E+00 0. -1.
</event>
<event>
 7    1  0.3861961E-015  0.9000905E+02  0.7816164E-02  0.1186336E+00
        -11   -1    0    0    0    0  0.00000000000E+00  0.00000000000E+00  0.45593999997E+02  0.45594000000E+02  0.51100000000E-03 0.  1.
         11   -1    0    0    0    0 -0.00000000000E+00 -0.00000000000E+00 -0.45593999997E+02  0.45594000000E+02  0.51100000000E-03 0. -1.
    9900012    2    1    2    0    0 -0.11035031220E+01 -0.39713134247E+00 -0.12041625104E+00  0.90009046007E+02  0.90001324605E+02 0.  0.
        -12    1    1    2    0    0  0.11035031220E+01  0.39713134247E+00  0.12041625104E+00  0.11789539927E+01  0.00000000000E+00 0.  1.
         11    1    3    3    0    0 -0.63338406411E+00 -0.82408468887E+01 -0.39894818264E+01  0.91776194256E+01  0.51100000000E-03 0. -1.
        -11    1    3    3    0    0  0.32749029310E+02 -0.17233234047E+02  0.10992313408E+02  0.38604588209E+02  0.51100000000E-03 0.  1.
         12    1    3    3    0    0 -0.33219148368E+02  0.25076949594E+02 -0.71232478324E+01  0.42226838372E+02  0.00000000000E+00 0. -1.
</event>
<event>
 7    1  0.4623116E-015  0.9000777E+02  0.7816164E-02  0.1186339E+00
        -11   -1    0    0    0    0  0.00000000000E+00  0.00000000000E+00  0.45593999997E+02  0.45594000000E+02  0.51100000000E-03 0. -1.
         11   -1    0    0    0    0 -0.00000000000E+00 -0.00000000000E+00 -0.45593999997E+02  0.45594000000E+02  0.51100000000E-03 0.  1.
    9900012    2    1    2    0    0 -0.15467678292E+00  0.83491350489E+00  0.81971475887E+00  0.90007772160E+02  0.90000033953E+02 0.  0.
        -12    1    1    2    0    0  0.15467678292E+00 -0.83491350489E+00 -0.81971475887E+00  0.11802278398E+01  0.00000000000E+00 0.  1.
         11    1    3    3    0    0 -0.55387686134E+01 -0.24762527334E+01 -0.68170334684E+01  0.91258824736E+01  0.51100000000E-03 0. -1.
        -11    1    3    3    0    0  0.69678636107E+01 -0.16492407119E+01 -0.36116712374E+02  0.36819669080E+02  0.51100000000E-03 0.  1.
         12    1    3    3    0    0 -0.15837717802E+01  0.49604069502E+01  0.43753460601E+02  0.44062220606E+02  0.00000000000E+00 0. -1.
</event>
<event>
 7    1  0.3861961E-015  0.9000775E+02  0.7816164E-02  0.1186339E+00
        -11   -1    0    0    0    0  0.00000000000E+00  0.00000000000E+00  0.45593999997E+02  0.45594000000E+02  0.51100000000E-03 0.  1.
         11   -1    0    0    0    0 -0.00000000000E+00 -0.00000000000E+00 -0.45593999997E+02  0.45594000000E+02  0.51100000000E-03 0. -1.
    9900012    2    1    2    0    0 -0.25709089706E+00 -0.44806207518E+00 -0.10611999759E+01  0.90007745476E+02  0.90000006916E+02 0.  0.
        -12    1    1    2    0    0  0.25709089706E+00  0.44806207518E+00  0.10611999759E+01  0.11802545240E+01  0.00000000000E+00 0.  1.
         11    1    3    3    0    0  0.13183769804E+02  0.59817886480E+01 -0.37104034735E+02  0.39828419195E+02  0.51100000000E-03 0. -1.
        -11    1    3    3    0    0 -0.88315896759E+01 -0.36235851058E+01 -0.35765928312E+01  0.10194084646E+02  0.51100000000E-03 0.  1.
        -12    1    3    3    0    0 -0.46092710248E+01 -0.28062656174E+01  0.39619427590E+02  0.39985241636E+02  0.00000000000E+00 0.  1.
</event>
<event>
 7    1  0.3861961E-015  0.9000776E+02  0.7816164E-02  0.1186339E+00
        -11   -1    0    0    0    0  0.00000000000E+00  0.00000000000E+00  0.45593999997E+02  0.45594000000E+02  0.51100000000E-03 0. -1.
         11   -1    0    0    0    0 -0.00000000000E+00 -0.00000000000E+00 -0.45593999997E+02  0.45594000000E+02  0.51100000000E-03 0.  1.
    9900012    2    1    2    0    0  0.85406207167E+00 -0.79677297630E+00 -0.16938600152E+00  0.90007762390E+02  0.90000024054E+02 0.  0.
        -12    1    1    2    0    0 -0.85406207167E+00  0.79677297630E+00  0.16938600152E+00  0.11802376098E+01  0.00000000000E+00 0.  1.
         11    1    3    3    0    0  0.54677107291E+01  0.20413121120E+00 -0.71296185473E+01  0.89871570065E+01  0.51100000000E-03 0. -1.
        -11    1    3    3    0    0 -0.28992523762E+02  0.46660542132E+01 -0.26282182463E+02  0.39409283313E+02  0.51100000000E-03 0.  1.
         12    1    3    3    0    0  0.24378875104E+02 -0.56669584007E+01  0.33242415008E+02  0.41611322071E+02  0.00000000000E+00 0. -1.
</event>
<event>
 7    1  0.3861961E-015  0.9000746E+02  0.7816164E-02  0.1186340E+00
        -11   -1    0    0    0    0  0.00000000000E+00  0.00000000000E+00  0.45593999997E+02  0.45594000000E+02  0.51100000000E-03 0. -1.
         11   -1    0    0    0    0 -0.00000000000E+00 -0.00000000000E+00 -0.45593999997E+02  0.45594000000E+02  0.51100000000E-03 0.  1.
    9900012    2    1    2    0    0  0.83687266177E+00  0.56754185794E+00  0.60927049954E+00  0.90007461922E+02  0.89999719619E+02 0.  0.
        -12    1    1    2    0    0 -0.83687266177E+00 -0.56754185794E+00 -0.60927049954E+00  0.11805380782E+01  0.00000000000E+00 0.  1.
         11    1    3    3    0    0  0.40577089659E+01  0.35760509634E+01  0.84134480657E+01  0.10001962365E+02  0.51100000000E-03 0. -1.
        -11    1    3    3    0    0 -0.40780825052E+02  0.39870044680E+01  0.17335607128E+00  0.40975626281E+02  0.51100000000E-03 0.  1.
         12    1    3    3    0    0  0.37559988748E+02 -0.69955135735E+01 -0.79775336375E+01  0.39029873275E+02  0.00000000000E+00 0. -1.
</event>
<event>
 7    1  0.3861961E-015  0.9000769E+02  0.7816164E-02  0.1186339E+00
        -11   -1    0    0    0    0  0.00000000000E+00  0.00000000000E+00  0.45593999997E+02  0.45594000000E+02  0.51100000000E-03 0.  1.
         11   -1    0    0    0    0 -0.00000000000E+00 -0.00000000000E+00 -0.45593999997E+02  0.45594000000E+02  0.51100000000E-03 0. -1.
    9900012    2    1    2    0    0 -0.82629593773E+00 -0.81540077979E+00 -0.21330205198E+00  0.90007685985E+02  0.89999946640E+02 0.  0.
        -12    1    1    2    0    0  0.82629593773E+00  0.81540077979E+00  0.21330205198E+00  0.11803140149E+01  0.00000000000E+00 0.  1.
         11    1    3    3    0    0  0.14160540156E+02 -0.91247754481E+01 -0.10637511163E+02  0.19923329754E+02  0.51100000000E-03 0. -1.
        -11    1    3    3    0    0 -0.16221683550E+02  0.18860617958E+02 -0.23691237512E+02  0.34353175429E+02  0.51100000000E-03 0.  1.
         12    1    3    3    0    0  0.12348474559E+01 -0.10551243290E+02  0.34115446623E+02  0.35731180802E+02  0.00000000000E+00 0. -1.
</event>
<event>
 7    1  0.3861961E-015  0.9000648E+02  0.7816164E-02  0.1186342E+00
        -11   -1    0    0    0    0  0.00000000000E+00  0.00000000000E+00  0.45593999997E+02  0.45594000000E+02  0.51100000000E-03 0.  1.
         11   -1    0    0    0    0 -0.00000000000E+00 -0.00000000000E+00 -0.45593999997E+02  0.45594000000E+02  0.51100000000E-03 0. -1.
    9900012    2    1    2    0    0  0.29156535115E+00  0.39537584236E+00 -0.10745493796E+01  0.90006480309E+02  0.89998725040E+02 0.  0.
        -12    1    1    2    0    0 -0.29156535115E+00 -0.39537584236E+00  0.10745493796E+01  0.11815196909E+01  0.00000000000E+00 0.  1.
         11    1    3    3    0    0 -0.27246257827E+02  0.21992711247E+02 -0.21601722948E+02  0.41142099462E+02  0.51100000000E-03 0. -1.
        -11    1    3    3    0    0  0.33782019453E+01  0.56100631244E+01 -0.94316913366E+00  0.66162394847E+01  0.51100000000E-03 0.  1.
        -12    1    3    3    0    0  0.24159621232E+02 -0.27207398529E+02  0.21470342702E+02  0.42248141362E+02  0.00000000000E+00 0.  1.
</event>
<event>
 7    1  0.3861961E-015  0.9000786E+02  0.7816164E-02  0.1186339E+00
        -11   -1    0    0    0    0  0.00000000000E+00  0.00000000000E+00  0.45593999997E+02  0.45594000000E+02  0.51100000000E-03 0. -1.
         11   -1    0    0    0    0 -0.00000000000E+00 -0.00000000000E+00 -0.45593999997E+02  0.45594000000E+02  0.51100000000E-03 0.  1.
    9900012    2    1    2    0    0  0.16954489589E+00  0.11253645369E+01  0.31231265480E+00  0.90007860175E+02  0.90000123129E+02 0.  0.
        -12    1    1    2    0    0 -0.16954489589E+00 -0.11253645369E+01 -0.31231265480E+00  0.11801398251E+01  0.00000000000E+00 0.  1.
         11    1    3    3    0    0 -0.29595389256E+02  0.15577012283E+02 -0.22606191775E+02  0.40367936332E+02  0.51100000000E-03 0. -1.
        -11    1    3    3    0    0 -0.35526755792E+01 -0.71661075151E+01 -0.88858561378E+00  0.80476198558E+01  0.51100000000E-03 0.  1.
        -12    1    3    3    0    0  0.33317609731E+02 -0.72855402312E+01  0.23807090043E+02  0.41592303987E+02  0.00000000000E+00 0.  1.
</event>
<event>
 7    1  0.3861961E-015  0.9000773E+02  0.7816164E-02  0.1186339E+00
        -11   -1    0    0    0    0  0.00000000000E+00  0.00000000000E+00  0.45593999997E+02  0.45594000000E+02  0.51100000000E-03 0.  1.
         11   -1    0    0    0    0 -0.00000000000E+00 -0.00000000000E+00 -0.45593999997E+02  0.45594000000E+02  0.51100000000E-03 0. -1.
    9900012    2    1    2    0    0  0.64881851350E+00  0.92475560191E+00 -0.34189788350E+00  0.90007732001E+02  0.89999993263E+02 0.  0.
        -12    1    1    2    0    0 -0.64881851350E+00 -0.92475560191E+00  0.34189788350E+00  0.11802679990E+01  0.00000000000E+00 0.  1.
         11    1    3    3    0    0  0.89120689261E+01  0.15678289247E+02  0.23714056422E+02  0.29792452040E+02  0.51100000000E-03 0. -1.
        -11    1    3    3    0    0 -0.28645347787E+01 -0.20492870158E+02  0.11584497637E+02  0.23714212460E+02  0.51100000000E-03 0.  1.
        -12    1    3    3    0    0 -0.53987156339E+01  0.57393365132E+01 -0.35640451942E+02  0.36501067502E+02  0.00000000000E+00 0.  1.
</event>
<event>
 7    1  0.3861961E-015  0.9000774E+02  0.7816164E-02  0.1186339E+00
        -11   -1    0    0    0    0  0.00000000000E+00  0.00000000000E+00  0.45593999997E+02  0.45594000000E+02  0.51100000000E-03 0.  1.
         11   -1    0    0    0    0 -0.00000000000E+00 -0.00000000000E+00 -0.45593999997E+02  0.45594000000E+02  0.51100000000E-03 0. -1.
    9900012    2    1    2    0    0 -0.76370084786E+00 -0.67975652454E+00  0.58966184795E+00  0.90007741972E+02  0.90000003366E+02 0.  0.
        -12    1    1    2    0    0  0.76370084786E+00  0.67975652454E+00 -0.58966184795E+00  0.11802580280E+01  0.00000000000E+00 0.  1.
         11    1    3    3    0    0 -0.10101819612E+02  0.25478154252E+02 -0.30414418131E+02  0.40941665014E+02  0.51100000000E-03 0. -1.
        -11    1    3    3    0    0  0.28877062625E+01 -0.64983202074E+01 -0.41803540650E+01  0.82487801126E+01  0.51100000000E-03 0.  1.
        -12    1    3    3    0    0  0.64504125014E+01 -0.19659590570E+02  0.35184434044E+02  0.40817296846E+02  0.00000000000E+00 0.  1.
</event>
<event>
 7    1  0.3861961E-015  0.9000847E+02  0.7816164E-02  0.1186338E+00
        -11   -1    0    0    0    0  0.00000000000E+00  0.00000000000E+00  0.45593999997E+02  0.45594000000E+02  0.51100000000E-03 0.  1.
         11   -1    0    0    0    0 -0.00000000000E+00 -0.00000000000E+00 -0.45593999997E+02  0.45594000000E+02  0.51100000000E-03 0. -1.
    9900012    2    1    2    0    0 -0.10581496589E+01  0.50792244464E+00 -0.11676770069E+00  0.90008465937E+02  0.90000736884E+02 0.  0.
        -12    1    1    2    0    0  0.10581496589E+01 -0.50792244464E+00  0.11676770069E+00  0.11795340633E+01  0.00000000000E+00 0.  1.
         11    1    3    3    0    0 -0.26987939918E+02  0.11468303179E+02  0.27431460871E+02  0.40154152022E+02  0.51100000000E-03 0. -1.
        -11    1    3    3    0    0 -0.29186208941E+01  0.69833807358E+01 -0.54311363155E+01  0.93157499088E+01  0.51100000000E-03 0.  1.
        -12    1    3    3    0    0  0.28848411154E+02 -0.17943761471E+02 -0.22117092256E+02  0.40538564006E+02  0.00000000000E+00 0.  1.
</event>
<event>
 7    1  0.3861961E-015  0.9000773E+02  0.7816164E-02  0.1186339E+00
        -11   -1    0    0    0    0  0.00000000000E+00  0.00000000000E+00  0.45593999997E+02  0.45594000000E+02  0.51100000000E-03 0. -1.
         11   -1    0    0    0    0 -0.00000000000E+00 -0.00000000000E+00 -0.45593999997E+02  0.45594000000E+02  0.51100000000E-03 0.  1.
    9900012    2    1    2    0    0  0.25964830500E+00 -0.11323802135E+01  0.20818046586E+00  0.90007728295E+02  0.89999989509E+02 0.  0.
        -12    1    1    2    0    0 -0.25964830500E+00  0.11323802135E+01 -0.20818046586E+00  0.11802717045E+01  0.00000000000E+00 0.  1.
         11    1    3    3    0    0  0.17252110727E+02 -0.46343364724E+01  0.28864913959E+02  0.33945480660E+02  0.51100000000E-03 0. -1.
        -11    1    3    3    0    0  0.12315733598E+02  0.64892424018E+00  0.31384039964E+01  0.12725878226E+02  0.51100000000E-03 0.  1.
        -12    1    3    3    0    0 -0.29308196019E+02  0.28530320187E+01 -0.31795137490E+02  0.43336369410E+02  0.00000000000E+00 0.  1.
</event>
<event>
 7    1  0.3861961E-015  0.9000774E+02  0.7816164E-02  0.1186339E+00
        -11   -1    0    0    0    0  0.00000000000E+00  0.00000000000E+00  0.45593999997E+02  0.45594000000E+02  0.51100000000E-03 0. -1.
         11   -1    0    0    0    0 -0.00000000000E+00 -0.00000000000E+00 -0.45593999997E+02  0.45594000000E+02  0.51100000000E-03 0.  1.
    9900012    2    1    2    0    0  0.67242602435E+00  0.10056422865E+00  0.96474983911E+00  0.90007740633E+02  0.90000002009E+02 0.  0.
        -12    1    1    2    0    0 -0.67242602435E+00 -0.10056422865E+00 -0.96474983911E+00  0.11802593674E+01  0.00000000000E+00 0.  1.
         11    1    3    3    0    0 -0.25711042828E+02  0.23036052494E+02 -0.83843517336E+01  0.35524847531E+02  0.51100000000E-03 0. -1.
        -11    1    3    3    0    0 -0.39390710947E+01  0.73216000677E+01  0.81313227745E+01  0.11629295721E+02  0.51100000000E-03 0.  1.
        -12    1    3    3    0    0  0.30322539947E+02 -0.30257088333E+02  0.12177787982E+01  0.42853597381E+02  0.00000000000E+00 0.  1.
</event>
<event>
 7    1  0.3861961E-015  0.9000762E+02  0.7816164E-02  0.1186339E+00
        -11   -1    0    0    0    0  0.00000000000E+00  0.00000000000E+00  0.45593999997E+02  0.45594000000E+02  0.51100000000E-03 0. -1.
         11   -1    0    0    0    0 -0.00000000000E+00 -0.00000000000E+00 -0.45593999997E+02  0.45594000000E+02  0.51100000000E-03 0.  1.
    9900012    2    1    2    0    0 -0.11506849725E+01  0.23734273691E+00  0.11358184302E+00  0.90007615183E+02  0.89999874903E+02 0.  0.
        -12    1    1    2    0    0  0.11506849725E+01 -0.23734273691E+00 -0.11358184302E+00  0.11803848169E+01  0.00000000000E+00 0.  1.
         11    1    3    3    0    0  0.20892581149E+02  0.29747899935E+02  0.18371116127E+02  0.40730030759E+02  0.51100000000E-03 0. -1.
        -11    1    3    3    0    0 -0.87683353034E+01  0.31947985347E+01  0.42397163524E+00  0.93418517371E+01  0.51100000000E-03 0.  1.
        -12    1    3    3    0    0 -0.13274930818E+02 -0.32705355733E+02 -0.18681505919E+02  0.39935732687E+02  0.00000000000E+00 0.  1.
</event>
<event>
 7    1  0.3861961E-015  0.9000763E+02  0.7816164E-02  0.1186339E+00
        -11   -1    0    0    0    0  0.00000000000E+00  0.00000000000E+00  0.45593999997E+02  0.45594000000E+02  0.51100000000E-03 0. -1.
         11   -1    0    0    0    0 -0.00000000000E+00 -0.00000000000E+00 -0.45593999997E+02  0.45594000000E+02  0.51100000000E-03 0.  1.
    9900012    2    1    2    0    0 -0.10732941143E+00 -0.11122758782E+01  0.38025164026E+00  0.90007632031E+02  0.89999891974E+02 0.  0.
        -12    1    1    2    0    0  0.10732941143E+00  0.11122758782E+01 -0.38025164026E+00  0.11803679688E+01  0.00000000000E+00 0.  1.
         11    1    3    3    0    0  0.29987816950E-01 -0.36709236866E+01 -0.74160411626E+01  0.82749167227E+01  0.51100000000E-03 0. -1.
        -11    1    3    3    0    0  0.46976685899E+01 -0.32964416715E+02 -0.17729361773E+02  0.37723349913E+02  0.51100000000E-03 0.  1.
         12    1    3    3    0    0 -0.48349858182E+01  0.35523064523E+02  0.25525654576E+02  0.44009365395E+02  0.00000000000E+00 0. -1.
</event>
<event>
 7    1  0.3861961E-015  0.9000771E+02  0.7816164E-02  0.1186339E+00
        -11   -1    0    0    0    0  0.00000000000E+00  0.00000000000E+00  0.45593999997E+02  0.45594000000E+02  0.51100000000E-03 0.  1.
         11   -1    0    0    0    0 -0.00000000000E+00 -0.00000000000E+00 -0.45593999997E+02  0.45594000000E+02  0.51100000000E-03 0. -1.
    9900012    2    1    2    0    0  0.17143515363E+00 -0.76565757114E+00 -0.88173703261E+00  0.90007711170E+02  0.89999972157E+02 0.  0.
        -12    1    1    2    0    0 -0.17143515363E+00  0.76565757114E+00  0.88173703261E+00  0.11802888303E+01  0.00000000000E+00 0.  1.
         11    1    3    3    0    0 -0.44053731389E+01  0.84954429907E+01  0.39895081760E+01  0.10368029699E+02  0.51100000000E-03 0. -1.
        -11    1    3    3    0    0  0.38473983733E+01  0.17847596272E+02  0.30210233977E+02  0.35298688420E+02  0.51100000000E-03 0.  1.
         12    1    3    3    0    0  0.72940991925E+00 -0.27108696834E+02 -0.35081479186E+02  0.44340993051E+02  0.00000000000E+00 0. -1.
</event>
<event>
 7    1  0.3861961E-015  0.9000768E+02  0.7816164E-02  0.1186339E+00
        -11   -1    0    0    0    0  0.00000000000E+00  0.00000000000E+00  0.45593999997E+02  0.45594000000E+02  0.51100000000E-03 0.  1.
         11   -1    0    0    0    0 -0.00000000000E+00 -0.00000000000E+00 -0.45593999997E+02  0.45594000000E+02  0.51100000000E-03 0. -1.
    9900012    2    1    2    0    0  0.51983621431E+00 -0.94475231023E+00 -0.47997224674E+00  0.90007678021E+02  0.89999938570E+02 0.  0.
        -12    1    1    2    0    0 -0.51983621431E+00  0.94475231023E+00  0.47997224674E+00  0.11803219794E+01  0.00000000000E+00 0.  1.
         11    1    3    3    0    0  0.11575855229E+02  0.48747718940E+01 -0.37296555177E+02  0.39354756429E+02  0.51100000000E-03 0. -1.
        -11    1    3    3    0    0 -0.30870460809E+00 -0.77998817057E+01 -0.37357750597E+01  0.86538701582E+01  0.51100000000E-03 0.  1.
        -12    1    3    3    0    0 -0.10747314406E+02  0.19803575014E+01  0.40552357989E+02  0.41999051433E+02  0.00000000000E+00 0.  1.
</event>
<event>
 7    1  0.3861961E-015  0.9000769E+02  0.7816164E-02  0.1186339E+00
        -11   -1    0    0    0    0  0.00000000000E+00  0.00000000000E+00  0.45593999997E+02  0.45594000000E+02  0.51100000000E-03 0.  1.
         11   -1    0    0    0    0 -0.00000000000E+00 -0.00000000000E+00 -0.45593999997E+02  0.45594000000E+02  0.51100000000E-03 0. -1.
    9900012    2    1    2    0    0  0.92467457178E+00  0.27404387710E+00 -0.68044861742E+00  0.90007689265E+02  0.89999949963E+02 0.  0.
        -12    1    1    2    0    0 -0.92467457178E+00 -0.27404387710E+00  0.68044861742E+00  0.11803107350E+01  0.00000000000E+00 0.  1.
         11    1    3    3    0    0 -0.18689279102E+01 -0.53322160967E+01  0.97679271861E+01  0.11284406135E+02  0.51100000000E-03 0. -1.
        -11    1    3    3    0    0  0.26299706098E+02  0.31351531902E+02  0.37235682260E+01  0.41090851221E+02  0.51100000000E-03 0.  1.
         12    1    3    3    0    0 -0.23506103616E+02 -0.25745271928E+02 -0.14171944029E+02  0.37632431910E+02  0.00000000000E+00 0. -1.
</event>
<event>
 7    1  0.3861961E-015  0.9000782E+02  0.7816164E-02  0.1186339E+00
        -11   -1    0    0    0    0  0.00000000000E+00  0.00000000000E+00  0.45593999997E+02  0.45594000000E+02  0.51100000000E-03 0. -1.
         11   -1    0    0    0    0 -0.00000000000E+00 -0.00000000000E+00 -0.45593999997E+02  0.45594000000E+02  0.51100000000E-03 0.  1.
    9900012    2    1    2    0    0 -0.56829562639E+00  0.58633172520E-01  0.10326747874E+01  0.90007824172E+02  0.90000086651E+02 0.  0.
        -12    1    1    2    0    0  0.56829562639E+00 -0.58633172520E-01 -0.10326747874E+01  0.11801758278E+01  0.00000000000E+00 0.  1.
         11    1    3    3    0    0 -0.33571903699E+02  0.18586486655E+02  0.15004088901E+02  0.41202583513E+02  0.51100000000E-03 0. -1.
        -11    1    3    3    0    0 -0.32810423180E+01 -0.56858967408E+01 -0.71655479477E+01  0.97180110152E+01  0.51100000000E-03 0.  1.
        -12    1    3    3    0    0  0.36284650391E+02 -0.12841956741E+02 -0.68058661663E+01  0.39087229644E+02  0.00000000000E+00 0.  1.
</event>
<event>
 7    1  0.3861961E-015  0.9000773E+02  0.7816164E-02  0.1186339E+00
        -11   -1    0    0    0    0  0.00000000000E+00  0.00000000000E+00  0.45593999997E+02  0.45594000000E+02  0.51100000000E-03 0. -1.
         11   -1    0    0    0    0 -0.00000000000E+00 -0.00000000000E+00 -0.45593999997E+02  0.45594000000E+02  0.51100000000E-03 0.  1.
    9900012    2    1    2    0    0  0.89532062225E+00  0.20516503980E+00 -0.74118619827E+00  0.90007725163E+02  0.89999986335E+02 0.  0.
        -12    1    1    2    0    0 -0.89532062225E+00 -0.20516503980E+00  0.74118619827E+00  0.11802748369E+01  0.00000000000E+00 0.  1.
         11    1    3    3    0    0 -0.66908576959E+01 -0.17241831606E+00  0.76203896754E+01  0.10142368749E+02  0.51100000000E-03 0. -1.
        -11    1    3    3    0    0  0.16501010168E+02  0.23301546939E+02  0.25317787911E+02  0.38160657899E+02  0.51100000000E-03 0.  1.
         12    1    3    3    0    0 -0.89148318501E+01 -0.22923963583E+02 -0.33679363785E+02  0.41704698515E+02  0.00000000000E+00 0. -1.
</event>
<event>
 7    1  0.3861961E-015  0.9000777E+02  0.7816164E-02  0.1186339E+00
        -11   -1    0    0    0    0  0.00000000000E+00  0.00000000000E+00  0.45593999997E+02  0.45594000000E+02  0.51100000000E-03 0.  1.
         11   -1    0    0    0    0 -0.00000000000E+00 -0.00000000000E+00 -0.45593999997E+02  0.45594000000E+02  0.51100000000E-03 0. -1.
    9900012    2    1    2    0    0 -0.87971598670E+00 -0.29980285770E+00 -0.72744045225E+00  0.90007766302E+02  0.90000028017E+02 0.  0.
        -12    1    1    2    0    0  0.87971598670E+00  0.29980285770E+00  0.72744045225E+00  0.11802336982E+01  0.00000000000E+00 0.  1.
         11    1    3    3    0    0 -0.65122673191E+01  0.23358267228E+02 -0.24483894608E+02  0.34459822532E+02  0.51100000000E-03 0. -1.
        -11    1    3    3    0    0  0.91125304939E+00 -0.55672154373E+01 -0.13076430350E+02  0.14241393921E+02  0.51100000000E-03 0.  1.
        -12    1    3    3    0    0  0.47212982830E+01 -0.18090854649E+02  0.36832884506E+02  0.41306549849E+02  0.00000000000E+00 0.  1.
</event>
<event>
 7    1  0.5729610E-015  0.9000772E+02  0.7816164E-02  0.1186339E+00
        -11   -1    0    0    0    0  0.00000000000E+00  0.00000000000E+00  0.45593999997E+02  0.45594000000E+02  0.51100000000E-03 0. -1.
         11   -1    0    0    0    0 -0.00000000000E+00 -0.00000000000E+00 -0.45593999997E+02  0.45594000000E+02  0.51100000000E-03 0.  1.
    9900012    2    1    2    0    0 -0.31621342206E-01  0.11566570042E+01 -0.23283905060E+00  0.90007716408E+02  0.89999977464E+02 0.  0.
        -12    1    1    2    0    0  0.31621342206E-01 -0.11566570042E+01  0.23283905060E+00  0.11802835922E+01  0.00000000000E+00 0.  1.
         11    1    3    3    0    0 -0.32429876197E+01  0.48682900858E+01  0.81466901466E+01  0.10029246117E+02  0.51100000000E-03 0. -1.
        -11    1    3    3    0    0 -0.49287013935E+00 -0.18020384680E+02  0.32138277561E+02  0.36848962941E+02  0.51100000000E-03 0.  1.
         12    1    3    3    0    0  0.37042364168E+01  0.14308751598E+02 -0.40517806758E+02  0.43129507350E+02  0.00000000000E+00 0. -1.
</event>
<event>
 7    1  0.3861961E-015  0.9000800E+02  0.7816164E-02  0.1186339E+00
        -11   -1    0    0    0    0  0.00000000000E+00  0.00000000000E+00  0.45593999997E+02  0.45594000000E+02  0.51100000000E-03 0.  1.
         11   -1    0    0    0    0 -0.00000000000E+00 -0.00000000000E+00 -0.45593999997E+02  0.45594000000E+02  0.51100000000E-03 0. -1.
    9900012    2    1    2    0    0 -0.43057291104E+00 -0.79037778717E+00  0.76309808410E+00  0.90007996286E+02  0.90000261037E+02 0.  0.
        -12    1    1    2    0    0  0.43057291104E+00  0.79037778717E+00 -0.76309808410E+00  0.11800037136E+01  0.00000000000E+00 0.  1.
         11    1    3    3    0    0  0.16470640230E+02 -0.33634071740E+02  0.23972751636E+02  0.44466004910E+02  0.51100000000E-03 0. -1.
        -11    1    3    3    0    0 -0.82768956564E+01  0.14299337808E+02 -0.30050352958E+01  0.16793102776E+02  0.51100000000E-03 0.  1.
        -12    1    3    3    0    0 -0.86243174850E+01  0.18544356144E+02 -0.20204618256E+02  0.28748888600E+02  0.00000000000E+00 0.  1.
</event>
<event>
 7    1  0.3861961E-015  0.9000774E+02  0.7816164E-02  0.1186339E+00
        -11   -1    0    0    0    0  0.00000000000E+00  0.00000000000E+00  0.45593999997E+02  0.45594000000E+02  0.51100000000E-03 0.  1.
         11   -1    0    0    0    0 -0.00000000000E+00 -0.00000000000E+00 -0.45593999997E+02  0.45594000000E+02  0.51100000000E-03 0. -1.
    9900012    2    1    2    0    0 -0.92870177757E+00 -0.35453392825E+00 -0.63625658851E+00  0.90007744204E+02  0.90000005627E+02 0.  0.
        -12    1    1    2    0    0  0.92870177757E+00  0.35453392825E+00  0.63625658851E+00  0.11802557962E+01  0.00000000000E+00 0.  1.
         11    1    3    3    0    0  0.56342867483E+01 -0.17739331189E+02 -0.30882734705E+02  0.36057902897E+02  0.51100000000E-03 0. -1.
        -11    1    3    3    0    0 -0.13197165042E+02  0.59401671911E+01 -0.57704809318E+01  0.15580410837E+02  0.51100000000E-03 0.  1.
        -12    1    3    3    0    0  0.66341765158E+01  0.11444630070E+02  0.36016959049E+02  0.38369430470E+02  0.00000000000E+00 0.  1.
</event>
<event>
 7    1  0.4416722E-015  0.9000778E+02  0.7816164E-02  0.1186339E+00
        -11   -1    0    0    0    0  0.00000000000E+00  0.00000000000E+00  0.45593999997E+02  0.45594000000E+02  0.51100000000E-03 0.  1.
         11   -1    0    0    0    0 -0.00000000000E+00 -0.00000000000E+00 -0.45593999997E+02  0.45594000000E+02  0.51100000000E-03 0. -1.
    9900012    2    1    2    0    0  0.32625951684E+00  0.10643192945E+01 -0.39204252318E+00  0.90007780456E+02  0.90000042358E+02 0.  0.
        -12    1    1    2    0    0 -0.32625951684E+00 -0.10643192945E+01  0.39204252318E+00  0.11802195443E+01  0.00000000000E+00 0.  1.
         11    1    3    3    0    0  0.39930733744E+01  0.13833251202E+01  0.89657907866E+01  0.99117923733E+01  0.51100000000E-03 0. -1.
        -11    1    3    3    0    0 -0.23855568053E+02  0.91994180544E+01  0.27157425506E+02  0.37299372381E+02  0.51100000000E-03 0.  1.
         12    1    3    3    0    0  0.20188754195E+02 -0.95184238802E+01 -0.36515258815E+02  0.42796615701E+02  0.00000000000E+00 0. -1.
</event>
<event>
 7    1  0.3861961E-015  0.9000773E+02  0.7816164E-02  0.1186339E+00
        -11   -1    0    0    0    0  0.00000000000E+00  0.00000000000E+00  0.45593999997E+02  0.45594000000E+02  0.51100000000E-03 0.  1.
         11   -1    0    0    0    0 -0.00000000000E+00 -0.00000000000E+00 -0.45593999997E+02  0.45594000000E+02  0.51100000000E-03 0. -1.
    9900012    2    1    2    0    0 -0.27661768263E+00 -0.88167474440E+00 -0.73427693353E+00  0.90007732949E+02  0.89999994224E+02 0.  0.
        -12    1    1    2    0    0  0.27661768263E+00  0.88167474440E+00  0.73427693353E+00  0.11802670513E+01  0.00000000000E+00 0.  1.
         11    1    3    3    0    0  0.29626328013E+02  0.50631469582E+01 -0.12055649833E+02  0.32383536895E+02  0.51100000000E-03 0. -1.
        -11    1    3    3    0    0 -0.30923936471E+00  0.82794334072E+01 -0.13926527335E+02  0.16204715684E+02  0.51100000000E-03 0.  1.
        -12    1    3    3    0    0 -0.29593706331E+02 -0.14224255110E+02  0.25247900235E+02  0.41419480370E+02  0.00000000000E+00 0.  1.
</event>
<event>
 7    1  0.3861961E-015  0.9000784E+02  0.7816164E-02  0.1186339E+00
        -11   -1    0    0    0    0  0.00000000000E+00  0.00000000000E+00  0.45593999997E+02  0.45594000000E+02  0.51100000000E-03 0.  1.
         11   -1    0    0    0    0 -0.00000000000E+00 -0.00000000000E+00 -0.45593999997E+02  0.45594000000E+02  0.51100000000E-03 0. -1.
    9900012    2    1    2    0    0 -0.10904866929E+01 -0.12047864858E+00  0.43485065708E+00  0.90007842627E+02  0.90000105349E+02 0.  0.
        -12    1    1    2    0    0  0.10904866929E+01  0.12047864858E+00 -0.43485065708E+00  0.11801573735E+01  0.00000000000E+00 0.  1.
         11    1    3    3    0    0  0.15558304721E+02 -0.12681622864E+02 -0.28598272639E+02  0.34939170031E+02  0.51100000000E-03 0. -1.
        -11    1    3    3    0    0  0.98420318837E+01  0.23993546407E+01 -0.45493888548E+01  0.11104928343E+02  0.51100000000E-03 0.  1.
        -12    1    3    3    0    0 -0.26490823298E+02  0.10161789575E+02  0.33582512151E+02  0.43963744253E+02  0.00000000000E+00 0.  1.
</event>
<event>
 7    1  0.3861961E-015  0.9000773E+02  0.7816164E-02  0.1186339E+00
        -11   -1    0    0    0    0  0.00000000000E+00  0.00000000000E+00  0.45593999997E+02  0.45594000000E+02  0.51100000000E-03 0.  1.
         11   -1    0    0    0    0 -0.00000000000E+00 -0.00000000000E+00 -0.45593999997E+02  0.45594000000E+02  0.51100000000E-03 0. -1.
    9900012    2    1    2    0    0  0.17163468069E+00 -0.11105385272E+01 -0.36094207888E+00  0.90007731612E+02  0.89999992869E+02 0.  0.
        -12    1    1    2    0    0 -0.17163468069E+00  0.11105385272E+01  0.36094207888E+00  0.11802683882E+01  0.00000000000E+00 0.  1.
         11    1    3    3    0    0  0.35730518926E+01  0.32416348119E+02 -0.23406804576E+02  0.40143054517E+02  0.51100000000E-03 0. -1.
        -11    1    3    3    0    0  0.58307195561E+01  0.23914033231E+01  0.71072738341E+01  0.94989179389E+01  0.51100000000E-03 0.  1.
        -12    1    3    3    0    0 -0.92321367680E+01 -0.35918289970E+02  0.15938588663E+02  0.40365759156E+02  0.00000000000E+00 0.  1.
</event>
<event>
 7    1  0.3861961E-015  0.9000775E+02  0.7816164E-02  0.1186339E+00
        -11   -1    0    0    0    0  0.00000000000E+00  0.00000000000E+00  0.45593999997E+02  0.45594000000E+02  0.51100000000E-03 0.  1.
         11   -1    0    0    0    0 -0.00000000000E+00 -0.00000000000E+00 -0.45593999997E+02  0.45594000000E+02  0.51100000000E-03 0. -1.
    9900012    2    1    2    0    0  0.16005049605E+00 -0.10495817817E+01  0.51551985970E+00  0.90007746297E+02  0.90000007748E+02 0.  0.
        -12    1    1    2    0    0 -0.16005049605E+00  0.10495817817E+01 -0.51551985970E+00  0.11802537030E+01  0.00000000000E+00 0.  1.
         11    1    3    3    0    0  0.18657645682E+01 -0.83642359099E+01 -0.21900258170E+00  0.85726006656E+01  0.51100000000E-03 0. -1.
        -11    1    3    3    0    0 -0.94899649747E+00  0.14751090409E+02  0.39385529089E+02  0.42067982653E+02  0.51100000000E-03 0.  1.
         12    1    3    3    0    0 -0.75671757472E+00 -0.74364362807E+01 -0.38651006648E+02  0.39367162978E+02  0.00000000000E+00 0. -1.
</event>
<event>
 7    1  0.3861961E-015  0.9000774E+02  0.7816164E-02  0.1186339E+00
        -11   -1    0    0    0    0  0.00000000000E+00  0.00000000000E+00  0.45593999997E+02  0.45594000000E+02  0.51100000000E-03 0.  1.
         11   -1    0    0    0    0 -0.00000000000E+00 -0.00000000000E+00 -0.45593999997E+02  0.45594000000E+02  0.51100000000E-03 0. -1.
    9900012    2    1    2    0    0 -0.11664194116E+01 -0.17638248758E+00  0.36933133836E-01  0.90007741943E+02  0.90000003336E+02 0.  0.
        -12    1    1    2    0    0  0.11664194116E+01  0.17638248758E+00 -0.36933133836E-01  0.11802580574E+01  0.00000000000E+00 0.  1.
         11    1    3    3    0    0 -0.89638024908E+01 -0.39072235337E+01  0.30816648241E+01  0.10252453813E+02  0.51100000000E-03 0. -1.
        -11    1    3    3    0    0 -0.33719881331E+02  0.95214836461E+00 -0.14316305518E+02  0.36645512514E+02  0.51100000000E-03 0.  1.
         12    1    3    3    0    0  0.41517264410E+02  0.27786926815E+01  0.11271573827E+02  0.43109775616E+02  0.00000000000E+00 0. -1.
</event>
<event>
 7    1  0.3861961E-015  0.9000775E+02  0.7816164E-02  0.1186339E+00
        -11   -1    0    0    0    0  0.00000000000E+00  0.00000000000E+00  0.45593999997E+02  0.45594000000E+02  0.51100000000E-03 0.  1.
         11   -1    0    0    0    0 -0.00000000000E+00 -0.00000000000E+00 -0.45593999997E+02  0.45594000000E+02  0.51100000000E-03 0. -1.
    9900012    2    1    2    0    0  0.94018117550E+00 -0.38004650263E+00  0.60382346678E+00  0.90007754786E+02  0.90000016349E+02 0.  0.
        -12    1    1    2    0    0 -0.94018117550E+00  0.38004650263E+00 -0.60382346678E+00  0.11802452143E+01  0.00000000000E+00 0.  1.
         11    1    3    3    0    0 -0.87242453942E+01  0.67273249124E+01 -0.36232850397E+02  0.37870685317E+02  0.51100000000E-03 0. -1.
        -11    1    3    3    0    0 -0.29483594371E+01  0.76639579550E+01 -0.22293521280E+01  0.85087652499E+01  0.51100000000E-03 0.  1.
        -12    1    3    3    0    0  0.12612786007E+02 -0.14771329370E+02  0.39066025992E+02  0.43628304219E+02  0.00000000000E+00 0.  1.
</event>
<event>
 7    1  0.3861961E-015  0.9000779E+02  0.7816164E-02  0.1186339E+00
        -11   -1    0    0    0    0  0.00000000000E+00  0.00000000000E+00  0.45593999997E+02  0.45594000000E+02  0.51100000000E-03 0.  1.
         11   -1    0    0    0    0 -0.00000000000E+00 -0.00000000000E+00 -0.45593999997E+02  0.45594000000E+02  0.51100000000E-03 0. -1.
    9900012    2    1    2    0    0 -0.38123045520E+00  0.10986250325E+01 -0.20146200615E+00  0.90007787917E+02  0.90000049917E+02 0.  0.
        -12    1    1    2    0    0  0.38123045520E+00 -0.10986250325E+01  0.20146200615E+00  0.11802120835E+01  0.00000000000E+00 0.  1.
         11    1    3    3    0    0  0.29369948123E+02 -0.17619871428E+02 -0.24660672782E+02  0.42204294855E+02  0.51100000000E-03 0. -1.
        -11    1    3    3    0    0 -0.68447060212E+01 -0.46815223447E+01  0.41723719066E+01  0.92830673577E+01  0.51100000000E-03 0.  1.
        -12    1    3    3    0    0 -0.22906472557E+02  0.23400018806E+02  0.20286838869E+02  0.38520425704E+02  0.00000000000E+00 0.  1.
</event>
<event>
 7    1  0.3861961E-015  0.9000774E+02  0.7816164E-02  0.1186339E+00
        -11   -1    0    0    0    0  0.00000000000E+00  0.00000000000E+00  0.45593999997E+02  0.45594000000E+02  0.51100000000E-03 0.  1.
         11   -1    0    0    0    0 -0.00000000000E+00 -0.00000000000E+00 -0.45593999997E+02  0.45594000000E+02  0.51100000000E-03 0. -1.
    9900012    2    1    2    0    0  0.94447585307E+00  0.66509396488E+00  0.24212313974E+00  0.90007742302E+02  0.90000003700E+02 0.  0.
        -12    1    1    2    0    0 -0.94447585307E+00 -0.66509396488E+00 -0.24212313974E+00  0.11802576981E+01  0.00000000000E+00 0.  1.
         11    1    3    3    0    0 -0.15902157229E+02 -0.30927800646E+02  0.11463000044E+02  0.36617042857E+02  0.51100000000E-03 0. -1.
        -11    1    3    3    0    0 -0.84743058203E+01 -0.82881916199E+00 -0.87036454601E+01  0.12175969978E+02  0.51100000000E-03 0.  1.
        -12    1    3    3    0    0  0.25320938903E+02  0.32421713773E+02 -0.25172314441E+01  0.41214729467E+02  0.00000000000E+00 0.  1.
</event>
<event>
 7    1  0.3861961E-015  0.9000777E+02  0.7816164E-02  0.1186339E+00
        -11   -1    0    0    0    0  0.00000000000E+00  0.00000000000E+00  0.45593999997E+02  0.45594000000E+02  0.51100000000E-03 0. -1.
         11   -1    0    0    0    0 -0.00000000000E+00 -0.00000000000E+00 -0.45593999997E+02  0.45594000000E+02  0.51100000000E-03 0.  1.
    9900012    2    1    2    0    0  0.25300505628E+00  0.35705962938E+00  0.10960979192E+01  0.90007773841E+02  0.90000035656E+02 0.  0.
        -12    1    1    2    0    0 -0.25300505628E+00 -0.35705962938E+00 -0.10960979192E+01  0.11802261588E+01  0.00000000000E+00 0.  1.
         11    1    3    3    0    0  0.30522192330E+02  0.57396288188E+01  0.19523861685E+02  0.36684175594E+02  0.51100000000E-03 0. -1.
        -11    1    3    3    0    0  0.11650253080E+01  0.12417193070E+01  0.10171501945E+02  0.10313030732E+02  0.51100000000E-03 0.  1.
        -12    1    3    3    0    0 -0.31434212582E+02 -0.66242884964E+01 -0.28599265711E+02  0.43010567515E+02  0.00000000000E+00 0.  1.
</event>
<event>
 7    1  0.3861961E-015  0.9000777E+02  0.7816164E-02  0.1186339E+00
        -11   -1    0    0    0    0  0.00000000000E+00  0.00000000000E+00  0.45593999997E+02  0.45594000000E+02  0.51100000000E-03 0.  1.
         11   -1    0    0    0    0 -0.00000000000E+00 -0.00000000000E+00 -0.45593999997E+02  0.45594000000E+02  0.51100000000E-03 0. -1.
    9900012    2    1    2    0    0  0.11364404239E+01  0.13323150911E+00  0.28928459777E+00  0.90007774153E+02  0.90000035972E+02 0.  0.
        -12    1    1    2    0    0 -0.11364404239E+01 -0.13323150911E+00 -0.28928459777E+00  0.11802258473E+01  0.00000000000E+00 0.  1.
         11    1    3    3    0    0  0.26106709339E+01  0.23657612367E+01 -0.92306309760E+01  0.98801304358E+01  0.51100000000E-03 0. -1.
        -11    1    3    3    0    0  0.10737124317E+02  0.32967888255E+02 -0.12490594755E+02  0.36853526998E+02  0.51100000000E-03 0.  1.
         12    1    3    3    0    0 -0.12211354827E+02 -0.35200417983E+02  0.22010510328E+02  0.43274116719E+02  0.00000000000E+00 0. -1.
</event>
<event>
 7    1  0.3861961E-015  0.9000772E+02  0.7816164E-02  0.1186339E+00
        -11   -1    0    0    0    0  0.00000000000E+00  0.00000000000E+00  0.45593999997E+02  0.45594000000E+02  0.51100000000E-03 0.  1.
         11   -1    0    0    0    0 -0.00000000000E+00 -0.00000000000E+00 -0.45593999997E+02  0.45594000000E+02  0.51100000000E-03 0. -1.
    9900012    2    1    2    0    0 -0.96488361456E+00 -0.52119272871E+00  0.43637029572E+00  0.90007719828E+02  0.89999980929E+02 0.  0.
        -12    1    1    2    0    0  0.96488361456E+00  0.52119272871E+00 -0.43637029572E+00  0.11802801723E+01  0.00000000000E+00 0.  1.
         11    1    3    3    0    0 -0.22082171192E+01 -0.15654950785E+02  0.62933209410E+01  0.17016450736E+02  0.51100000000E-03 0. -1.
        -11    1    3    3    0    0 -0.28635478963E+02 -0.64551992311E+00  0.15941886150E+02  0.32780346027E+02  0.51100000000E-03 0.  1.
         12    1    3    3    0    0  0.29878812468E+02  0.15779277980E+02 -0.21798836795E+02  0.40210923064E+02  0.00000000000E+00 0. -1.
</event>
<event>
 7    1  0.3861961E-015  0.9000785E+02  0.7816164E-02  0.1186339E+00
        -11   -1    0    0    0    0  0.00000000000E+00  0.00000000000E+00  0.45593999997E+02  0.45594000000E+02  0.51100000000E-03 0.  1.
         11   -1    0    0    0    0 -0.00000000000E+00 -0.00000000000E+00 -0.45593999997E+02  0.45594000000E+02  0.51100000000E-03 0. -1.
    9900012    2    1    2    0    0 -0.66744673503E+00  0.89866466302E+00 -0.37373707785E+00  0.90007846313E+02  0.90000109085E+02 0.  0.
        -12    1    1    2    0    0  0.66744673503E+00 -0.89866466302E+00  0.37373707785E+00  0.11801536866E+01  0.00000000000E+00 0.  1.
         11    1    3    3    0    0 -0.66651783298E+00  0.35721882357E+00 -0.36992778008E+02  0.37000506434E+02  0.51100000000E-03 0. -1.
        -11    1    3    3    0    0  0.48708288205E+01  0.73900334710E+01 -0.52582531401E+01  0.10294988803E+02  0.51100000000E-03 0.  1.
        -12    1    3    3    0    0 -0.48717577225E+01 -0.68485876315E+01  0.41877294071E+02  0.42712351077E+02  0.00000000000E+00 0.  1.
</event>
<event>
 7    1  0.3861961E-015  0.9000848E+02  0.7816164E-02  0.1186338E+00
        -11   -1    0    0    0    0  0.00000000000E+00  0.00000000000E+00  0.45593999997E+02  0.45594000000E+02  0.51100000000E-03 0.  1.
         11   -1    0    0    0    0 -0.00000000000E+00 -0.00000000000E+00 -0.45593999997E+02  0.45594000000E+02  0.51100000000E-03 0. -1.
    9900012    2    1    2    0    0 -0.55882941905E+00  0.10346257479E+01 -0.92327163736E-01  0.90008481004E+02  0.90000752150E+02 0.  0.
        -12    1    1    2    0    0  0.55882941905E+00 -0.10346257479E+01  0.92327163736E-01  0.11795189965E+01  0.00000000000E+00 0.  1.
         11    1    3    3    0    0  0.23422931797E+02 -0.20457864608E+02 -0.16437298055E+02  0.35175882730E+02  0.51100000000E-03 0. -1.
        -11    1    3    3    0    0  0.18187302742E+01 -0.10344165849E+02 -0.52844376621E+00  0.10516120958E+02  0.51100000000E-03 0.  1.
        -12    1    3    3    0    0 -0.25800491490E+02  0.31836656205E+02  0.16873414657E+02  0.44316477315E+02  0.00000000000E+00 0.  1.
</event>
<event>
 7    1  0.3861961E-015  0.9000780E+02  0.7816164E-02  0.1186339E+00
        -11   -1    0    0    0    0  0.00000000000E+00  0.00000000000E+00  0.45593999997E+02  0.45594000000E+02  0.51100000000E-03 0.  1.
         11   -1    0    0    0    0 -0.00000000000E+00 -0.00000000000E+00 -0.45593999997E+02  0.45594000000E+02  0.51100000000E-03 0. -1.
    9900012    2    1    2    0    0  0.77536146903E+00  0.20776131243E+00 -0.86516789864E+00  0.90007802701E+02  0.90000064897E+02 0.  0.
        -12    1    1    2    0    0 -0.77536146903E+00 -0.20776131243E+00  0.86516789864E+00  0.11801972985E+01  0.00000000000E+00 0.  1.
         11    1    3    3    0    0 -0.26054928812E+02 -0.12009593930E+01 -0.30994173605E+02  0.40508522765E+02  0.51100000000E-03 0. -1.
        -11    1    3    3    0    0 -0.59751471686E+01 -0.18738459195E+01  0.56736126593E+01  0.84500629042E+01  0.51100000000E-03 0.  1.
        -12    1    3    3    0    0  0.32805437449E+02  0.32825666249E+01  0.24455393047E+02  0.41049217033E+02  0.00000000000E+00 0.  1.
</event>
<event>
 7    1  0.3861961E-015  0.9000788E+02  0.7816164E-02  0.1186339E+00
        -11   -1    0    0    0    0  0.00000000000E+00  0.00000000000E+00  0.45593999997E+02  0.45594000000E+02  0.51100000000E-03 0. -1.
         11   -1    0    0    0    0 -0.00000000000E+00 -0.00000000000E+00 -0.45593999997E+02  0.45594000000E+02  0.51100000000E-03 0.  1.
    9900012    2    1    2    0    0 -0.14584440076E+00 -0.93421035446E+00  0.70616192425E+00  0.90007879566E+02  0.90000142776E+02 0.  0.
        -12    1    1    2    0    0  0.14584440076E+00  0.93421035446E+00 -0.70616192425E+00  0.11801204341E+01  0.00000000000E+00 0.  1.
         11    1    3    3    0    0 -0.45651920781E+01  0.36971124501E+02  0.22140648850E+02  0.43334897685E+02  0.51100000000E-03 0. -1.
        -11    1    3    3    0    0 -0.10282792504E+01 -0.32759311201E+01 -0.87395524076E+01  0.93898274461E+01  0.51100000000E-03 0.  1.
        -12    1    3    3    0    0  0.54476269277E+01 -0.34629403736E+02 -0.12694934518E+02  0.37283154435E+02  0.00000000000E+00 0.  1.
</event>
<event>
 7    1  0.3861961E-015  0.9000685E+02  0.7816164E-02  0.1186341E+00
        -11   -1    0    0    0    0  0.00000000000E+00  0.00000000000E+00  0.45593999997E+02  0.45594000000E+02  0.51100000000E-03 0. -1.
         11   -1    0    0    0    0 -0.00000000000E+00 -0.00000000000E+00 -0.45593999997E+02  0.45594000000E+02  0.51100000000E-03 0.  1.
    9900012    2    1    2    0    0 -0.12642167376E-02  0.96366709179E+00  0.68298523419E+00  0.90006846034E+02  0.89999095597E+02 0.  0.
        -12    1    1    2    0    0  0.12642167376E-02 -0.96366709179E+00 -0.68298523419E+00  0.11811539663E+01  0.00000000000E+00 0.  1.
         11    1    3    3    0    0  0.37462108185E+01 -0.66842026406E+01  0.39635077838E+02  0.40368949156E+02  0.51100000000E-03 0. -1.
        -11    1    3    3    0    0 -0.13160946312E+01 -0.82998885532E+01 -0.10794577706E+01  0.84726314929E+01  0.51100000000E-03 0.  1.
        -12    1    3    3    0    0 -0.24313804040E+01  0.15947758286E+02 -0.37872634833E+02  0.41165265385E+02  0.00000000000E+00 0.  1.
</event>
<event>
 7    1  0.3861961E-015  0.9000760E+02  0.7816164E-02  0.1186339E+00
        -11   -1    0    0    0    0  0.00000000000E+00  0.00000000000E+00  0.45593999997E+02  0.45594000000E+02  0.51100000000E-03 0.  1.
         11   -1    0    0    0    0 -0.00000000000E+00 -0.00000000000E+00 -0.45593999997E+02  0.45594000000E+02  0.51100000000E-03 0. -1.
    9900012    2    1    2    0    0 -0.95880854453E-02 -0.16381396645E+00 -0.11689375047E+01  0.90007600984E+02  0.89999860517E+02 0.  0.
        -12    1    1    2    0    0  0.95880854453E-02  0.16381396645E+00  0.11689375047E+01  0.11803990160E+01  0.00000000000E+00 0.  1.
         11    1    3    3    0    0 -0.48662653222E+01 -0.22629998930E+02 -0.42592866650E+01  0.23535906885E+02  0.51100000000E-03 0. -1.
        -11    1    3    3    0    0  0.88376677936E+01 -0.20079316197E+02 -0.60848738203E+01  0.22766400695E+02  0.51100000000E-03 0.  1.
        -12    1    3    3    0    0 -0.39809905569E+01  0.42545501160E+02  0.91752229806E+01  0.43705293404E+02  0.00000000000E+00 0.  1.
</event>
<event>
 7    1  0.3861961E-015  0.9000777E+02  0.7816164E-02  0.1186339E+00
        -11   -1    0    0    0    0  0.00000000000E+00  0.00000000000E+00  0.45593999997E+02  0.45594000000E+02  0.51100000000E-03 0. -1.
         11   -1    0    0    0    0 -0.00000000000E+00 -0.00000000000E+00 -0.45593999997E+02  0.45594000000E+02  0.51100000000E-03 0.  1.
    9900012    2    1    2    0    0  0.11205207489E+01 -0.16572855279E+00  0.33153661717E+00  0.90007767298E+02  0.90000029027E+02 0.  0.
        -12    1    1    2    0    0 -0.11205207489E+01  0.16572855279E+00 -0.33153661717E+00  0.11802327018E+01  0.00000000000E+00 0.  1.
         11    1    3    3    0    0  0.82253068552E+01 -0.33544606739E+02 -0.22731850594E+02  0.41347712703E+02  0.51100000000E-03 0. -1.
        -11    1    3    3    0    0 -0.46266515155E+00  0.37890319589E+01 -0.57017945894E+01  0.68615802866E+01  0.51100000000E-03 0.  1.
        -12    1    3    3    0    0 -0.66421209548E+01  0.29589846227E+02  0.28765181800E+02  0.41798474308E+02  0.00000000000E+00 0.  1.
</event>
<event>
 7    1  0.3861961E-015  0.9000790E+02  0.7816164E-02  0.1186339E+00
        -11   -1    0    0    0    0  0.00000000000E+00  0.00000000000E+00  0.45593999997E+02  0.45594000000E+02  0.51100000000E-03 0. -1.
         11   -1    0    0    0    0 -0.00000000000E+00 -0.00000000000E+00 -0.45593999997E+02  0.45594000000E+02  0.51100000000E-03 0.  1.
    9900012    2    1    2    0    0  0.11175535427E+01 -0.25505039806E+00 -0.28045152390E+00  0.90007902680E+02  0.90000166196E+02 0.  0.
        -12    1    1    2    0    0 -0.11175535427E+01  0.25505039806E+00  0.28045152390E+00  0.11800973195E+01  0.00000000000E+00 0.  1.
         11    1    3    3    0    0  0.19384268674E+00 -0.65326488555E+00 -0.98393240572E+01  0.98628914706E+01  0.51100000000E-03 0. -1.
        -11    1    3    3    0    0 -0.19843792723E+02 -0.16322673862E+02 -0.25432877792E+02  0.36152967578E+02  0.51100000000E-03 0.  1.
         12    1    3    3    0    0  0.20767503579E+02  0.16720888350E+02  0.34991750325E+02  0.43992043632E+02  0.00000000000E+00 0. -1.
</event>
<event>
 7    1  0.3861961E-015  0.9000780E+02  0.7816164E-02  0.1186339E+00
        -11   -1    0    0    0    0  0.00000000000E+00  0.00000000000E+00  0.45593999997E+02  0.45594000000E+02  0.51100000000E-03 0. -1.
         11   -1    0    0    0    0 -0.00000000000E+00 -0.00000000000E+00 -0.45593999997E+02  0.45594000000E+02  0.51100000000E-03 0.  1.
    9900012    2    1    2    0    0  0.51625941806E+00  0.74329162374E+00  0.75754232252E+00  0.90007798070E+02  0.90000060205E+02 0.  0.
        -12    1    1    2    0    0 -0.51625941806E+00 -0.74329162374E+00 -0.75754232252E+00  0.11802019298E+01  0.00000000000E+00 0.  1.
         11    1    3    3    0    0  0.34917282911E+01 -0.12904080495E+01  0.91420561127E+01  0.98708920379E+01  0.51100000000E-03 0. -1.
        -11    1    3    3    0    0  0.28246273888E+02 -0.20515069160E+02 -0.19584637608E+02  0.40028465892E+02  0.51100000000E-03 0.  1.
         12    1    3    3    0    0 -0.31221742761E+02  0.22548768833E+02  0.11200123818E+02  0.40108440140E+02  0.00000000000E+00 0. -1.
</event>
<event>
 7    1  0.3861961E-015  0.9000785E+02  0.7816164E-02  0.1186339E+00
        -11   -1    0    0    0    0  0.00000000000E+00  0.00000000000E+00  0.45593999997E+02  0.45594000000E+02  0.51100000000E-03 0.  1.
         11   -1    0    0    0    0 -0.00000000000E+00 -0.00000000000E+00 -0.45593999997E+02  0.45594000000E+02  0.51100000000E-03 0. -1.
    9900012    2    1    2    0    0  0.98445773385E+00  0.36307597489E+00 -0.54016985667E+00  0.90007845490E+02  0.90000108250E+02 0.  0.
        -12    1    1    2    0    0 -0.98445773385E+00 -0.36307597489E+00  0.54016985667E+00  0.11801545099E+01  0.00000000000E+00 0.  1.
         11    1    3    3    0    0 -0.31157494550E+02 -0.15316327434E+02 -0.72182703706E+00  0.34726076474E+02  0.51100000000E-03 0. -1.
        -11    1    3    3    0    0 -0.63392639834E+01 -0.31708818715E+01  0.90784208496E+01  0.11517746528E+02  0.51100000000E-03 0.  1.
        -12    1    3    3    0    0  0.38481216267E+02  0.18850285281E+02 -0.88967636692E+01  0.43764022489E+02  0.00000000000E+00 0.  1.
</event>
<event>
 7    1  0.3861961E-015  0.9000775E+02  0.7816164E-02  0.1186339E+00
        -11   -1    0    0    0    0  0.00000000000E+00  0.00000000000E+00  0.45593999997E+02  0.45594000000E+02  0.51100000000E-03 0.  1.
         11   -1    0    0    0    0 -0.00000000000E+00 -0.00000000000E+00 -0.45593999997E+02  0.45594000000E+02  0.51100000000E-03 0. -1.
    9900012    2    1    2    0    0 -0.11797621001E+01  0.27038002826E-01  0.20543724467E-01  0.90007749302E+02  0.90000010792E+02 0.  0.
        -12    1    1    2    0    0  0.11797621001E+01 -0.27038002826E-01 -0.20543724467E-01  0.11802506984E+01  0.00000000000E+00 0.  1.
         11    1    3    3    0    0 -0.35315629024E+00  0.45639802457E+00  0.98047225835E+01  0.98216904718E+01  0.51100000000E-03 0. -1.
        -11    1    3    3    0    0  0.32258278099E+02 -0.19232347956E+02  0.76504079537E+01  0.38327646105E+02  0.51100000000E-03 0.  1.
         12    1    3    3    0    0 -0.33084883909E+02  0.18802987934E+02 -0.17434586813E+02  0.41858412725E+02  0.00000000000E+00 0. -1.
</event>
<event>
 7    1  0.3861961E-015  0.9000776E+02  0.7816164E-02  0.1186339E+00
        -11   -1    0    0    0    0  0.00000000000E+00  0.00000000000E+00  0.45593999997E+02  0.45594000000E+02  0.51100000000E-03 0. -1.
         11   -1    0    0    0    0 -0.00000000000E+00 -0.00000000000E+00 -0.45593999997E+02  0.45594000000E+02  0.51100000000E-03 0.  1.
    9900012    2    1    2    0    0 -0.34602962695E+00  0.71380756372E+00  0.87390340513E+00  0.90007760659E+02  0.90000022300E+02 0.  0.
        -12    1    1    2    0    0  0.34602962695E+00 -0.71380756372E+00 -0.87390340513E+00  0.11802393411E+01  0.00000000000E+00 0.  1.
         11    1    3    3    0    0  0.85484436738E+01  0.23061778195E+02 -0.67575650896E+01  0.25506591088E+02  0.51100000000E-03 0. -1.
        -11    1    3    3    0    0 -0.12116614287E+02  0.14621298767E+02 -0.12055622185E+02  0.22492948805E+02  0.51100000000E-03 0.  1.
        -12    1    3    3    0    0  0.32221409864E+01 -0.36969269398E+02  0.19687090680E+02  0.42008220765E+02  0.00000000000E+00 0.  1.
</event>
<event>
 7    1  0.3861961E-015  0.9000809E+02  0.7816164E-02  0.1186338E+00
        -11   -1    0    0    0    0  0.00000000000E+00  0.00000000000E+00  0.45593999997E+02  0.45594000000E+02  0.51100000000E-03 0.  1.
         11   -1    0    0    0    0 -0.00000000000E+00 -0.00000000000E+00 -0.45593999997E+02  0.45594000000E+02  0.51100000000E-03 0. -1.
    9900012    2    1    2    0    0 -0.84349078937E+00  0.25675836129E+00 -0.78408943844E+00  0.90008085675E+02  0.90000351605E+02 0.  0.
        -12    1    1    2    0    0  0.84349078937E+00 -0.25675836129E+00  0.78408943844E+00  0.11799143254E+01  0.00000000000E+00 0.  1.
         11    1    3    3    0    0 -0.65276383536E+01  0.48199230935E+01  0.81935981590E+01  0.11531555496E+02  0.51100000000E-03 0. -1.
        -11    1    3    3    0    0 -0.21688894292E+02  0.84939138655E+01 -0.32577722316E+02  0.40048254643E+02  0.51100000000E-03 0.  1.
         12    1    3    3    0    0  0.27373041856E+02 -0.13057078598E+02  0.23600034718E+02  0.38428275536E+02  0.00000000000E+00 0. -1.
</event>
<event>
 7    1  0.3861961E-015  0.9000769E+02  0.7816164E-02  0.1186339E+00
        -11   -1    0    0    0    0  0.00000000000E+00  0.00000000000E+00  0.45593999997E+02  0.45594000000E+02  0.51100000000E-03 0. -1.
         11   -1    0    0    0    0 -0.00000000000E+00 -0.00000000000E+00 -0.45593999997E+02  0.45594000000E+02  0.51100000000E-03 0.  1.
    9900012    2    1    2    0    0  0.11079584783E+01  0.32997675626E+00 -0.23804468896E+00  0.90007694140E+02  0.89999954903E+02 0.  0.
        -12    1    1    2    0    0 -0.11079584783E+01 -0.32997675626E+00  0.23804468896E+00  0.11803058601E+01  0.00000000000E+00 0.  1.
         11    1    3    3    0    0 -0.14103426463E+02  0.32868177857E+02  0.87551282863E+01  0.36822221894E+02  0.51100000000E-03 0. -1.
        -11    1    3    3    0    0  0.37201703921E+01  0.87676118508E+01 -0.10567374475E+01  0.95826603616E+01  0.51100000000E-03 0.  1.
        -12    1    3    3    0    0  0.11491214549E+02 -0.41305812951E+02 -0.79364355278E+01  0.43602811885E+02  0.00000000000E+00 0.  1.
</event>
<event>
 7    1  0.3861961E-015  0.9000775E+02  0.7816164E-02  0.1186339E+00
        -11   -1    0    0    0    0  0.00000000000E+00  0.00000000000E+00  0.45593999997E+02  0.45594000000E+02  0.51100000000E-03 0.  1.
         11   -1    0    0    0    0 -0.00000000000E+00 -0.00000000000E+00 -0.45593999997E+02  0.45594000000E+02  0.51100000000E-03 0. -1.
    9900012    2    1    2    0    0  0.56270020806E+00 -0.10303662679E+01  0.12128920019E+00  0.90007746959E+02  0.90000008419E+02 0.  0.
        -12    1    1    2    0    0 -0.56270020806E+00  0.10303662679E+01 -0.12128920019E+00  0.11802530408E+01  0.00000000000E+00 0.  1.
         11    1    3    3    0    0  0.18936847408E+02 -0.76726400240E+01 -0.32269387478E+02  0.38194069738E+02  0.51100000000E-03 0. -1.
        -11    1    3    3    0    0 -0.64259557129E+01  0.58671691907E+00 -0.74062471229E+01  0.98229140419E+01  0.51100000000E-03 0.  1.
        -12    1    3    3    0    0 -0.11948191487E+02  0.60555568370E+01  0.39796923801E+02  0.41990763180E+02  0.00000000000E+00 0.  1.
</event>
<event>
 7    1  0.3861961E-015  0.9000767E+02  0.7816164E-02  0.1186339E+00
        -11   -1    0    0    0    0  0.00000000000E+00  0.00000000000E+00  0.45593999997E+02  0.45594000000E+02  0.51100000000E-03 0.  1.
         11   -1    0    0    0    0 -0.00000000000E+00 -0.00000000000E+00 -0.45593999997E+02  0.45594000000E+02  0.51100000000E-03 0. -1.
    9900012    2    1    2    0    0 -0.43437936337E+00  0.62904557806E+00 -0.89932493536E+00  0.90007674151E+02  0.89999934650E+02 0.  0.
        -12    1    1    2    0    0  0.43437936337E+00 -0.62904557806E+00  0.89932493536E+00  0.11803258491E+01  0.00000000000E+00 0.  1.
         11    1    3    3    0    0 -0.10698454439E+02 -0.29978756917E+02 -0.29974018261E+02  0.43722129004E+02  0.51100000000E-03 0. -1.
        -11    1    3    3    0    0 -0.21678564644E+01  0.77594490904E+01  0.11761053521E+01  0.81419823076E+01  0.51100000000E-03 0.  1.
        -12    1    3    3    0    0  0.12431931540E+02  0.22848353404E+02  0.27898587974E+02  0.38143562839E+02  0.00000000000E+00 0.  1.
</event>
<event>
 7    1  0.3861961E-015  0.9000773E+02  0.7816164E-02  0.1186339E+00
        -11   -1    0    0    0    0  0.00000000000E+00  0.00000000000E+00  0.45593999997E+02  0.45594000000E+02  0.51100000000E-03 0. -1.
         11   -1    0    0    0    0 -0.00000000000E+00 -0.00000000000E+00 -0.45593999997E+02  0.45594000000E+02  0.51100000000E-03 0.  1.
    9900012    2    1    2    0    0  0.36620496063E+00  0.99556902686E+00  0.51747813489E+00  0.90007725718E+02  0.89999986898E+02 0.  0.
        -12    1    1    2    0    0 -0.36620496063E+00 -0.99556902686E+00 -0.51747813489E+00  0.11802742819E+01  0.00000000000E+00 0.  1.
         11    1    3    3    0    0  0.46504684378E+01  0.60758035469E+01 -0.22187199714E+01  0.79664900680E+01  0.51100000000E-03 0. -1.
        -11    1    3    3    0    0 -0.20017355229E+02  0.13860621081E+02 -0.31535728823E+02  0.39841103395E+02  0.51100000000E-03 0.  1.
         12    1    3    3    0    0  0.15733091751E+02 -0.18940855601E+02  0.34271926929E+02  0.42200132255E+02  0.00000000000E+00 0. -1.
</event>
<event>
 7    1  0.3861961E-015  0.9000781E+02  0.7816164E-02  0.1186339E+00
        -11   -1    0    0    0    0  0.00000000000E+00  0.00000000000E+00  0.45593999997E+02  0.45594000000E+02  0.51100000000E-03 0.  1.
         11   -1    0    0    0    0 -0.00000000000E+00 -0.00000000000E+00 -0.45593999997E+02  0.45594000000E+02  0.51100000000E-03 0. -1.
    9900012    2    1    2    0    0 -0.53508290055E+00 -0.97286135220E+00 -0.40010394095E+00  0.90007806760E+02  0.90000069009E+02 0.  0.
        -12    1    1    2    0    0  0.53508290055E+00  0.97286135220E+00  0.40010394095E+00  0.11801932404E+01  0.00000000000E+00 0.  1.
         11    1    3    3    0    0 -0.24965031371E+02 -0.20846267429E+02 -0.21402362594E+02  0.38934313683E+02  0.51100000000E-03 0. -1.
        -11    1    3    3    0    0  0.19045927045E+01 -0.94008335367E+01  0.50293845222E+01  0.10830413357E+02  0.51100000000E-03 0.  1.
        -12    1    3    3    0    0  0.22525355766E+02  0.29274239613E+02  0.15972874131E+02  0.40243079720E+02  0.00000000000E+00 0.  1.
</event>
<event>
 7    1  0.3861961E-015  0.9000746E+02  0.7816164E-02  0.1186340E+00
        -11   -1    0    0    0    0  0.00000000000E+00  0.00000000000E+00  0.45593999997E+02  0.45594000000E+02  0.51100000000E-03 0.  1.
         11   -1    0    0    0    0 -0.00000000000E+00 -0.00000000000E+00 -0.45593999997E+02  0.45594000000E+02  0.51100000000E-03 0. -1.
    9900012    2    1    2    0    0 -0.23664593307E+00  0.71597907101E+00 -0.90832594032E+00  0.90007456336E+02  0.89999713960E+02 0.  0.
        -12    1    1    2    0    0  0.23664593307E+00 -0.71597907101E+00  0.90832594032E+00  0.11805436636E+01  0.00000000000E+00 0.  1.
         11    1    3    3    0    0  0.23121476691E+02  0.60460220336E+01 -0.16937155608E+02  0.29292051945E+02  0.51100000000E-03 0. -1.
        -11    1    3    3    0    0 -0.18940528999E+02 -0.10845561047E+02 -0.16542345414E+02  0.27386475225E+02  0.51100000000E-03 0.  1.
        -12    1    3    3    0    0 -0.44175936254E+01  0.55155180847E+01  0.32571175082E+02  0.33328929166E+02  0.00000000000E+00 0.  1.
</event>
<event>
 7    1  0.3861961E-015  0.9000772E+02  0.7816164E-02  0.1186339E+00
        -11   -1    0    0    0    0  0.00000000000E+00  0.00000000000E+00  0.45593999997E+02  0.45594000000E+02  0.51100000000E-03 0.  1.
         11   -1    0    0    0    0 -0.00000000000E+00 -0.00000000000E+00 -0.45593999997E+02  0.45594000000E+02  0.51100000000E-03 0. -1.
    9900012    2    1    2    0    0  0.11044501315E+01 -0.25920497797E+00 -0.32566284399E+00  0.90007723083E+02  0.89999984227E+02 0.  0.
        -12    1    1    2    0    0 -0.11044501315E+01  0.25920497797E+00  0.32566284399E+00  0.11802769173E+01  0.00000000000E+00 0.  1.
         11    1    3    3    0    0 -0.57149265098E+01 -0.67417967749E+01  0.50509263482E+00  0.88525322703E+01  0.51100000000E-03 0. -1.
        -11    1    3    3    0    0  0.55172645344E+01 -0.36893630495E+02  0.38770002315E+01  0.37504817159E+02  0.51100000000E-03 0.  1.
         12    1    3    3    0    0  0.13021121070E+01  0.43376222292E+02 -0.47077557103E+01  0.43650373654E+02  0.00000000000E+00 0. -1.
</event>
<event>
 7    1  0.3861961E-015  0.9000771E+02  0.7816164E-02  0.1186339E+00
        -11   -1    0    0    0    0  0.00000000000E+00  0.00000000000E+00  0.45593999997E+02  0.45594000000E+02  0.51100000000E-03 0. -1.
         11   -1    0    0    0    0 -0.00000000000E+00 -0.00000000000E+00 -0.45593999997E+02  0.45594000000E+02  0.51100000000E-03 0.  1.
    9900012    2    1    2    0    0 -0.43766914487E+00 -0.85890562141E+00  0.68103142411E+00  0.90007713193E+02  0.89999974207E+02 0.  0.
        -12    1    1    2    0    0  0.43766914487E+00  0.85890562141E+00 -0.68103142411E+00  0.11802868073E+01  0.00000000000E+00 0.  1.
         11    1    3    3    0    0 -0.58086789451E+01 -0.30802235099E+02  0.18285023192E+02  0.36288572741E+02  0.51100000000E-03 0. -1.
        -11    1    3    3    0    0 -0.82287250041E+01 -0.25221009017E+01  0.67319572647E+01  0.10926671818E+02  0.51100000000E-03 0.  1.
        -12    1    3    3    0    0  0.13599734804E+02  0.32465430379E+02 -0.24335949032E+02  0.42792468634E+02  0.00000000000E+00 0.  1.
</event>
<event>
 7    1  0.3861961E-015  0.9000772E+02  0.7816164E-02  0.1186339E+00
        -11   -1    0    0    0    0  0.00000000000E+00  0.00000000000E+00  0.45593999997E+02  0.45594000000E+02  0.51100000000E-03 0.  1.
         11   -1    0    0    0    0 -0.00000000000E+00 -0.00000000000E+00 -0.45593999997E+02  0.45594000000E+02  0.51100000000E-03 0. -1.
    9900012    2    1    2    0    0  0.86368036838E+00 -0.75010144924E+00 -0.29061493191E+00  0.90007723337E+02  0.89999984485E+02 0.  0.
        -12    1    1    2    0    0 -0.86368036838E+00  0.75010144924E+00  0.29061493191E+00  0.11802766631E+01  0.00000000000E+00 0.  1.
         11    1    3    3    0    0 -0.14607814535E+01 -0.47322303455E+01 -0.73711059923E+01  0.88803766986E+01  0.51100000000E-03 0. -1.
        -11    1    3    3    0    0  0.35566147607E+02 -0.14896587700E+02 -0.90944518346E+01  0.39617776756E+02  0.51100000000E-03 0.  1.
         12    1    3    3    0    0 -0.33241685785E+02  0.18878716596E+02  0.16174942895E+02  0.41509569882E+02  0.00000000000E+00 0. -1.
</event>
<event>
 7    1  0.3861961E-015  0.9000758E+02  0.7816164E-02  0.1186339E+00
        -11   -1    0    0    0    0  0.00000000000E+00  0.00000000000E+00  0.45593999997E+02  0.45594000000E+02  0.51100000000E-03 0. -1.
         11   -1    0    0    0    0 -0.00000000000E+00 -0.00000000000E+00 -0.45593999997E+02  0.45594000000E+02  0.51100000000E-03 0.  1.
    9900012    2    1    2    0    0  0.91215138828E+00  0.74863757726E+00 -0.30087564666E-01  0.90007583277E+02  0.89999842577E+02 0.  0.
        -12    1    1    2    0    0 -0.91215138828E+00 -0.74863757726E+00  0.30087564666E-01  0.11804167225E+01  0.00000000000E+00 0.  1.
         11    1    3    3    0    0 -0.18269342720E+01  0.32153941146E+02  0.24505815882E+02  0.40469107136E+02  0.51100000000E-03 0. -1.
        -11    1    3    3    0    0 -0.74126030552E+01  0.23536743703E+01 -0.41228532865E+01  0.88025216034E+01  0.51100000000E-03 0.  1.
        -12    1    3    3    0    0  0.10151688715E+02 -0.33758977939E+02 -0.20413050160E+02  0.40735954538E+02  0.00000000000E+00 0.  1.
</event>
<event>
 7    1  0.3861961E-015  0.9000772E+02  0.7816164E-02  0.1186339E+00
        -11   -1    0    0    0    0  0.00000000000E+00  0.00000000000E+00  0.45593999997E+02  0.45594000000E+02  0.51100000000E-03 0. -1.
         11   -1    0    0    0    0 -0.00000000000E+00 -0.00000000000E+00 -0.45593999997E+02  0.45594000000E+02  0.51100000000E-03 0.  1.
    9900012    2    1    2    0    0 -0.10012476925E+00 -0.34046263803E+00  0.11256620085E+01  0.90007722603E+02  0.89999983741E+02 0.  0.
        -12    1    1    2    0    0  0.10012476925E+00  0.34046263803E+00 -0.11256620085E+01  0.11802773974E+01  0.00000000000E+00 0.  1.
         11    1    3    3    0    0 -0.66104612515E+01 -0.32911520739E+02 -0.24503706505E+02  0.41560775113E+02  0.51100000000E-03 0. -1.
        -11    1    3    3    0    0 -0.53878515398E+01  0.12920671446E+00  0.80232345781E+01  0.96652952333E+01  0.51100000000E-03 0.  1.
        -12    1    3    3    0    0  0.11898188022E+02  0.32441851386E+02  0.17606133935E+02  0.38781652256E+02  0.00000000000E+00 0.  1.
</event>
<event>
 7    1  0.3861961E-015  0.9000773E+02  0.7816164E-02  0.1186339E+00
        -11   -1    0    0    0    0  0.00000000000E+00  0.00000000000E+00  0.45593999997E+02  0.45594000000E+02  0.51100000000E-03 0.  1.
         11   -1    0    0    0    0 -0.00000000000E+00 -0.00000000000E+00 -0.45593999997E+02  0.45594000000E+02  0.51100000000E-03 0. -1.
    9900012    2    1    2    0    0  0.34416236655E+00 -0.19946959791E+00 -0.11112151839E+01  0.90007730946E+02  0.89999992194E+02 0.  0.
        -12    1    1    2    0    0 -0.34416236655E+00  0.19946959791E+00  0.11112151839E+01  0.11802690541E+01  0.00000000000E+00 0.  1.
         11    1    3    3    0    0  0.12371496850E+02 -0.29961941978E+02 -0.17163201026E+02  0.36678977236E+02  0.51100000000E-03 0. -1.
        -11    1    3    3    0    0  0.30521555824E+01  0.18027869659E+00 -0.10422905534E+02  0.10862095292E+02  0.51100000000E-03 0.  1.
        -12    1    3    3    0    0 -0.15079490066E+02  0.29582193683E+02  0.26474891376E+02  0.42466658417E+02  0.00000000000E+00 0.  1.
</event>
<event>
 7    1  0.4291888E-015  0.9000772E+02  0.7816164E-02  0.1186339E+00
        -11   -1    0    0    0    0  0.00000000000E+00  0.00000000000E+00  0.45593999997E+02  0.45594000000E+02  0.51100000000E-03 0. -1.
         11   -1    0    0    0    0 -0.00000000000E+00 -0.00000000000E+00 -0.45593999997E+02  0.45594000000E+02  0.51100000000E-03 0.  1.
    9900012    2    1    2    0    0  0.93101338844E+00 -0.67569240754E+00  0.26404504641E+00  0.90007717853E+02  0.89999978929E+02 0.  0.
        -12    1    1    2    0    0 -0.93101338844E+00  0.67569240754E+00 -0.26404504641E+00  0.11802821466E+01  0.00000000000E+00 0.  1.
         11    1    3    3    0    0 -0.52051119875E+01 -0.80131712249E+01 -0.93113357359E+00  0.96005788302E+01  0.51100000000E-03 0. -1.
        -11    1    3    3    0    0 -0.23534694527E+02 -0.20926929632E+02  0.17819459742E+02  0.36184960634E+02  0.51100000000E-03 0.  1.
         12    1    3    3    0    0  0.29670819903E+02  0.28264408449E+02 -0.16624281122E+02  0.44222178390E+02  0.00000000000E+00 0. -1.
</event>
<event>
 7    1  0.3861961E-015  0.9000773E+02  0.7816164E-02  0.1186339E+00
        -11   -1    0    0    0    0  0.00000000000E+00  0.00000000000E+00  0.45593999997E+02  0.45594000000E+02  0.51100000000E-03 0. -1.
         11   -1    0    0    0    0 -0.00000000000E+00 -0.00000000000E+00 -0.45593999997E+02  0.45594000000E+02  0.51100000000E-03 0.  1.
    9900012    2    1    2    0    0 -0.67403548490E+00 -0.30005419370E+00  0.92123745486E+00  0.90007731047E+02  0.89999992296E+02 0.  0.
        -12    1    1    2    0    0  0.67403548490E+00  0.30005419370E+00 -0.92123745486E+00  0.11802689534E+01  0.00000000000E+00 0.  1.
         11    1    3    3    0    0  0.19767540880E+01 -0.28921888439E+01 -0.12169834116E+02  0.12664011043E+02  0.51100000000E-03 0. -1.
        -11    1    3    3    0    0 -0.27632201789E+02  0.15988090455E+02 -0.16862219400E+02  0.36103906374E+02  0.51100000000E-03 0.  1.
         12    1    3    3    0    0  0.24981412216E+02 -0.13395955805E+02  0.29953290971E+02  0.41239813630E+02  0.00000000000E+00 0. -1.
</event>
<event>
 7    1  0.3861961E-015  0.9000763E+02  0.7816164E-02  0.1186339E+00
        -11   -1    0    0    0    0  0.00000000000E+00  0.00000000000E+00  0.45593999997E+02  0.45594000000E+02  0.51100000000E-03 0.  1.
         11   -1    0    0    0    0 -0.00000000000E+00 -0.00000000000E+00 -0.45593999997E+02  0.45594000000E+02  0.51100000000E-03 0. -1.
    9900012    2    1    2    0    0 -0.91929230364E+00  0.49996440712E+00 -0.54607824477E+00  0.90007633871E+02  0.89999893839E+02 0.  0.
        -12    1    1    2    0    0  0.91929230364E+00 -0.49996440712E+00  0.54607824477E+00  0.11803661285E+01  0.00000000000E+00 0.  1.
         11    1    3    3    0    0  0.23303425677E+02 -0.80142404802E+01  0.20217574140E+02  0.31875194166E+02  0.51100000000E-03 0. -1.
        -11    1    3    3    0    0  0.75660097576E+01 -0.12563107623E+02  0.82936318314E-01  0.14665710194E+02  0.51100000000E-03 0.  1.
        -12    1    3    3    0    0 -0.31788727738E+02  0.21077312511E+02 -0.20846588703E+02  0.43466729511E+02  0.00000000000E+00 0.  1.
</event>
<event>
 7    1  0.3861961E-015  0.9000774E+02  0.7816164E-02  0.1186339E+00
        -11   -1    0    0    0    0  0.00000000000E+00  0.00000000000E+00  0.45593999997E+02  0.45594000000E+02  0.51100000000E-03 0.  1.
         11   -1    0    0    0    0 -0.00000000000E+00 -0.00000000000E+00 -0.45593999997E+02  0.45594000000E+02  0.51100000000E-03 0. -1.
    9900012    2    1    2    0    0 -0.77119603545E-01  0.11774922111E+01  0.24198071678E-01  0.90007736942E+02  0.89999998269E+02 0.  0.
        -12    1    1    2    0    0  0.77119603545E-01 -0.11774922111E+01 -0.24198071678E-01  0.11802630585E+01  0.00000000000E+00 0.  1.
         11    1    3    3    0    0  0.18167428745E+02  0.10471660610E+01  0.19848091101E+02  0.26927657614E+02  0.51100000000E-03 0. -1.
        -11    1    3    3    0    0  0.17589928240E+02 -0.10081701145E+02 -0.15597774724E+02  0.25580008797E+02  0.51100000000E-03 0.  1.
        -12    1    3    3    0    0 -0.35834476588E+02  0.10212027295E+02 -0.42261183050E+01  0.37500070530E+02  0.00000000000E+00 0.  1.
</event>
<event>
 7    1  0.3861961E-015  0.9000748E+02  0.7816164E-02  0.1186340E+00
        -11   -1    0    0    0    0  0.00000000000E+00  0.00000000000E+00  0.45593999997E+02  0.45594000000E+02  0.51100000000E-03 0. -1.
         11   -1    0    0    0    0 -0.00000000000E+00 -0.00000000000E+00 -0.45593999997E+02  0.45594000000E+02  0.51100000000E-03 0.  1.
    9900012    2    1    2    0    0 -0.11137153434E+01 -0.29715975086E+00 -0.25489868145E+00  0.90007475065E+02  0.89999732936E+02 0.  0.
        -12    1    1    2    0    0  0.11137153434E+01  0.29715975086E+00  0.25489868145E+00  0.11805249347E+01  0.00000000000E+00 0.  1.
         11    1    3    3    0    0 -0.60990382527E+01  0.44849929424E+01 -0.42947884661E+01  0.87039437918E+01  0.51100000000E-03 0. -1.
        -11    1    3    3    0    0 -0.14472097086E+02  0.33797481669E+02 -0.51613162145E+01  0.37126143707E+02  0.51100000000E-03 0.  1.
         12    1    3    3    0    0  0.19457419995E+02 -0.38579634362E+02  0.92012059992E+01  0.44177387567E+02  0.00000000000E+00 0. -1.
</event>
<event>
 7    1  0.3861961E-015  0.9000775E+02  0.7816164E-02  0.1186339E+00
        -11   -1    0    0    0    0  0.00000000000E+00  0.00000000000E+00  0.45593999997E+02  0.45594000000E+02  0.51100000000E-03 0. -1.
         11   -1    0    0    0    0 -0.00000000000E+00 -0.00000000000E+00 -0.45593999997E+02  0.45594000000E+02  0.51100000000E-03 0.  1.
    9900012    2    1    2    0    0 -0.88322892012E+00 -0.55343346111E+00  0.55373064098E+00  0.90007745983E+02  0.90000007430E+02 0.  0.
        -12    1    1    2    0    0  0.88322892012E+00  0.55343346111E+00 -0.55373064098E+00  0.11802540167E+01  0.00000000000E+00 0.  1.
         11    1    3    3    0    0  0.19935102480E+01  0.93974854101E+01  0.24535410559E+00  0.96097353783E+01  0.51100000000E-03 0. -1.
        -11    1    3    3    0    0 -0.33100173875E+02  0.17761658247E+02 -0.83665795040E+01  0.38485031728E+02  0.51100000000E-03 0.  1.
         12    1    3    3    0    0  0.30223434707E+02 -0.27712577118E+02  0.86749560394E+01  0.41912978877E+02  0.00000000000E+00 0. -1.
</event>
<event>
 7    1  0.3861961E-015  0.9000764E+02  0.7816164E-02  0.1186339E+00
        -11   -1    0    0    0    0  0.00000000000E+00  0.00000000000E+00  0.45593999997E+02  0.45594000000E+02  0.51100000000E-03 0.  1.
         11   -1    0    0    0    0 -0.00000000000E+00 -0.00000000000E+00 -0.45593999997E+02  0.45594000000E+02  0.51100000000E-03 0. -1.
    9900012    2    1    2    0    0  0.45362907537E+00 -0.71088964347E+00 -0.82590394637E+00  0.90007635331E+02  0.89999895317E+02 0.  0.
        -12    1    1    2    0    0 -0.45362907537E+00  0.71088964347E+00  0.82590394637E+00  0.11803646690E+01  0.00000000000E+00 0.  1.
         11    1    3    3    0    0  0.18824378883E+02 -0.31223933439E+02 -0.67457827927E+01  0.37078252999E+02  0.51100000000E-03 0. -1.
        -11    1    3    3    0    0  0.81365702625E+01 -0.28398431952E+01  0.56871322791E+01  0.10325306718E+02  0.51100000000E-03 0.  1.
        -12    1    3    3    0    0 -0.26507320070E+02  0.33352886990E+02  0.23274656719E+00  0.42604075613E+02  0.00000000000E+00 0.  1.
</event>
<event>
 7    1  0.3861961E-015  0.9000771E+02  0.7816164E-02  0.1186339E+00
        -11   -1    0    0    0    0  0.00000000000E+00  0.00000000000E+00  0.45593999997E+02  0.45594000000E+02  0.51100000000E-03 0. -1.
         11   -1    0    0    0    0 -0.00000000000E+00 -0.00000000000E+00 -0.45593999997E+02  0.45594000000E+02  0.51100000000E-03 0.  1.
    9900012    2    1    2    0    0  0.33123987174E+00  0.88038553434E+00  0.71293826956E+00  0.90007712104E+02  0.89999973104E+02 0.  0.
        -12    1    1    2    0    0 -0.33123987174E+00 -0.88038553434E+00 -0.71293826956E+00  0.11802878962E+01  0.00000000000E+00 0.  1.
         11    1    3    3    0    0 -0.34770384095E+01  0.66414406286E+01  0.38076091175E+02  0.38807051539E+02  0.51100000000E-03 0. -1.
        -11    1    3    3    0    0  0.10242607830E+02  0.88564819438E+01 -0.38513184240E+01  0.14077675285E+02  0.51100000000E-03 0.  1.
        -12    1    3    3    0    0 -0.64343295486E+01 -0.14617537038E+02 -0.33511834481E+02  0.37122985280E+02  0.00000000000E+00 0.  1.
</event>
<event>
 7    1  0.3861961E-015  0.9000766E+02  0.7816164E-02  0.1186339E+00
        -11   -1    0    0    0    0  0.00000000000E+00  0.00000000000E+00  0.45593999997E+02  0.45594000000E+02  0.51100000000E-03 0. -1.
         11   -1    0    0    0    0 -0.00000000000E+00 -0.00000000000E+00 -0.45593999997E+02  0.45594000000E+02  0.51100000000E-03 0.  1.
    9900012    2    1    2    0    0  0.31792895354E+00  0.59966052620E+00  0.96568239124E+00  0.90007655115E+02  0.89999915363E+02 0.  0.
        -12    1    1    2    0    0 -0.31792895354E+00 -0.59966052620E+00 -0.96568239124E+00  0.11803448847E+01  0.00000000000E+00 0.  1.
         11    1    3    3    0    0  0.30988384453E+02  0.17627843613E+02 -0.51499519686E+00  0.35655098678E+02  0.51100000000E-03 0. -1.
        -11    1    3    3    0    0  0.10194059378E+02 -0.11110065739E+01 -0.16481976253E+01  0.10386035715E+02  0.51100000000E-03 0.  1.
        -12    1    3    3    0    0 -0.40864514877E+02 -0.15917176513E+02  0.31288752134E+01  0.43966520722E+02  0.00000000000E+00 0.  1.
</event>
<event>
 7    1  0.3861961E-015  0.9000771E+02  0.7816164E-02  0.1186339E+00
        -11   -1    0    0    0    0  0.00000000000E+00  0.00000000000E+00  0.45593999997E+02  0.45594000000E+02  0.51100000000E-03 0.  1.
         11   -1    0    0    0    0 -0.00000000000E+00 -0.00000000000E+00 -0.45593999997E+02  0.45594000000E+02  0.51100000000E-03 0. -1.
    9900012    2    1    2    0    0 -0.28125672536E+00 -0.11462857375E+01  0.29412963765E-02  0.90007709786E+02  0.89999970755E+02 0.  0.
        -12    1    1    2    0    0  0.28125672536E+00  0.11462857375E+01 -0.29412963765E-02  0.11802902138E+01  0.00000000000E+00 0.  1.
         11    1    3    3    0    0  0.81973604816E+01 -0.16879228395E+02 -0.27836585334E+01  0.18969813525E+02  0.51100000000E-03 0. -1.
        -11    1    3    3    0    0 -0.64967851847E+00  0.40157534936E+02  0.14685658958E+02  0.42763515683E+02  0.51100000000E-03 0.  1.
         12    1    3    3    0    0 -0.78289386885E+01 -0.24424592278E+02 -0.11899059128E+02  0.28274380578E+02  0.00000000000E+00 0. -1.
</event>
<event>
 7    1  0.3861961E-015  0.9000778E+02  0.7816164E-02  0.1186339E+00
        -11   -1    0    0    0    0  0.00000000000E+00  0.00000000000E+00  0.45593999997E+02  0.45594000000E+02  0.51100000000E-03 0.  1.
         11   -1    0    0    0    0 -0.00000000000E+00 -0.00000000000E+00 -0.45593999997E+02  0.45594000000E+02  0.51100000000E-03 0. -1.
    9900012    2    1    2    0    0 -0.45776012782E+00  0.72242561348E+00 -0.81330732874E+00  0.90007783108E+02  0.90000045045E+02 0.  0.
        -12    1    1    2    0    0  0.45776012782E+00 -0.72242561348E+00  0.81330732874E+00  0.11802168922E+01  0.00000000000E+00 0.  1.
         11    1    3    3    0    0  0.21613542515E+02 -0.29008725762E+02  0.60848963449E+01  0.36683475219E+02  0.51100000000E-03 0. -1.
        -11    1    3    3    0    0  0.89065057615E+01  0.13255607937E+01  0.40779142361E+01  0.98849552895E+01  0.51100000000E-03 0.  1.
        -12    1    3    3    0    0 -0.30977808404E+02  0.28405590582E+02 -0.10976117910E+02  0.43439352599E+02  0.00000000000E+00 0.  1.
</event>
<event>
 7    1  0.3861961E-015  0.9000769E+02  0.7816164E-02  0.1186339E+00
        -11   -1    0    0    0    0  0.00000000000E+00  0.00000000000E+00  0.45593999997E+02  0.45594000000E+02  0.51100000000E-03 0.  1.
         11   -1    0    0    0    0 -0.00000000000E+00 -0.00000000000E+00 -0.45593999997E+02  0.45594000000E+02  0.51100000000E-03 0. -1.
    9900012    2    1    2    0    0 -0.80256461035E+00 -0.34164322340E+00 -0.79517453773E+00  0.90007689621E+02  0.89999950324E+02 0.  0.
        -12    1    1    2    0    0  0.80256461035E+00  0.34164322340E+00  0.79517453773E+00  0.11803103792E+01  0.00000000000E+00 0.  1.
         11    1    3    3    0    0 -0.18370310712E+02 -0.10540062486E+02 -0.32693948509E+02  0.38954531216E+02  0.51100000000E-03 0. -1.
        -11    1    3    3    0    0 -0.72731499888E+01 -0.40995851035E+01  0.24703545958E+00  0.83526244714E+01  0.51100000000E-03 0.  1.
        -12    1    3    3    0    0  0.24840896091E+02  0.14298004366E+02  0.31651738512E+02  0.42700533934E+02  0.00000000000E+00 0.  1.
</event>
<event>
 7    1  0.3861961E-015  0.9000773E+02  0.7816164E-02  0.1186339E+00
        -11   -1    0    0    0    0  0.00000000000E+00  0.00000000000E+00  0.45593999997E+02  0.45594000000E+02  0.51100000000E-03 0.  1.
         11   -1    0    0    0    0 -0.00000000000E+00 -0.00000000000E+00 -0.45593999997E+02  0.45594000000E+02  0.51100000000E-03 0. -1.
    9900012    2    1    2    0    0  0.11409955831E+01 -0.25024858616E+00 -0.16897695387E+00  0.90007725250E+02  0.89999986423E+02 0.  0.
        -12    1    1    2    0    0 -0.11409955831E+01  0.25024858616E+00  0.16897695387E+00  0.11802747504E+01  0.00000000000E+00 0.  1.
         11    1    3    3    0    0 -0.87972345655E+01 -0.56104139121E+00  0.30268350121E+01  0.93202915134E+01  0.51100000000E-03 0. -1.
        -11    1    3    3    0    0 -0.23468030335E+02  0.60545472574E+01  0.26292822741E+02  0.35759173903E+02  0.51100000000E-03 0.  1.
         12    1    3    3    0    0  0.33406260483E+02 -0.57437544524E+01 -0.29488634707E+02  0.44928259833E+02  0.00000000000E+00 0. -1.
</event>
<event>
 7    1  0.3861961E-015  0.9000769E+02  0.7816164E-02  0.1186339E+00
        -11   -1    0    0    0    0  0.00000000000E+00  0.00000000000E+00  0.45593999997E+02  0.45594000000E+02  0.51100000000E-03 0.  1.
         11   -1    0    0    0    0 -0.00000000000E+00 -0.00000000000E+00 -0.45593999997E+02  0.45594000000E+02  0.51100000000E-03 0. -1.
    9900012    2    1    2    0    0 -0.71348605842E+00 -0.93632114782E+00  0.85910467335E-01  0.90007686374E+02  0.89999947034E+02 0.  0.
        -12    1    1    2    0    0  0.71348605842E+00  0.93632114782E+00 -0.85910467335E-01  0.11803136260E+01  0.00000000000E+00 0.  1.
         11    1    3    3    0    0  0.12646599590E+02 -0.93405468898E+01 -0.36786657008E+02  0.40005505015E+02  0.51100000000E-03 0. -1.
        -11    1    3    3    0    0 -0.22598419521E+00 -0.10526959328E+02  0.91068049647E+01  0.13921272876E+02  0.51100000000E-03 0.  1.
        -12    1    3    3    0    0 -0.13134101454E+02  0.18931185070E+02  0.27765762511E+02  0.36080908483E+02  0.00000000000E+00 0.  1.
</event>
<event>
 7    1  0.3861961E-015  0.9000773E+02  0.7816164E-02  0.1186339E+00
        -11   -1    0    0    0    0  0.00000000000E+00  0.00000000000E+00  0.45593999997E+02  0.45594000000E+02  0.51100000000E-03 0.  1.
         11   -1    0    0    0    0 -0.00000000000E+00 -0.00000000000E+00 -0.45593999997E+02  0.45594000000E+02  0.51100000000E-03 0. -1.
    9900012    2    1    2    0    0  0.94965876504E+00  0.56021982947E-01 -0.69860384093E+00  0.90007729879E+02  0.89999991113E+02 0.  0.
        -12    1    1    2    0    0 -0.94965876504E+00 -0.56021982947E-01  0.69860384093E+00  0.11802701213E+01  0.00000000000E+00 0.  1.
         11    1    3    3    0    0 -0.35023924059E+02 -0.21194462215E+02  0.55483358946E+01  0.41311796337E+02  0.51100000000E-03 0. -1.
        -11    1    3    3    0    0  0.46355961178E+01 -0.42482732236E+01 -0.53960797708E+01  0.82857862574E+01  0.51100000000E-03 0.  1.
        -12    1    3    3    0    0  0.31337986707E+02  0.25498757422E+02 -0.85085996469E+00  0.40410147285E+02  0.00000000000E+00 0.  1.
</event>
<event>
 7    1  0.3861961E-015  0.9000779E+02  0.7816164E-02  0.1186339E+00
        -11   -1    0    0    0    0  0.00000000000E+00  0.00000000000E+00  0.45593999997E+02  0.45594000000E+02  0.51100000000E-03 0. -1.
         11   -1    0    0    0    0 -0.00000000000E+00 -0.00000000000E+00 -0.45593999997E+02  0.45594000000E+02  0.51100000000E-03 0.  1.
    9900012    2    1    2    0    0 -0.68759114406E-01 -0.82410749399E+00  0.84202815117E+00  0.90007791381E+02  0.90000053427E+02 0.  0.
        -12    1    1    2    0    0  0.68759114406E-01  0.82410749399E+00 -0.84202815117E+00  0.11802086192E+01  0.00000000000E+00 0.  1.
         11    1    3    3    0    0 -0.20628427451E+01 -0.47741791837E+01 -0.76217933210E+01  0.92271252705E+01  0.51100000000E-03 0. -1.
        -11    1    3    3    0    0  0.28544641720E+01 -0.37932182305E+02 -0.18467022472E-01  0.38039436923E+02  0.51100000000E-03 0.  1.
         12    1    3    3    0    0 -0.86038054135E+00  0.41882253995E+02  0.84822884946E+01  0.42741229187E+02  0.00000000000E+00 0. -1.
</event>
<event>
 7    1  0.3861961E-015  0.9000774E+02  0.7816164E-02  0.1186339E+00
        -11   -1    0    0    0    0  0.00000000000E+00  0.00000000000E+00  0.45593999997E+02  0.45594000000E+02  0.51100000000E-03 0.  1.
         11   -1    0    0    0    0 -0.00000000000E+00 -0.00000000000E+00 -0.45593999997E+02  0.45594000000E+02  0.51100000000E-03 0. -1.
    9900012    2    1    2    0    0 -0.99516111811E+00  0.68219085218E-01  0.63088422966E+00  0.90007739687E+02  0.90000001051E+02 0.  0.
        -12    1    1    2    0    0  0.99516111811E+00 -0.68219085218E-01 -0.63088422966E+00  0.11802603127E+01  0.00000000000E+00 0.  1.
         11    1    3    3    0    0  0.72279837710E+01  0.43487046458E+01  0.10483220097E+02  0.13455589372E+02  0.51100000000E-03 0. -1.
        -11    1    3    3    0    0 -0.35773247825E+01  0.10294196400E+02  0.31037169193E+02  0.32894887200E+02  0.51100000000E-03 0.  1.
         12    1    3    3    0    0 -0.46458201066E+01 -0.14574681961E+02 -0.40889505060E+02  0.43657263116E+02  0.00000000000E+00 0. -1.
</event>
<event>
 7    1  0.3861961E-015  0.9000780E+02  0.7816164E-02  0.1186339E+00
        -11   -1    0    0    0    0  0.00000000000E+00  0.00000000000E+00  0.45593999997E+02  0.45594000000E+02  0.51100000000E-03 0. -1.
         11   -1    0    0    0    0 -0.00000000000E+00 -0.00000000000E+00 -0.45593999997E+02  0.45594000000E+02  0.51100000000E-03 0.  1.
    9900012    2    1    2    0    0 -0.63799622078E+00  0.86195777225E+00  0.49281285773E+00  0.90007798792E+02  0.90000060936E+02 0.  0.
        -12    1    1    2    0    0  0.63799622078E+00 -0.86195777225E+00 -0.49281285773E+00  0.11802012081E+01  0.00000000000E+00 0.  1.
         11    1    3    3    0    0 -0.26353208058E+02 -0.23595690416E+02 -0.12645431682E+02  0.37565344720E+02  0.51100000000E-03 0. -1.
        -11    1    3    3    0    0 -0.72351654090E+01 -0.30446019524E+01  0.21293415813E+01  0.81333458905E+01  0.51100000000E-03 0.  1.
        -12    1    3    3    0    0  0.32950377247E+02  0.27502250141E+02  0.11008902959E+02  0.44309108182E+02  0.00000000000E+00 0.  1.
</event>
<event>
 7    1  0.3861961E-015  0.9000777E+02  0.7816164E-02  0.1186339E+00
        -11   -1    0    0    0    0  0.00000000000E+00  0.00000000000E+00  0.45593999997E+02  0.45594000000E+02  0.51100000000E-03 0. -1.
         11   -1    0    0    0    0 -0.00000000000E+00 -0.00000000000E+00 -0.45593999997E+02  0.45594000000E+02  0.51100000000E-03 0.  1.
    9900012    2    1    2    0    0 -0.22587744715E+00  0.97738570312E+00 -0.62180047432E+00  0.90007771521E+02  0.90000033305E+02 0.  0.
        -12    1    1    2    0    0  0.22587744715E+00 -0.97738570312E+00  0.62180047432E+00  0.11802284794E+01  0.00000000000E+00 0.  1.
         11    1    3    3    0    0 -0.59055469319E+01  0.13127973084E+02 -0.64503838029E+01  0.15774238914E+02  0.51100000000E-03 0. -1.
        -11    1    3    3    0    0 -0.56438551051E+01  0.26492266934E+02 -0.12689537258E+02  0.29911831502E+02  0.51100000000E-03 0.  1.
        -12    1    3    3    0    0  0.11323524590E+02 -0.38642854315E+02  0.18518120586E+02  0.44321701104E+02  0.00000000000E+00 0.  1.
</event>
<event>
 7    1  0.3861961E-015  0.9000782E+02  0.7816164E-02  0.1186339E+00
        -11   -1    0    0    0    0  0.00000000000E+00  0.00000000000E+00  0.45593999997E+02  0.45594000000E+02  0.51100000000E-03 0.  1.
         11   -1    0    0    0    0 -0.00000000000E+00 -0.00000000000E+00 -0.45593999997E+02  0.45594000000E+02  0.51100000000E-03 0. -1.
    9900012    2    1    2    0    0 -0.10370579586E+01  0.48978423793E+00 -0.27831137268E+00  0.90007815680E+02  0.90000078047E+02 0.  0.
        -12    1    1    2    0    0  0.10370579586E+01 -0.48978423793E+00  0.27831137268E+00  0.11801843201E+01  0.00000000000E+00 0.  1.
         11    1    3    3    0    0  0.11189255306E+01 -0.36266838888E+01  0.87133984474E+01  0.95041119068E+01  0.51100000000E-03 0. -1.
        -11    1    3    3    0    0  0.36952103854E+02  0.10483305450E+02 -0.13298519668E+02  0.40647365203E+02  0.51100000000E-03 0.  1.
         12    1    3    3    0    0 -0.39108087343E+02 -0.63668373229E+01  0.43068098483E+01  0.39856338570E+02  0.00000000000E+00 0. -1.
</event>
<event>
 7    1  0.3861961E-015  0.9000734E+02  0.7816164E-02  0.1186340E+00
        -11   -1    0    0    0    0  0.00000000000E+00  0.00000000000E+00  0.45593999997E+02  0.45594000000E+02  0.51100000000E-03 0.  1.
         11   -1    0    0    0    0 -0.00000000000E+00 -0.00000000000E+00 -0.45593999997E+02  0.45594000000E+02  0.51100000000E-03 0. -1.
    9900012    2    1    2    0    0 -0.72865551871E+00 -0.40446074286E+00 -0.83632507222E+00  0.90007336210E+02  0.89999592248E+02 0.  0.
        -12    1    1    2    0    0  0.72865551871E+00  0.40446074286E+00  0.83632507222E+00  0.11806637895E+01  0.00000000000E+00 0.  1.
         11    1    3    3    0    0  0.12670892097E+02 -0.24379975783E+02  0.22483209570E+02  0.35502527214E+02  0.51100000000E-03 0. -1.
        -11    1    3    3    0    0 -0.13186568201E+02 -0.51235217926E+01  0.38832868328E+01  0.14670241081E+02  0.51100000000E-03 0.  1.
        -12    1    3    3    0    0 -0.21297941483E+00  0.29099036833E+02 -0.27202821475E+02  0.39834567916E+02  0.00000000000E+00 0.  1.
</event>
<event>
 7    1  0.3861961E-015  0.9000781E+02  0.7816164E-02  0.1186339E+00
        -11   -1    0    0    0    0  0.00000000000E+00  0.00000000000E+00  0.45593999997E+02  0.45594000000E+02  0.51100000000E-03 0.  1.
         11   -1    0    0    0    0 -0.00000000000E+00 -0.00000000000E+00 -0.45593999997E+02  0.45594000000E+02  0.51100000000E-03 0. -1.
    9900012    2    1    2    0    0 -0.10389811746E+01 -0.55069669460E+00  0.10049624096E+00  0.90007810089E+02  0.90000072383E+02 0.  0.
        -12    1    1    2    0    0  0.10389811746E+01  0.55069669460E+00 -0.10049624096E+00  0.11801899106E+01  0.00000000000E+00 0.  1.
         11    1    3    3    0    0  0.49395574952E+01  0.55361646096E+01 -0.69913799287E+01  0.10194495593E+02  0.51100000000E-03 0. -1.
        -11    1    3    3    0    0  0.34251907699E+02 -0.13006831663E+02  0.12329756081E+02  0.38657389154E+02  0.51100000000E-03 0.  1.
         12    1    3    3    0    0 -0.40230446369E+02  0.69199703587E+01 -0.52378799109E+01  0.41155925342E+02  0.00000000000E+00 0. -1.
</event>
<event>
 7    1  0.4131345E-015  0.9000662E+02  0.7816164E-02  0.1186341E+00
        -11   -1    0    0    0    0  0.00000000000E+00  0.00000000000E+00  0.45593999997E+02  0.45594000000E+02  0.51100000000E-03 0. -1.
         11   -1    0    0    0    0 -0.00000000000E+00 -0.00000000000E+00 -0.45593999997E+02  0.45594000000E+02  0.51100000000E-03 0.  1.
    9900012    2    1    2    0    0 -0.65916259343E+00 -0.49884935124E+00  0.84399098799E+00  0.90006616579E+02  0.89998863111E+02 0.  0.
        -12    1    1    2    0    0  0.65916259343E+00  0.49884935124E+00 -0.84399098799E+00  0.11813834211E+01  0.00000000000E+00 0.  1.
         11    1    3    3    0    0 -0.82654133237E+01  0.51821591297E+01  0.27605805657E+00  0.97595101808E+01  0.51100000000E-03 0. -1.
        -11    1    3    3    0    0 -0.23195042661E+01  0.27839862496E+02 -0.24557311655E+02  0.37195424447E+02  0.51100000000E-03 0.  1.
         12    1    3    3    0    0  0.99257549964E+01 -0.33520870976E+02  0.25125244587E+02  0.43051681951E+02  0.00000000000E+00 0. -1.
</event>
<event>
 7    1  0.3861961E-015  0.9000769E+02  0.7816164E-02  0.1186339E+00
        -11   -1    0    0    0    0  0.00000000000E+00  0.00000000000E+00  0.45593999997E+02  0.45594000000E+02  0.51100000000E-03 0.  1.
         11   -1    0    0    0    0 -0.00000000000E+00 -0.00000000000E+00 -0.45593999997E+02  0.45594000000E+02  0.51100000000E-03 0. -1.
    9900012    2    1    2    0    0  0.10151897695E+01 -0.59723192085E+00  0.76318359345E-01  0.90007694647E+02  0.89999955416E+02 0.  0.
        -12    1    1    2    0    0 -0.10151897695E+01  0.59723192085E+00 -0.76318359345E-01  0.11803053534E+01  0.00000000000E+00 0.  1.
         11    1    3    3    0    0 -0.27666938914E+02  0.17618020162E+02 -0.22230624825E+02  0.39623917318E+02  0.51100000000E-03 0. -1.
        -11    1    3    3    0    0 -0.56979696370E+01 -0.64985225357E+01  0.24253053700E+01  0.89766229468E+01  0.51100000000E-03 0.  1.
        -12    1    3    3    0    0  0.34380098320E+02 -0.11716729547E+02  0.19881637815E+02  0.41407154381E+02  0.00000000000E+00 0.  1.
</event>
<event>
 7    1  0.3861961E-015  0.9000818E+02  0.7816164E-02  0.1186338E+00
        -11   -1    0    0    0    0  0.00000000000E+00  0.00000000000E+00  0.45593999997E+02  0.45594000000E+02  0.51100000000E-03 0.  1.
         11   -1    0    0    0    0 -0.00000000000E+00 -0.00000000000E+00 -0.45593999997E+02  0.45594000000E+02  0.51100000000E-03 0. -1.
    9900012    2    1    2    0    0  0.98899417772E+00 -0.59835535577E+00 -0.23631305895E+00  0.90008176930E+02  0.90000444064E+02 0.  0.
        -12    1    1    2    0    0 -0.98899417772E+00  0.59835535577E+00  0.23631305895E+00  0.11798230703E+01  0.00000000000E+00 0.  1.
         11    1    3    3    0    0 -0.60736981134E+01 -0.75346452069E+01 -0.15277503362E+01  0.97976889376E+01  0.51100000000E-03 0. -1.
        -11    1    3    3    0    0 -0.29795229143E+02 -0.18324116933E+01 -0.20772240476E+02  0.36367559541E+02  0.51100000000E-03 0.  1.
         12    1    3    3    0    0  0.36857921434E+02  0.87687015444E+01  0.22063677753E+02  0.43842928452E+02  0.00000000000E+00 0. -1.
</event>
<event>
 7    1  0.3861961E-015  0.9000775E+02  0.7816164E-02  0.1186339E+00
        -11   -1    0    0    0    0  0.00000000000E+00  0.00000000000E+00  0.45593999997E+02  0.45594000000E+02  0.51100000000E-03 0.  1.
         11   -1    0    0    0    0 -0.00000000000E+00 -0.00000000000E+00 -0.45593999997E+02  0.45594000000E+02  0.51100000000E-03 0. -1.
    9900012    2    1    2    0    0  0.35366770819E+00  0.19134332628E+00 -0.11096407642E+01  0.90007747594E+02  0.90000009062E+02 0.  0.
        -12    1    1    2    0    0 -0.35366770819E+00 -0.19134332628E+00  0.11096407642E+01  0.11802524060E+01  0.00000000000E+00 0.  1.
         11    1    3    3    0    0 -0.19292955892E+01 -0.93186394683E+01 -0.52927029923E+01  0.10889073801E+02  0.51100000000E-03 0. -1.
        -11    1    3    3    0    0 -0.30955533989E+02 -0.14044231953E+02  0.14715581266E+02  0.37040975526E+02  0.51100000000E-03 0.  1.
         12    1    3    3    0    0  0.33238497286E+02  0.23554214747E+02 -0.10532519038E+02  0.42077698267E+02  0.00000000000E+00 0. -1.
</event>
<event>
 7    1  0.3861961E-015  0.9000767E+02  0.7816164E-02  0.1186339E+00
        -11   -1    0    0    0    0  0.00000000000E+00  0.00000000000E+00  0.45593999997E+02  0.45594000000E+02  0.51100000000E-03 0.  1.
         11   -1    0    0    0    0 -0.00000000000E+00 -0.00000000000E+00 -0.45593999997E+02  0.45594000000E+02  0.51100000000E-03 0. -1.
    9900012    2    1    2    0    0 -0.69814608715E+00 -0.25843859007E+00 -0.91596425836E+00  0.90007665731E+02  0.89999926119E+02 0.  0.
        -12    1    1    2    0    0  0.69814608715E+00  0.25843859007E+00  0.91596425836E+00  0.11803342689E+01  0.00000000000E+00 0.  1.
         11    1    3    3    0    0 -0.32122655384E+02  0.30682884108E+01 -0.21889275171E+02  0.38992560194E+02  0.51100000000E-03 0. -1.
        -11    1    3    3    0    0 -0.73799083363E+01  0.10487787640E+01  0.33858016330E+01  0.81869797182E+01  0.51100000000E-03 0.  1.
        -12    1    3    3    0    0  0.38804417633E+02 -0.43755057648E+01  0.17587509280E+02  0.42828125819E+02  0.00000000000E+00 0.  1.
</event>
<event>
 7    1  0.4166608E-015  0.9000766E+02  0.7816164E-02  0.1186339E+00
        -11   -1    0    0    0    0  0.00000000000E+00  0.00000000000E+00  0.45593999997E+02  0.45594000000E+02  0.51100000000E-03 0.  1.
         11   -1    0    0    0    0 -0.00000000000E+00 -0.00000000000E+00 -0.45593999997E+02  0.45594000000E+02  0.51100000000E-03 0. -1.
    9900012    2    1    2    0    0  0.11649745506E+01 -0.16833688773E+00  0.87744008366E-01  0.90007660209E+02  0.89999920524E+02 0.  0.
        -12    1    1    2    0    0 -0.11649745506E+01  0.16833688773E+00 -0.87744008366E-01  0.11803397910E+01  0.00000000000E+00 0.  1.
         11    1    3    3    0    0 -0.70922230488E+01  0.31989013014E+01  0.57332315836E+01  0.96644990539E+01  0.51100000000E-03 0. -1.
        -11    1    3    3    0    0  0.11726928500E+02  0.32077347443E+01  0.36021638371E+02  0.38018006858E+02  0.51100000000E-03 0.  1.
         12    1    3    3    0    0 -0.34697309007E+01 -0.65749729334E+01 -0.41667125947E+02  0.42325154297E+02  0.00000000000E+00 0. -1.
</event>
<event>
 7    1  0.3861961E-015  0.9000758E+02  0.7816164E-02  0.1186339E+00
        -11   -1    0    0    0    0  0.00000000000E+00  0.00000000000E+00  0.45593999997E+02  0.45594000000E+02  0.51100000000E-03 0.  1.
         11   -1    0    0    0    0 -0.00000000000E+00 -0.00000000000E+00 -0.45593999997E+02  0.45594000000E+02  0.51100000000E-03 0. -1.
    9900012    2    1    2    0    0 -0.20972546870E+00 -0.50709297811E+00 -0.10451170964E+01  0.90007577277E+02  0.89999836497E+02 0.  0.
        -12    1    1    2    0    0  0.20972546870E+00  0.50709297811E+00  0.10451170964E+01  0.11804227234E+01  0.00000000000E+00 0.  1.
         11    1    3    3    0    0 -0.10015772881E+02  0.79699959266E+00 -0.92274957543E+01  0.13641759157E+02  0.51100000000E-03 0. -1.
        -11    1    3    3    0    0 -0.16857940391E+02  0.27560401119E+02 -0.89107975213E+01  0.33513701329E+02  0.51100000000E-03 0.  1.
         12    1    3    3    0    0  0.26663987803E+02 -0.28864493689E+02  0.17093176179E+02  0.42852116790E+02  0.00000000000E+00 0. -1.
</event>
<event>
 7    1  0.3861961E-015  0.9000777E+02  0.7816164E-02  0.1186339E+00
        -11   -1    0    0    0    0  0.00000000000E+00  0.00000000000E+00  0.45593999997E+02  0.45594000000E+02  0.51100000000E-03 0.  1.
         11   -1    0    0    0    0 -0.00000000000E+00 -0.00000000000E+00 -0.45593999997E+02  0.45594000000E+02  0.51100000000E-03 0. -1.
    9900012    2    1    2    0    0  0.48888038967E+00 -0.10713493812E+01 -0.78458672667E-01  0.90007767271E+02  0.90000028999E+02 0.  0.
        -12    1    1    2    0    0 -0.48888038967E+00  0.10713493812E+01  0.78458672667E-01  0.11802327293E+01  0.00000000000E+00 0.  1.
         11    1    3    3    0    0 -0.23063704472E+02 -0.98733356138E+01 -0.26410529729E+02  0.36427095697E+02  0.51100000000E-03 0. -1.
        -11    1    3    3    0    0 -0.13677106982E+00 -0.70204935797E+00 -0.95331380894E+01  0.95599320981E+01  0.51100000000E-03 0.  1.
        -12    1    3    3    0    0  0.23689355931E+02  0.95040355905E+01  0.35865209145E+02  0.44020739476E+02  0.00000000000E+00 0.  1.
</event>
<event>
 7    1  0.3861961E-015  0.9000794E+02  0.7816164E-02  0.1186339E+00
        -11   -1    0    0    0    0  0.00000000000E+00  0.00000000000E+00  0.45593999997E+02  0.45594000000E+02  0.51100000000E-03 0.  1.
         11   -1    0    0    0    0 -0.00000000000E+00 -0.00000000000E+00 -0.45593999997E+02  0.45594000000E+02  0.51100000000E-03 0. -1.
    9900012    2    1    2    0    0 -0.10697121084E+01 -0.18125925313E+00 -0.46412342925E+00  0.90007936667E+02  0.90000200631E+02 0.  0.
        -12    1    1    2    0    0  0.10697121084E+01  0.18125925313E+00  0.46412342925E+00  0.11800633327E+01  0.00000000000E+00 0.  1.
         11    1    3    3    0    0 -0.14338062962E+02 -0.36887127562E+02 -0.13515904354E+02  0.41820089670E+02  0.51100000000E-03 0. -1.
        -11    1    3    3    0    0  0.54145185606E+01  0.29854547634E+01 -0.60453884758E+01  0.86473506620E+01  0.51100000000E-03 0.  1.
        -12    1    3    3    0    0  0.78538322926E+01  0.33720413545E+02  0.19097169401E+02  0.39540496335E+02  0.00000000000E+00 0.  1.
</event>
<event>
 7    1  0.3861961E-015  0.9000814E+02  0.7816164E-02  0.1186338E+00
        -11   -1    0    0    0    0  0.00000000000E+00  0.00000000000E+00  0.45593999997E+02  0.45594000000E+02  0.51100000000E-03 0.  1.
         11   -1    0    0    0    0 -0.00000000000E+00 -0.00000000000E+00 -0.45593999997E+02  0.45594000000E+02  0.51100000000E-03 0. -1.
    9900012    2    1    2    0    0 -0.10046158347E+01 -0.61872279455E+00 -0.31844883394E-02  0.90008135172E+02  0.90000401755E+02 0.  0.
        -12    1    1    2    0    0  0.10046158347E+01  0.61872279455E+00  0.31844883394E-02  0.11798648282E+01  0.00000000000E+00 0.  1.
         11    1    3    3    0    0  0.22443972715E+02 -0.34337409894E+01 -0.29610469655E+02  0.37313568602E+02  0.51100000000E-03 0. -1.
        -11    1    3    3    0    0 -0.46030402260E+01  0.32035087909E+01 -0.84981888853E+01  0.10181830017E+02  0.51100000000E-03 0.  1.
        -12    1    3    3    0    0 -0.18845548323E+02 -0.38849059601E+00  0.38105474052E+02  0.42512736553E+02  0.00000000000E+00 0.  1.
</event>
<event>
 7    1  0.3861961E-015  0.9000779E+02  0.7816164E-02  0.1186339E+00
        -11   -1    0    0    0    0  0.00000000000E+00  0.00000000000E+00  0.45593999997E+02  0.45594000000E+02  0.51100000000E-03 0.  1.
         11   -1    0    0    0    0 -0.00000000000E+00 -0.00000000000E+00 -0.45593999997E+02  0.45594000000E+02  0.51100000000E-03 0. -1.
    9900012    2    1    2    0    0  0.53513640504E+00 -0.92357333955E+00 -0.50353415074E+00  0.90007785898E+02  0.90000047872E+02 0.  0.
        -12    1    1    2    0    0 -0.53513640504E+00  0.92357333955E+00  0.50353415074E+00  0.11802141020E+01  0.00000000000E+00 0.  1.
         11    1    3    3    0    0  0.18507161922E+02 -0.32388133414E+02  0.57431559147E+01  0.37742417366E+02  0.51100000000E-03 0. -1.
        -11    1    3    3    0    0 -0.56377662910E+01 -0.64902439696E+01  0.60417685707E+01  0.10507646895E+02  0.51100000000E-03 0.  1.
        -12    1    3    3    0    0 -0.12334259226E+02  0.37954804044E+02 -0.12288458636E+02  0.41757721638E+02  0.00000000000E+00 0.  1.
</event>
<event>
 7    1  0.3861961E-015  0.9000769E+02  0.7816164E-02  0.1186339E+00
        -11   -1    0    0    0    0  0.00000000000E+00  0.00000000000E+00  0.45593999997E+02  0.45594000000E+02  0.51100000000E-03 0.  1.
         11   -1    0    0    0    0 -0.00000000000E+00 -0.00000000000E+00 -0.45593999997E+02  0.45594000000E+02  0.51100000000E-03 0. -1.
    9900012    2    1    2    0    0  0.70040235317E+00 -0.36101332052E+00 -0.87876566149E+00  0.90007693615E+02  0.89999954371E+02 0.  0.
        -12    1    1    2    0    0 -0.70040235317E+00  0.36101332052E+00  0.87876566149E+00  0.11803063847E+01  0.00000000000E+00 0.  1.
         11    1    3    3    0    0 -0.24641996313E+02 -0.17071779885E+02 -0.21575404278E+02  0.36934695352E+02  0.51100000000E-03 0. -1.
        -11    1    3    3    0    0 -0.91283176369E+01 -0.23431818378E+01  0.29682309499E+01  0.98806416410E+01  0.51100000000E-03 0.  1.
        -12    1    3    3    0    0  0.34470716304E+02  0.19053948402E+02  0.17728407666E+02  0.43192356622E+02  0.00000000000E+00 0.  1.
</event>
<event>
 7    1  0.3861961E-015  0.9000773E+02  0.7816164E-02  0.1186339E+00
        -11   -1    0    0    0    0  0.00000000000E+00  0.00000000000E+00  0.45593999997E+02  0.45594000000E+02  0.51100000000E-03 0. -1.
         11   -1    0    0    0    0 -0.00000000000E+00 -0.00000000000E+00 -0.45593999997E+02  0.45594000000E+02  0.51100000000E-03 0.  1.
    9900012    2    1    2    0    0  0.79211161790E+00  0.83682525205E+00  0.25558376811E+00  0.90007728684E+02  0.89999989902E+02 0.  0.
        -12    1    1    2    0    0 -0.79211161790E+00 -0.83682525205E+00 -0.25558376811E+00  0.11802713164E+01  0.00000000000E+00 0.  1.
         11    1    3    3    0    0  0.34859152603E+02  0.32488103821E+01 -0.22385862128E+02  0.41555289826E+02  0.51100000000E-03 0. -1.
        -11    1    3    3    0    0 -0.79122168622E+01  0.21899109107E+01 -0.54039875849E+01  0.98286299935E+01  0.51100000000E-03 0.  1.
        -12    1    3    3    0    0 -0.26154824123E+02 -0.46018960408E+01  0.28045433481E+02  0.38623808864E+02  0.00000000000E+00 0.  1.
</event>
<event>
 7    1  0.3861961E-015  0.9000775E+02  0.7816164E-02  0.1186339E+00
        -11   -1    0    0    0    0  0.00000000000E+00  0.00000000000E+00  0.45593999997E+02  0.45594000000E+02  0.51100000000E-03 0. -1.
         11   -1    0    0    0    0 -0.00000000000E+00 -0.00000000000E+00 -0.45593999997E+02  0.45594000000E+02  0.51100000000E-03 0.  1.
    9900012    2    1    2    0    0  0.30577227829E-01  0.10146700356E+01 -0.60208558526E+00  0.90007746934E+02  0.90000008393E+02 0.  0.
        -12    1    1    2    0    0 -0.30577227829E-01 -0.10146700356E+01  0.60208558526E+00  0.11802530661E+01  0.00000000000E+00 0.  1.
         11    1    3    3    0    0  0.78965141137E+01  0.13730042762E+01 -0.72508182040E+01  0.10808072945E+02  0.51100000000E-03 0. -1.
        -11    1    3    3    0    0  0.19932172237E+02  0.67763611981E+01 -0.27474061998E+02  0.34612637058E+02  0.51100000000E-03 0.  1.
         12    1    3    3    0    0 -0.27798109123E+02 -0.71346954387E+01  0.34122794617E+02  0.44587036931E+02  0.00000000000E+00 0. -1.
</event>
<event>
 7    1  0.3861961E-015  0.9000773E+02  0.7816164E-02  0.1186339E+00
        -11   -1    0    0    0    0  0.00000000000E+00  0.00000000000E+00  0.45593999997E+02  0.45594000000E+02  0.51100000000E-03 0.  1.
         11   -1    0    0    0    0 -0.00000000000E+00 -0.00000000000E+00 -0.45593999997E+02  0.45594000000E+02  0.51100000000E-03 0. -1.
    9900012    2    1    2    0    0 -0.75260075282E+00 -0.89098333372E+00  0.18104570739E+00  0.90007730225E+02  0.89999991464E+02 0.  0.
        -12    1    1    2    0    0  0.75260075282E+00  0.89098333372E+00 -0.18104570739E+00  0.11802697752E+01  0.00000000000E+00 0.  1.
         11    1    3    3    0    0  0.13563423536E+02 -0.13327512924E+02  0.30062830341E+01  0.19251669972E+02  0.51100000000E-03 0. -1.
        -11    1    3    3    0    0 -0.13093082803E+02  0.39893811262E+02  0.47273779414E+01  0.42252728867E+02  0.51100000000E-03 0.  1.
         12    1    3    3    0    0 -0.12229414865E+01 -0.27457281672E+02 -0.75526152682E+01  0.28503331386E+02  0.00000000000E+00 0. -1.
</event>
<event>
 7    1  0.3861961E-015  0.9000772E+02  0.7816164E-02  0.1186339E+00
        -11   -1    0    0    0    0  0.00000000000E+00  0.00000000000E+00  0.45593999997E+02  0.45594000000E+02  0.51100000000E-03 0.  1.
         11   -1    0    0    0    0 -0.00000000000E+00 -0.00000000000E+00 -0.45593999997E+02  0.45594000000E+02  0.51100000000E-03 0. -1.
    9900012    2    1    2    0    0  0.61445879025E+00 -0.10046675081E+00 -0.10026955717E+01  0.90007723938E+02  0.89999985094E+02 0.  0.
        -12    1    1    2    0    0 -0.61445879025E+00  0.10046675081E+00  0.10026955717E+01  0.11802760620E+01  0.00000000000E+00 0.  1.
         11    1    3    3    0    0 -0.34953167803E+01  0.44843503856E+01 -0.77849977227E+01  0.96401674042E+01  0.51100000000E-03 0. -1.
        -11    1    3    3    0    0 -0.30121016393E+02  0.91228171539E+01 -0.17698638540E+02  0.36107384671E+02  0.51100000000E-03 0.  1.
         12    1    3    3    0    0  0.34230791963E+02 -0.13707634290E+02  0.24480940691E+02  0.44260171863E+02  0.00000000000E+00 0. -1.
</event>
<event>
 7    1  0.3861961E-015  0.9000784E+02  0.7816164E-02  0.1186339E+00
        -11   -1    0    0    0    0  0.00000000000E+00  0.00000000000E+00  0.45593999997E+02  0.45594000000E+02  0.51100000000E-03 0. -1.
         11   -1    0    0    0    0 -0.00000000000E+00 -0.00000000000E+00 -0.45593999997E+02  0.45594000000E+02  0.51100000000E-03 0.  1.
    9900012    2    1    2    0    0  0.11136505731E+01  0.27594425867E+00  0.27641361970E+00  0.90007844365E+02  0.90000107111E+02 0.  0.
        -12    1    1    2    0    0 -0.11136505731E+01 -0.27594425867E+00 -0.27641361970E+00  0.11801556347E+01  0.00000000000E+00 0.  1.
         11    1    3    3    0    0 -0.59669244481E+01 -0.78225429276E+01 -0.21982592152E+02  0.24083827005E+02  0.51100000000E-03 0. -1.
        -11    1    3    3    0    0 -0.50013540311E+01  0.23228904768E+02 -0.11964059317E+02  0.26603275634E+02  0.51100000000E-03 0.  1.
         12    1    3    3    0    0  0.12081929052E+02 -0.15130417582E+02  0.34223065089E+02  0.39320741726E+02  0.00000000000E+00 0. -1.
</event>
<event>
 7    1  0.3861961E-015  0.9000766E+02  0.7816164E-02  0.1186339E+00
        -11   -1    0    0    0    0  0.00000000000E+00  0.00000000000E+00  0.45593999997E+02  0.45594000000E+02  0.51100000000E-03 0.  1.
         11   -1    0    0    0    0 -0.00000000000E+00 -0.00000000000E+00 -0.45593999997E+02  0.45594000000E+02  0.51100000000E-03 0. -1.
    9900012    2    1    2    0    0 -0.42045915629E+00  0.34531648952E+00 -0.10474608913E+01  0.90007659499E+02  0.89999919804E+02 0.  0.
        -12    1    1    2    0    0  0.42045915629E+00 -0.34531648952E+00  0.10474608913E+01  0.11803405013E+01  0.00000000000E+00 0.  1.
         11    1    3    3    0    0  0.59326195159E+01 -0.44612298706E+01 -0.75074908940E+01  0.10557507569E+02  0.51100000000E-03 0. -1.
        -11    1    3    3    0    0 -0.80248223217E+01 -0.18305230233E+02 -0.30120068726E+02  0.36148274752E+02  0.51100000000E-03 0.  1.
         12    1    3    3    0    0  0.16717436495E+01  0.23111776593E+02  0.36580098729E+02  0.43301877178E+02  0.00000000000E+00 0. -1.
</event>
<event>
 7    1  0.3861961E-015  0.9000736E+02  0.7816164E-02  0.1186340E+00
        -11   -1    0    0    0    0  0.00000000000E+00  0.00000000000E+00  0.45593999997E+02  0.45594000000E+02  0.51100000000E-03 0. -1.
         11   -1    0    0    0    0 -0.00000000000E+00 -0.00000000000E+00 -0.45593999997E+02  0.45594000000E+02  0.51100000000E-03 0.  1.
    9900012    2    1    2    0    0  0.78994896578E+00 -0.85093117133E+00  0.21401838331E+00  0.90007361573E+02  0.89999617945E+02 0.  0.
        -12    1    1    2    0    0 -0.78994896578E+00  0.85093117133E+00 -0.21401838331E+00  0.11806384270E+01  0.00000000000E+00 0.  1.
         11    1    3    3    0    0  0.12979233006E+02 -0.34097235806E+02  0.12829084356E+01  0.36506545075E+02  0.51100000000E-03 0. -1.
        -11    1    3    3    0    0  0.83667615979E+01 -0.52069938307E+01  0.52685002066E+00  0.98687920028E+01  0.51100000000E-03 0.  1.
        -12    1    3    3    0    0 -0.20556045638E+02  0.38453298465E+02 -0.15957400730E+01  0.43632024495E+02  0.00000000000E+00 0.  1.
</event>
<event>
 7    1  0.3861961E-015  0.9000771E+02  0.7816164E-02  0.1186339E+00
        -11   -1    0    0    0    0  0.00000000000E+00  0.00000000000E+00  0.45593999997E+02  0.45594000000E+02  0.51100000000E-03 0.  1.
         11   -1    0    0    0    0 -0.00000000000E+00 -0.00000000000E+00 -0.45593999997E+02  0.45594000000E+02  0.51100000000E-03 0. -1.
    9900012    2    1    2    0    0 -0.11225736516E+01 -0.35498501778E+00 -0.83006143272E-01  0.90007713600E+02  0.89999974620E+02 0.  0.
        -12    1    1    2    0    0  0.11225736516E+01  0.35498501778E+00  0.83006143272E-01  0.11802864000E+01  0.00000000000E+00 0.  1.
         11    1    3    3    0    0  0.14992376258E+02 -0.26239622079E+02 -0.20436021131E+02  0.36481777268E+02  0.51100000000E-03 0. -1.
        -11    1    3    3    0    0  0.33400232723E+01 -0.89792338579E+01  0.38653249143E+01  0.10330688897E+02  0.51100000000E-03 0.  1.
        -12    1    3    3    0    0 -0.19454973182E+02  0.34863870919E+02  0.16487690073E+02  0.43195247435E+02  0.00000000000E+00 0.  1.
</event>
<event>
 7    1  0.3861961E-015  0.9000775E+02  0.7816164E-02  0.1186339E+00
        -11   -1    0    0    0    0  0.00000000000E+00  0.00000000000E+00  0.45593999997E+02  0.45594000000E+02  0.51100000000E-03 0.  1.
         11   -1    0    0    0    0 -0.00000000000E+00 -0.00000000000E+00 -0.45593999997E+02  0.45594000000E+02  0.51100000000E-03 0. -1.
    9900012    2    1    2    0    0 -0.91171976004E+00 -0.51285671220E+00  0.54656316797E+00  0.90007751626E+02  0.90000013147E+02 0.  0.
        -12    1    1    2    0    0  0.91171976004E+00  0.51285671220E+00 -0.54656316797E+00  0.11802483741E+01  0.00000000000E+00 0.  1.
         11    1    3    3    0    0 -0.12537126395E+01 -0.97742846004E+01 -0.17909270530E+02  0.20441389533E+02  0.51100000000E-03 0. -1.
        -11    1    3    3    0    0  0.27824280671E+02 -0.83215200212E+01 -0.48865523510E+01  0.29450240821E+02  0.51100000000E-03 0.  1.
        -12    1    3    3    0    0 -0.27482287791E+02  0.17582947909E+02  0.23342386049E+02  0.40116121272E+02  0.00000000000E+00 0.  1.
</event>
<event>
 7    1  0.3861961E-015  0.9000846E+02  0.7816164E-02  0.1186338E+00
        -11   -1    0    0    0    0  0.00000000000E+00  0.00000000000E+00  0.45593999997E+02  0.45594000000E+02  0.51100000000E-03 0.  1.
         11   -1    0    0    0    0 -0.00000000000E+00 -0.00000000000E+00 -0.45593999997E+02  0.45594000000E+02  0.51100000000E-03 0. -1.
    9900012    2    1    2    0    0 -0.11219792275E+01 -0.29287486110E+00 -0.21609287923E+00  0.90008462292E+02  0.90000733192E+02 0.  0.
        -12    1    1    2    0    0  0.11219792275E+01  0.29287486110E+00  0.21609287923E+00  0.11795377076E+01  0.00000000000E+00 0.  1.
         11    1    3    3    0    0 -0.13726208153E+01  0.30820052242E+00 -0.83185388766E+01  0.84366560181E+01  0.51100000000E-03 0. -1.
        -11    1    3    3    0    0  0.36000074654E+02  0.10995491768E+02  0.19373508446E+02  0.42334844326E+02  0.51100000000E-03 0.  1.
         12    1    3    3    0    0 -0.35749433066E+02 -0.11596567152E+02 -0.11271062449E+02  0.39236961949E+02  0.00000000000E+00 0. -1.
</event>
<event>
 7    1  0.4685572E-015  0.9000776E+02  0.7816164E-02  0.1186339E+00
        -11   -1    0    0    0    0  0.00000000000E+00  0.00000000000E+00  0.45593999997E+02  0.45594000000E+02  0.51100000000E-03 0.  1.
         11   -1    0    0    0    0 -0.00000000000E+00 -0.00000000000E+00 -0.45593999997E+02  0.45594000000E+02  0.51100000000E-03 0. -1.
    9900012    2    1    2    0    0  0.64300246063E+00  0.56055349265E+00 -0.81565589907E+00  0.90007759801E+02  0.90000021430E+02 0.  0.
        -12    1    1    2    0    0 -0.64300246063E+00 -0.56055349265E+00  0.81565589907E+00  0.11802401994E+01  0.00000000000E+00 0.  1.
         11    1    3    3    0    0  0.78818694688E+01  0.44810894466E+01  0.26291116042E+01  0.94401407320E+01  0.51100000000E-03 0. -1.
        -11    1    3    3    0    0  0.48995869423E+01 -0.34430215265E+02  0.20095465557E+02  0.40165574956E+02  0.51100000000E-03 0.  1.
         12    1    3    3    0    0 -0.12138453950E+02  0.30509679311E+02 -0.23540233060E+02  0.40402044112E+02  0.00000000000E+00 0. -1.
</event>
<event>
 7    1  0.3861961E-015  0.9000805E+02  0.7816164E-02  0.1186338E+00
        -11   -1    0    0    0    0  0.00000000000E+00  0.00000000000E+00  0.45593999997E+02  0.45594000000E+02  0.51100000000E-03 0.  1.
         11   -1    0    0    0    0 -0.00000000000E+00 -0.00000000000E+00 -0.45593999997E+02  0.45594000000E+02  0.51100000000E-03 0. -1.
    9900012    2    1    2    0    0  0.49587976335E+00  0.31882068523E+00 -0.10221291797E+01  0.90008046006E+02  0.90000311412E+02 0.  0.
        -12    1    1    2    0    0 -0.49587976335E+00 -0.31882068523E+00  0.10221291797E+01  0.11799539945E+01  0.00000000000E+00 0.  1.
         11    1    3    3    0    0 -0.27246717534E+02 -0.45877635682E+01 -0.29008735190E+02  0.40061676307E+02  0.51100000000E-03 0. -1.
        -11    1    3    3    0    0 -0.45784708803E+01  0.73802186602E+01  0.36923541789E+01  0.94373461693E+01  0.51100000000E-03 0.  1.
        -12    1    3    3    0    0  0.32321068177E+02 -0.24736344068E+01  0.24294251831E+02  0.40509023530E+02  0.00000000000E+00 0.  1.
</event>
<event>
 7    1  0.3861961E-015  0.9000756E+02  0.7816164E-02  0.1186339E+00
        -11   -1    0    0    0    0  0.00000000000E+00  0.00000000000E+00  0.45593999997E+02  0.45594000000E+02  0.51100000000E-03 0.  1.
         11   -1    0    0    0    0 -0.00000000000E+00 -0.00000000000E+00 -0.45593999997E+02  0.45594000000E+02  0.51100000000E-03 0. -1.
    9900012    2    1    2    0    0  0.31071815855E+00  0.24087417396E+00 -0.11130496967E+01  0.90007556961E+02  0.89999815912E+02 0.  0.
        -12    1    1    2    0    0 -0.31071815855E+00 -0.24087417396E+00  0.11130496967E+01  0.11804430393E+01  0.00000000000E+00 0.  1.
         11    1    3    3    0    0 -0.12281522367E+02  0.30835175886E+02 -0.16592184447E+02  0.37107202112E+02  0.51100000000E-03 0. -1.
        -11    1    3    3    0    0 -0.27244240955E+01  0.10765824036E+01 -0.93778005560E+01  0.98246964255E+01  0.51100000000E-03 0.  1.
        -12    1    3    3    0    0  0.15316664621E+02 -0.31670884115E+02  0.24856935307E+02  0.43075658423E+02  0.00000000000E+00 0.  1.
</event>
<event>
 7    1  0.3861961E-015  0.9000773E+02  0.7816164E-02  0.1186339E+00
        -11   -1    0    0    0    0  0.00000000000E+00  0.00000000000E+00  0.45593999997E+02  0.45594000000E+02  0.51100000000E-03 0.  1.
         11   -1    0    0    0    0 -0.00000000000E+00 -0.00000000000E+00 -0.45593999997E+02  0.45594000000E+02  0.51100000000E-03 0. -1.
    9900012    2    1    2    0    0 -0.96583149084E+00 -0.18947012307E-01 -0.67811275472E+00  0.90007734620E+02  0.89999995917E+02 0.  0.
        -12    1    1    2    0    0  0.96583149084E+00  0.18947012307E-01  0.67811275472E+00  0.11802653795E+01  0.00000000000E+00 0.  1.
         11    1    3    3    0    0  0.68213609627E+01  0.15033537402E+01  0.61971234356E+01  0.93378464856E+01  0.51100000000E-03 0. -1.
        -11    1    3    3    0    0  0.65524884531E+01  0.10971216869E+02  0.33600505162E+02  0.35948527813E+02  0.51100000000E-03 0.  1.
         12    1    3    3    0    0 -0.14339680907E+02 -0.12493517621E+02 -0.40475741352E+02  0.44721360322E+02  0.00000000000E+00 0. -1.
</event>
<event>
 7    1  0.3861961E-015  0.9000808E+02  0.7816164E-02  0.1186338E+00
        -11   -1    0    0    0    0  0.00000000000E+00  0.00000000000E+00  0.45593999997E+02  0.45594000000E+02  0.51100000000E-03 0. -1.
         11   -1    0    0    0    0 -0.00000000000E+00 -0.00000000000E+00 -0.45593999997E+02  0.45594000000E+02  0.51100000000E-03 0.  1.
    9900012    2    1    2    0    0 -0.81201983174E+00 -0.73178552125E+00 -0.44421024189E+00  0.90008080937E+02  0.90000346805E+02 0.  0.
        -12    1    1    2    0    0  0.81201983174E+00  0.73178552125E+00  0.44421024189E+00  0.11799190630E+01  0.00000000000E+00 0.  1.
         11    1    3    3    0    0 -0.96387846973E+01 -0.33503714230E+02 -0.10917270224E+02  0.36532065737E+02  0.51100000000E-03 0. -1.
        -11    1    3    3    0    0 -0.66486956937E+01 -0.22356073787E+01 -0.82812604905E+01  0.10852758652E+02  0.51100000000E-03 0.  1.
        -12    1    3    3    0    0  0.15475460559E+02  0.35007536087E+02  0.18754320472E+02  0.42623256548E+02  0.00000000000E+00 0.  1.
</event>
<event>
 7    1  0.3861961E-015  0.9000751E+02  0.7816164E-02  0.1186340E+00
        -11   -1    0    0    0    0  0.00000000000E+00  0.00000000000E+00  0.45593999997E+02  0.45594000000E+02  0.51100000000E-03 0. -1.
         11   -1    0    0    0    0 -0.00000000000E+00 -0.00000000000E+00 -0.45593999997E+02  0.45594000000E+02  0.51100000000E-03 0.  1.
    9900012    2    1    2    0    0 -0.67681938102E+00  0.35047579425E+00  0.90146489867E+00  0.90007509966E+02  0.89999768297E+02 0.  0.
        -12    1    1    2    0    0  0.67681938102E+00 -0.35047579425E+00 -0.90146489867E+00  0.11804900340E+01  0.00000000000E+00 0.  1.
         11    1    3    3    0    0 -0.69830020597E+01 -0.47807768132E+01  0.60399135020E+00  0.84842766642E+01  0.51100000000E-03 0. -1.
        -11    1    3    3    0    0 -0.61195254950E+01 -0.29200832070E+01 -0.38970838580E+02  0.39556310977E+02  0.51100000000E-03 0.  1.
         12    1    3    3    0    0  0.12425708174E+02  0.80513358145E+01  0.39268312128E+02  0.41966922325E+02  0.00000000000E+00 0. -1.
</event>
<event>
 7    1  0.3861961E-015  0.9000774E+02  0.7816164E-02  0.1186339E+00
        -11   -1    0    0    0    0  0.00000000000E+00  0.00000000000E+00  0.45593999997E+02  0.45594000000E+02  0.51100000000E-03 0.  1.
         11   -1    0    0    0    0 -0.00000000000E+00 -0.00000000000E+00 -0.45593999997E+02  0.45594000000E+02  0.51100000000E-03 0. -1.
    9900012    2    1    2    0    0  0.67049025428E-01 -0.12667645084E+00 -0.11715229725E+01  0.90007742159E+02  0.90000003556E+02 0.  0.
        -12    1    1    2    0    0 -0.67049025428E-01  0.12667645084E+00  0.11715229725E+01  0.11802578405E+01  0.00000000000E+00 0.  1.
         11    1    3    3    0    0  0.63671723590E+00 -0.45943456044E+01 -0.80650829542E+01  0.93037080613E+01  0.51100000000E-03 0. -1.
        -11    1    3    3    0    0 -0.16360837061E+02 -0.29431512098E+02  0.22160504080E+02  0.40311026222E+02  0.51100000000E-03 0.  1.
         12    1    3    3    0    0  0.15791168850E+02  0.33899181251E+02 -0.15266944099E+02  0.40393007876E+02  0.00000000000E+00 0. -1.
</event>
<event>
 7    1  0.3861961E-015  0.9000774E+02  0.7816164E-02  0.1186339E+00
        -11   -1    0    0    0    0  0.00000000000E+00  0.00000000000E+00  0.45593999997E+02  0.45594000000E+02  0.51100000000E-03 0.  1.
         11   -1    0    0    0    0 -0.00000000000E+00 -0.00000000000E+00 -0.45593999997E+02  0.45594000000E+02  0.51100000000E-03 0. -1.
    9900012    2    1    2    0    0  0.53828809884E+00 -0.88185112696E+00 -0.57061498437E+00  0.90007738610E+02  0.89999999960E+02 0.  0.
        -12    1    1    2    0    0 -0.53828809884E+00  0.88185112696E+00  0.57061498437E+00  0.11802613896E+01  0.00000000000E+00 0.  1.
         11    1    3    3    0    0 -0.62232952329E+01 -0.82284069744E+01  0.76354988580E-01  0.10317069121E+02  0.51100000000E-03 0. -1.
        -11    1    3    3    0    0  0.32050561387E+02 -0.15418084825E+02  0.19078906158E+02  0.40360382621E+02  0.51100000000E-03 0.  1.
         12    1    3    3    0    0 -0.25288978055E+02  0.22764640673E+02 -0.19725876131E+02  0.39330286869E+02  0.00000000000E+00 0. -1.
</event>
<event>
 7    1  0.3861961E-015  0.9000770E+02  0.7816164E-02  0.1186339E+00
        -11   -1    0    0    0    0  0.00000000000E+00  0.00000000000E+00  0.45593999997E+02  0.45594000000E+02  0.51100000000E-03 0. -1.
         11   -1    0    0    0    0 -0.00000000000E+00 -0.00000000000E+00 -0.45593999997E+02  0.45594000000E+02  0.51100000000E-03 0.  1.
    9900012    2    1    2    0    0  0.11334023183E+01 -0.80325431496E-01 -0.31946439240E+00  0.90007698984E+02  0.89999959811E+02 0.  0.
        -12    1    1    2    0    0 -0.11334023183E+01  0.80325431496E-01  0.31946439240E+00  0.11803010159E+01  0.00000000000E+00 0.  1.
         11    1    3    3    0    0  0.67546018768E+00 -0.41148119906E+00  0.22159920837E+01  0.23529097769E+01  0.51100000000E-03 0. -1.
        -11    1    3    3    0    0  0.43820117784E+02  0.41426621703E+01  0.51687322651E+00  0.44018536217E+02  0.51100000000E-03 0.  1.
         12    1    3    3    0    0 -0.43362175653E+02 -0.38115064028E+01 -0.30523297026E+01  0.43636252991E+02  0.00000000000E+00 0. -1.
</event>
<event>
 7    1  0.3861961E-015  0.9000785E+02  0.7816164E-02  0.1186339E+00
        -11   -1    0    0    0    0  0.00000000000E+00  0.00000000000E+00  0.45593999997E+02  0.45594000000E+02  0.51100000000E-03 0. -1.
         11   -1    0    0    0    0 -0.00000000000E+00 -0.00000000000E+00 -0.45593999997E+02  0.45594000000E+02  0.51100000000E-03 0.  1.
    9900012    2    1    2    0    0  0.10689768754E+01  0.97267667808E-01 -0.49048559999E+00  0.90007852262E+02  0.90000115112E+02 0.  0.
        -12    1    1    2    0    0 -0.10689768754E+01 -0.97267667808E-01  0.49048559999E+00  0.11801477379E+01  0.00000000000E+00 0.  1.
         11    1    3    3    0    0 -0.31654331532E+01 -0.13372851255E+01  0.85591969844E+01  0.92232397688E+01  0.51100000000E-03 0. -1.
        -11    1    3    3    0    0 -0.35664040409E+02 -0.27295745433E+01  0.88657062292E+01  0.36850713734E+02  0.51100000000E-03 0.  1.
         12    1    3    3    0    0  0.39898450438E+02  0.41641273366E+01 -0.17915388814E+02  0.43933898759E+02  0.00000000000E+00 0. -1.
</event>
<event>
 7    1  0.3861961E-015  0.9000765E+02  0.7816164E-02  0.1186339E+00
        -11   -1    0    0    0    0  0.00000000000E+00  0.00000000000E+00  0.45593999997E+02  0.45594000000E+02  0.51100000000E-03 0. -1.
         11   -1    0    0    0    0 -0.00000000000E+00 -0.00000000000E+00 -0.45593999997E+02  0.45594000000E+02  0.51100000000E-03 0.  1.
    9900012    2    1    2    0    0  0.11397956386E+01 -0.26911061605E+00 -0.14724236319E+00  0.90007646267E+02  0.89999906398E+02 0.  0.
        -12    1    1    2    0    0 -0.11397956386E+01  0.26911061605E+00  0.14724236319E+00  0.11803537330E+01  0.00000000000E+00 0.  1.
         11    1    3    3    0    0 -0.22407224202E+00 -0.10725454496E+02 -0.10804074668E+02  0.15225426504E+02  0.51100000000E-03 0. -1.
        -11    1    3    3    0    0 -0.30382113321E+02  0.20478873540E+01 -0.14196084043E+02  0.33597551323E+02  0.51100000000E-03 0.  1.
         12    1    3    3    0    0  0.31745981202E+02  0.84084565263E+01  0.24852916347E+02  0.41184668441E+02  0.00000000000E+00 0. -1.
</event>
<event>
 7    1  0.3861961E-015  0.9000771E+02  0.7816164E-02  0.1186339E+00
        -11   -1    0    0    0    0  0.00000000000E+00  0.00000000000E+00  0.45593999997E+02  0.45594000000E+02  0.51100000000E-03 0.  1.
         11   -1    0    0    0    0 -0.00000000000E+00 -0.00000000000E+00 -0.45593999997E+02  0.45594000000E+02  0.51100000000E-03 0. -1.
    9900012    2    1    2    0    0  0.15069246388E+00  0.25848767653E-01 -0.11703428927E+01  0.90007712381E+02  0.89999973384E+02 0.  0.
        -12    1    1    2    0    0 -0.15069246388E+00 -0.25848767653E-01  0.11703428927E+01  0.11802876192E+01  0.00000000000E+00 0.  1.
         11    1    3    3    0    0 -0.23414839607E+01  0.35590939875E+01  0.78505415361E+01  0.89320042443E+01  0.51100000000E-03 0. -1.
        -11    1    3    3    0    0  0.17333482321E+01  0.29824041884E+02  0.20738115097E+02  0.36366844631E+02  0.51100000000E-03 0.  1.
         12    1    3    3    0    0  0.75882819244E+00 -0.33357287104E+02 -0.29758999526E+02  0.44708863505E+02  0.00000000000E+00 0. -1.
</event>
<event>
 7    1  0.3861961E-015  0.9000780E+02  0.7816164E-02  0.1186339E+00
        -11   -1    0    0    0    0  0.00000000000E+00  0.00000000000E+00  0.45593999997E+02  0.45594000000E+02  0.51100000000E-03 0.  1.
         11   -1    0    0    0    0 -0.00000000000E+00 -0.00000000000E+00 -0.45593999997E+02  0.45594000000E+02  0.51100000000E-03 0. -1.
    9900012    2    1    2    0    0  0.70735909306E+00  0.85114203012E+00  0.40997274106E+00  0.90007797776E+02  0.90000059906E+02 0.  0.
        -12    1    1    2    0    0 -0.70735909306E+00 -0.85114203012E+00 -0.40997274106E+00  0.11802022244E+01  0.00000000000E+00 0.  1.
         11    1    3    3    0    0 -0.80268785065E+01  0.30498134486E+02 -0.29254974259E+02  0.43016514327E+02  0.51100000000E-03 0. -1.
        -11    1    3    3    0    0 -0.37076634661E+01 -0.75430117931E+01  0.61724029228E+00  0.84276201343E+01  0.51100000000E-03 0.  1.
        -12    1    3    3    0    0  0.12441901066E+02 -0.22103980663E+02  0.29047706707E+02  0.38563663315E+02  0.00000000000E+00 0.  1.
</event>
<event>
 7    1  0.3861961E-015  0.9000776E+02  0.7816164E-02  0.1186339E+00
        -11   -1    0    0    0    0  0.00000000000E+00  0.00000000000E+00  0.45593999997E+02  0.45594000000E+02  0.51100000000E-03 0.  1.
         11   -1    0    0    0    0 -0.00000000000E+00 -0.00000000000E+00 -0.45593999997E+02  0.45594000000E+02  0.51100000000E-03 0. -1.
    9900012    2    1    2    0    0 -0.22962525252E+00  0.91733013157E+00 -0.70621895489E+00  0.90007759542E+02  0.90000021168E+02 0.  0.
        -12    1    1    2    0    0  0.22962525252E+00 -0.91733013157E+00  0.70621895489E+00  0.11802404582E+01  0.00000000000E+00 0.  1.
         11    1    3    3    0    0 -0.50132714727E+01 -0.66559564177E+01 -0.12350149785E+02  0.14898350468E+02  0.51100000000E-03 0. -1.
        -11    1    3    3    0    0  0.74029572898E+01  0.40208669566E+02  0.11100259787E+02  0.42364568362E+02  0.51100000000E-03 0.  1.
         12    1    3    3    0    0 -0.26193110696E+01 -0.32635383016E+02  0.54367104287E+00  0.32744840713E+02  0.00000000000E+00 0. -1.
</event>
<event>
 7    1  0.3861961E-015  0.9000766E+02  0.7816164E-02  0.1186339E+00
        -11   -1    0    0    0    0  0.00000000000E+00  0.00000000000E+00  0.45593999997E+02  0.45594000000E+02  0.51100000000E-03 0. -1.
         11   -1    0    0    0    0 -0.00000000000E+00 -0.00000000000E+00 -0.45593999997E+02  0.45594000000E+02  0.51100000000E-03 0.  1.
    9900012    2    1    2    0    0  0.70033344175E+00  0.27927569671E+00  0.90815618654E+00  0.90007657040E+02  0.89999917313E+02 0.  0.
        -12    1    1    2    0    0 -0.70033344175E+00 -0.27927569671E+00 -0.90815618654E+00  0.11803429601E+01  0.00000000000E+00 0.  1.
         11    1    3    3    0    0  0.23361739386E+02  0.13968572316E+02  0.33139498807E+02  0.42884942126E+02  0.51100000000E-03 0. -1.
        -11    1    3    3    0    0  0.33222112841E+01 -0.61879323433E+01 -0.42569431074E+01  0.82127437182E+01  0.51100000000E-03 0.  1.
        -12    1    3    3    0    0 -0.25983617229E+02 -0.75013642760E+01 -0.27974399514E+02  0.38909971195E+02  0.00000000000E+00 0.  1.
</event>
<event>
 7    1  0.3861961E-015  0.9000746E+02  0.7816164E-02  0.1186340E+00
        -11   -1    0    0    0    0  0.00000000000E+00  0.00000000000E+00  0.45593999997E+02  0.45594000000E+02  0.51100000000E-03 0.  1.
         11   -1    0    0    0    0 -0.00000000000E+00 -0.00000000000E+00 -0.45593999997E+02  0.45594000000E+02  0.51100000000E-03 0. -1.
    9900012    2    1    2    0    0 -0.92033249849E+00 -0.52882270689E+00 -0.51674017098E+00  0.90007455309E+02  0.89999712919E+02 0.  0.
        -12    1    1    2    0    0  0.92033249849E+00  0.52882270689E+00  0.51674017098E+00  0.11805446910E+01  0.00000000000E+00 0.  1.
         11    1    3    3    0    0 -0.33704899709E+02 -0.89736352357E+01 -0.15308256578E+02  0.38090538372E+02  0.51100000000E-03 0. -1.
        -11    1    3    3    0    0 -0.49210381529E+01  0.95254132393E+01 -0.15040414683E+01  0.10826460866E+02  0.51100000000E-03 0.  1.
        -12    1    3    3    0    0  0.37705605363E+02 -0.10806007105E+01  0.16295557875E+02  0.41090456072E+02  0.00000000000E+00 0.  1.
</event>
<event>
 7    1  0.3861961E-015  0.9000799E+02  0.7816164E-02  0.1186339E+00
        -11   -1    0    0    0    0  0.00000000000E+00  0.00000000000E+00  0.45593999997E+02  0.45594000000E+02  0.51100000000E-03 0.  1.
         11   -1    0    0    0    0 -0.00000000000E+00 -0.00000000000E+00 -0.45593999997E+02  0.45594000000E+02  0.51100000000E-03 0. -1.
    9900012    2    1    2    0    0  0.83732524456E+00 -0.71914638912E-02 -0.83141747056E+00  0.90007991401E+02  0.90000256088E+02 0.  0.
        -12    1    1    2    0    0 -0.83732524456E+00  0.71914638912E-02  0.83141747056E+00  0.11800085986E+01  0.00000000000E+00 0.  1.
         11    1    3    3    0    0  0.24225690152E+02  0.15290802978E+02 -0.27519628648E+02  0.39724333603E+02  0.51100000000E-03 0. -1.
        -11    1    3    3    0    0 -0.29963899306E+00  0.39541006432E+00 -0.67246749068E+01  0.67429508013E+01  0.51100000000E-03 0.  1.
        -12    1    3    3    0    0 -0.23088725914E+02 -0.15693404506E+02  0.33412886084E+02  0.43540706997E+02  0.00000000000E+00 0.  1.
</event>
<event>
 7    1  0.3861961E-015  0.9000854E+02  0.7816164E-02  0.1186337E+00
        -11   -1    0    0    0    0  0.00000000000E+00  0.00000000000E+00  0.45593999997E+02  0.45594000000E+02  0.51100000000E-03 0. -1.
         11   -1    0    0    0    0 -0.00000000000E+00 -0.00000000000E+00 -0.45593999997E+02  0.45594000000E+02  0.51100000000E-03 0.  1.
    9900012    2    1    2    0    0  0.11705693074E+01 -0.85602646438E-01 -0.11646798771E+00  0.90008540332E+02  0.90000812261E+02 0.  0.
        -12    1    1    2    0    0 -0.11705693074E+01  0.85602646438E-01  0.11646798771E+00  0.11794596681E+01  0.00000000000E+00 0.  1.
         11    1    3    3    0    0 -0.40140730706E+02 -0.70657529594E+01  0.66198616022E+01  0.41291956776E+02  0.51100000000E-03 0. -1.
        -11    1    3    3    0    0  0.21631361878E+01  0.35019490729E+01 -0.84262733917E+01  0.93778936339E+01  0.51100000000E-03 0.  1.
        -12    1    3    3    0    0  0.39148163825E+02  0.34782012401E+01  0.16899438018E+01  0.39338689922E+02  0.00000000000E+00 0.  1.
</event>
<event>
 7    1  0.3861961E-015  0.9000779E+02  0.7816164E-02  0.1186339E+00
        -11   -1    0    0    0    0  0.00000000000E+00  0.00000000000E+00  0.45593999997E+02  0.45594000000E+02  0.51100000000E-03 0. -1.
         11   -1    0    0    0    0 -0.00000000000E+00 -0.00000000000E+00 -0.45593999997E+02  0.45594000000E+02  0.51100000000E-03 0.  1.
    9900012    2    1    2    0    0  0.94404747111E-01 -0.75492261257E+00  0.90226339861E+00  0.90007788304E+02  0.90000050309E+02 0.  0.
        -12    1    1    2    0    0 -0.94404747111E-01  0.75492261257E+00 -0.90226339861E+00  0.11802116961E+01  0.00000000000E+00 0.  1.
         11    1    3    3    0    0  0.72761783173E+01  0.16861078957E+01 -0.81557116532E+01  0.11058994691E+02  0.51100000000E-03 0. -1.
        -11    1    3    3    0    0 -0.45615354662E+01  0.37119262651E+02 -0.29733301987E+01  0.37516502479E+02  0.51100000000E-03 0.  1.
         12    1    3    3    0    0 -0.26202381040E+01 -0.39560293159E+02  0.12031305250E+02  0.41432291134E+02  0.00000000000E+00 0. -1.
</event>
<event>
 7    1  0.3861961E-015  0.9000779E+02  0.7816164E-02  0.1186339E+00
        -11   -1    0    0    0    0  0.00000000000E+00  0.00000000000E+00  0.45593999997E+02  0.45594000000E+02  0.51100000000E-03 0. -1.
         11   -1    0    0    0    0 -0.00000000000E+00 -0.00000000000E+00 -0.45593999997E+02  0.45594000000E+02  0.51100000000E-03 0.  1.
    9900012    2    1    2    0    0 -0.98278082166E+00 -0.59901586699E+00  0.26118087543E+00  0.90007790865E+02  0.90000052905E+02 0.  0.
        -12    1    1    2    0    0  0.98278082166E+00  0.59901586699E+00 -0.26118087543E+00  0.11802091349E+01  0.00000000000E+00 0.  1.
         11    1    3    3    0    0  0.45524851881E+01  0.94846212232E+01  0.20974887273E+01  0.10727656797E+02  0.51100000000E-03 0. -1.
        -11    1    3    3    0    0 -0.13866499437E+02  0.29594891521E+02 -0.15928245177E+02  0.36357205688E+02  0.51100000000E-03 0.  1.
         12    1    3    3    0    0  0.83312334268E+01 -0.39678528611E+02  0.14091937325E+02  0.42922928380E+02  0.00000000000E+00 0. -1.
</event>
<event>
 7    1  0.3861961E-015  0.9000768E+02  0.7816164E-02  0.1186339E+00
        -11   -1    0    0    0    0  0.00000000000E+00  0.00000000000E+00  0.45593999997E+02  0.45594000000E+02  0.51100000000E-03 0.  1.
         11   -1    0    0    0    0 -0.00000000000E+00 -0.00000000000E+00 -0.45593999997E+02  0.45594000000E+02  0.51100000000E-03 0. -1.
    9900012    2    1    2    0    0 -0.82540378370E+00 -0.82171051806E+00  0.19144823374E+00  0.90007681396E+02  0.89999941990E+02 0.  0.
        -12    1    1    2    0    0  0.82540378370E+00  0.82171051806E+00 -0.19144823374E+00  0.11803186044E+01  0.00000000000E+00 0.  1.
         11    1    3    3    0    0 -0.71155169501E+01 -0.26893447829E+01  0.35356900941E+01  0.83883408092E+01  0.51100000000E-03 0. -1.
        -11    1    3    3    0    0 -0.31023834991E+02  0.58810497881E+01 -0.23179499339E+02  0.39170834482E+02  0.51100000000E-03 0.  1.
         12    1    3    3    0    0  0.37313948157E+02 -0.40134155232E+01  0.19835257479E+02  0.42448506104E+02  0.00000000000E+00 0. -1.
</event>
<event>
 7    1  0.3861961E-015  0.9000764E+02  0.7816164E-02  0.1186339E+00
        -11   -1    0    0    0    0  0.00000000000E+00  0.00000000000E+00  0.45593999997E+02  0.45594000000E+02  0.51100000000E-03 0.  1.
         11   -1    0    0    0    0 -0.00000000000E+00 -0.00000000000E+00 -0.45593999997E+02  0.45594000000E+02  0.51100000000E-03 0. -1.
    9900012    2    1    2    0    0 -0.26398379959E+00  0.87834989752E+00  0.74301593246E+00  0.90007636215E+02  0.89999896213E+02 0.  0.
        -12    1    1    2    0    0  0.26398379959E+00 -0.87834989752E+00 -0.74301593246E+00  0.11803637849E+01  0.00000000000E+00 0.  1.
         11    1    3    3    0    0  0.28499000652E+02  0.21737026621E+02 -0.63812469039E+01  0.36406203823E+02  0.51100000000E-03 0. -1.
        -11    1    3    3    0    0  0.73337378686E+00  0.10073214889E+02 -0.80101855504E+00  0.10131590512E+02  0.51100000000E-03 0.  1.
        -12    1    3    3    0    0 -0.29496358238E+02 -0.30931891612E+02  0.79252813914E+01  0.43469841881E+02  0.00000000000E+00 0.  1.
</event>
<event>
 7    1  0.3861961E-015  0.9000772E+02  0.7816164E-02  0.1186339E+00
        -11   -1    0    0    0    0  0.00000000000E+00  0.00000000000E+00  0.45593999997E+02  0.45594000000E+02  0.51100000000E-03 0. -1.
         11   -1    0    0    0    0 -0.00000000000E+00 -0.00000000000E+00 -0.45593999997E+02  0.45594000000E+02  0.51100000000E-03 0.  1.
    9900012    2    1    2    0    0 -0.85638412509E+00  0.40157391916E-01  0.81119892214E+00  0.90007724576E+02  0.89999985740E+02 0.  0.
        -12    1    1    2    0    0  0.85638412509E+00 -0.40157391916E-01 -0.81119892214E+00  0.11802754243E+01  0.00000000000E+00 0.  1.
         11    1    3    3    0    0 -0.21712641273E+02 -0.60975496308E+01  0.32342358602E+02  0.39429012957E+02  0.51100000000E-03 0. -1.
        -11    1    3    3    0    0 -0.74256882957E+01  0.42746297852E+01 -0.54587266473E+00  0.85855275722E+01  0.51100000000E-03 0.  1.
        -12    1    3    3    0    0  0.28281945444E+02  0.18630772375E+01 -0.30985287016E+02  0.41993184046E+02  0.00000000000E+00 0.  1.
</event>
<event>
 7    1  0.3861961E-015  0.9000766E+02  0.7816164E-02  0.1186339E+00
        -11   -1    0    0    0    0  0.00000000000E+00  0.00000000000E+00  0.45593999997E+02  0.45594000000E+02  0.51100000000E-03 0.  1.
         11   -1    0    0    0    0 -0.00000000000E+00 -0.00000000000E+00 -0.45593999997E+02  0.45594000000E+02  0.51100000000E-03 0. -1.
    9900012    2    1    2    0    0  0.25061611994E+00  0.79296852879E+00 -0.83760834983E+00  0.90007663067E+02  0.89999923420E+02 0.  0.
        -12    1    1    2    0    0 -0.25061611994E+00 -0.79296852879E+00  0.83760834983E+00  0.11803369328E+01  0.00000000000E+00 0.  1.
         11    1    3    3    0    0 -0.14997187949E+02  0.32479815870E+02  0.10103878163E+02  0.37174486406E+02  0.51100000000E-03 0. -1.
        -11    1    3    3    0    0  0.24244188471E+01  0.88471405132E+01 -0.18581073831E+01  0.93596081817E+01  0.51100000000E-03 0.  1.
        -12    1    3    3    0    0  0.12823385222E+02 -0.40533987855E+02 -0.90833791296E+01  0.43473568480E+02  0.00000000000E+00 0.  1.
</event>
<event>
 7    1  0.3861961E-015  0.9000775E+02  0.7816164E-02  0.1186339E+00
        -11   -1    0    0    0    0  0.00000000000E+00  0.00000000000E+00  0.45593999997E+02  0.45594000000E+02  0.51100000000E-03 0.  1.
         11   -1    0    0    0    0 -0.00000000000E+00 -0.00000000000E+00 -0.45593999997E+02  0.45594000000E+02  0.51100000000E-03 0. -1.
    9900012    2    1    2    0    0  0.54304627355E+00  0.97846119192E+00  0.37509840014E+00  0.90007752412E+02  0.90000013944E+02 0.  0.
        -12    1    1    2    0    0 -0.54304627355E+00 -0.97846119192E+00 -0.37509840014E+00  0.11802475881E+01  0.00000000000E+00 0.  1.
         11    1    3    3    0    0  0.20858895127E+01 -0.27588566541E+01  0.82081577591E+01  0.89070802824E+01  0.51100000000E-03 0. -1.
        -11    1    3    3    0    0  0.24931814846E+02 -0.21807634613E+02  0.16486595271E+02  0.36999677604E+02  0.51100000000E-03 0.  1.
         12    1    3    3    0    0 -0.26474658085E+02  0.25544952459E+02 -0.24319654630E+02  0.44100994526E+02  0.00000000000E+00 0. -1.
</event>
<event>
 7    1  0.3861961E-015  0.9000768E+02  0.7816164E-02  0.1186339E+00
        -11   -1    0    0    0    0  0.00000000000E+00  0.00000000000E+00  0.45593999997E+02  0.45594000000E+02  0.51100000000E-03 0.  1.
         11   -1    0    0    0    0 -0.00000000000E+00 -0.00000000000E+00 -0.45593999997E+02  0.45594000000E+02  0.51100000000E-03 0. -1.
    9900012    2    1    2    0    0  0.70213629633E+00  0.39867253787E+00 -0.86093809931E+00  0.90007682423E+02  0.89999943031E+02 0.  0.
        -12    1    1    2    0    0 -0.70213629633E+00 -0.39867253787E+00  0.86093809931E+00  0.11803175767E+01  0.00000000000E+00 0.  1.
         11    1    3    3    0    0 -0.21733915172E+01 -0.18449755235E+02 -0.73660109309E+01  0.19984374301E+02  0.51100000000E-03 0. -1.
        -11    1    3    3    0    0  0.15374744328E+02  0.13210703931E+02  0.33837287979E+02  0.39444486554E+02  0.51100000000E-03 0.  1.
         12    1    3    3    0    0 -0.12499216515E+02  0.56377238424E+01 -0.27332215147E+02  0.30578821568E+02  0.00000000000E+00 0. -1.
</event>
<event>
 7    1  0.3861961E-015  0.9000776E+02  0.7816164E-02  0.1186339E+00
        -11   -1    0    0    0    0  0.00000000000E+00  0.00000000000E+00  0.45593999997E+02  0.45594000000E+02  0.51100000000E-03 0.  1.
         11   -1    0    0    0    0 -0.00000000000E+00 -0.00000000000E+00 -0.45593999997E+02  0.45594000000E+02  0.51100000000E-03 0. -1.
    9900012    2    1    2    0    0 -0.11541042563E+01  0.24696186192E+00 -0.31273691990E-02  0.90007764186E+02  0.90000025874E+02 0.  0.
        -12    1    1    2    0    0  0.11541042563E+01 -0.24696186192E+00  0.31273691990E-02  0.11802358137E+01  0.00000000000E+00 0.  1.
         11    1    3    3    0    0  0.73234329783E+00 -0.83154427830E+01  0.43700550186E+01  0.94223296753E+01  0.51100000000E-03 0. -1.
        -11    1    3    3    0    0 -0.20450757167E+02 -0.30770062626E+02 -0.30482569879E+01  0.37071850421E+02  0.51100000000E-03 0.  1.
         12    1    3    3    0    0  0.18564309613E+02  0.39332467271E+02 -0.13249253999E+01  0.43513584090E+02  0.00000000000E+00 0. -1.
</event>
<event>
 7    1  0.3861961E-015  0.9000765E+02  0.7816164E-02  0.1186339E+00
        -11   -1    0    0    0    0  0.00000000000E+00  0.00000000000E+00  0.45593999997E+02  0.45594000000E+02  0.51100000000E-03 0.  1.
         11   -1    0    0    0    0 -0.00000000000E+00 -0.00000000000E+00 -0.45593999997E+02  0.45594000000E+02  0.51100000000E-03 0. -1.
    9900012    2    1    2    0    0 -0.19148526166E+00 -0.54319189990E+00 -0.10302943351E+01  0.90007648162E+02  0.89999908317E+02 0.  0.
        -12    1    1    2    0    0  0.19148526166E+00  0.54319189990E+00  0.10302943351E+01  0.11803518384E+01  0.00000000000E+00 0.  1.
         11    1    3    3    0    0 -0.66657611163E+01  0.92932862495E+01 -0.40202007682E+02  0.41797116677E+02  0.51100000000E-03 0. -1.
        -11    1    3    3    0    0  0.20994385084E+01 -0.80946223617E+01 -0.38810384088E+00  0.83714501780E+01  0.51100000000E-03 0.  1.
        -12    1    3    3    0    0  0.43748373462E+01 -0.17418557877E+01  0.39559817188E+02  0.39839081307E+02  0.00000000000E+00 0.  1.
</event>
<event>
 7    1  0.3861961E-015  0.9000786E+02  0.7816164E-02  0.1186339E+00
        -11   -1    0    0    0    0  0.00000000000E+00  0.00000000000E+00  0.45593999997E+02  0.45594000000E+02  0.51100000000E-03 0.  1.
         11   -1    0    0    0    0 -0.00000000000E+00 -0.00000000000E+00 -0.45593999997E+02  0.45594000000E+02  0.51100000000E-03 0. -1.
    9900012    2    1    2    0    0  0.11218750531E+01 -0.56773579364E-01  0.36180602580E+00  0.90007859977E+02  0.90000122928E+02 0.  0.
        -12    1    1    2    0    0 -0.11218750531E+01  0.56773579364E-01 -0.36180602580E+00  0.11801400232E+01  0.00000000000E+00 0.  1.
         11    1    3    3    0    0  0.87724813667E+01  0.31284618029E+01 -0.39023927789E+02  0.40119953177E+02  0.51100000000E-03 0. -1.
        -11    1    3    3    0    0 -0.77677577748E+01 -0.56353693961E+01 -0.79764545268E+00  0.96297293632E+01  0.51100000000E-03 0.  1.
        -12    1    3    3    0    0  0.11715146115E+00  0.24501340139E+01  0.40183379268E+02  0.40258177437E+02  0.00000000000E+00 0.  1.
</event>
<event>
 7    1  0.3861961E-015  0.9000764E+02  0.7816164E-02  0.1186339E+00
        -11   -1    0    0    0    0  0.00000000000E+00  0.00000000000E+00  0.45593999997E+02  0.45594000000E+02  0.51100000000E-03 0. -1.
         11   -1    0    0    0    0 -0.00000000000E+00 -0.00000000000E+00 -0.45593999997E+02  0.45594000000E+02  0.51100000000E-03 0.  1.
    9900012    2    1    2    0    0 -0.10455355209E+01  0.33466508227E+00  0.43370614602E+00  0.90007641468E+02  0.89999901535E+02 0.  0.
        -12    1    1    2    0    0  0.10455355209E+01 -0.33466508227E+00 -0.43370614602E+00  0.11803585319E+01  0.00000000000E+00 0.  1.
         11    1    3    3    0    0  0.40431583695E+01  0.33390082244E+02  0.64909803262E+01  0.34254598928E+02  0.51100000000E-03 0. -1.
        -11    1    3    3    0    0  0.70467992838E+01  0.85524172325E+01  0.29889393265E+01  0.11477585949E+02  0.51100000000E-03 0.  1.
        -12    1    3    3    0    0 -0.12135493174E+02 -0.41607834394E+02 -0.90462135067E+01  0.44275456591E+02  0.00000000000E+00 0.  1.
</event>
<event>
 7    1  0.3861961E-015  0.9000773E+02  0.7816164E-02  0.1186339E+00
        -11   -1    0    0    0    0  0.00000000000E+00  0.00000000000E+00  0.45593999997E+02  0.45594000000E+02  0.51100000000E-03 0. -1.
         11   -1    0    0    0    0 -0.00000000000E+00 -0.00000000000E+00 -0.45593999997E+02  0.45594000000E+02  0.51100000000E-03 0.  1.
    9900012    2    1    2    0    0  0.16401706823E-01  0.66806229265E+00  0.97285953762E+00  0.90007732266E+02  0.89999993532E+02 0.  0.
        -12    1    1    2    0    0 -0.16401706823E-01 -0.66806229265E+00 -0.97285953762E+00  0.11802677335E+01  0.00000000000E+00 0.  1.
         11    1    3    3    0    0 -0.11339545029E+02  0.19247681051E+02  0.38728372382E+02  0.44709566481E+02  0.51100000000E-03 0. -1.
        -11    1    3    3    0    0 -0.23942159090E+01 -0.54534686827E+01 -0.76819632588E+01  0.97203472296E+01  0.51100000000E-03 0.  1.
        -12    1    3    3    0    0  0.13750162644E+02 -0.13126150076E+02 -0.30073549585E+02  0.35577818556E+02  0.00000000000E+00 0.  1.
</event>
<event>
 7    1  0.3861961E-015  0.9000779E+02  0.7816164E-02  0.1186339E+00
        -11   -1    0    0    0    0  0.00000000000E+00  0.00000000000E+00  0.45593999997E+02  0.45594000000E+02  0.51100000000E-03 0.  1.
         11   -1    0    0    0    0 -0.00000000000E+00 -0.00000000000E+00 -0.45593999997E+02  0.45594000000E+02  0.51100000000E-03 0. -1.
    9900012    2    1    2    0    0 -0.73481417769E+00 -0.82541664524E+00 -0.41427530971E+00  0.90007793007E+02  0.90000055075E+02 0.  0.
        -12    1    1    2    0    0  0.73481417769E+00  0.82541664524E+00  0.41427530971E+00  0.11802069930E+01  0.00000000000E+00 0.  1.
         11    1    3    3    0    0  0.15516121564E+02  0.31401300556E+02 -0.11646453852E+02  0.36911131012E+02  0.51100000000E-03 0. -1.
        -11    1    3    3    0    0  0.28893648681E+01  0.30401814780E+01 -0.76695786699E+01  0.87414855714E+01  0.51100000000E-03 0.  1.
        -12    1    3    3    0    0 -0.19140300610E+02 -0.35266898679E+02  0.18901757212E+02  0.44355176424E+02  0.00000000000E+00 0.  1.
</event>
<event>
 7    1  0.3861961E-015  0.9000760E+02  0.7816164E-02  0.1186339E+00
        -11   -1    0    0    0    0  0.00000000000E+00  0.00000000000E+00  0.45593999997E+02  0.45594000000E+02  0.51100000000E-03 0. -1.
         11   -1    0    0    0    0 -0.00000000000E+00 -0.00000000000E+00 -0.45593999997E+02  0.45594000000E+02  0.51100000000E-03 0.  1.
    9900012    2    1    2    0    0  0.18971198558E+00  0.94470053056E+00 -0.68182517874E+00  0.90007603751E+02  0.89999863321E+02 0.  0.
        -12    1    1    2    0    0 -0.18971198558E+00 -0.94470053056E+00  0.68182517874E+00  0.11803962488E+01  0.00000000000E+00 0.  1.
         11    1    3    3    0    0 -0.10533016011E+02 -0.70636320926E+01  0.51433200082E+01  0.13685505675E+02  0.51100000000E-03 0. -1.
        -11    1    3    3    0    0 -0.20143044674E+02 -0.24199226914E+02 -0.20165192341E+01  0.31550137592E+02  0.51100000000E-03 0.  1.
         12    1    3    3    0    0  0.30865772670E+02  0.32207559538E+02 -0.38086259528E+01  0.44771960484E+02  0.00000000000E+00 0. -1.
</event>
<event>
 7    1  0.3861961E-015  0.9000778E+02  0.7816164E-02  0.1186339E+00
        -11   -1    0    0    0    0  0.00000000000E+00  0.00000000000E+00  0.45593999997E+02  0.45594000000E+02  0.51100000000E-03 0.  1.
         11   -1    0    0    0    0 -0.00000000000E+00 -0.00000000000E+00 -0.45593999997E+02  0.45594000000E+02  0.51100000000E-03 0. -1.
    9900012    2    1    2    0    0 -0.59548177211E+00  0.94344768746E+00 -0.38500762834E+00  0.90007778430E+02  0.90000040305E+02 0.  0.
        -12    1    1    2    0    0  0.59548177211E+00 -0.94344768746E+00  0.38500762834E+00  0.11802215698E+01  0.00000000000E+00 0.  1.
         11    1    3    3    0    0  0.44134720486E+01  0.56697202589E+01 -0.74921295714E+01  0.10380581348E+02  0.51100000000E-03 0. -1.
        -11    1    3    3    0    0  0.20358517389E+02  0.26685215694E+02  0.17616001893E+02  0.37906377958E+02  0.51100000000E-03 0.  1.
         12    1    3    3    0    0 -0.25367471210E+02 -0.31411488266E+02 -0.10508879950E+02  0.41720819125E+02  0.00000000000E+00 0. -1.
</event>
<event>
 7    1  0.3861961E-015  0.9000769E+02  0.7816164E-02  0.1186339E+00
        -11   -1    0    0    0    0  0.00000000000E+00  0.00000000000E+00  0.45593999997E+02  0.45594000000E+02  0.51100000000E-03 0.  1.
         11   -1    0    0    0    0 -0.00000000000E+00 -0.00000000000E+00 -0.45593999997E+02  0.45594000000E+02  0.51100000000E-03 0. -1.
    9900012    2    1    2    0    0  0.81368685389E+00  0.85409876805E+00 -0.39373929189E-01  0.90007694401E+02  0.89999955167E+02 0.  0.
        -12    1    1    2    0    0 -0.81368685389E+00 -0.85409876805E+00  0.39373929189E-01  0.11803055994E+01  0.00000000000E+00 0.  1.
         11    1    3    3    0    0 -0.19150704966E+02 -0.30697786599E+02 -0.12733788135E+02  0.38356915456E+02  0.51100000000E-03 0. -1.
        -11    1    3    3    0    0 -0.71979457417E+01 -0.12183070838E+01  0.35413785775E+01  0.81139421702E+01  0.51100000000E-03 0.  1.
        -12    1    3    3    0    0  0.27162337561E+02  0.32770192451E+02  0.91530356280E+01  0.43536836774E+02  0.00000000000E+00 0.  1.
</event>
<event>
 7    1  0.3861961E-015  0.9000756E+02  0.7816164E-02  0.1186339E+00
        -11   -1    0    0    0    0  0.00000000000E+00  0.00000000000E+00  0.45593999997E+02  0.45594000000E+02  0.51100000000E-03 0.  1.
         11   -1    0    0    0    0 -0.00000000000E+00 -0.00000000000E+00 -0.45593999997E+02  0.45594000000E+02  0.51100000000E-03 0. -1.
    9900012    2    1    2    0    0  0.53769806767E+00 -0.15825925692E+00  0.10388797710E+01  0.90007560936E+02  0.89999819941E+02 0.  0.
        -12    1    1    2    0    0 -0.53769806767E+00  0.15825925692E+00 -0.10388797710E+01  0.11804390636E+01  0.00000000000E+00 0.  1.
         11    1    3    3    0    0  0.24581252309E+02 -0.34588817374E+02 -0.23819279302E+01  0.42500562742E+02  0.51100000000E-03 0. -1.
        -11    1    3    3    0    0 -0.78651397520E+01 -0.95372003809E+00  0.33438346368E+01  0.85994904250E+01  0.51100000000E-03 0.  1.
        -12    1    3    3    0    0 -0.16178414490E+02  0.35384278155E+02  0.76973064455E-01  0.38907507770E+02  0.00000000000E+00 0.  1.
</event>
<event>
 7    1  0.3861961E-015  0.9000772E+02  0.7816164E-02  0.1186339E+00
        -11   -1    0    0    0    0  0.00000000000E+00  0.00000000000E+00  0.45593999997E+02  0.45594000000E+02  0.51100000000E-03 0. -1.
         11   -1    0    0    0    0 -0.00000000000E+00 -0.00000000000E+00 -0.45593999997E+02  0.45594000000E+02  0.51100000000E-03 0.  1.
    9900012    2    1    2    0    0  0.30675712494E+00 -0.97571900041E+00 -0.58900589238E+00  0.90007722303E+02  0.89999983437E+02 0.  0.
        -12    1    1    2    0    0 -0.30675712494E+00  0.97571900041E+00  0.58900589238E+00  0.11802776973E+01  0.00000000000E+00 0.  1.
         11    1    3    3    0    0  0.19969067760E+02 -0.27494245086E+02 -0.62603357897E+01  0.34552698658E+02  0.51100000000E-03 0. -1.
        -11    1    3    3    0    0  0.12701101355E+02  0.22314875377E+00 -0.25409149853E+01  0.12954691050E+02  0.51100000000E-03 0.  1.
        -12    1    3    3    0    0 -0.32363411990E+02  0.26295377332E+02  0.82122448826E+01  0.42500332595E+02  0.00000000000E+00 0.  1.
</event>
<event>
 7    1  0.3861961E-015  0.9000768E+02  0.7816164E-02  0.1186339E+00
        -11   -1    0    0    0    0  0.00000000000E+00  0.00000000000E+00  0.45593999997E+02  0.45594000000E+02  0.51100000000E-03 0. -1.
         11   -1    0    0    0    0 -0.00000000000E+00 -0.00000000000E+00 -0.45593999997E+02  0.45594000000E+02  0.51100000000E-03 0.  1.
    9900012    2    1    2    0    0  0.10757512458E+01  0.46959003913E+00  0.12406530085E+00  0.90007683201E+02  0.89999943819E+02 0.  0.
        -12    1    1    2    0    0 -0.10757512458E+01 -0.46959003913E+00 -0.12406530085E+00  0.11803167992E+01  0.00000000000E+00 0.  1.
         11    1    3    3    0    0  0.71810534169E+01  0.16392067680E+01 -0.14496982199E+01  0.75070734773E+01  0.51100000000E-03 0. -1.
        -11    1    3    3    0    0  0.10871325782E+02 -0.44500688424E+01 -0.37754230421E+02  0.39539483455E+02  0.51100000000E-03 0.  1.
         12    1    3    3    0    0 -0.16976627953E+02  0.32804521135E+01  0.39327993942E+02  0.42961126268E+02  0.00000000000E+00 0. -1.
</event>
<event>
 7    1  0.3861961E-015  0.9000775E+02  0.7816164E-02  0.1186339E+00
        -11   -1    0    0    0    0  0.00000000000E+00  0.00000000000E+00  0.45593999997E+02  0.45594000000E+02  0.51100000000E-03 0.  1.
         11   -1    0    0    0    0 -0.00000000000E+00 -0.00000000000E+00 -0.45593999997E+02  0.45594000000E+02  0.51100000000E-03 0. -1.
    9900012    2    1    2    0    0  0.93877926924E+00 -0.52902420473E+00 -0.48146284706E+00  0.90007754433E+02  0.90000015991E+02 0.  0.
        -12    1    1    2    0    0 -0.93877926924E+00  0.52902420473E+00  0.48146284706E+00  0.11802455671E+01  0.00000000000E+00 0.  1.
         11    1    3    3    0    0  0.25403476487E+02 -0.23983237688E+02  0.15143639078E+02  0.38077054934E+02  0.51100000000E-03 0. -1.
        -11    1    3    3    0    0 -0.68589572062E+01 -0.21768876402E+01  0.95249416879E+01  0.11937698613E+02  0.51100000000E-03 0.  1.
        -12    1    3    3    0    0 -0.17605740012E+02  0.25631101124E+02 -0.25150043613E+02  0.39993000886E+02  0.00000000000E+00 0.  1.
</event>
<event>
 7    1  0.3861961E-015  0.9000786E+02  0.7816164E-02  0.1186339E+00
        -11   -1    0    0    0    0  0.00000000000E+00  0.00000000000E+00  0.45593999997E+02  0.45594000000E+02  0.51100000000E-03 0.  1.
         11   -1    0    0    0    0 -0.00000000000E+00 -0.00000000000E+00 -0.45593999997E+02  0.45594000000E+02  0.51100000000E-03 0. -1.
    9900012    2    1    2    0    0  0.19342444317E+00  0.19068334314E-01 -0.11640286334E+01  0.90007856248E+02  0.90000119150E+02 0.  0.
        -12    1    1    2    0    0 -0.19342444317E+00 -0.19068334314E-01  0.11640286334E+01  0.11801437523E+01  0.00000000000E+00 0.  1.
         11    1    3    3    0    0  0.10151468475E+02  0.59339375445E+00  0.33143412494E+01  0.10695292728E+02  0.51100000000E-03 0. -1.
        -11    1    3    3    0    0 -0.11863202711E+02  0.11938455747E+02  0.34469915195E+02  0.38359319050E+02  0.51100000000E-03 0.  1.
         12    1    3    3    0    0  0.19051586787E+01 -0.12512781168E+02 -0.38948285077E+02  0.40953244470E+02  0.00000000000E+00 0. -1.
</event>
<event>
 7    1  0.3861961E-015  0.9000777E+02  0.7816164E-02  0.1186339E+00
        -11   -1    0    0    0    0  0.00000000000E+00  0.00000000000E+00  0.45593999997E+02  0.45594000000E+02  0.51100000000E-03 0.  1.
         11   -1    0    0    0    0 -0.00000000000E+00 -0.00000000000E+00 -0.45593999997E+02  0.45594000000E+02  0.51100000000E-03 0. -1.
    9900012    2    1    2    0    0  0.48327568380E+00  0.94136033435E+00 -0.52271157346E+00  0.90007770338E+02  0.90000032107E+02 0.  0.
        -12    1    1    2    0    0 -0.48327568380E+00 -0.94136033435E+00  0.52271157346E+00  0.11802296618E+01  0.00000000000E+00 0.  1.
         11    1    3    3    0    0 -0.16440582127E+01 -0.45363100037E+01  0.68438646069E+01  0.83737398380E+01  0.51100000000E-03 0. -1.
        -11    1    3    3    0    0  0.94621733580E+01  0.27625568805E+02  0.27215809996E+02  0.39917478508E+02  0.51100000000E-03 0.  1.
         12    1    3    3    0    0 -0.73348394614E+01 -0.22147898467E+02 -0.34582386176E+02  0.41716551992E+02  0.00000000000E+00 0. -1.
</event>
<event>
 7    1  0.3861961E-015  0.9000776E+02  0.7816164E-02  0.1186339E+00
        -11   -1    0    0    0    0  0.00000000000E+00  0.00000000000E+00  0.45593999997E+02  0.45594000000E+02  0.51100000000E-03 0.  1.
         11   -1    0    0    0    0 -0.00000000000E+00 -0.00000000000E+00 -0.45593999997E+02  0.45594000000E+02  0.51100000000E-03 0. -1.
    9900012    2    1    2    0    0  0.76778995882E+00 -0.31349380836E+00  0.83975973195E+00  0.90007755874E+02  0.90000017452E+02 0.  0.
        -12    1    1    2    0    0 -0.76778995882E+00  0.31349380836E+00 -0.83975973195E+00  0.11802441257E+01  0.00000000000E+00 0.  1.
         11    1    3    3    0    0 -0.28866208879E+01 -0.68782072279E+01  0.39937851154E+01  0.84612430901E+01  0.51100000000E-03 0. -1.
        -11    1    3    3    0    0 -0.32989211069E+02  0.70198625148E+00  0.19247016191E+02  0.38199849007E+02  0.51100000000E-03 0.  1.
         12    1    3    3    0    0  0.36643621916E+02  0.58627271681E+01 -0.22401041575E+02  0.43346663777E+02  0.00000000000E+00 0. -1.
</event>
<event>
 7    1  0.3861961E-015  0.9000749E+02  0.7816164E-02  0.1186340E+00
        -11   -1    0    0    0    0  0.00000000000E+00  0.00000000000E+00  0.45593999997E+02  0.45594000000E+02  0.51100000000E-03 0. -1.
         11   -1    0    0    0    0 -0.00000000000E+00 -0.00000000000E+00 -0.45593999997E+02  0.45594000000E+02  0.51100000000E-03 0.  1.
    9900012    2    1    2    0    0  0.49766406710E+00  0.37654896513E+00  0.10020762360E+01  0.90007485100E+02  0.89999743103E+02 0.  0.
        -12    1    1    2    0    0 -0.49766406710E+00 -0.37654896513E+00 -0.10020762360E+01  0.11805149002E+01  0.00000000000E+00 0.  1.
         11    1    3    3    0    0 -0.16759608865E+02 -0.33885988104E+02 -0.99639563845E+01  0.39095077775E+02  0.51100000000E-03 0. -1.
        -11    1    3    3    0    0  0.46819458875E+01  0.25299109716E+00 -0.85371961158E+01  0.97400379655E+01  0.51100000000E-03 0.  1.
        -12    1    3    3    0    0  0.12575327045E+02  0.34009545972E+02  0.19503228736E+02  0.41172369359E+02  0.00000000000E+00 0.  1.
</event>
<event>
 7    1  0.3861961E-015  0.9000788E+02  0.7816164E-02  0.1186339E+00
        -11   -1    0    0    0    0  0.00000000000E+00  0.00000000000E+00  0.45593999997E+02  0.45594000000E+02  0.51100000000E-03 0. -1.
         11   -1    0    0    0    0 -0.00000000000E+00 -0.00000000000E+00 -0.45593999997E+02  0.45594000000E+02  0.51100000000E-03 0.  1.
    9900012    2    1    2    0    0 -0.93324143845E+00 -0.69794590607E+00  0.18604295731E+00  0.90007881340E+02  0.90000144573E+02 0.  0.
        -12    1    1    2    0    0  0.93324143845E+00  0.69794590607E+00 -0.18604295731E+00  0.11801186602E+01  0.00000000000E+00 0.  1.
         11    1    3    3    0    0 -0.86335792474E+01 -0.37877793258E+02 -0.21781079826E+01  0.38910282283E+02  0.51100000000E-03 0. -1.
        -11    1    3    3    0    0  0.74079362789E+01 -0.45974306534E+01 -0.24148712747E+01  0.90468498418E+01  0.51100000000E-03 0.  1.
        -12    1    3    3    0    0  0.29240153003E+00  0.41777278005E+02  0.47790222145E+01  0.42050749215E+02  0.00000000000E+00 0.  1.
</event>
<event>
 7    1  0.3861961E-015  0.9000774E+02  0.7816164E-02  0.1186339E+00
        -11   -1    0    0    0    0  0.00000000000E+00  0.00000000000E+00  0.45593999997E+02  0.45594000000E+02  0.51100000000E-03 0.  1.
         11   -1    0    0    0    0 -0.00000000000E+00 -0.00000000000E+00 -0.45593999997E+02  0.45594000000E+02  0.51100000000E-03 0. -1.
    9900012    2    1    2    0    0  0.16401790846E+00 -0.89136084784E+00 -0.75603103869E+00  0.90007741991E+02  0.90000003386E+02 0.  0.
        -12    1    1    2    0    0 -0.16401790846E+00  0.89136084784E+00  0.75603103869E+00  0.11802580086E+01  0.00000000000E+00 0.  1.
         11    1    3    3    0    0 -0.41435680565E+01  0.40751050099E+02 -0.11521635446E+02  0.42550738232E+02  0.51100000000E-03 0. -1.
        -11    1    3    3    0    0  0.65723800664E+01 -0.66987018764E+01 -0.29687063054E+01  0.98428656373E+01  0.51100000000E-03 0.  1.
        -12    1    3    3    0    0 -0.22647941015E+01 -0.34943709071E+02  0.13734310713E+02  0.37614138123E+02  0.00000000000E+00 0.  1.
</event>
<event>
 7    1  0.3861961E-015  0.9000774E+02  0.7816164E-02  0.1186339E+00
        -11   -1    0    0    0    0  0.00000000000E+00  0.00000000000E+00  0.45593999997E+02  0.45594000000E+02  0.51100000000E-03 0. -1.
         11   -1    0    0    0    0 -0.00000000000E+00 -0.00000000000E+00 -0.45593999997E+02  0.45594000000E+02  0.51100000000E-03 0.  1.
    9900012    2    1    2    0    0 -0.10107430547E+01  0.81826591268E-01  0.60391919037E+00  0.90007739223E+02  0.90000000581E+02 0.  0.
        -12    1    1    2    0    0  0.10107430547E+01 -0.81826591268E-01 -0.60391919037E+00  0.11802607771E+01  0.00000000000E+00 0.  1.
         11    1    3    3    0    0 -0.38374329684E+02  0.11798069962E+02  0.15653264400E+02  0.43090698766E+02  0.51100000000E-03 0. -1.
        -11    1    3    3    0    0  0.17205871832E+01 -0.78200968197E+01 -0.58025757755E+01  0.98885904160E+01  0.51100000000E-03 0.  1.
        -12    1    3    3    0    0  0.35642999446E+02 -0.38961465508E+01 -0.92467694345E+01  0.37028450041E+02  0.00000000000E+00 0.  1.
</event>
<event>
 7    1  0.3861961E-015  0.9000771E+02  0.7816164E-02  0.1186339E+00
        -11   -1    0    0    0    0  0.00000000000E+00  0.00000000000E+00  0.45593999997E+02  0.45594000000E+02  0.51100000000E-03 0. -1.
         11   -1    0    0    0    0 -0.00000000000E+00 -0.00000000000E+00 -0.45593999997E+02  0.45594000000E+02  0.51100000000E-03 0.  1.
    9900012    2    1    2    0    0 -0.33790902322E+00  0.92454324439E+00  0.65124710372E+00  0.90007709566E+02  0.89999970532E+02 0.  0.
        -12    1    1    2    0    0  0.33790902322E+00 -0.92454324439E+00 -0.65124710372E+00  0.11802904341E+01  0.00000000000E+00 0.  1.
         11    1    3    3    0    0 -0.32788631649E+02  0.68710145808E+00  0.22622724376E+02  0.39841613073E+02  0.51100000000E-03 0. -1.
        -11    1    3    3    0    0 -0.33593183907E+01 -0.74352437369E+01 -0.64035519805E+01  0.10371757214E+02  0.51100000000E-03 0.  1.
        -12    1    3    3    0    0  0.35810041016E+02  0.76726855233E+01 -0.15567925292E+02  0.39794339279E+02  0.00000000000E+00 0.  1.
</event>
<event>
 7    1  0.3861961E-015  0.9000779E+02  0.7816164E-02  0.1186339E+00
        -11   -1    0    0    0    0  0.00000000000E+00  0.00000000000E+00  0.45593999997E+02  0.45594000000E+02  0.51100000000E-03 0. -1.
         11   -1    0    0    0    0 -0.00000000000E+00 -0.00000000000E+00 -0.45593999997E+02  0.45594000000E+02  0.51100000000E-03 0.  1.
    9900012    2    1    2    0    0 -0.65470549767E+00  0.61293742872E+00  0.76717555297E+00  0.90007792430E+02  0.90000054490E+02 0.  0.
        -12    1    1    2    0    0  0.65470549767E+00 -0.61293742872E+00 -0.76717555297E+00  0.11802075704E+01  0.00000000000E+00 0.  1.
         11    1    3    3    0    0 -0.37072212943E+01 -0.30963533831E+02  0.23138372896E+02  0.38831278855E+02  0.51100000000E-03 0. -1.
        -11    1    3    3    0    0  0.82202429971E+01 -0.24952330514E+01  0.21813475340E+01  0.88632308013E+01  0.51100000000E-03 0.  1.
        -12    1    3    3    0    0 -0.51677272005E+01  0.34071704311E+02 -0.24552544877E+02  0.42313282773E+02  0.00000000000E+00 0.  1.
</event>
<event>
 7    1  0.3861961E-015  0.9000765E+02  0.7816164E-02  0.1186339E+00
        -11   -1    0    0    0    0  0.00000000000E+00  0.00000000000E+00  0.45593999997E+02  0.45594000000E+02  0.51100000000E-03 0. -1.
         11   -1    0    0    0    0 -0.00000000000E+00 -0.00000000000E+00 -0.45593999997E+02  0.45594000000E+02  0.51100000000E-03 0.  1.
    9900012    2    1    2    0    0  0.25731261718E+00  0.94549797887E+00  0.65806741621E+00  0.90007648809E+02  0.89999908973E+02 0.  0.
        -12    1    1    2    0    0 -0.25731261718E+00 -0.94549797887E+00 -0.65806741621E+00  0.11803511915E+01  0.00000000000E+00 0.  1.
         11    1    3    3    0    0 -0.10647671260E+02 -0.34118742671E+00  0.25143953671E+02  0.27307649452E+02  0.51100000000E-03 0. -1.
        -11    1    3    3    0    0  0.18279940986E+02  0.18600684505E+02  0.61043785056E+01  0.26784419794E+02  0.51100000000E-03 0.  1.
        -12    1    3    3    0    0 -0.73749571086E+01 -0.17313999099E+02 -0.30590264761E+02  0.35915579562E+02  0.00000000000E+00 0.  1.
</event>
<event>
 7    1  0.3994005E-015  0.9000772E+02  0.7816164E-02  0.1186339E+00
        -11   -1    0    0    0    0  0.00000000000E+00  0.00000000000E+00  0.45593999997E+02  0.45594000000E+02  0.51100000000E-03 0. -1.
         11   -1    0    0    0    0 -0.00000000000E+00 -0.00000000000E+00 -0.45593999997E+02  0.45594000000E+02  0.51100000000E-03 0.  1.
    9900012    2    1    2    0    0 -0.15510493057E-01 -0.56825757869E+00  0.10343669865E+01  0.90007715156E+02  0.89999976196E+02 0.  0.
        -12    1    1    2    0    0  0.15510493057E-01  0.56825757869E+00 -0.10343669865E+01  0.11802848444E+01  0.00000000000E+00 0.  1.
         11    1    3    3    0    0  0.54955214093E+01 -0.58915951391E+01 -0.34349951009E+01  0.87584724951E+01  0.51100000000E-03 0. -1.
        -11    1    3    3    0    0 -0.23693909733E+02 -0.11524965880E+02 -0.29270160524E+02  0.39382337340E+02  0.51100000000E-03 0.  1.
         12    1    3    3    0    0  0.18182877831E+02  0.16848303441E+02  0.33739522612E+02  0.41866905320E+02  0.00000000000E+00 0. -1.
</event>
<event>
 7    1  0.3861961E-015  0.9000790E+02  0.7816164E-02  0.1186339E+00
        -11   -1    0    0    0    0  0.00000000000E+00  0.00000000000E+00  0.45593999997E+02  0.45594000000E+02  0.51100000000E-03 0.  1.
         11   -1    0    0    0    0 -0.00000000000E+00 -0.00000000000E+00 -0.45593999997E+02  0.45594000000E+02  0.51100000000E-03 0. -1.
    9900012    2    1    2    0    0 -0.26207982963E+00  0.61903356229E+00 -0.96992284107E+00  0.90007898858E+02  0.90000162323E+02 0.  0.
        -12    1    1    2    0    0  0.26207982963E+00 -0.61903356229E+00  0.96992284107E+00  0.11801011423E+01  0.00000000000E+00 0.  1.
         11    1    3    3    0    0  0.20105365277E+02  0.23325761100E+02 -0.20445537369E+02  0.36963993864E+02  0.51100000000E-03 0. -1.
        -11    1    3    3    0    0  0.88172479617E+01  0.14694136292E+01  0.11064387234E+02  0.14224053682E+02  0.51100000000E-03 0.  1.
        -12    1    3    3    0    0 -0.29184693068E+02 -0.24176141167E+02  0.84112272944E+01  0.38819851311E+02  0.00000000000E+00 0.  1.
</event>
<event>
 7    1  0.3861961E-015  0.9000787E+02  0.7816164E-02  0.1186339E+00
        -11   -1    0    0    0    0  0.00000000000E+00  0.00000000000E+00  0.45593999997E+02  0.45594000000E+02  0.51100000000E-03 0. -1.
         11   -1    0    0    0    0 -0.00000000000E+00 -0.00000000000E+00 -0.45593999997E+02  0.45594000000E+02  0.51100000000E-03 0.  1.
    9900012    2    1    2    0    0 -0.60396744104E+00  0.10104150011E+01  0.83671218104E-01  0.90007866102E+02  0.90000129135E+02 0.  0.
        -12    1    1    2    0    0  0.60396744104E+00 -0.10104150011E+01 -0.83671218104E-01  0.11801338979E+01  0.00000000000E+00 0.  1.
         11    1    3    3    0    0  0.15276392784E+02 -0.36765723551E+02  0.10226181917E+02  0.41105491137E+02  0.51100000000E-03 0. -1.
        -11    1    3    3    0    0  0.56815584904E+01  0.38495364832E+01  0.15540670107E+01  0.70366300563E+01  0.51100000000E-03 0.  1.
        -12    1    3    3    0    0 -0.21561918715E+02  0.33926602069E+02 -0.11696577710E+02  0.41865744909E+02  0.00000000000E+00 0.  1.
</event>
<event>
 7    1  0.3861961E-015  0.9000775E+02  0.7816164E-02  0.1186339E+00
        -11   -1    0    0    0    0  0.00000000000E+00  0.00000000000E+00  0.45593999997E+02  0.45594000000E+02  0.51100000000E-03 0.  1.
         11   -1    0    0    0    0 -0.00000000000E+00 -0.00000000000E+00 -0.45593999997E+02  0.45594000000E+02  0.51100000000E-03 0. -1.
    9900012    2    1    2    0    0 -0.67751903712E+00  0.28369793186E+00 -0.92383133755E+00  0.90007753881E+02  0.90000015432E+02 0.  0.
        -12    1    1    2    0    0  0.67751903712E+00 -0.28369793186E+00  0.92383133755E+00  0.11802461194E+01  0.00000000000E+00 0.  1.
         11    1    3    3    0    0  0.53215103133E+01  0.55923691040E+01  0.11181019125E+02  0.13587061976E+02  0.51100000000E-03 0. -1.
        -11    1    3    3    0    0 -0.16155585526E+00 -0.13841518647E+02  0.30013601579E+02  0.33051929123E+02  0.51100000000E-03 0.  1.
         12    1    3    3    0    0 -0.58374734951E+01  0.85328474746E+01 -0.42118452041E+02  0.43368762782E+02  0.00000000000E+00 0. -1.
</event>
<event>
 7    1  0.3861961E-015  0.9000775E+02  0.7816164E-02  0.1186339E+00
        -11   -1    0    0    0    0  0.00000000000E+00  0.00000000000E+00  0.45593999997E+02  0.45594000000E+02  0.51100000000E-03 0.  1.
         11   -1    0    0    0    0 -0.00000000000E+00 -0.00000000000E+00 -0.45593999997E+02  0.45594000000E+02  0.51100000000E-03 0. -1.
    9900012    2    1    2    0    0  0.65712726245E+00 -0.13887303804E+00 -0.97050642151E+00  0.90007752283E+02  0.90000013813E+02 0.  0.
        -12    1    1    2    0    0 -0.65712726245E+00  0.13887303804E+00  0.97050642151E+00  0.11802477172E+01  0.00000000000E+00 0.  1.
         11    1    3    3    0    0  0.14601885177E+02 -0.18715486032E+02 -0.31186646819E+02  0.39193002031E+02  0.51100000000E-03 0. -1.
        -11    1    3    3    0    0 -0.57339404765E+01 -0.96358631157E+01  0.58728075701E+01  0.12657717029E+02  0.51100000000E-03 0.  1.
        -12    1    3    3    0    0 -0.82108174377E+01  0.28212476110E+02  0.24343332827E+02  0.38157033223E+02  0.00000000000E+00 0.  1.
</event>
<event>
 7    1  0.3861961E-015  0.9000772E+02  0.7816164E-02  0.1186339E+00
        -11   -1    0    0    0    0  0.00000000000E+00  0.00000000000E+00  0.45593999997E+02  0.45594000000E+02  0.51100000000E-03 0.  1.
         11   -1    0    0    0    0 -0.00000000000E+00 -0.00000000000E+00 -0.45593999997E+02  0.45594000000E+02  0.51100000000E-03 0. -1.
    9900012    2    1    2    0    0 -0.81322301935E+00 -0.73293849418E+00 -0.44106740341E+00  0.90007715725E+02  0.89999976773E+02 0.  0.
        -12    1    1    2    0    0  0.81322301935E+00  0.73293849418E+00  0.44106740341E+00  0.11802842750E+01  0.00000000000E+00 0.  1.
         11    1    3    3    0    0  0.31521544395E+02  0.15865727000E+02 -0.13679459571E+02  0.37847809298E+02  0.51100000000E-03 0. -1.
        -11    1    3    3    0    0  0.24817806493E+01 -0.32728280147E+01 -0.81887714312E+01  0.91611471017E+01  0.51100000000E-03 0.  1.
        -12    1    3    3    0    0 -0.34816548063E+02 -0.13325837480E+02  0.21427163599E+02  0.42998759325E+02  0.00000000000E+00 0.  1.
</event>
<event>
 7    1  0.3861961E-015  0.9000780E+02  0.7816164E-02  0.1186339E+00
        -11   -1    0    0    0    0  0.00000000000E+00  0.00000000000E+00  0.45593999997E+02  0.45594000000E+02  0.51100000000E-03 0. -1.
         11   -1    0    0    0    0 -0.00000000000E+00 -0.00000000000E+00 -0.45593999997E+02  0.45594000000E+02  0.51100000000E-03 0.  1.
    9900012    2    1    2    0    0  0.36435018578E+00 -0.93927806130E+00  0.61471505530E+00  0.90007801316E+02  0.90000063493E+02 0.  0.
        -12    1    1    2    0    0 -0.36435018578E+00  0.93927806130E+00 -0.61471505530E+00  0.11801986839E+01  0.00000000000E+00 0.  1.
         11    1    3    3    0    0 -0.76428406527E+01 -0.25846742260E+02  0.24122361324E+02  0.36171195927E+02  0.51100000000E-03 0. -1.
        -11    1    3    3    0    0 -0.32157454323E+01 -0.66541276538E+01  0.57476247963E+01  0.93623514449E+01  0.51100000000E-03 0.  1.
        -12    1    3    3    0    0  0.11222936271E+02  0.31561591852E+02 -0.29255271065E+02  0.44474253944E+02  0.00000000000E+00 0.  1.
</event>
<event>
 7    1  0.3861961E-015  0.9000765E+02  0.7816164E-02  0.1186339E+00
        -11   -1    0    0    0    0  0.00000000000E+00  0.00000000000E+00  0.45593999997E+02  0.45594000000E+02  0.51100000000E-03 0. -1.
         11   -1    0    0    0    0 -0.00000000000E+00 -0.00000000000E+00 -0.45593999997E+02  0.45594000000E+02  0.51100000000E-03 0.  1.
    9900012    2    1    2    0    0  0.25800882626E+00 -0.69998299420E+00  0.91470451285E+00  0.90007648742E+02  0.89999908905E+02 0.  0.
        -12    1    1    2    0    0 -0.25800882626E+00  0.69998299420E+00 -0.91470451285E+00  0.11803512581E+01  0.00000000000E+00 0.  1.
         11    1    3    3    0    0  0.16784662753E+02 -0.45286138904E+01  0.31364288289E+02  0.35860170491E+02  0.51100000000E-03 0. -1.
        -11    1    3    3    0    0 -0.19303347564E+01 -0.90295457903E+01  0.72403936698E+01  0.11733805444E+02  0.51100000000E-03 0.  1.
        -12    1    3    3    0    0 -0.14596319170E+02  0.12858176687E+02 -0.37689977446E+02  0.42413672806E+02  0.00000000000E+00 0.  1.
</event>
<event>
 7    1  0.3861961E-015  0.9000774E+02  0.7816164E-02  0.1186339E+00
        -11   -1    0    0    0    0  0.00000000000E+00  0.00000000000E+00  0.45593999997E+02  0.45594000000E+02  0.51100000000E-03 0. -1.
         11   -1    0    0    0    0 -0.00000000000E+00 -0.00000000000E+00 -0.45593999997E+02  0.45594000000E+02  0.51100000000E-03 0.  1.
    9900012    2    1    2    0    0 -0.68828298904E+00 -0.42523045432E+00  0.85933610383E+00  0.90007740303E+02  0.90000001675E+02 0.  0.
        -12    1    1    2    0    0  0.68828298904E+00  0.42523045432E+00 -0.85933610383E+00  0.11802596967E+01  0.00000000000E+00 0.  1.
         11    1    3    3    0    0  0.43332577262E+00 -0.10949326688E+02 -0.42440879755E+01  0.11751076936E+02  0.51100000000E-03 0. -1.
        -11    1    3    3    0    0 -0.99102291763E+00 -0.43751361767E+01 -0.35097683742E+02  0.35383207137E+02  0.51100000000E-03 0.  1.
         12    1    3    3    0    0 -0.13058584403E+00  0.14899232410E+02  0.40201107821E+02  0.42873456230E+02  0.00000000000E+00 0. -1.
</event>
<event>
 7    1  0.3861961E-015  0.9000778E+02  0.7816164E-02  0.1186339E+00
        -11   -1    0    0    0    0  0.00000000000E+00  0.00000000000E+00  0.45593999997E+02  0.45594000000E+02  0.51100000000E-03 0. -1.
         11   -1    0    0    0    0 -0.00000000000E+00 -0.00000000000E+00 -0.45593999997E+02  0.45594000000E+02  0.51100000000E-03 0.  1.
    9900012    2    1    2    0    0  0.10482871355E+01 -0.74528536435E-01  0.53709073681E+00  0.90007776767E+02  0.90000038620E+02 0.  0.
        -12    1    1    2    0    0 -0.10482871355E+01  0.74528536435E-01 -0.53709073681E+00  0.11802232335E+01  0.00000000000E+00 0.  1.
         11    1    3    3    0    0 -0.30941386058E+02 -0.83789873780E+01 -0.10815821679E+02  0.33831328670E+02  0.51100000000E-03 0. -1.
        -11    1    3    3    0    0 -0.25660087565E+01  0.18463884204E+02  0.69297102955E+01  0.19887692321E+02  0.51100000000E-03 0.  1.
        -12    1    3    3    0    0  0.34555681950E+02 -0.10159425362E+02  0.44232021207E+01  0.36288755776E+02  0.00000000000E+00 0.  1.
</event>
<event>
 7    1  0.3861961E-015  0.9000787E+02  0.7816164E-02  0.1186339E+00
        -11   -1    0    0    0    0  0.00000000000E+00  0.00000000000E+00  0.45593999997E+02  0.45594000000E+02  0.51100000000E-03 0. -1.
         11   -1    0    0    0    0 -0.00000000000E+00 -0.00000000000E+00 -0.45593999997E+02  0.45594000000E+02  0.51100000000E-03 0.  1.
    9900012    2    1    2    0    0 -0.35025375580E+00 -0.94644569651E+00 -0.61177042317E+00  0.90007872803E+02  0.90000135924E+02 0.  0.
        -12    1    1    2    0    0  0.35025375580E+00  0.94644569651E+00  0.61177042317E+00  0.11801271968E+01  0.00000000000E+00 0.  1.
         11    1    3    3    0    0 -0.15396351200E+02 -0.13586239724E+02 -0.25547115024E+02  0.32776342480E+02  0.51100000000E-03 0. -1.
        -11    1    3    3    0    0 -0.33922573226E+01 -0.11833378397E+02 -0.59957817646E+01  0.13692540059E+02  0.51100000000E-03 0.  1.
         12    1    3    3    0    0  0.18438354767E+02  0.24473172424E+02  0.30931126365E+02  0.43538990264E+02  0.00000000000E+00 0. -1.
</event>
<event>
 7    1  0.3861961E-015  0.9000775E+02  0.7816164E-02  0.1186339E+00
        -11   -1    0    0    0    0  0.00000000000E+00  0.00000000000E+00  0.45593999997E+02  0.45594000000E+02  0.51100000000E-03 0. -1.
         11   -1    0    0    0    0 -0.00000000000E+00 -0.00000000000E+00 -0.45593999997E+02  0.45594000000E+02  0.51100000000E-03 0.  1.
    9900012    2    1    2    0    0  0.52812337278E+00 -0.68058800962E+00 -0.80677256210E+00  0.90007747356E+02  0.90000008822E+02 0.  0.
        -12    1    1    2    0    0 -0.52812337278E+00  0.68058800962E+00  0.80677256210E+00  0.11802526436E+01  0.00000000000E+00 0.  1.
         11    1    3    3    0    0  0.44013763755E+01  0.17112999011E+02 -0.12839797415E+02  0.21842326961E+02  0.51100000000E-03 0. -1.
        -11    1    3    3    0    0  0.64957450607E+01 -0.12124859593E+02 -0.25414152109E+02  0.28897855486E+02  0.51100000000E-03 0.  1.
        -12    1    3    3    0    0 -0.10368998063E+02 -0.56687274280E+01  0.37447176962E+02  0.39267564909E+02  0.00000000000E+00 0.  1.
</event>
<event>
 7    1  0.3861961E-015  0.9000771E+02  0.7816164E-02  0.1186339E+00
        -11   -1    0    0    0    0  0.00000000000E+00  0.00000000000E+00  0.45593999997E+02  0.45594000000E+02  0.51100000000E-03 0. -1.
         11   -1    0    0    0    0 -0.00000000000E+00 -0.00000000000E+00 -0.45593999997E+02  0.45594000000E+02  0.51100000000E-03 0.  1.
    9900012    2    1    2    0    0  0.59159475444E+00 -0.10213139077E+01 -0.50039622115E-02  0.90007707032E+02  0.89999967964E+02 0.  0.
        -12    1    1    2    0    0 -0.59159475444E+00  0.10213139077E+01  0.50039622115E-02  0.11802929684E+01  0.00000000000E+00 0.  1.
         11    1    3    3    0    0  0.19654217883E+01 -0.49500942501E+00  0.78769127836E+01  0.81334907880E+01  0.51100000000E-03 0. -1.
        -11    1    3    3    0    0  0.13487031505E+02  0.37770069224E+02 -0.33032563855E+00  0.40107197151E+02  0.51100000000E-03 0.  1.
         12    1    3    3    0    0 -0.14860858539E+02 -0.38296373707E+02 -0.75515911073E+01  0.41767019093E+02  0.00000000000E+00 0. -1.
</event>
<event>
 7    1  0.3861961E-015  0.9000775E+02  0.7816164E-02  0.1186339E+00
        -11   -1    0    0    0    0  0.00000000000E+00  0.00000000000E+00  0.45593999997E+02  0.45594000000E+02  0.51100000000E-03 0. -1.
         11   -1    0    0    0    0 -0.00000000000E+00 -0.00000000000E+00 -0.45593999997E+02  0.45594000000E+02  0.51100000000E-03 0.  1.
    9900012    2    1    2    0    0  0.34186075054E+00 -0.77252467849E+00  0.82421359909E+00  0.90007749514E+02  0.90000011008E+02 0.  0.
        -12    1    1    2    0    0 -0.34186075054E+00  0.77252467849E+00 -0.82421359909E+00  0.11802504855E+01  0.00000000000E+00 0.  1.
         11    1    3    3    0    0  0.54185318976E+01 -0.62852688340E+01  0.57343023854E+01  0.10086987476E+02  0.51100000000E-03 0. -1.
        -11    1    3    3    0    0  0.25561536823E+02 -0.24233772783E+02 -0.10733964939E+02  0.36822356139E+02  0.51100000000E-03 0.  1.
         12    1    3    3    0    0 -0.30638207970E+02  0.29746516938E+02  0.58238761523E+01  0.43098405899E+02  0.00000000000E+00 0. -1.
</event>
<event>
 7    1  0.3861961E-015  0.9000770E+02  0.7816164E-02  0.1186339E+00
        -11   -1    0    0    0    0  0.00000000000E+00  0.00000000000E+00  0.45593999997E+02  0.45594000000E+02  0.51100000000E-03 0. -1.
         11   -1    0    0    0    0 -0.00000000000E+00 -0.00000000000E+00 -0.45593999997E+02  0.45594000000E+02  0.51100000000E-03 0.  1.
    9900012    2    1    2    0    0 -0.67171314358E+00 -0.95848452114E+00 -0.15239008838E+00  0.90007697554E+02  0.89999958362E+02 0.  0.
        -12    1    1    2    0    0  0.67171314358E+00  0.95848452114E+00  0.15239008838E+00  0.11803024458E+01  0.00000000000E+00 0.  1.
         11    1    3    3    0    0  0.18196670380E+02 -0.21937208880E+02  0.17301849094E+02  0.33342374371E+02  0.51100000000E-03 0. -1.
        -11    1    3    3    0    0  0.63579586523E+01  0.15974467120E+02  0.93061551126E+01  0.19550236858E+02  0.51100000000E-03 0.  1.
        -12    1    3    3    0    0 -0.25226342176E+02  0.50042572392E+01 -0.26760394295E+02  0.37115086325E+02  0.00000000000E+00 0.  1.
</event>
<event>
 7    1  0.3861961E-015  0.9000769E+02  0.7816164E-02  0.1186339E+00
        -11   -1    0    0    0    0  0.00000000000E+00  0.00000000000E+00  0.45593999997E+02  0.45594000000E+02  0.51100000000E-03 0.  1.
         11   -1    0    0    0    0 -0.00000000000E+00 -0.00000000000E+00 -0.45593999997E+02  0.45594000000E+02  0.51100000000E-03 0. -1.
    9900012    2    1    2    0    0  0.57930512279E+00  0.76017802597E+00  0.69257425313E+00  0.90007693196E+02  0.89999953946E+02 0.  0.
        -12    1    1    2    0    0 -0.57930512279E+00 -0.76017802597E+00 -0.69257425313E+00  0.11803068044E+01  0.00000000000E+00 0.  1.
         11    1    3    3    0    0  0.24381155764E+02  0.33382078503E+02 -0.48548895104E+01  0.41621795660E+02  0.51100000000E-03 0. -1.
        -11    1    3    3    0    0 -0.96539021859E+01 -0.12062039952E+01 -0.67072585340E+01  0.11816940078E+02  0.51100000000E-03 0.  1.
        -12    1    3    3    0    0 -0.14147948455E+02 -0.31415696482E+02  0.12254722297E+02  0.36568957458E+02  0.00000000000E+00 0.  1.
</event>
<event>
 7    1  0.3861961E-015  0.9000819E+02  0.7816164E-02  0.1186338E+00
        -11   -1    0    0    0    0  0.00000000000E+00  0.00000000000E+00  0.45593999997E+02  0.45594000000E+02  0.51100000000E-03 0. -1.
         11   -1    0    0    0    0 -0.00000000000E+00 -0.00000000000E+00 -0.45593999997E+02  0.45594000000E+02  0.51100000000E-03 0.  1.
    9900012    2    1    2    0    0 -0.75101084424E+00  0.89484747505E+00  0.16488064424E+00  0.90008188609E+02  0.90000455897E+02 0.  0.
        -12    1    1    2    0    0  0.75101084424E+00 -0.89484747505E+00 -0.16488064424E+00  0.11798113911E+01  0.00000000000E+00 0.  1.
         11    1    3    3    0    0 -0.29812308288E+01  0.88817102183E+01 -0.89481052898E+01  0.12955350331E+02  0.51100000000E-03 0. -1.
        -11    1    3    3    0    0 -0.18437807223E+02  0.73452555097E+01 -0.26504250759E+02  0.33111641794E+02  0.51100000000E-03 0.  1.
         12    1    3    3    0    0  0.20668027208E+02 -0.15332118253E+02  0.35617236693E+02  0.43941196484E+02  0.00000000000E+00 0. -1.
</event>
<event>
 7    1  0.3861961E-015  0.9000776E+02  0.7816164E-02  0.1186339E+00
        -11   -1    0    0    0    0  0.00000000000E+00  0.00000000000E+00  0.45593999997E+02  0.45594000000E+02  0.51100000000E-03 0.  1.
         11   -1    0    0    0    0 -0.00000000000E+00 -0.00000000000E+00 -0.45593999997E+02  0.45594000000E+02  0.51100000000E-03 0. -1.
    9900012    2    1    2    0    0  0.28897047260E+00 -0.10032017932E+01 -0.55050291237E+00  0.90007757979E+02  0.90000019584E+02 0.  0.
        -12    1    1    2    0    0 -0.28897047260E+00  0.10032017932E+01  0.55050291237E+00  0.11802420211E+01  0.00000000000E+00 0.  1.
         11    1    3    3    0    0  0.46448600364E+01  0.39584033684E+02  0.15960519979E+02  0.42932605858E+02  0.51100000000E-03 0. -1.
        -11    1    3    3    0    0 -0.31780888776E+00 -0.11610897189E+02  0.28914586324E+01  0.11969731380E+02  0.51100000000E-03 0.  1.
        -12    1    3    3    0    0 -0.40380806760E+01 -0.28976338288E+02 -0.19402481524E+02  0.35105420741E+02  0.00000000000E+00 0.  1.
</event>
<event>
 7    1  0.3861961E-015  0.9000774E+02  0.7816164E-02  0.1186339E+00
        -11   -1    0    0    0    0  0.00000000000E+00  0.00000000000E+00  0.45593999997E+02  0.45594000000E+02  0.51100000000E-03 0. -1.
         11   -1    0    0    0    0 -0.00000000000E+00 -0.00000000000E+00 -0.45593999997E+02  0.45594000000E+02  0.51100000000E-03 0.  1.
    9900012    2    1    2    0    0 -0.57339769977E+00  0.96858166850E+00 -0.35507623400E+00  0.90007739646E+02  0.90000001010E+02 0.  0.
        -12    1    1    2    0    0  0.57339769977E+00 -0.96858166850E+00  0.35507623400E+00  0.11802603537E+01  0.00000000000E+00 0.  1.
         11    1    3    3    0    0 -0.29770953370E+02  0.67370319122E+01 -0.84811784797E+01  0.31680082894E+02  0.51100000000E-03 0. -1.
        -11    1    3    3    0    0 -0.97165287759E+01  0.17511789158E+01 -0.10605837649E+02  0.14490043186E+02  0.51100000000E-03 0.  1.
         12    1    3    3    0    0  0.38914084446E+02 -0.75196291595E+01  0.18731939894E+02  0.43837613566E+02  0.00000000000E+00 0. -1.
</event>
<event>
 7    1  0.3861961E-015  0.9000782E+02  0.7816164E-02  0.1186339E+00
        -11   -1    0    0    0    0  0.00000000000E+00  0.00000000000E+00  0.45593999997E+02  0.45594000000E+02  0.51100000000E-03 0. -1.
         11   -1    0    0    0    0 -0.00000000000E+00 -0.00000000000E+00 -0.45593999997E+02  0.45594000000E+02  0.51100000000E-03 0.  1.
    9900012    2    1    2    0    0  0.48126984538E+00 -0.30501482245E+00  0.10335244663E+01  0.90007818858E+02  0.90000081267E+02 0.  0.
        -12    1    1    2    0    0 -0.48126984538E+00  0.30501482245E+00 -0.10335244663E+01  0.11801811422E+01  0.00000000000E+00 0.  1.
         11    1    3    3    0    0  0.14645269452E+01 -0.25281914762E+01 -0.29347784838E+01  0.41411974505E+01  0.51100000000E-03 0. -1.
        -11    1    3    3    0    0  0.11148422298E+02  0.11333556680E+02 -0.38026172850E+02  0.41215611710E+02  0.51100000000E-03 0.  1.
         12    1    3    3    0    0 -0.12131679397E+02 -0.91103800260E+01  0.41994475800E+02  0.44651009697E+02  0.00000000000E+00 0. -1.
</event>
<event>
 7    1  0.3861961E-015  0.9000768E+02  0.7816164E-02  0.1186339E+00
        -11   -1    0    0    0    0  0.00000000000E+00  0.00000000000E+00  0.45593999997E+02  0.45594000000E+02  0.51100000000E-03 0.  1.
         11   -1    0    0    0    0 -0.00000000000E+00 -0.00000000000E+00 -0.45593999997E+02  0.45594000000E+02  0.51100000000E-03 0. -1.
    9900012    2    1    2    0    0  0.76704010741E+00 -0.57101023823E+00 -0.69192130987E+00  0.90007678723E+02  0.89999939282E+02 0.  0.
        -12    1    1    2    0    0 -0.76704010741E+00  0.57101023823E+00  0.69192130987E+00  0.11803212773E+01  0.00000000000E+00 0.  1.
         11    1    3    3    0    0  0.20013348482E+01 -0.90334948820E+01 -0.20363164260E+01  0.94739619909E+01  0.51100000000E-03 0. -1.
        -11    1    3    3    0    0  0.18292226339E+02  0.14628378560E+02  0.34419568933E+02  0.41632940438E+02  0.51100000000E-03 0.  1.
         12    1    3    3    0    0 -0.19526521080E+02 -0.61658939160E+01 -0.33075173816E+02  0.38900776294E+02  0.00000000000E+00 0. -1.
</event>
<event>
 7    1  0.3861961E-015  0.9000800E+02  0.7816164E-02  0.1186339E+00
        -11   -1    0    0    0    0  0.00000000000E+00  0.00000000000E+00  0.45593999997E+02  0.45594000000E+02  0.51100000000E-03 0.  1.
         11   -1    0    0    0    0 -0.00000000000E+00 -0.00000000000E+00 -0.45593999997E+02  0.45594000000E+02  0.51100000000E-03 0. -1.
    9900012    2    1    2    0    0 -0.11784083474E+01 -0.29520020917E-01 -0.53680118142E-01  0.90008000331E+02  0.90000265135E+02 0.  0.
        -12    1    1    2    0    0  0.11784083474E+01  0.29520020917E-01  0.53680118142E-01  0.11799996694E+01  0.00000000000E+00 0.  1.
         11    1    3    3    0    0  0.33890160296E+01  0.44465087547E+01  0.46079522043E+01  0.72450047296E+01  0.51100000000E-03 0. -1.
        -11    1    3    3    0    0  0.14366913816E+02 -0.16856968299E+02  0.32456722386E+02  0.39293821666E+02  0.51100000000E-03 0.  1.
         12    1    3    3    0    0 -0.18934338193E+02  0.12380939523E+02 -0.37118354709E+02  0.43469173935E+02  0.00000000000E+00 0. -1.
</event>
<event>
 7    1  0.3861961E-015  0.9000763E+02  0.7816164E-02  0.1186339E+00
        -11   -1    0    0    0    0  0.00000000000E+00  0.00000000000E+00  0.45593999997E+02  0.45594000000E+02  0.51100000000E-03 0. -1.
         11   -1    0    0    0    0 -0.00000000000E+00 -0.00000000000E+00 -0.45593999997E+02  0.45594000000E+02  0.51100000000E-03 0.  1.
    9900012    2    1    2    0    0  0.10444129542E+01  0.54425973067E+00  0.79054100717E-01  0.90007632844E+02  0.89999892797E+02 0.  0.
        -12    1    1    2    0    0 -0.10444129542E+01 -0.54425973067E+00 -0.79054100717E-01  0.11803671565E+01  0.00000000000E+00 0.  1.
         11    1    3    3    0    0  0.73632370931E+01  0.44086016806E+01  0.42380871765E+01  0.95715418007E+01  0.51100000000E-03 0. -1.
        -11    1    3    3    0    0  0.26363715716E+02  0.14654765357E+02 -0.23451332462E+02  0.38206971203E+02  0.51100000000E-03 0.  1.
         12    1    3    3    0    0 -0.32682539855E+02 -0.18519107307E+02  0.19292299386E+02  0.42229119840E+02  0.00000000000E+00 0. -1.
</event>
<event>
 7    1  0.3861961E-015  0.9000774E+02  0.7816164E-02  0.1186339E+00
        -11   -1    0    0    0    0  0.00000000000E+00  0.00000000000E+00  0.45593999997E+02  0.45594000000E+02  0.51100000000E-03 0. -1.
         11   -1    0    0    0    0 -0.00000000000E+00 -0.00000000000E+00 -0.45593999997E+02  0.45594000000E+02  0.51100000000E-03 0.  1.
    9900012    2    1    2    0    0 -0.80727847063E+00  0.84854483972E+00  0.14588782236E+00  0.90007741498E+02  0.90000002886E+02 0.  0.
        -12    1    1    2    0    0  0.80727847063E+00 -0.84854483972E+00 -0.14588782236E+00  0.11802585017E+01  0.00000000000E+00 0.  1.
         11    1    3    3    0    0 -0.37428559564E+02 -0.10385975657E+02  0.55316969312E+01  0.39234745221E+02  0.51100000000E-03 0. -1.
        -11    1    3    3    0    0 -0.43604055392E+00  0.37051996346E+01  0.94442626535E+01  0.10154444004E+02  0.51100000000E-03 0.  1.
        -12    1    3    3    0    0  0.37057321647E+02  0.75293208623E+01 -0.14830071762E+02  0.40618552273E+02  0.00000000000E+00 0.  1.
</event>
<event>
 7    1  0.3861961E-015  0.9000766E+02  0.7816164E-02  0.1186339E+00
        -11   -1    0    0    0    0  0.00000000000E+00  0.00000000000E+00  0.45593999997E+02  0.45594000000E+02  0.51100000000E-03 0.  1.
         11   -1    0    0    0    0 -0.00000000000E+00 -0.00000000000E+00 -0.45593999997E+02  0.45594000000E+02  0.51100000000E-03 0. -1.
    9900012    2    1    2    0    0  0.10669861978E+01  0.17787966422E+00 -0.47233973411E+00  0.90007658716E+02  0.89999919011E+02 0.  0.
        -12    1    1    2    0    0 -0.10669861978E+01 -0.17787966422E+00  0.47233973411E+00  0.11803412835E+01  0.00000000000E+00 0.  1.
         11    1    3    3    0    0  0.15027189679E+00 -0.51398307268E+01 -0.94237178492E+01  0.10735310890E+02  0.51100000000E-03 0. -1.
        -11    1    3    3    0    0  0.23479133873E+02 -0.18226084726E+02  0.28560744244E+02  0.41221062625E+02  0.51100000000E-03 0.  1.
         12    1    3    3    0    0 -0.22562419573E+02  0.23543795117E+02 -0.19609366129E+02  0.38051285201E+02  0.00000000000E+00 0. -1.
</event>
<event>
 7    1  0.3861961E-015  0.9000807E+02  0.7816164E-02  0.1186338E+00
        -11   -1    0    0    0    0  0.00000000000E+00  0.00000000000E+00  0.45593999997E+02  0.45594000000E+02  0.51100000000E-03 0. -1.
         11   -1    0    0    0    0 -0.00000000000E+00 -0.00000000000E+00 -0.45593999997E+02  0.45594000000E+02  0.51100000000E-03 0.  1.
    9900012    2    1    2    0    0 -0.10527401912E+01 -0.40514971431E+00 -0.34617223330E+00  0.90008066351E+02  0.90000332026E+02 0.  0.
        -12    1    1    2    0    0  0.10527401912E+01  0.40514971431E+00  0.34617223330E+00  0.11799336491E+01  0.00000000000E+00 0.  1.
         11    1    3    3    0    0 -0.21935813027E+01 -0.71869657406E+01  0.48254065212E+01  0.89302196974E+01  0.51100000000E-03 0. -1.
        -11    1    3    3    0    0  0.34897468112E+02 -0.16369180855E+02  0.50849151359E+01  0.38879811273E+02  0.51100000000E-03 0.  1.
         12    1    3    3    0    0 -0.33756627000E+02  0.23150996881E+02 -0.10256493890E+02  0.42198035380E+02  0.00000000000E+00 0. -1.
</event>
<event>
 7    1  0.3861961E-015  0.9000753E+02  0.7816164E-02  0.1186339E+00
        -11   -1    0    0    0    0  0.00000000000E+00  0.00000000000E+00  0.45593999997E+02  0.45594000000E+02  0.51100000000E-03 0. -1.
         11   -1    0    0    0    0 -0.00000000000E+00 -0.00000000000E+00 -0.45593999997E+02  0.45594000000E+02  0.51100000000E-03 0.  1.
    9900012    2    1    2    0    0  0.20814460456E+00  0.11512584942E+01  0.15744576973E+00  0.90007529980E+02  0.89999788576E+02 0.  0.
        -12    1    1    2    0    0 -0.20814460456E+00 -0.11512584942E+01 -0.15744576973E+00  0.11804700197E+01  0.00000000000E+00 0.  1.
         11    1    3    3    0    0 -0.23260557805E+02  0.26383345032E+01  0.31195084482E+02  0.39001892960E+02  0.51100000000E-03 0. -1.
        -11    1    3    3    0    0 -0.59422008238E+01 -0.44509148136E+01  0.91073811386E+00  0.74799623985E+01  0.51100000000E-03 0.  1.
        -12    1    3    3    0    0  0.29410903233E+02  0.29638388046E+01 -0.31948376827E+02  0.43525674622E+02  0.00000000000E+00 0.  1.
</event>
<event>
 7    1  0.3861961E-015  0.9000766E+02  0.7816164E-02  0.1186339E+00
        -11   -1    0    0    0    0  0.00000000000E+00  0.00000000000E+00  0.45593999997E+02  0.45594000000E+02  0.51100000000E-03 0.  1.
         11   -1    0    0    0    0 -0.00000000000E+00 -0.00000000000E+00 -0.45593999997E+02  0.45594000000E+02  0.51100000000E-03 0. -1.
    9900012    2    1    2    0    0  0.11644183535E+01 -0.72017732666E-01  0.17926660733E+00  0.90007663958E+02  0.89999924322E+02 0.  0.
        -12    1    1    2    0    0 -0.11644183535E+01  0.72017732666E-01 -0.17926660733E+00  0.11803360421E+01  0.00000000000E+00 0.  1.
         11    1    3    3    0    0  0.34302004173E+01  0.58270339383E+01 -0.56411587321E+01  0.88058657452E+01  0.51100000000E-03 0. -1.
        -11    1    3    3    0    0 -0.70819447924E+01 -0.15519481451E+02  0.41003503701E+02  0.44410534364E+02  0.51100000000E-03 0.  1.
         12    1    3    3    0    0  0.48161627285E+01  0.96204297802E+01 -0.35183078361E+02  0.36791263848E+02  0.00000000000E+00 0. -1.
</event>
<event>
 7    1  0.3861961E-015  0.9000771E+02  0.7816164E-02  0.1186339E+00
        -11   -1    0    0    0    0  0.00000000000E+00  0.00000000000E+00  0.45593999997E+02  0.45594000000E+02  0.51100000000E-03 0. -1.
         11   -1    0    0    0    0 -0.00000000000E+00 -0.00000000000E+00 -0.45593999997E+02  0.45594000000E+02  0.51100000000E-03 0.  1.
    9900012    2    1    2    0    0  0.85135017125E+00  0.78794795805E+00 -0.21777577674E+00  0.90007709617E+02  0.89999970584E+02 0.  0.
        -12    1    1    2    0    0 -0.85135017125E+00 -0.78794795805E+00  0.21777577674E+00  0.11802903827E+01  0.00000000000E+00 0.  1.
         11    1    3    3    0    0 -0.75196542636E+01  0.48136861290E+01 -0.40522860596E+01  0.98049883714E+01  0.51100000000E-03 0. -1.
        -11    1    3    3    0    0  0.19126351372E+02 -0.39276527369E+01 -0.34906498667E+02  0.39996342611E+02  0.51100000000E-03 0.  1.
         12    1    3    3    0    0 -0.10755346937E+02 -0.98085434076E-01  0.38741008950E+02  0.40206378635E+02  0.00000000000E+00 0. -1.
</event>
<event>
 7    1  0.3861961E-015  0.9000762E+02  0.7816164E-02  0.1186339E+00
        -11   -1    0    0    0    0  0.00000000000E+00  0.00000000000E+00  0.45593999997E+02  0.45594000000E+02  0.51100000000E-03 0. -1.
         11   -1    0    0    0    0 -0.00000000000E+00 -0.00000000000E+00 -0.45593999997E+02  0.45594000000E+02  0.51100000000E-03 0.  1.
    9900012    2    1    2    0    0 -0.10653481648E+01 -0.44681486734E+00 -0.24226883046E+00  0.90007616832E+02  0.89999876574E+02 0.  0.
        -12    1    1    2    0    0  0.10653481648E+01  0.44681486734E+00  0.24226883046E+00  0.11803831684E+01  0.00000000000E+00 0.  1.
         11    1    3    3    0    0  0.44221934623E+01  0.15985144193E+02 -0.29718878545E+02  0.34033694659E+02  0.51100000000E-03 0. -1.
        -11    1    3    3    0    0  0.34929415586E+01 -0.28840450551E+02  0.90220544440E+01  0.30419889798E+02  0.51100000000E-03 0.  1.
        -12    1    3    3    0    0 -0.89804831857E+01  0.12408491490E+02  0.20454555270E+02  0.25554032375E+02  0.00000000000E+00 0.  1.
</event>
<event>
 7    1  0.3861961E-015  0.9000782E+02  0.7816164E-02  0.1186339E+00
        -11   -1    0    0    0    0  0.00000000000E+00  0.00000000000E+00  0.45593999997E+02  0.45594000000E+02  0.51100000000E-03 0.  1.
         11   -1    0    0    0    0 -0.00000000000E+00 -0.00000000000E+00 -0.45593999997E+02  0.45594000000E+02  0.51100000000E-03 0. -1.
    9900012    2    1    2    0    0 -0.40911464565E+00 -0.59352453993E+00 -0.93444658288E+00  0.90007815019E+02  0.90000077377E+02 0.  0.
        -12    1    1    2    0    0  0.40911464565E+00  0.59352453993E+00  0.93444658288E+00  0.11801849809E+01  0.00000000000E+00 0.  1.
         11    1    3    3    0    0 -0.34699960541E+02  0.15963654295E+02 -0.13507844758E+02  0.40514039422E+02  0.51100000000E-03 0. -1.
        -11    1    3    3    0    0  0.56354768660E+01  0.89352729036E+00 -0.82316504194E+01  0.10015840425E+02  0.51100000000E-03 0.  1.
        -12    1    3    3    0    0  0.28655369029E+02 -0.17450706126E+02  0.20805048595E+02  0.39477935173E+02  0.00000000000E+00 0.  1.
</event>
<event>
 7    1  0.3861961E-015  0.9000778E+02  0.7816164E-02  0.1186339E+00
        -11   -1    0    0    0    0  0.00000000000E+00  0.00000000000E+00  0.45593999997E+02  0.45594000000E+02  0.51100000000E-03 0. -1.
         11   -1    0    0    0    0 -0.00000000000E+00 -0.00000000000E+00 -0.45593999997E+02  0.45594000000E+02  0.51100000000E-03 0.  1.
    9900012    2    1    2    0    0  0.64794090112E+00  0.71006268975E+00  0.68477085703E+00  0.90007776478E+02  0.90000038328E+02 0.  0.
        -12    1    1    2    0    0 -0.64794090112E+00 -0.71006268975E+00 -0.68477085703E+00  0.11802235218E+01  0.00000000000E+00 0.  1.
         11    1    3    3    0    0 -0.54261465526E+01  0.13088038693E+02 -0.35433918840E+02  0.38161530733E+02  0.51100000000E-03 0. -1.
        -11    1    3    3    0    0 -0.82264581194E+01 -0.55487668163E+00 -0.28187929954E+01  0.87136729072E+01  0.51100000000E-03 0.  1.
        -12    1    3    3    0    0  0.14300545573E+02 -0.11823099322E+02  0.38937482692E+02  0.43132572838E+02  0.00000000000E+00 0.  1.
</event>
<event>
 7    1  0.3861961E-015  0.9000766E+02  0.7816164E-02  0.1186339E+00
        -11   -1    0    0    0    0  0.00000000000E+00  0.00000000000E+00  0.45593999997E+02  0.45594000000E+02  0.51100000000E-03 0.  1.
         11   -1    0    0    0    0 -0.00000000000E+00 -0.00000000000E+00 -0.45593999997E+02  0.45594000000E+02  0.51100000000E-03 0. -1.
    9900012    2    1    2    0    0  0.23151028076E+00 -0.25325184306E+00 -0.11293646629E+01  0.90007661892E+02  0.89999922229E+02 0.  0.
        -12    1    1    2    0    0 -0.23151028076E+00  0.25325184306E+00  0.11293646629E+01  0.11803381075E+01  0.00000000000E+00 0.  1.
         11    1    3    3    0    0  0.48940680468E+01 -0.49075409259E+01 -0.11671930995E+01  0.70283853038E+01  0.51100000000E-03 0. -1.
        -11    1    3    3    0    0  0.26333529793E+02  0.18503242237E+02 -0.25035282313E+02  0.40774871249E+02  0.51100000000E-03 0.  1.
         12    1    3    3    0    0 -0.30996087559E+02 -0.13848953154E+02  0.25073110750E+02  0.42204405340E+02  0.00000000000E+00 0. -1.
</event>
<event>
 7    1  0.3861961E-015  0.9000782E+02  0.7816164E-02  0.1186339E+00
        -11   -1    0    0    0    0  0.00000000000E+00  0.00000000000E+00  0.45593999997E+02  0.45594000000E+02  0.51100000000E-03 0. -1.
         11   -1    0    0    0    0 -0.00000000000E+00 -0.00000000000E+00 -0.45593999997E+02  0.45594000000E+02  0.51100000000E-03 0.  1.
    9900012    2    1    2    0    0  0.27154994828E+00  0.76993494994E+00  0.85223027587E+00  0.90007815419E+02  0.90000077783E+02 0.  0.
        -12    1    1    2    0    0 -0.27154994828E+00 -0.76993494994E+00 -0.85223027587E+00  0.11801845808E+01  0.00000000000E+00 0.  1.
         11    1    3    3    0    0 -0.35077443130E+01 -0.30632687690E+02  0.25066793323E+02  0.39736758210E+02  0.51100000000E-03 0. -1.
        -11    1    3    3    0    0  0.94623759773E+01  0.13830964739E+02  0.33520980076E+01  0.17090017731E+02  0.51100000000E-03 0.  1.
        -12    1    3    3    0    0 -0.56830817160E+01  0.17571657901E+02 -0.27566661055E+02  0.33181039479E+02  0.00000000000E+00 0.  1.
</event>
<event>
 7    1  0.3861961E-015  0.9000771E+02  0.7816164E-02  0.1186339E+00
        -11   -1    0    0    0    0  0.00000000000E+00  0.00000000000E+00  0.45593999997E+02  0.45594000000E+02  0.51100000000E-03 0. -1.
         11   -1    0    0    0    0 -0.00000000000E+00 -0.00000000000E+00 -0.45593999997E+02  0.45594000000E+02  0.51100000000E-03 0.  1.
    9900012    2    1    2    0    0 -0.90891708375E+00  0.37952164829E+00 -0.65031803128E+00  0.90007711693E+02  0.89999972687E+02 0.  0.
        -12    1    1    2    0    0  0.90891708375E+00 -0.37952164829E+00  0.65031803128E+00  0.11802883074E+01  0.00000000000E+00 0.  1.
         11    1    3    3    0    0 -0.48789046603E+01 -0.56375553556E+01 -0.56971454618E+01  0.93831342176E+01  0.51100000000E-03 0. -1.
        -11    1    3    3    0    0  0.23419753298E+02  0.48433343087E+01 -0.31296122019E+02  0.39387688247E+02  0.51100000000E-03 0.  1.
         12    1    3    3    0    0 -0.19449765722E+02  0.11737426952E+01  0.36342949449E+02  0.41236889228E+02  0.00000000000E+00 0. -1.
</event>
<event>
 7    1  0.3861961E-015  0.9000775E+02  0.7816164E-02  0.1186339E+00
        -11   -1    0    0    0    0  0.00000000000E+00  0.00000000000E+00  0.45593999997E+02  0.45594000000E+02  0.51100000000E-03 0.  1.
         11   -1    0    0    0    0 -0.00000000000E+00 -0.00000000000E+00 -0.45593999997E+02  0.45594000000E+02  0.51100000000E-03 0. -1.
    9900012    2    1    2    0    0 -0.77196279052E+00  0.79711619840E+00 -0.40208194232E+00  0.90007749742E+02  0.90000011238E+02 0.  0.
        -12    1    1    2    0    0  0.77196279052E+00 -0.79711619840E+00  0.40208194232E+00  0.11802502582E+01  0.00000000000E+00 0.  1.
         11    1    3    3    0    0  0.21425513219E+02  0.21031625697E+02 -0.23950199679E+02  0.38405650120E+02  0.51100000000E-03 0. -1.
        -11    1    3    3    0    0 -0.25844337444E+01  0.64763996455E+01 -0.44056831857E+01  0.82482176706E+01  0.51100000000E-03 0.  1.
        -12    1    3    3    0    0 -0.19613042266E+02 -0.26710909144E+02  0.27953800923E+02  0.43353881951E+02  0.00000000000E+00 0.  1.
</event>
<event>
 7    1  0.3861961E-015  0.9000765E+02  0.7816164E-02  0.1186339E+00
        -11   -1    0    0    0    0  0.00000000000E+00  0.00000000000E+00  0.45593999997E+02  0.45594000000E+02  0.51100000000E-03 0. -1.
         11   -1    0    0    0    0 -0.00000000000E+00 -0.00000000000E+00 -0.45593999997E+02  0.45594000000E+02  0.51100000000E-03 0.  1.
    9900012    2    1    2    0    0 -0.11525372015E+01 -0.12488537767E+00  0.22200168225E+00  0.90007651278E+02  0.89999911475E+02 0.  0.
        -12    1    1    2    0    0  0.11525372015E+01  0.12488537767E+00 -0.22200168225E+00  0.11803487219E+01  0.00000000000E+00 0.  1.
         11    1    3    3    0    0  0.35583232601E+02 -0.18574042049E+02  0.46735822793E+01  0.40410442363E+02  0.51100000000E-03 0. -1.
        -11    1    3    3    0    0 -0.30747746916E+01  0.20194066553E+00  0.86077526796E+01  0.91426706104E+01  0.51100000000E-03 0.  1.
        -12    1    3    3    0    0 -0.33660995111E+02  0.18247216006E+02 -0.13059333277E+02  0.40454538305E+02  0.00000000000E+00 0.  1.
</event>
<event>
 7    1  0.3861961E-015  0.9000704E+02  0.7816164E-02  0.1186340E+00
        -11   -1    0    0    0    0  0.00000000000E+00  0.00000000000E+00  0.45593999997E+02  0.45594000000E+02  0.51100000000E-03 0.  1.
         11   -1    0    0    0    0 -0.00000000000E+00 -0.00000000000E+00 -0.45593999997E+02  0.45594000000E+02  0.51100000000E-03 0. -1.
    9900012    2    1    2    0    0 -0.56801910539E+00  0.10353403896E+01  0.89893496007E-02  0.90007044355E+02  0.89999296538E+02 0.  0.
        -12    1    1    2    0    0  0.56801910539E+00 -0.10353403896E+01 -0.89893496007E-02  0.11809556447E+01  0.00000000000E+00 0.  1.
         11    1    3    3    0    0  0.56001812912E+00 -0.21043511713E+01 -0.16261384517E+02  0.16406539575E+02  0.51100000000E-03 0. -1.
        -11    1    3    3    0    0  0.34507500200E+02 -0.45306477536E+01  0.12388139299E+02  0.36942662799E+02  0.51100000000E-03 0.  1.
         12    1    3    3    0    0 -0.35635537435E+02  0.76703393144E+01  0.38822345681E+01  0.36657841981E+02  0.00000000000E+00 0. -1.
</event>
<event>
 7    1  0.3861961E-015  0.9000782E+02  0.7816164E-02  0.1186339E+00
        -11   -1    0    0    0    0  0.00000000000E+00  0.00000000000E+00  0.45593999997E+02  0.45594000000E+02  0.51100000000E-03 0.  1.
         11   -1    0    0    0    0 -0.00000000000E+00 -0.00000000000E+00 -0.45593999997E+02  0.45594000000E+02  0.51100000000E-03 0. -1.
    9900012    2    1    2    0    0  0.16833887931E+00  0.99001728550E+00 -0.61996719670E+00  0.90007817163E+02  0.90000079549E+02 0.  0.
        -12    1    1    2    0    0 -0.16833887931E+00 -0.99001728550E+00  0.61996719670E+00  0.11801828370E+01  0.00000000000E+00 0.  1.
         11    1    3    3    0    0 -0.15179426413E+02 -0.37404498552E+02  0.35513071178E+01  0.40523120323E+02  0.51100000000E-03 0. -1.
        -11    1    3    3    0    0  0.93456487336E+01  0.23241657844E-01 -0.50781807769E+01  0.10636240440E+02  0.51100000000E-03 0.  1.
        -12    1    3    3    0    0  0.60021165589E+01  0.38371274180E+02  0.90690646237E+00  0.38848456401E+02  0.00000000000E+00 0.  1.
</event>
<event>
 7    1  0.3861961E-015  0.9000815E+02  0.7816164E-02  0.1186338E+00
        -11   -1    0    0    0    0  0.00000000000E+00  0.00000000000E+00  0.45593999997E+02  0.45594000000E+02  0.51100000000E-03 0.  1.
         11   -1    0    0    0    0 -0.00000000000E+00 -0.00000000000E+00 -0.45593999997E+02  0.45594000000E+02  0.51100000000E-03 0. -1.
    9900012    2    1    2    0    0 -0.89191708509E-01  0.37329315562E+00 -0.11156779216E+01  0.90008152482E+02  0.90000419294E+02 0.  0.
        -12    1    1    2    0    0  0.89191708509E-01 -0.37329315562E+00  0.11156779216E+01  0.11798475180E+01  0.00000000000E+00 0.  1.
         11    1    3    3    0    0  0.18208964547E+01  0.45252732780E+01 -0.49864155208E+01  0.69755359756E+01  0.51100000000E-03 0. -1.
        -11    1    3    3    0    0  0.82824912001E-01 -0.30188534153E+02 -0.28449582137E+02  0.41481721014E+02  0.51100000000E-03 0.  1.
         12    1    3    3    0    0 -0.19929130752E+01  0.26036554031E+02  0.32320319737E+02  0.41550895492E+02  0.00000000000E+00 0. -1.
</event>
<event>
 7    1  0.4604529E-015  0.9000772E+02  0.7816164E-02  0.1186339E+00
        -11   -1    0    0    0    0  0.00000000000E+00  0.00000000000E+00  0.45593999997E+02  0.45594000000E+02  0.51100000000E-03 0.  1.
         11   -1    0    0    0    0 -0.00000000000E+00 -0.00000000000E+00 -0.45593999997E+02  0.45594000000E+02  0.51100000000E-03 0. -1.
    9900012    2    1    2    0    0  0.11650972077E+01 -0.17548154786E+00 -0.69411459677E-01  0.90007719005E+02  0.89999980096E+02 0.  0.
        -12    1    1    2    0    0 -0.11650972077E+01  0.17548154786E+00  0.69411459677E-01  0.11802809953E+01  0.00000000000E+00 0.  1.
         11    1    3    3    0    0  0.81591560963E+01 -0.71771998611E+00  0.50428664453E+01  0.96185992966E+01  0.51100000000E-03 0. -1.
        -11    1    3    3    0    0 -0.97827616433E+01  0.38178628703E+01  0.36793669294E+02  0.38262940329E+02  0.51100000000E-03 0.  1.
         12    1    3    3    0    0  0.27887027547E+01 -0.32756244321E+01 -0.41905947199E+02  0.42126179379E+02  0.00000000000E+00 0. -1.
</event>
<event>
 7    1  0.3861961E-015  0.9000772E+02  0.7816164E-02  0.1186339E+00
        -11   -1    0    0    0    0  0.00000000000E+00  0.00000000000E+00  0.45593999997E+02  0.45594000000E+02  0.51100000000E-03 0.  1.
         11   -1    0    0    0    0 -0.00000000000E+00 -0.00000000000E+00 -0.45593999997E+02  0.45594000000E+02  0.51100000000E-03 0. -1.
    9900012    2    1    2    0    0 -0.47749438962E+00 -0.28934927735E+00 -0.10398707874E+01  0.90007722426E+02  0.89999983562E+02 0.  0.
        -12    1    1    2    0    0  0.47749438962E+00  0.28934927735E+00  0.10398707874E+01  0.11802775737E+01  0.00000000000E+00 0.  1.
         11    1    3    3    0    0 -0.21222239799E+02 -0.32410023453E+02 -0.59817592362E+01  0.39199164865E+02  0.51100000000E-03 0. -1.
        -11    1    3    3    0    0  0.36480503921E+01 -0.62391979943E+01 -0.34056819626E+01  0.79896516298E+01  0.51100000000E-03 0.  1.
        -12    1    3    3    0    0  0.17096695017E+02  0.38359872170E+02  0.83475704113E+01  0.42818905931E+02  0.00000000000E+00 0.  1.
</event>
<event>
 7    1  0.3861961E-015  0.9000771E+02  0.7816164E-02  0.1186339E+00
        -11   -1    0    0    0    0  0.00000000000E+00  0.00000000000E+00  0.45593999997E+02  0.45594000000E+02  0.51100000000E-03 0. -1.
         11   -1    0    0    0    0 -0.00000000000E+00 -0.00000000000E+00 -0.45593999997E+02  0.45594000000E+02  0.51100000000E-03 0.  1.
    9900012    2    1    2    0    0  0.57949354119E-01 -0.62086114390E+00  0.10021237903E+01  0.90007712417E+02  0.89999973421E+02 0.  0.
        -12    1    1    2    0    0 -0.57949354119E-01  0.62086114390E+00 -0.10021237903E+01  0.11802875830E+01  0.00000000000E+00 0.  1.
         11    1    3    3    0    0 -0.30678667036E+02 -0.20435127129E+02  0.30895723844E+01  0.36990816288E+02  0.51100000000E-03 0. -1.
        -11    1    3    3    0    0 -0.12022662773E+01 -0.86481865345E+01  0.43490612387E+01  0.97545327134E+01  0.51100000000E-03 0.  1.
        -12    1    3    3    0    0  0.31938882668E+02  0.28462452519E+02 -0.64365098329E+01  0.43262363415E+02  0.00000000000E+00 0.  1.
</event>
<event>
 7    1  0.3861961E-015  0.9000775E+02  0.7816164E-02  0.1186339E+00
        -11   -1    0    0    0    0  0.00000000000E+00  0.00000000000E+00  0.45593999997E+02  0.45594000000E+02  0.51100000000E-03 0.  1.
         11   -1    0    0    0    0 -0.00000000000E+00 -0.00000000000E+00 -0.45593999997E+02  0.45594000000E+02  0.51100000000E-03 0. -1.
    9900012    2    1    2    0    0  0.81494070364E-01  0.11339484503E+01 -0.31702641678E+00  0.90007751670E+02  0.90000013192E+02 0.  0.
        -12    1    1    2    0    0 -0.81494070364E-01 -0.11339484503E+01  0.31702641678E+00  0.11802483299E+01  0.00000000000E+00 0.  1.
         11    1    3    3    0    0 -0.66304049386E+01  0.41281329218E+02 -0.87664170748E+01  0.42719556180E+02  0.51100000000E-03 0. -1.
        -11    1    3    3    0    0 -0.71766313014E+01 -0.60453953719E+01  0.39931086332E+01  0.10197831086E+02  0.51100000000E-03 0.  1.
        -12    1    3    3    0    0  0.13888530310E+02 -0.34101985396E+02  0.44562820248E+01  0.37090364404E+02  0.00000000000E+00 0.  1.
</event>
<event>
 7    1  0.3861961E-015  0.9000771E+02  0.7816164E-02  0.1186339E+00
        -11   -1    0    0    0    0  0.00000000000E+00  0.00000000000E+00  0.45593999997E+02  0.45594000000E+02  0.51100000000E-03 0.  1.
         11   -1    0    0    0    0 -0.00000000000E+00 -0.00000000000E+00 -0.45593999997E+02  0.45594000000E+02  0.51100000000E-03 0. -1.
    9900012    2    1    2    0    0 -0.79906955904E+00  0.43060695680E+00 -0.75442391192E+00  0.90007707684E+02  0.89999968626E+02 0.  0.
        -12    1    1    2    0    0  0.79906955904E+00 -0.43060695680E+00  0.75442391192E+00  0.11802923156E+01  0.00000000000E+00 0.  1.
         11    1    3    3    0    0  0.66607283022E+01  0.60414909909E+01  0.67074857722E+01  0.11218523992E+02  0.51100000000E-03 0. -1.
        -11    1    3    3    0    0 -0.29419105757E+02 -0.29047542350E+02  0.95693580309E+01  0.42436023771E+02  0.51100000000E-03 0.  1.
         12    1    3    3    0    0  0.21959307896E+02  0.23436658316E+02 -0.17031267715E+02  0.36353159921E+02  0.00000000000E+00 0. -1.
</event>
<event>
 7    1  0.3861961E-015  0.9000784E+02  0.7816164E-02  0.1186339E+00
        -11   -1    0    0    0    0  0.00000000000E+00  0.00000000000E+00  0.45593999997E+02  0.45594000000E+02  0.51100000000E-03 0.  1.
         11   -1    0    0    0    0 -0.00000000000E+00 -0.00000000000E+00 -0.45593999997E+02  0.45594000000E+02  0.51100000000E-03 0. -1.
    9900012    2    1    2    0    0 -0.52280205405E+00 -0.29173512994E+00 -0.10170316261E+01  0.90007837002E+02  0.90000099650E+02 0.  0.
        -12    1    1    2    0    0  0.52280205405E+00  0.29173512994E+00  0.10170316261E+01  0.11801629982E+01  0.00000000000E+00 0.  1.
         11    1    3    3    0    0 -0.18930079780E+02  0.30406241575E+02 -0.10631687678E+02  0.37362015876E+02  0.51100000000E-03 0. -1.
        -11    1    3    3    0    0  0.42602763053E+01  0.82503143355E+01 -0.22277369502E+01  0.95488456377E+01  0.51100000000E-03 0.  1.
        -12    1    3    3    0    0  0.14147001420E+02 -0.38948291041E+02  0.11842393002E+02  0.43096975488E+02  0.00000000000E+00 0.  1.
</event>
<event>
 7    1  0.3861961E-015  0.9000774E+02  0.7816164E-02  0.1186339E+00
        -11   -1    0    0    0    0  0.00000000000E+00  0.00000000000E+00  0.45593999997E+02  0.45594000000E+02  0.51100000000E-03 0.  1.
         11   -1    0    0    0    0 -0.00000000000E+00 -0.00000000000E+00 -0.45593999997E+02  0.45594000000E+02  0.51100000000E-03 0. -1.
    9900012    2    1    2    0    0  0.79361168398E+00  0.60496936575E+00 -0.63023428423E+00  0.90007744650E+02  0.90000006079E+02 0.  0.
        -12    1    1    2    0    0 -0.79361168398E+00 -0.60496936575E+00  0.63023428423E+00  0.11802553501E+01  0.00000000000E+00 0.  1.
         11    1    3    3    0    0  0.92892558934E+01 -0.23110944268E+01  0.38070262569E+01  0.10301693147E+02  0.51100000000E-03 0. -1.
        -11    1    3    3    0    0  0.94341962471E+01  0.34027326836E+02  0.15580148958E+02  0.38595389261E+02  0.51100000000E-03 0.  1.
         12    1    3    3    0    0 -0.17929840457E+02 -0.31111263043E+02 -0.20017409499E+02  0.41110662242E+02  0.00000000000E+00 0. -1.
</event>
<event>
 7    1  0.3861961E-015  0.9000774E+02  0.7816164E-02  0.1186339E+00
        -11   -1    0    0    0    0  0.00000000000E+00  0.00000000000E+00  0.45593999997E+02  0.45594000000E+02  0.51100000000E-03 0. -1.
         11   -1    0    0    0    0 -0.00000000000E+00 -0.00000000000E+00 -0.45593999997E+02  0.45594000000E+02  0.51100000000E-03 0.  1.
    9900012    2    1    2    0    0 -0.10972612582E+01  0.40195256179E+00  0.16569954779E+00  0.90007743896E+02  0.90000005316E+02 0.  0.
        -12    1    1    2    0    0  0.10972612582E+01 -0.40195256179E+00 -0.16569954779E+00  0.11802561039E+01  0.00000000000E+00 0.  1.
         11    1    3    3    0    0 -0.77984274012E+01  0.37286326319E+01  0.47504885585E+01  0.98633317414E+01  0.51100000000E-03 0. -1.
        -11    1    3    3    0    0  0.12118732061E+02  0.87494098304E+01 -0.39805259662E+02  0.42519107895E+02  0.51100000000E-03 0.  1.
         12    1    3    3    0    0 -0.54175659177E+01 -0.12076089901E+02  0.35220470651E+02  0.37625304260E+02  0.00000000000E+00 0. -1.
</event>
<event>
 7    1  0.3861961E-015  0.9000771E+02  0.7816164E-02  0.1186339E+00
        -11   -1    0    0    0    0  0.00000000000E+00  0.00000000000E+00  0.45593999997E+02  0.45594000000E+02  0.51100000000E-03 0. -1.
         11   -1    0    0    0    0 -0.00000000000E+00 -0.00000000000E+00 -0.45593999997E+02  0.45594000000E+02  0.51100000000E-03 0.  1.
    9900012    2    1    2    0    0 -0.79930535123E-01 -0.11568236040E+01 -0.22011358703E+00  0.90007712013E+02  0.89999973012E+02 0.  0.
        -12    1    1    2    0    0  0.79930535123E-01  0.11568236040E+01  0.22011358703E+00  0.11802879870E+01  0.00000000000E+00 0.  1.
         11    1    3    3    0    0  0.14587181753E+01 -0.38633366922E+01  0.81487613919E+01  0.91354004617E+01  0.51100000000E-03 0. -1.
        -11    1    3    3    0    0 -0.20643674179E+02 -0.31491671185E+02  0.78673209343E+01  0.38467926596E+02  0.51100000000E-03 0.  1.
         12    1    3    3    0    0  0.19105025469E+02  0.34198184273E+02 -0.16236195913E+02  0.42404384956E+02  0.00000000000E+00 0. -1.
</event>
<event>
 7    1  0.3861961E-015  0.9000777E+02  0.7816164E-02  0.1186339E+00
        -11   -1    0    0    0    0  0.00000000000E+00  0.00000000000E+00  0.45593999997E+02  0.45594000000E+02  0.51100000000E-03 0.  1.
         11   -1    0    0    0    0 -0.00000000000E+00 -0.00000000000E+00 -0.45593999997E+02  0.45594000000E+02  0.51100000000E-03 0. -1.
    9900012    2    1    2    0    0 -0.81296793869E+00 -0.61862399397E+00 -0.59104934339E+00  0.90007766192E+02  0.90000027906E+02 0.  0.
        -12    1    1    2    0    0  0.81296793869E+00  0.61862399397E+00  0.59104934339E+00  0.11802338080E+01  0.00000000000E+00 0.  1.
         11    1    3    3    0    0  0.36341803732E+01  0.64300076083E+01  0.59396189644E+01  0.94779395720E+01  0.51100000000E-03 0. -1.
        -11    1    3    3    0    0  0.16928492547E+02  0.28356174307E+02 -0.17999910918E+02  0.37611743838E+02  0.51100000000E-03 0.  1.
         12    1    3    3    0    0 -0.21375640859E+02 -0.35404805910E+02  0.11469242610E+02  0.42918082782E+02  0.00000000000E+00 0. -1.
</event>
<event>
 7    1  0.3861961E-015  0.9000771E+02  0.7816164E-02  0.1186339E+00
        -11   -1    0    0    0    0  0.00000000000E+00  0.00000000000E+00  0.45593999997E+02  0.45594000000E+02  0.51100000000E-03 0.  1.
         11   -1    0    0    0    0 -0.00000000000E+00 -0.00000000000E+00 -0.45593999997E+02  0.45594000000E+02  0.51100000000E-03 0. -1.
    9900012    2    1    2    0    0 -0.10118547353E+01 -0.33526181057E+00  0.50679767456E+00  0.90007705812E+02  0.89999966729E+02 0.  0.
        -12    1    1    2    0    0  0.10118547353E+01  0.33526181057E+00 -0.50679767456E+00  0.11802941878E+01  0.00000000000E+00 0.  1.
         11    1    3    3    0    0  0.17730465860E+02  0.30326408573E+02  0.20628850637E+02  0.40738310660E+02  0.51100000000E-03 0. -1.
        -11    1    3    3    0    0 -0.45103727505E+01  0.23111388558E+01 -0.11157078400E+02  0.12254192093E+02  0.51100000000E-03 0.  1.
        -12    1    3    3    0    0 -0.14231947845E+02 -0.32972809240E+02 -0.89649745622E+01  0.37015203059E+02  0.00000000000E+00 0.  1.
</event>
<event>
 7    1  0.3861961E-015  0.9000768E+02  0.7816164E-02  0.1186339E+00
        -11   -1    0    0    0    0  0.00000000000E+00  0.00000000000E+00  0.45593999997E+02  0.45594000000E+02  0.51100000000E-03 0.  1.
         11   -1    0    0    0    0 -0.00000000000E+00 -0.00000000000E+00 -0.45593999997E+02  0.45594000000E+02  0.51100000000E-03 0. -1.
    9900012    2    1    2    0    0 -0.96252007561E+00 -0.65153249837E+00  0.20545401303E+00  0.90007681889E+02  0.89999942490E+02 0.  0.
        -12    1    1    2    0    0  0.96252007561E+00  0.65153249837E+00 -0.20545401303E+00  0.11803181113E+01  0.00000000000E+00 0.  1.
         11    1    3    3    0    0 -0.18941020232E+02 -0.40988904860E+00 -0.35584315728E+02  0.40313444191E+02  0.51100000000E-03 0. -1.
        -11    1    3    3    0    0 -0.32209045690E+01  0.89597555382E+01  0.38489189358E+01  0.10269645699E+02  0.51100000000E-03 0.  1.
        -12    1    3    3    0    0  0.21199404725E+02 -0.92013989879E+01  0.31940850806E+02  0.39424591998E+02  0.00000000000E+00 0.  1.
</event>
<event>
 7    1  0.3861961E-015  0.9000768E+02  0.7816164E-02  0.1186339E+00
        -11   -1    0    0    0    0  0.00000000000E+00  0.00000000000E+00  0.45593999997E+02  0.45594000000E+02  0.51100000000E-03 0. -1.
         11   -1    0    0    0    0 -0.00000000000E+00 -0.00000000000E+00 -0.45593999997E+02  0.45594000000E+02  0.51100000000E-03 0.  1.
    9900012    2    1    2    0    0  0.84402360089E+00 -0.67311521897E+00 -0.47716589102E+00  0.90007683422E+02  0.89999944043E+02 0.  0.
        -12    1    1    2    0    0 -0.84402360089E+00  0.67311521897E+00  0.47716589102E+00  0.11803165781E+01  0.00000000000E+00 0.  1.
         11    1    3    3    0    0 -0.85710317445E+01 -0.26684383495E+01 -0.55851434494E+01  0.10572463100E+02  0.51100000000E-03 0. -1.
        -11    1    3    3    0    0 -0.29057708174E+02  0.16221314990E+02 -0.11460156084E+02  0.35196827159E+02  0.51100000000E-03 0.  1.
         12    1    3    3    0    0  0.38472763519E+02 -0.14225991860E+02  0.16568133642E+02  0.44238393163E+02  0.00000000000E+00 0. -1.
</event>
<event>
 7    1  0.7394247E-015  0.9000843E+02  0.7816164E-02  0.1186338E+00
        -11   -1    0    0    0    0  0.00000000000E+00  0.00000000000E+00  0.45593999997E+02  0.45594000000E+02  0.51100000000E-03 0. -1.
         11   -1    0    0    0    0 -0.00000000000E+00 -0.00000000000E+00 -0.45593999997E+02  0.45594000000E+02  0.51100000000E-03 0.  1.
    9900012    2    1    2    0    0 -0.11559602548E+00  0.21478142160E+00  0.11540726201E+01  0.90008433506E+02  0.90000704026E+02 0.  0.
        -12    1    1    2    0    0  0.11559602548E+00 -0.21478142160E+00 -0.11540726201E+01  0.11795664936E+01  0.00000000000E+00 0.  1.
         11    1    3    3    0    0 -0.95425417397E+01 -0.87204167321E+00  0.11091883065E+01  0.96462872906E+01  0.51100000000E-03 0. -1.
        -11    1    3    3    0    0 -0.34034226287E+00  0.26483017136E+02 -0.29871851036E+02  0.39922343544E+02  0.51100000000E-03 0.  1.
         12    1    3    3    0    0  0.97672879771E+01 -0.25396194041E+02  0.29916735350E+02  0.40439802672E+02  0.00000000000E+00 0. -1.
</event>
<event>
 7    1  0.3861961E-015  0.9000777E+02  0.7816164E-02  0.1186339E+00
        -11   -1    0    0    0    0  0.00000000000E+00  0.00000000000E+00  0.45593999997E+02  0.45594000000E+02  0.51100000000E-03 0. -1.
         11   -1    0    0    0    0 -0.00000000000E+00 -0.00000000000E+00 -0.45593999997E+02  0.45594000000E+02  0.51100000000E-03 0.  1.
    9900012    2    1    2    0    0  0.73967030922E+00 -0.76946605481E+00  0.50372733299E+00  0.90007774851E+02  0.90000036679E+02 0.  0.
        -12    1    1    2    0    0 -0.73967030922E+00  0.76946605481E+00 -0.50372733299E+00  0.11802251488E+01  0.00000000000E+00 0.  1.
         11    1    3    3    0    0  0.33319928480E+01  0.77905063066E+01  0.15535426086E+01  0.86143867890E+01  0.51100000000E-03 0. -1.
        -11    1    3    3    0    0  0.27463343738E+02  0.21658174248E+02 -0.12698962659E+02  0.37209883283E+02  0.51100000000E-03 0.  1.
         12    1    3    3    0    0 -0.30055666277E+02 -0.30218146610E+02  0.11649147384E+02  0.44183504780E+02  0.00000000000E+00 0. -1.
</event>
<event>
 7    1  0.3861961E-015  0.9000780E+02  0.7816164E-02  0.1186339E+00
        -11   -1    0    0    0    0  0.00000000000E+00  0.00000000000E+00  0.45593999997E+02  0.45594000000E+02  0.51100000000E-03 0.  1.
         11   -1    0    0    0    0 -0.00000000000E+00 -0.00000000000E+00 -0.45593999997E+02  0.45594000000E+02  0.51100000000E-03 0. -1.
    9900012    2    1    2    0    0 -0.97357481858E+00  0.62049177810E+00  0.24499212131E+00  0.90007797003E+02  0.90000059124E+02 0.  0.
        -12    1    1    2    0    0  0.97357481858E+00 -0.62049177810E+00 -0.24499212131E+00  0.11802029968E+01  0.00000000000E+00 0.  1.
         11    1    3    3    0    0 -0.26676838438E+02 -0.70245797369E+01 -0.27874881066E+02  0.39217437757E+02  0.51100000000E-03 0. -1.
        -11    1    3    3    0    0 -0.30033154529E+01 -0.60610855477E+01 -0.19260785124E+01  0.70332382601E+01  0.51100000000E-03 0.  1.
        -12    1    3    3    0    0  0.28706579072E+02  0.13706157063E+02  0.30045951700E+02  0.43757120986E+02  0.00000000000E+00 0.  1.
</event>
<event>
 7    1  0.3861961E-015  0.9000765E+02  0.7816164E-02  0.1186339E+00
        -11   -1    0    0    0    0  0.00000000000E+00  0.00000000000E+00  0.45593999997E+02  0.45594000000E+02  0.51100000000E-03 0. -1.
         11   -1    0    0    0    0 -0.00000000000E+00 -0.00000000000E+00 -0.45593999997E+02  0.45594000000E+02  0.51100000000E-03 0.  1.
    9900012    2    1    2    0    0  0.14249888797E+00 -0.10055027730E+01  0.60157577380E+00  0.90007646167E+02  0.89999906296E+02 0.  0.
        -12    1    1    2    0    0 -0.14249888797E+00  0.10055027730E+01 -0.60157577380E+00  0.11803538331E+01  0.00000000000E+00 0.  1.
         11    1    3    3    0    0 -0.22567314950E+02 -0.30046913145E+02  0.12044348830E+02  0.39460955799E+02  0.51100000000E-03 0. -1.
        -11    1    3    3    0    0 -0.28684780439E+01  0.61024627665E+01  0.84773073765E+01  0.10832033914E+02  0.51100000000E-03 0.  1.
        -12    1    3    3    0    0  0.25578291882E+02  0.22938947605E+02 -0.19920080432E+02  0.39714656454E+02  0.00000000000E+00 0.  1.
</event>
<event>
 7    1  0.3861961E-015  0.9000774E+02  0.7816164E-02  0.1186339E+00
        -11   -1    0    0    0    0  0.00000000000E+00  0.00000000000E+00  0.45593999997E+02  0.45594000000E+02  0.51100000000E-03 0.  1.
         11   -1    0    0    0    0 -0.00000000000E+00 -0.00000000000E+00 -0.45593999997E+02  0.45594000000E+02  0.51100000000E-03 0. -1.
    9900012    2    1    2    0    0 -0.14234383282E+00  0.63832993191E+00 -0.98248758245E+00  0.90007742097E+02  0.90000003492E+02 0.  0.
        -12    1    1    2    0    0  0.14234383282E+00 -0.63832993191E+00  0.98248758245E+00  0.11802579033E+01  0.00000000000E+00 0.  1.
         11    1    3    3    0    0  0.60734903052E+01  0.16583716254E+01 -0.61204704676E+01  0.87805261768E+01  0.51100000000E-03 0. -1.
        -11    1    3    3    0    0  0.17681074723E+02 -0.35744547794E+01  0.37091038996E+02  0.41244906405E+02  0.51100000000E-03 0.  1.
         12    1    3    3    0    0 -0.23896908861E+02  0.25544130859E+01 -0.31953056110E+02  0.39982309515E+02  0.00000000000E+00 0. -1.
</event>
<event>
 7    1  0.3861961E-015  0.9000776E+02  0.7816164E-02  0.1186339E+00
        -11   -1    0    0    0    0  0.00000000000E+00  0.00000000000E+00  0.45593999997E+02  0.45594000000E+02  0.51100000000E-03 0. -1.
         11   -1    0    0    0    0 -0.00000000000E+00 -0.00000000000E+00 -0.45593999997E+02  0.45594000000E+02  0.51100000000E-03 0.  1.
    9900012    2    1    2    0    0 -0.39962745469E+00  0.81653281464E+00  0.75269191173E+00  0.90007757206E+02  0.90000018801E+02 0.  0.
        -12    1    1    2    0    0  0.39962745469E+00 -0.81653281464E+00 -0.75269191173E+00  0.11802427945E+01  0.00000000000E+00 0.  1.
         11    1    3    3    0    0 -0.20758195612E+02 -0.87155154447E+01  0.31399196333E+02  0.38636413203E+02  0.51100000000E-03 0. -1.
        -11    1    3    3    0    0 -0.85606045111E+01  0.40368478386E+01 -0.87636088697E+00  0.95051616889E+01  0.51100000000E-03 0.  1.
        -12    1    3    3    0    0  0.28919172669E+02  0.54952004208E+01 -0.29770143534E+02  0.41866182314E+02  0.00000000000E+00 0.  1.
</event>
<event>
 7    1  0.3861961E-015  0.9000778E+02  0.7816164E-02  0.1186339E+00
        -11   -1    0    0    0    0  0.00000000000E+00  0.00000000000E+00  0.45593999997E+02  0.45594000000E+02  0.51100000000E-03 0. -1.
         11   -1    0    0    0    0 -0.00000000000E+00 -0.00000000000E+00 -0.45593999997E+02  0.45594000000E+02  0.51100000000E-03 0.  1.
    9900012    2    1    2    0    0 -0.17601098213E+00 -0.97050435483E+00  0.64811537061E+00  0.90007783027E+02  0.90000044963E+02 0.  0.
        -12    1    1    2    0    0  0.17601098213E+00  0.97050435483E+00 -0.64811537061E+00  0.11802169725E+01  0.00000000000E+00 0.  1.
         11    1    3    3    0    0 -0.69360398280E+00 -0.64850886225E+01  0.41243714528E+02  0.41756214499E+02  0.51100000000E-03 0. -1.
        -11    1    3    3    0    0  0.25464497380E+01  0.11838079531E+02 -0.69599350669E+01  0.13966575444E+02  0.51100000000E-03 0.  1.
        -12    1    3    3    0    0 -0.20288567374E+01 -0.63234952629E+01 -0.33635664091E+02  0.34284993085E+02  0.00000000000E+00 0.  1.
</event>
<event>
 7    1  0.3861961E-015  0.9000775E+02  0.7816164E-02  0.1186339E+00
        -11   -1    0    0    0    0  0.00000000000E+00  0.00000000000E+00  0.45593999997E+02  0.45594000000E+02  0.51100000000E-03 0.  1.
         11   -1    0    0    0    0 -0.00000000000E+00 -0.00000000000E+00 -0.45593999997E+02  0.45594000000E+02  0.51100000000E-03 0. -1.
    9900012    2    1    2    0    0  0.63725963668E+00 -0.99049370145E+00  0.76278786973E-01  0.90007747455E+02  0.90000008921E+02 0.  0.
        -12    1    1    2    0    0 -0.63725963668E+00  0.99049370145E+00 -0.76278786973E-01  0.11802525452E+01  0.00000000000E+00 0.  1.
         11    1    3    3    0    0 -0.11211300600E+02 -0.36659858610E+02 -0.15828833351E+02  0.41475178842E+02  0.51100000000E-03 0. -1.
        -11    1    3    3    0    0 -0.22717121624E+01  0.71725820471E+01 -0.62434103946E+01  0.97768493385E+01  0.51100000000E-03 0.  1.
        -12    1    3    3    0    0  0.14120272399E+02  0.28496782862E+02  0.22148522533E+02  0.38755719274E+02  0.00000000000E+00 0.  1.
</event>
<event>
 7    1  0.3861961E-015  0.9000772E+02  0.7816164E-02  0.1186339E+00
        -11   -1    0    0    0    0  0.00000000000E+00  0.00000000000E+00  0.45593999997E+02  0.45594000000E+02  0.51100000000E-03 0. -1.
         11   -1    0    0    0    0 -0.00000000000E+00 -0.00000000000E+00 -0.45593999997E+02  0.45594000000E+02  0.51100000000E-03 0.  1.
    9900012    2    1    2    0    0 -0.58757102724E+00  0.10037657248E+01 -0.20067249667E+00  0.90007722578E+02  0.89999983716E+02 0.  0.
        -12    1    1    2    0    0  0.58757102724E+00 -0.10037657248E+01  0.20067249667E+00  0.11802774221E+01  0.00000000000E+00 0.  1.
         11    1    3    3    0    0 -0.10461833113E+02  0.11010108228E+02 -0.70541744267E+01  0.16746158138E+02  0.51100000000E-03 0. -1.
        -11    1    3    3    0    0  0.22718086448E+02 -0.20393251379E+02 -0.23619916910E+02  0.38599179121E+02  0.51100000000E-03 0.  1.
         12    1    3    3    0    0 -0.12843824363E+02  0.10386908876E+02  0.30473418840E+02  0.34662385320E+02  0.00000000000E+00 0. -1.
</event>
<event>
 7    1  0.3861961E-015  0.9000744E+02  0.7816164E-02  0.1186340E+00
        -11   -1    0    0    0    0  0.00000000000E+00  0.00000000000E+00  0.45593999997E+02  0.45594000000E+02  0.51100000000E-03 0.  1.
         11   -1    0    0    0    0 -0.00000000000E+00 -0.00000000000E+00 -0.45593999997E+02  0.45594000000E+02  0.51100000000E-03 0. -1.
    9900012    2    1    2    0    0  0.12833017574E-01 -0.98217339268E+00  0.65490668667E+00  0.90007435716E+02  0.89999693067E+02 0.  0.
        -12    1    1    2    0    0 -0.12833017574E-01  0.98217339268E+00 -0.65490668667E+00  0.11805642837E+01  0.00000000000E+00 0.  1.
         11    1    3    3    0    0  0.87891982303E+01  0.22572743362E+02 -0.29462534686E+02  0.38142098773E+02  0.51100000000E-03 0. -1.
        -11    1    3    3    0    0  0.94278713544E+01 -0.40927218857E+01 -0.16401481952E+01  0.10407940097E+02  0.51100000000E-03 0.  1.
        -12    1    3    3    0    0 -0.18204236567E+02 -0.19462194869E+02  0.31757589567E+02  0.41457396846E+02  0.00000000000E+00 0.  1.
</event>
<event>
 7    1  0.3861961E-015  0.9000780E+02  0.7816164E-02  0.1186339E+00
        -11   -1    0    0    0    0  0.00000000000E+00  0.00000000000E+00  0.45593999997E+02  0.45594000000E+02  0.51100000000E-03 0.  1.
         11   -1    0    0    0    0 -0.00000000000E+00 -0.00000000000E+00 -0.45593999997E+02  0.45594000000E+02  0.51100000000E-03 0. -1.
    9900012    2    1    2    0    0 -0.10914246438E+01 -0.35869199235E+00  0.27019847910E+00  0.90007798781E+02  0.90000060925E+02 0.  0.
        -12    1    1    2    0    0  0.10914246438E+01  0.35869199235E+00 -0.27019847910E+00  0.11802012187E+01  0.00000000000E+00 0.  1.
         11    1    3    3    0    0 -0.30842142779E+02 -0.22028872289E+02 -0.10959938741E+02  0.39454141012E+02  0.51100000000E-03 0. -1.
        -11    1    3    3    0    0 -0.46845911574E+01  0.51936909173E+01 -0.54770559333E+01  0.88835781988E+01  0.51100000000E-03 0.  1.
        -12    1    3    3    0    0  0.34435309293E+02  0.16476489379E+02  0.16707193153E+02  0.41670079570E+02  0.00000000000E+00 0.  1.
</event>
<event>
 7    1  0.3861961E-015  0.9000783E+02  0.7816164E-02  0.1186339E+00
        -11   -1    0    0    0    0  0.00000000000E+00  0.00000000000E+00  0.45593999997E+02  0.45594000000E+02  0.51100000000E-03 0.  1.
         11   -1    0    0    0    0 -0.00000000000E+00 -0.00000000000E+00 -0.45593999997E+02  0.45594000000E+02  0.51100000000E-03 0. -1.
    9900012    2    1    2    0    0  0.10897135398E+01 -0.42155317656E+00  0.16617872542E+00  0.90007831348E+02  0.90000093921E+02 0.  0.
        -12    1    1    2    0    0 -0.10897135398E+01  0.42155317656E+00 -0.16617872542E+00  0.11801686524E+01  0.00000000000E+00 0.  1.
         11    1    3    3    0    0  0.20383659172E+02  0.10636672856E+02  0.86353913412E+01  0.24560178227E+02  0.51100000000E-03 0. -1.
        -11    1    3    3    0    0  0.37487574912E+00 -0.31753610149E+02  0.76449454132E+01  0.32663090484E+02  0.51100000000E-03 0.  1.
         12    1    3    3    0    0 -0.19668821381E+02  0.20695384117E+02 -0.16114158029E+02  0.32784562636E+02  0.00000000000E+00 0. -1.
</event>
<event>
 7    1  0.3861961E-015  0.9000780E+02  0.7816164E-02  0.1186339E+00
        -11   -1    0    0    0    0  0.00000000000E+00  0.00000000000E+00  0.45593999997E+02  0.45594000000E+02  0.51100000000E-03 0.  1.
         11   -1    0    0    0    0 -0.00000000000E+00 -0.00000000000E+00 -0.45593999997E+02  0.45594000000E+02  0.51100000000E-03 0. -1.
    9900012    2    1    2    0    0  0.53445913833E+00 -0.16673389088E+00 -0.10389502951E+01  0.90007803204E+02  0.90000065407E+02 0.  0.
        -12    1    1    2    0    0 -0.53445913833E+00  0.16673389088E+00  0.10389502951E+01  0.11801967957E+01  0.00000000000E+00 0.  1.
         11    1    3    3    0    0  0.71605768882E+01  0.56804332403E+01 -0.45569284439E+01  0.10213069092E+02  0.51100000000E-03 0. -1.
        -11    1    3    3    0    0  0.26324298069E+02 -0.17321790274E+02  0.23751972100E+02  0.39460984099E+02  0.51100000000E-03 0.  1.
         12    1    3    3    0    0 -0.32950415819E+02  0.11474623143E+02 -0.20233993951E+02  0.40333750014E+02  0.00000000000E+00 0. -1.
</event>
<event>
 7    1  0.3861961E-015  0.9000780E+02  0.7816164E-02  0.1186339E+00
        -11   -1    0    0    0    0  0.00000000000E+00  0.00000000000E+00  0.45593999997E+02  0.45594000000E+02  0.51100000000E-03 0.  1.
         11   -1    0    0    0    0 -0.00000000000E+00 -0.00000000000E+00 -0.45593999997E+02  0.45594000000E+02  0.51100000000E-03 0. -1.
    9900012    2    1    2    0    0 -0.71020934707E+00  0.43577140783E+00 -0.83580879869E+00  0.90007800701E+02  0.90000062871E+02 0.  0.
        -12    1    1    2    0    0  0.71020934707E+00 -0.43577140783E+00  0.83580879869E+00  0.11801992986E+01  0.00000000000E+00 0.  1.
         11    1    3    3    0    0 -0.34343332588E+02  0.15516057647E+02  0.12158169729E+02  0.39598404382E+02  0.51100000000E-03 0. -1.
        -11    1    3    3    0    0 -0.19144059316E+01  0.66106388238E+01 -0.33973469978E+01  0.76751197133E+01  0.51100000000E-03 0.  1.
        -12    1    3    3    0    0  0.35547529172E+02 -0.21690925063E+02 -0.95966315301E+01  0.42734276606E+02  0.00000000000E+00 0.  1.
</event>
<event>
 7    1  0.3861961E-015  0.9000752E+02  0.7816164E-02  0.1186339E+00
        -11   -1    0    0    0    0  0.00000000000E+00  0.00000000000E+00  0.45593999997E+02  0.45594000000E+02  0.51100000000E-03 0. -1.
         11   -1    0    0    0    0 -0.00000000000E+00 -0.00000000000E+00 -0.45593999997E+02  0.45594000000E+02  0.51100000000E-03 0.  1.
    9900012    2    1    2    0    0  0.10113552456E+00  0.11402165009E+01  0.28844724502E+00  0.90007523877E+02  0.89999782392E+02 0.  0.
        -12    1    1    2    0    0 -0.10113552456E+00 -0.11402165009E+01 -0.28844724502E+00  0.11804761228E+01  0.00000000000E+00 0.  1.
         11    1    3    3    0    0 -0.22428775980E+02  0.23552755766E+02  0.19904650809E+02  0.38131055850E+02  0.51100000000E-03 0. -1.
        -11    1    3    3    0    0  0.16588288642E+02  0.41298330252E+01  0.18944033339E+01  0.17199290833E+02  0.51100000000E-03 0.  1.
        -12    1    3    3    0    0  0.59416228627E+01 -0.26542372291E+02 -0.21510606898E+02  0.34677177194E+02  0.00000000000E+00 0.  1.
</event>
<event>
 7    1  0.3861961E-015  0.9000770E+02  0.7816164E-02  0.1186339E+00
        -11   -1    0    0    0    0  0.00000000000E+00  0.00000000000E+00  0.45593999997E+02  0.45594000000E+02  0.51100000000E-03 0.  1.
         11   -1    0    0    0    0 -0.00000000000E+00 -0.00000000000E+00 -0.45593999997E+02  0.45594000000E+02  0.51100000000E-03 0. -1.
    9900012    2    1    2    0    0  0.94823029082E+00 -0.33276085719E+00 -0.61906614490E+00  0.90007697766E+02  0.89999958576E+02 0.  0.
        -12    1    1    2    0    0 -0.94823029082E+00  0.33276085719E+00  0.61906614490E+00  0.11803022343E+01  0.00000000000E+00 0.  1.
         11    1    3    3    0    0 -0.83565569078E+01  0.26346018450E+01 -0.46507175979E+01  0.99197955963E+01  0.51100000000E-03 0. -1.
        -11    1    3    3    0    0 -0.20144932436E+01 -0.39531419154E+02  0.11221120583E+02  0.41142494221E+02  0.51100000000E-03 0.  1.
         12    1    3    3    0    0  0.11319280442E+02  0.36564056451E+02 -0.71894691296E+01  0.38945407949E+02  0.00000000000E+00 0. -1.
</event>
<event>
 7    1  0.3861961E-015  0.9000847E+02  0.7816164E-02  0.1186338E+00
        -11   -1    0    0    0    0  0.00000000000E+00  0.00000000000E+00  0.45593999997E+02  0.45594000000E+02  0.51100000000E-03 0. -1.
         11   -1    0    0    0    0 -0.00000000000E+00 -0.00000000000E+00 -0.45593999997E+02  0.45594000000E+02  0.51100000000E-03 0.  1.
    9900012    2    1    2    0    0 -0.91905102894E+00  0.50346449296E+00  0.54143268338E+00  0.90008474400E+02  0.90000745459E+02 0.  0.
        -12    1    1    2    0    0  0.91905102894E+00 -0.50346449296E+00 -0.54143268338E+00  0.11795255996E+01  0.00000000000E+00 0.  1.
         11    1    3    3    0    0  0.18732527302E+01 -0.53686417168E+01 -0.76636830682E+01  0.95427159711E+01  0.51100000000E-03 0. -1.
        -11    1    3    3    0    0 -0.34387144527E+02  0.24786426280E+02  0.10161484377E+02  0.43590118163E+02  0.51100000000E-03 0.  1.
         12    1    3    3    0    0  0.31594840768E+02 -0.18914320070E+02 -0.19563686255E+01  0.36875640266E+02  0.00000000000E+00 0. -1.
</event>
<event>
 7    1  0.3861961E-015  0.9000773E+02  0.7816164E-02  0.1186339E+00
        -11   -1    0    0    0    0  0.00000000000E+00  0.00000000000E+00  0.45593999997E+02  0.45594000000E+02  0.51100000000E-03 0. -1.
         11   -1    0    0    0    0 -0.00000000000E+00 -0.00000000000E+00 -0.45593999997E+02  0.45594000000E+02  0.51100000000E-03 0.  1.
    9900012    2    1    2    0    0  0.35756554887E+00  0.94763902387E+00  0.60593262806E+00  0.90007734271E+02  0.89999995563E+02 0.  0.
        -12    1    1    2    0    0 -0.35756554887E+00 -0.94763902387E+00 -0.60593262806E+00  0.11802657290E+01  0.00000000000E+00 0.  1.
         11    1    3    3    0    0  0.37465852028E+01 -0.72426514303E+01 -0.75360615952E+01  0.11103383496E+02  0.51100000000E-03 0. -1.
        -11    1    3    3    0    0 -0.16056085832E+02  0.20873094997E+02 -0.28075921037E+02  0.38493393321E+02  0.51100000000E-03 0.  1.
         12    1    3    3    0    0  0.12667066178E+02 -0.12682804543E+02  0.36217915260E+02  0.40410957455E+02  0.00000000000E+00 0. -1.
</event>
<event>
 7    1  0.3861961E-015  0.9000784E+02  0.7816164E-02  0.1186339E+00
        -11   -1    0    0    0    0  0.00000000000E+00  0.00000000000E+00  0.45593999997E+02  0.45594000000E+02  0.51100000000E-03 0. -1.
         11   -1    0    0    0    0 -0.00000000000E+00 -0.00000000000E+00 -0.45593999997E+02  0.45594000000E+02  0.51100000000E-03 0.  1.
    9900012    2    1    2    0    0  0.32852539285E+00  0.71622122752E+00  0.87855865333E+00  0.90007844465E+02  0.90000107211E+02 0.  0.
        -12    1    1    2    0    0 -0.32852539285E+00 -0.71622122752E+00 -0.87855865333E+00  0.11801555354E+01  0.00000000000E+00 0.  1.
         11    1    3    3    0    0 -0.35514851645E+01 -0.75940552699E+01  0.32168512157E+01  0.89794684876E+01  0.51100000000E-03 0. -1.
        -11    1    3    3    0    0  0.28763680699E+01 -0.94342625248E+00 -0.41076354610E+02  0.41187746414E+02  0.51100000000E-03 0.  1.
         12    1    3    3    0    0  0.10036424874E+01  0.92537027499E+01  0.38738062047E+02  0.39840629563E+02  0.00000000000E+00 0. -1.
</event>
<event>
 7    1  0.3861961E-015  0.9000778E+02  0.7816164E-02  0.1186339E+00
        -11   -1    0    0    0    0  0.00000000000E+00  0.00000000000E+00  0.45593999997E+02  0.45594000000E+02  0.51100000000E-03 0. -1.
         11   -1    0    0    0    0 -0.00000000000E+00 -0.00000000000E+00 -0.45593999997E+02  0.45594000000E+02  0.51100000000E-03 0.  1.
    9900012    2    1    2    0    0 -0.42226199106E+00 -0.98729435975E+00  0.48975255783E+00  0.90007782685E+02  0.90000044617E+02 0.  0.
        -12    1    1    2    0    0  0.42226199106E+00  0.98729435975E+00 -0.48975255783E+00  0.11802173146E+01  0.00000000000E+00 0.  1.
         11    1    3    3    0    0  0.34208484823E+01  0.43035400373E+01 -0.76793282201E+01  0.94442968697E+01  0.51100000000E-03 0. -1.
        -11    1    3    3    0    0  0.29970672382E+02  0.91776818374E+01 -0.17323709713E+02  0.35813153526E+02  0.51100000000E-03 0.  1.
         12    1    3    3    0    0 -0.33813782856E+02 -0.14468516234E+02  0.25492790491E+02  0.44750332290E+02  0.00000000000E+00 0. -1.
</event>
<event>
 7    1  0.3861961E-015  0.9000776E+02  0.7816164E-02  0.1186339E+00
        -11   -1    0    0    0    0  0.00000000000E+00  0.00000000000E+00  0.45593999997E+02  0.45594000000E+02  0.51100000000E-03 0.  1.
         11   -1    0    0    0    0 -0.00000000000E+00 -0.00000000000E+00 -0.45593999997E+02  0.45594000000E+02  0.51100000000E-03 0. -1.
    9900012    2    1    2    0    0  0.53907451399E+00  0.10456663632E+01  0.94531119693E-01  0.90007764597E+02  0.90000026289E+02 0.  0.
        -12    1    1    2    0    0 -0.53907451399E+00 -0.10456663632E+01 -0.94531119693E-01  0.11802354034E+01  0.00000000000E+00 0.  1.
         11    1    3    3    0    0 -0.23785402094E+01  0.27470031741E+02 -0.25438180497E+02  0.37514812070E+02  0.51100000000E-03 0. -1.
        -11    1    3    3    0    0 -0.92127353380E+01 -0.15516578425E+01 -0.55577832673E+01  0.10870652675E+02  0.51100000000E-03 0.  1.
        -12    1    3    3    0    0  0.12130350061E+02 -0.24872707536E+02  0.31090494884E+02  0.41622299851E+02  0.00000000000E+00 0.  1.
</event>
<event>
 7    1  0.3861961E-015  0.9000772E+02  0.7816164E-02  0.1186339E+00
        -11   -1    0    0    0    0  0.00000000000E+00  0.00000000000E+00  0.45593999997E+02  0.45594000000E+02  0.51100000000E-03 0.  1.
         11   -1    0    0    0    0 -0.00000000000E+00 -0.00000000000E+00 -0.45593999997E+02  0.45594000000E+02  0.51100000000E-03 0. -1.
    9900012    2    1    2    0    0  0.10742731311E+01 -0.25242237998E+00 -0.41867154845E+00  0.90007717964E+02  0.89999979042E+02 0.  0.
        -12    1    1    2    0    0 -0.10742731311E+01  0.25242237998E+00  0.41867154845E+00  0.11802820356E+01  0.00000000000E+00 0.  1.
         11    1    3    3    0    0  0.67059748686E+01 -0.35040345457E+02 -0.21792363306E+02  0.41805537999E+02  0.51100000000E-03 0. -1.
        -11    1    3    3    0    0  0.98163444276E+01  0.10204436014E+02  0.75087958661E+01  0.16027262645E+02  0.51100000000E-03 0.  1.
        -12    1    3    3    0    0 -0.15448046165E+02  0.24583487063E+02  0.13864895891E+02  0.32174917320E+02  0.00000000000E+00 0.  1.
</event>
<event>
 7    1  0.3861961E-015  0.9000785E+02  0.7816164E-02  0.1186339E+00
        -11   -1    0    0    0    0  0.00000000000E+00  0.00000000000E+00  0.45593999997E+02  0.45594000000E+02  0.51100000000E-03 0.  1.
         11   -1    0    0    0    0 -0.00000000000E+00 -0.00000000000E+00 -0.45593999997E+02  0.45594000000E+02  0.51100000000E-03 0. -1.
    9900012    2    1    2    0    0  0.75824823582E+00  0.25459097782E+00  0.86775385267E+00  0.90007850136E+02  0.90000112958E+02 0.  0.
        -12    1    1    2    0    0 -0.75824823582E+00 -0.25459097782E+00 -0.86775385267E+00  0.11801498642E+01  0.00000000000E+00 0.  1.
         11    1    3    3    0    0 -0.14010589481E+02  0.80712248534E+01  0.14544740704E+01  0.16234432030E+02  0.51100000000E-03 0. -1.
        -11    1    3    3    0    0 -0.17549011749E+02  0.99612782477E+01  0.22528122252E+02  0.30244192338E+02  0.51100000000E-03 0.  1.
         12    1    3    3    0    0  0.32317849466E+02 -0.17777912123E+02 -0.23114842470E+02  0.43529225768E+02  0.00000000000E+00 0. -1.
</event>
<event>
 7    1  0.3861961E-015  0.9000771E+02  0.7816164E-02  0.1186339E+00
        -11   -1    0    0    0    0  0.00000000000E+00  0.00000000000E+00  0.45593999997E+02  0.45594000000E+02  0.51100000000E-03 0. -1.
         11   -1    0    0    0    0 -0.00000000000E+00 -0.00000000000E+00 -0.45593999997E+02  0.45594000000E+02  0.51100000000E-03 0.  1.
    9900012    2    1    2    0    0  0.53047372357E+00  0.74743286759E+00  0.74364989058E+00  0.90007714686E+02  0.89999975720E+02 0.  0.
        -12    1    1    2    0    0 -0.53047372357E+00 -0.74743286759E+00 -0.74364989058E+00  0.11802853141E+01  0.00000000000E+00 0.  1.
         11    1    3    3    0    0 -0.11884031805E+02 -0.16138973628E+02  0.34047548456E+02  0.39508634978E+02  0.51100000000E-03 0. -1.
        -11    1    3    3    0    0 -0.44075579053E+01 -0.50678642404E+01  0.60181055790E+00  0.67432922861E+01  0.51100000000E-03 0.  1.
        -12    1    3    3    0    0  0.16822063433E+02  0.21954270736E+02 -0.33905709124E+02  0.43755787422E+02  0.00000000000E+00 0.  1.
</event>
<event>
 7    1  0.3861961E-015  0.9000771E+02  0.7816164E-02  0.1186339E+00
        -11   -1    0    0    0    0  0.00000000000E+00  0.00000000000E+00  0.45593999997E+02  0.45594000000E+02  0.51100000000E-03 0.  1.
         11   -1    0    0    0    0 -0.00000000000E+00 -0.00000000000E+00 -0.45593999997E+02  0.45594000000E+02  0.51100000000E-03 0. -1.
    9900012    2    1    2    0    0 -0.11014933074E+00 -0.10089329028E+01 -0.60250798878E+00  0.90007705819E+02  0.89999966736E+02 0.  0.
        -12    1    1    2    0    0  0.11014933074E+00  0.10089329028E+01  0.60250798878E+00  0.11802941811E+01  0.00000000000E+00 0.  1.
         11    1    3    3    0    0 -0.29090468206E+01 -0.99814692570E+01  0.30783079313E+01  0.10842889924E+02  0.51100000000E-03 0. -1.
        -11    1    3    3    0    0 -0.31513055955E+02  0.22118083100E+02  0.10294425678E+02  0.39852948397E+02  0.51100000000E-03 0.  1.
         12    1    3    3    0    0  0.34311953445E+02 -0.13145546745E+02 -0.13975241598E+02  0.39311867498E+02  0.00000000000E+00 0. -1.
</event>
<event>
 7    1  0.3861961E-015  0.9000776E+02  0.7816164E-02  0.1186339E+00
        -11   -1    0    0    0    0  0.00000000000E+00  0.00000000000E+00  0.45593999997E+02  0.45594000000E+02  0.51100000000E-03 0.  1.
         11   -1    0    0    0    0 -0.00000000000E+00 -0.00000000000E+00 -0.45593999997E+02  0.45594000000E+02  0.51100000000E-03 0. -1.
    9900012    2    1    2    0    0 -0.10489315347E+01 -0.25388963527E-01  0.54042934458E+00  0.90007760261E+02  0.90000021897E+02 0.  0.
        -12    1    1    2    0    0  0.10489315347E+01  0.25388963527E-01 -0.54042934458E+00  0.11802397385E+01  0.00000000000E+00 0.  1.
         11    1    3    3    0    0 -0.35279260108E+02 -0.10219753401E+02 -0.20085904073E+02  0.41863027794E+02  0.51100000000E-03 0. -1.
        -11    1    3    3    0    0  0.72203964297E+01  0.53024945861E+01 -0.52819135189E+01  0.10399479993E+02  0.51100000000E-03 0.  1.
        -12    1    3    3    0    0  0.27009932144E+02  0.48918698519E+01  0.25908246937E+02  0.37745252475E+02  0.00000000000E+00 0.  1.
</event>
<event>
 7    1  0.3861961E-015  0.9000766E+02  0.7816164E-02  0.1186339E+00
        -11   -1    0    0    0    0  0.00000000000E+00  0.00000000000E+00  0.45593999997E+02  0.45594000000E+02  0.51100000000E-03 0. -1.
         11   -1    0    0    0    0 -0.00000000000E+00 -0.00000000000E+00 -0.45593999997E+02  0.45594000000E+02  0.51100000000E-03 0.  1.
    9900012    2    1    2    0    0  0.26757349903E+00 -0.11495940468E+01  0.62002253875E-02  0.90007660857E+02  0.89999921180E+02 0.  0.
        -12    1    1    2    0    0 -0.26757349903E+00  0.11495940468E+01 -0.62002253875E-02  0.11803391430E+01  0.00000000000E+00 0.  1.
         11    1    3    3    0    0  0.70071323538E+01  0.27943535510E+01  0.32658928015E+01  0.82203632307E+01  0.51100000000E-03 0. -1.
        -11    1    3    3    0    0 -0.28558255350E+02  0.27426469001E+02 -0.14159879974E+02  0.42051008926E+02  0.51100000000E-03 0.  1.
         12    1    3    3    0    0  0.21818696496E+02 -0.31370416599E+02  0.10900187398E+02  0.39736288700E+02  0.00000000000E+00 0. -1.
</event>
<event>
 7    1  0.3861961E-015  0.9000790E+02  0.7816164E-02  0.1186339E+00
        -11   -1    0    0    0    0  0.00000000000E+00  0.00000000000E+00  0.45593999997E+02  0.45594000000E+02  0.51100000000E-03 0. -1.
         11   -1    0    0    0    0 -0.00000000000E+00 -0.00000000000E+00 -0.45593999997E+02  0.45594000000E+02  0.51100000000E-03 0.  1.
    9900012    2    1    2    0    0  0.12288938335E+00 -0.11361339349E+01  0.29451971706E+00  0.90007896622E+02  0.90000160057E+02 0.  0.
        -12    1    1    2    0    0 -0.12288938335E+00  0.11361339349E+01 -0.29451971706E+00  0.11801033778E+01  0.00000000000E+00 0.  1.
         11    1    3    3    0    0  0.98719499491E+01  0.24515248694E+02  0.27640610026E+02  0.38242072867E+02  0.51100000000E-03 0. -1.
        -11    1    3    3    0    0  0.71699850729E+01  0.15411980494E+01  0.27354943902E+01  0.78273180077E+01  0.51100000000E-03 0.  1.
        -12    1    3    3    0    0 -0.16919045639E+02 -0.27192580678E+02 -0.30081584699E+02  0.43938505747E+02  0.00000000000E+00 0.  1.
</event>
<event>
 7    1  0.3861961E-015  0.9000782E+02  0.7816164E-02  0.1186339E+00
        -11   -1    0    0    0    0  0.00000000000E+00  0.00000000000E+00  0.45593999997E+02  0.45594000000E+02  0.51100000000E-03 0.  1.
         11   -1    0    0    0    0 -0.00000000000E+00 -0.00000000000E+00 -0.45593999997E+02  0.45594000000E+02  0.51100000000E-03 0. -1.
    9900012    2    1    2    0    0  0.62120954778E+00  0.98214338930E+00  0.20568821859E+00  0.90007824342E+02  0.90000086824E+02 0.  0.
        -12    1    1    2    0    0 -0.62120954778E+00 -0.98214338930E+00 -0.20568821859E+00  0.11801756575E+01  0.00000000000E+00 0.  1.
         11    1    3    3    0    0 -0.15705066040E+02 -0.32718252524E+02 -0.53011729280E+01  0.36677453322E+02  0.51100000000E-03 0. -1.
        -11    1    3    3    0    0 -0.14420777309E+01 -0.66975734552E+01  0.61299301989E+01  0.91931019180E+01  0.51100000000E-03 0.  1.
        -12    1    3    3    0    0  0.17768353319E+02  0.40397969368E+02 -0.62306905225E+00  0.44137269102E+02  0.00000000000E+00 0.  1.
</event>
<event>
 7    1  0.3861961E-015  0.9000779E+02  0.7816164E-02  0.1186339E+00
        -11   -1    0    0    0    0  0.00000000000E+00  0.00000000000E+00  0.45593999997E+02  0.45594000000E+02  0.51100000000E-03 0. -1.
         11   -1    0    0    0    0 -0.00000000000E+00 -0.00000000000E+00 -0.45593999997E+02  0.45594000000E+02  0.51100000000E-03 0.  1.
    9900012    2    1    2    0    0 -0.77598079623E+00 -0.10007163433E+00  0.88358930095E+00  0.90007792145E+02  0.90000054201E+02 0.  0.
        -12    1    1    2    0    0  0.77598079623E+00  0.10007163433E+00 -0.88358930095E+00  0.11802078549E+01  0.00000000000E+00 0.  1.
         11    1    3    3    0    0  0.18897106688E+01 -0.25004815260E+01  0.13542322506E+02  0.13900284651E+02  0.51100000000E-03 0. -1.
        -11    1    3    3    0    0  0.84900638848E+01 -0.27697674223E+02 -0.28213583998E+02  0.40438207977E+02  0.51100000000E-03 0.  1.
         12    1    3    3    0    0 -0.11155755350E+02  0.30098084115E+02  0.15554850793E+02  0.35669299517E+02  0.00000000000E+00 0. -1.
</event>
<event>
 7    1  0.3861961E-015  0.9000771E+02  0.7816164E-02  0.1186339E+00
        -11   -1    0    0    0    0  0.00000000000E+00  0.00000000000E+00  0.45593999997E+02  0.45594000000E+02  0.51100000000E-03 0.  1.
         11   -1    0    0    0    0 -0.00000000000E+00 -0.00000000000E+00 -0.45593999997E+02  0.45594000000E+02  0.51100000000E-03 0. -1.
    9900012    2    1    2    0    0  0.31204868773E-01  0.11405406563E+01  0.30211832848E+00  0.90007710960E+02  0.89999971945E+02 0.  0.
        -12    1    1    2    0    0 -0.31204868773E-01 -0.11405406563E+01 -0.30211832848E+00  0.11802890395E+01  0.00000000000E+00 0.  1.
         11    1    3    3    0    0  0.43374096029E+01  0.89920855327E+01 -0.60643318879E+01  0.11681046434E+02  0.51100000000E-03 0. -1.
        -11    1    3    3    0    0  0.23809029693E+02  0.14658024439E+02  0.25238584525E+02  0.37665816392E+02  0.51100000000E-03 0.  1.
         12    1    3    3    0    0 -0.28115234427E+02 -0.22509569316E+02 -0.18872134308E+02  0.40660848135E+02  0.00000000000E+00 0. -1.
</event>
<event>
 7    1  0.3861961E-015  0.9000765E+02  0.7816164E-02  0.1186339E+00
        -11   -1    0    0    0    0  0.00000000000E+00  0.00000000000E+00  0.45593999997E+02  0.45594000000E+02  0.51100000000E-03 0.  1.
         11   -1    0    0    0    0 -0.00000000000E+00 -0.00000000000E+00 -0.45593999997E+02  0.45594000000E+02  0.51100000000E-03 0. -1.
    9900012    2    1    2    0    0 -0.99809366782E+00  0.47109706632E+00 -0.41844008703E+00  0.90007654490E+02  0.89999914730E+02 0.  0.
        -12    1    1    2    0    0  0.99809366782E+00 -0.47109706632E+00  0.41844008703E+00  0.11803455096E+01  0.00000000000E+00 0.  1.
         11    1    3    3    0    0  0.21157276704E+01 -0.12135403484E+02 -0.36126919286E+02  0.38169341345E+02  0.51100000000E-03 0. -1.
        -11    1    3    3    0    0  0.47101962509E+01 -0.73041095113E+01 -0.15947441685E+01  0.88362420575E+01  0.51100000000E-03 0.  1.
        -12    1    3    3    0    0 -0.78240175892E+01  0.19910610062E+02  0.37303223368E+02  0.43002071088E+02  0.00000000000E+00 0.  1.
</event>
<event>
 7    1  0.3861961E-015  0.9000776E+02  0.7816164E-02  0.1186339E+00
        -11   -1    0    0    0    0  0.00000000000E+00  0.00000000000E+00  0.45593999997E+02  0.45594000000E+02  0.51100000000E-03 0. -1.
         11   -1    0    0    0    0 -0.00000000000E+00 -0.00000000000E+00 -0.45593999997E+02  0.45594000000E+02  0.51100000000E-03 0.  1.
    9900012    2    1    2    0    0  0.30731272957E+00  0.74617304947E+00  0.86125346857E+00  0.90007757283E+02  0.90000018879E+02 0.  0.
        -12    1    1    2    0    0 -0.30731272957E+00 -0.74617304947E+00 -0.86125346857E+00  0.11802427168E+01  0.00000000000E+00 0.  1.
         11    1    3    3    0    0  0.16069867812E+02 -0.38209218602E+01  0.69536132949E+01  0.17921853517E+02  0.51100000000E-03 0. -1.
        -11    1    3    3    0    0  0.16634321373E+02 -0.17199417809E+02  0.14478354893E+02  0.27966826441E+02  0.51100000000E-03 0.  1.
         12    1    3    3    0    0 -0.32396876456E+02  0.21766512718E+02 -0.20570714719E+02  0.44119077326E+02  0.00000000000E+00 0. -1.
</event>
<event>
 7    1  0.4668291E-015  0.9000775E+02  0.7816164E-02  0.1186339E+00
        -11   -1    0    0    0    0  0.00000000000E+00  0.00000000000E+00  0.45593999997E+02  0.45594000000E+02  0.51100000000E-03 0. -1.
         11   -1    0    0    0    0 -0.00000000000E+00 -0.00000000000E+00 -0.45593999997E+02  0.45594000000E+02  0.51100000000E-03 0.  1.
    9900012    2    1    2    0    0  0.10598431071E+01 -0.11700335013E-01  0.51920662388E+00  0.90007754336E+02  0.90000015893E+02 0.  0.
        -12    1    1    2    0    0 -0.10598431071E+01  0.11700335013E-01 -0.51920662388E+00  0.11802456642E+01  0.00000000000E+00 0.  1.
         11    1    3    3    0    0 -0.14722529171E+01  0.81471758610E+01 -0.41165059765E+01  0.92460599651E+01  0.51100000000E-03 0. -1.
        -11    1    3    3    0    0 -0.28602071134E+02  0.22596985002E+02 -0.19588047274E+01  0.36503960341E+02  0.51100000000E-03 0.  1.
         12    1    3    3    0    0  0.31134167158E+02 -0.30755861198E+02  0.65945173278E+01  0.44257734030E+02  0.00000000000E+00 0. -1.
</event>
<event>
 7    1  0.3861961E-015  0.9000783E+02  0.7816164E-02  0.1186339E+00
        -11   -1    0    0    0    0  0.00000000000E+00  0.00000000000E+00  0.45593999997E+02  0.45594000000E+02  0.51100000000E-03 0.  1.
         11   -1    0    0    0    0 -0.00000000000E+00 -0.00000000000E+00 -0.45593999997E+02  0.45594000000E+02  0.51100000000E-03 0. -1.
    9900012    2    1    2    0    0 -0.10968687273E+01  0.42931247827E+00 -0.73237637791E-01  0.90007833079E+02  0.90000095676E+02 0.  0.
        -12    1    1    2    0    0  0.10968687273E+01 -0.42931247827E+00  0.73237637791E-01  0.11801669206E+01  0.00000000000E+00 0.  1.
         11    1    3    3    0    0 -0.47590254334E+00  0.13582234981E+02  0.25070060877E-01  0.13590593037E+02  0.51100000000E-03 0. -1.
        -11    1    3    3    0    0 -0.36709374273E+02  0.11148725937E+01  0.57462209826E+01  0.37173110662E+02  0.51100000000E-03 0.  1.
         12    1    3    3    0    0  0.36088408089E+02 -0.14267795097E+02 -0.58445286813E+01  0.39244129381E+02  0.00000000000E+00 0. -1.
</event>
<event>
 7    1  0.3861961E-015  0.9000777E+02  0.7816164E-02  0.1186339E+00
        -11   -1    0    0    0    0  0.00000000000E+00  0.00000000000E+00  0.45593999997E+02  0.45594000000E+02  0.51100000000E-03 0. -1.
         11   -1    0    0    0    0 -0.00000000000E+00 -0.00000000000E+00 -0.45593999997E+02  0.45594000000E+02  0.51100000000E-03 0.  1.
    9900012    2    1    2    0    0  0.66396191373E+00 -0.97277761616E+00 -0.76217683514E-01  0.90007766613E+02  0.90000028332E+02 0.  0.
        -12    1    1    2    0    0 -0.66396191373E+00  0.97277761616E+00  0.76217683514E-01  0.11802333874E+01  0.00000000000E+00 0.  1.
         11    1    3    3    0    0  0.15852008771E+02  0.29183627224E+02 -0.78688009822E+00  0.33220316985E+02  0.51100000000E-03 0. -1.
        -11    1    3    3    0    0  0.10963053257E+02  0.26919984914E+01 -0.80898818612E+01  0.13888181357E+02  0.51100000000E-03 0.  1.
        -12    1    3    3    0    0 -0.26151100114E+02 -0.32848403332E+02  0.88005442759E+01  0.42899268271E+02  0.00000000000E+00 0.  1.
</event>
<event>
 7    1  0.3861961E-015  0.9000783E+02  0.7816164E-02  0.1186339E+00
        -11   -1    0    0    0    0  0.00000000000E+00  0.00000000000E+00  0.45593999997E+02  0.45594000000E+02  0.51100000000E-03 0. -1.
         11   -1    0    0    0    0 -0.00000000000E+00 -0.00000000000E+00 -0.45593999997E+02  0.45594000000E+02  0.51100000000E-03 0.  1.
    9900012    2    1    2    0    0  0.30282869179E+00 -0.11289987931E+01 -0.16269006266E+00  0.90007825628E+02  0.90000088126E+02 0.  0.
        -12    1    1    2    0    0 -0.30282869179E+00  0.11289987931E+01  0.16269006266E+00  0.11801743718E+01  0.00000000000E+00 0.  1.
         11    1    3    3    0    0 -0.25909957209E+02  0.35318423418E+02  0.71159449543E+00  0.43808940666E+02  0.51100000000E-03 0. -1.
        -11    1    3    3    0    0  0.12709739001E+01 -0.25417081078E+01 -0.28979658819E+01  0.40588004722E+01  0.51100000000E-03 0.  1.
        -12    1    3    3    0    0  0.24941812000E+02 -0.33905714103E+02  0.20236813238E+01  0.42140084490E+02  0.00000000000E+00 0.  1.
</event>
<event>
 7    1  0.3861961E-015  0.9000774E+02  0.7816164E-02  0.1186339E+00
        -11   -1    0    0    0    0  0.00000000000E+00  0.00000000000E+00  0.45593999997E+02  0.45594000000E+02  0.51100000000E-03 0. -1.
         11   -1    0    0    0    0 -0.00000000000E+00 -0.00000000000E+00 -0.45593999997E+02  0.45594000000E+02  0.51100000000E-03 0.  1.
    9900012    2    1    2    0    0  0.79225923460E+00  0.70135800002E+00 -0.52292179151E+00  0.90007735225E+02  0.89999996530E+02 0.  0.
        -12    1    1    2    0    0 -0.79225923460E+00 -0.70135800002E+00  0.52292179151E+00  0.11802647750E+01  0.00000000000E+00 0.  1.
         11    1    3    3    0    0 -0.66891810630E+01  0.24424936962E+02  0.32978993717E+02  0.41580484795E+02  0.51100000000E-03 0. -1.
        -11    1    3    3    0    0 -0.74026513337E+00 -0.12469612736E+02 -0.38548718071E+00  0.12497513148E+02  0.51100000000E-03 0.  1.
        -12    1    3    3    0    0  0.82217054310E+01 -0.11253966226E+02 -0.33116428328E+02  0.35929737283E+02  0.00000000000E+00 0.  1.
</event>
<event>
 7    1  0.3861961E-015  0.9000776E+02  0.7816164E-02  0.1186339E+00
        -11   -1    0    0    0    0  0.00000000000E+00  0.00000000000E+00  0.45593999997E+02  0.45594000000E+02  0.51100000000E-03 0. -1.
         11   -1    0    0    0    0 -0.00000000000E+00 -0.00000000000E+00 -0.45593999997E+02  0.45594000000E+02  0.51100000000E-03 0.  1.
    9900012    2    1    2    0    0  0.84181271506E+00 -0.40023140308E+00  0.72396420435E+00  0.90007763586E+02  0.90000025266E+02 0.  0.
        -12    1    1    2    0    0 -0.84181271506E+00  0.40023140308E+00 -0.72396420435E+00  0.11802364138E+01  0.00000000000E+00 0.  1.
         11    1    3    3    0    0 -0.27174478223E+02 -0.20797717331E+02  0.80889632441E+00  0.34229397109E+02  0.51100000000E-03 0. -1.
        -11    1    3    3    0    0  0.11915406115E+02 -0.96071745934E+01  0.12205278334E+02  0.19576606602E+02  0.51100000000E-03 0.  1.
        -12    1    3    3    0    0  0.16100884823E+02  0.30004660522E+02 -0.12290210454E+02  0.36201759876E+02  0.00000000000E+00 0.  1.
</event>
<event>
 7    1  0.3861961E-015  0.9000770E+02  0.7816164E-02  0.1186339E+00
        -11   -1    0    0    0    0  0.00000000000E+00  0.00000000000E+00  0.45593999997E+02  0.45594000000E+02  0.51100000000E-03 0.  1.
         11   -1    0    0    0    0 -0.00000000000E+00 -0.00000000000E+00 -0.45593999997E+02  0.45594000000E+02  0.51100000000E-03 0. -1.
    9900012    2    1    2    0    0  0.35561258768E+00  0.30244806988E+00 -0.10840550307E+01  0.90007698997E+02  0.89999959824E+02 0.  0.
        -12    1    1    2    0    0 -0.35561258768E+00 -0.30244806988E+00  0.10840550307E+01  0.11803010028E+01  0.00000000000E+00 0.  1.
         11    1    3    3    0    0 -0.26868019473E+02  0.29050288099E+02 -0.17039763179E+02  0.43083212954E+02  0.51100000000E-03 0. -1.
        -11    1    3    3    0    0  0.89602508481E+01 -0.42163469645E+01 -0.36978004551E+01  0.10570591538E+02  0.51100000000E-03 0.  1.
        -12    1    3    3    0    0  0.18263381212E+02 -0.24531493065E+02  0.19653508603E+02  0.36353894505E+02  0.00000000000E+00 0.  1.
</event>
<event>
 7    1  0.3861961E-015  0.9000778E+02  0.7816164E-02  0.1186339E+00
        -11   -1    0    0    0    0  0.00000000000E+00  0.00000000000E+00  0.45593999997E+02  0.45594000000E+02  0.51100000000E-03 0.  1.
         11   -1    0    0    0    0 -0.00000000000E+00 -0.00000000000E+00 -0.45593999997E+02  0.45594000000E+02  0.51100000000E-03 0. -1.
    9900012    2    1    2    0    0  0.32114454261E+00  0.97663004309E+00 -0.57963328053E+00  0.90007781885E+02  0.90000043806E+02 0.  0.
        -12    1    1    2    0    0 -0.32114454261E+00 -0.97663004309E+00  0.57963328053E+00  0.11802181147E+01  0.00000000000E+00 0.  1.
         11    1    3    3    0    0 -0.14319610699E+01 -0.72922477014E+01  0.30878531242E+01  0.80474981344E+01  0.51100000000E-03 0. -1.
        -11    1    3    3    0    0 -0.11471029894E+02 -0.18244882573E+02  0.30110958503E+02  0.37028773800E+02  0.51100000000E-03 0.  1.
         12    1    3    3    0    0  0.13224135506E+02  0.26513760318E+02 -0.33778444907E+02  0.44931509951E+02  0.00000000000E+00 0. -1.
</event>
<event>
 7    1  0.3861961E-015  0.9000767E+02  0.7816164E-02  0.1186339E+00
        -11   -1    0    0    0    0  0.00000000000E+00  0.00000000000E+00  0.45593999997E+02  0.45594000000E+02  0.51100000000E-03 0. -1.
         11   -1    0    0    0    0 -0.00000000000E+00 -0.00000000000E+00 -0.45593999997E+02  0.45594000000E+02  0.51100000000E-03 0.  1.
    9900012    2    1    2    0    0 -0.20728927868E+00 -0.11548633895E+00  0.11562349540E+01  0.90007667331E+02  0.89999927740E+02 0.  0.
        -12    1    1    2    0    0  0.20728927868E+00  0.11548633895E+00 -0.11562349540E+01  0.11803326685E+01  0.00000000000E+00 0.  1.
         11    1    3    3    0    0 -0.66164737488E+01 -0.18567227620E+00  0.37234233638E+01  0.75944769978E+01  0.51100000000E-03 0. -1.
        -11    1    3    3    0    0  0.63021053351E+01 -0.36872765343E+02  0.16447683208E+02  0.40863720326E+02  0.51100000000E-03 0.  1.
         12    1    3    3    0    0  0.10707913501E+00  0.36942951280E+02 -0.19014871618E+02  0.41549470008E+02  0.00000000000E+00 0. -1.
</event>
<event>
 7    1  0.3861961E-015  0.9000783E+02  0.7816164E-02  0.1186339E+00
        -11   -1    0    0    0    0  0.00000000000E+00  0.00000000000E+00  0.45593999997E+02  0.45594000000E+02  0.51100000000E-03 0.  1.
         11   -1    0    0    0    0 -0.00000000000E+00 -0.00000000000E+00 -0.45593999997E+02  0.45594000000E+02  0.51100000000E-03 0. -1.
    9900012    2    1    2    0    0  0.71931073129E+00  0.83635691201E-01  0.93187425983E+00  0.90007833701E+02  0.90000096306E+02 0.  0.
        -12    1    1    2    0    0 -0.71931073129E+00 -0.83635691201E-01 -0.93187425983E+00  0.11801662989E+01  0.00000000000E+00 0.  1.
         11    1    3    3    0    0 -0.36665328550E+02 -0.58697879587E+01 -0.69735535779E+01  0.37781360194E+02  0.51100000000E-03 0. -1.
        -11    1    3    3    0    0 -0.50680897023E+01 -0.14569496405E+01  0.74524295169E+01  0.91294546087E+01  0.51100000000E-03 0.  1.
        -12    1    3    3    0    0  0.42452728983E+02  0.74103732904E+01  0.45299832080E+00  0.43097018898E+02  0.00000000000E+00 0.  1.
</event>
<event>
 7    1  0.3861961E-015  0.9000785E+02  0.7816164E-02  0.1186339E+00
        -11   -1    0    0    0    0  0.00000000000E+00  0.00000000000E+00  0.45593999997E+02  0.45594000000E+02  0.51100000000E-03 0.  1.
         11   -1    0    0    0    0 -0.00000000000E+00 -0.00000000000E+00 -0.45593999997E+02  0.45594000000E+02  0.51100000000E-03 0. -1.
    9900012    2    1    2    0    0  0.60612866390E+00  0.10092017390E+01  0.82877349644E-01  0.90007852229E+02  0.90000115078E+02 0.  0.
        -12    1    1    2    0    0 -0.60612866390E+00 -0.10092017390E+01 -0.82877349644E-01  0.11801477714E+01  0.00000000000E+00 0.  1.
         11    1    3    3    0    0  0.18039792881E+02 -0.14807178123E+02 -0.27538928662E+02  0.36098188919E+02  0.51100000000E-03 0. -1.
        -11    1    3    3    0    0 -0.24292376804E+01 -0.21164826964E+01 -0.95034677505E+01  0.10034769268E+02  0.51100000000E-03 0.  1.
        -12    1    3    3    0    0 -0.15004426536E+02  0.17932862558E+02  0.37125273763E+02  0.43874894041E+02  0.00000000000E+00 0.  1.
</event>
<event>
 7    1  0.3861961E-015  0.9000772E+02  0.7816164E-02  0.1186339E+00
        -11   -1    0    0    0    0  0.00000000000E+00  0.00000000000E+00  0.45593999997E+02  0.45594000000E+02  0.51100000000E-03 0. -1.
         11   -1    0    0    0    0 -0.00000000000E+00 -0.00000000000E+00 -0.45593999997E+02  0.45594000000E+02  0.51100000000E-03 0.  1.
    9900012    2    1    2    0    0  0.35476287003E+00 -0.10800030745E+01  0.31749073473E+00  0.90007718804E+02  0.89999979892E+02 0.  0.
        -12    1    1    2    0    0 -0.35476287003E+00  0.10800030745E+01 -0.31749073473E+00  0.11802811960E+01  0.00000000000E+00 0.  1.
         11    1    3    3    0    0 -0.18800086807E+02 -0.32587842167E+02 -0.72707271347E+01  0.38318066162E+02  0.51100000000E-03 0. -1.
        -11    1    3    3    0    0  0.26856391170E+01  0.46027036467E+01  0.17761953141E+02  0.18544123543E+02  0.51100000000E-03 0.  1.
        -12    1    3    3    0    0  0.16469210560E+02  0.26905135446E+02 -0.10173735272E+02  0.33145529099E+02  0.00000000000E+00 0.  1.
</event>
<event>
 7    1  0.3861961E-015  0.9000773E+02  0.7816164E-02  0.1186339E+00
        -11   -1    0    0    0    0  0.00000000000E+00  0.00000000000E+00  0.45593999997E+02  0.45594000000E+02  0.51100000000E-03 0. -1.
         11   -1    0    0    0    0 -0.00000000000E+00 -0.00000000000E+00 -0.45593999997E+02  0.45594000000E+02  0.51100000000E-03 0.  1.
    9900012    2    1    2    0    0 -0.91961349759E+00 -0.71899199695E+00  0.17435390113E+00  0.90007729794E+02  0.89999991027E+02 0.  0.
        -12    1    1    2    0    0  0.91961349759E+00  0.71899199695E+00 -0.17435390113E+00  0.11802702061E+01  0.00000000000E+00 0.  1.
         11    1    3    3    0    0 -0.52786600953E+01  0.35191175914E+02 -0.82431844503E+00  0.35594418324E+02  0.51100000000E-03 0. -1.
        -11    1    3    3    0    0  0.21212107302E+01  0.90546335446E+01  0.13112818167E+01  0.93917721359E+01  0.51100000000E-03 0.  1.
        -12    1    3    3    0    0  0.22378358675E+01 -0.44964801456E+02 -0.31260947050E+00  0.45021539334E+02  0.00000000000E+00 0.  1.
</event>
<event>
 7    1  0.3861961E-015  0.9000763E+02  0.7816164E-02  0.1186339E+00
        -11   -1    0    0    0    0  0.00000000000E+00  0.00000000000E+00  0.45593999997E+02  0.45594000000E+02  0.51100000000E-03 0.  1.
         11   -1    0    0    0    0 -0.00000000000E+00 -0.00000000000E+00 -0.45593999997E+02  0.45594000000E+02  0.51100000000E-03 0. -1.
    9900012    2    1    2    0    0 -0.98520308556E+00 -0.33709024109E+00 -0.55589569843E+00  0.90007629305E+02  0.89999889212E+02 0.  0.
        -12    1    1    2    0    0  0.98520308556E+00  0.33709024109E+00  0.55589569843E+00  0.11803706952E+01  0.00000000000E+00 0.  1.
         11    1    3    3    0    0 -0.18148365408E+02  0.21126072046E+01  0.97865243896E+00  0.18297104609E+02  0.51100000000E-03 0. -1.
        -11    1    3    3    0    0 -0.21862585697E+02 -0.17998610410E+02  0.62156004869E+01  0.28992349331E+02  0.51100000000E-03 0.  1.
         12    1    3    3    0    0  0.39025748020E+02  0.15548912964E+02 -0.77501486243E+01  0.42718175366E+02  0.00000000000E+00 0. -1.
</event>
<event>
 7    1  0.3861961E-015  0.9000819E+02  0.7816164E-02  0.1186338E+00
        -11   -1    0    0    0    0  0.00000000000E+00  0.00000000000E+00  0.45593999997E+02  0.45594000000E+02  0.51100000000E-03 0. -1.
         11   -1    0    0    0    0 -0.00000000000E+00 -0.00000000000E+00 -0.45593999997E+02  0.45594000000E+02  0.51100000000E-03 0.  1.
    9900012    2    1    2    0    0  0.79109554109E+00  0.77324183931E+00  0.41014063572E+00  0.90008190508E+02  0.90000457821E+02 0.  0.
        -12    1    1    2    0    0 -0.79109554109E+00 -0.77324183931E+00 -0.41014063572E+00  0.11798094924E+01  0.00000000000E+00 0.  1.
         11    1    3    3    0    0  0.29653957463E+01 -0.22376737874E+01 -0.86431188546E+01  0.94076702593E+01  0.51100000000E-03 0. -1.
        -11    1    3    3    0    0 -0.13034037206E+02  0.15679223836E+02 -0.31060482710E+02  0.37154781286E+02  0.51100000000E-03 0.  1.
         12    1    3    3    0    0  0.10859737001E+02 -0.12668308210E+02  0.40113742200E+02  0.43445738962E+02  0.00000000000E+00 0. -1.
</event>
<event>
 7    1  0.3861961E-015  0.9000776E+02  0.7816164E-02  0.1186339E+00
        -11   -1    0    0    0    0  0.00000000000E+00  0.00000000000E+00  0.45593999997E+02  0.45594000000E+02  0.51100000000E-03 0. -1.
         11   -1    0    0    0    0 -0.00000000000E+00 -0.00000000000E+00 -0.45593999997E+02  0.45594000000E+02  0.51100000000E-03 0.  1.
    9900012    2    1    2    0    0 -0.67118695961E+00 -0.98214456271E-01  0.96582671699E+00  0.90007763049E+02  0.90000024721E+02 0.  0.
        -12    1    1    2    0    0  0.67118695961E+00  0.98214456271E-01 -0.96582671699E+00  0.11802369514E+01  0.00000000000E+00 0.  1.
         11    1    3    3    0    0  0.26886246425E+02 -0.86969511781E-01  0.24019524542E+02  0.36052952306E+02  0.51100000000E-03 0. -1.
        -11    1    3    3    0    0  0.57630296180E+01  0.12038217389E+02 -0.60491314846E+01  0.14653435783E+02  0.51100000000E-03 0.  1.
        -12    1    3    3    0    0 -0.33320463003E+02 -0.12049462333E+02 -0.17004566341E+02  0.39301374959E+02  0.00000000000E+00 0.  1.
</event>
<event>
 7    1  0.3861961E-015  0.9000763E+02  0.7816164E-02  0.1186339E+00
        -11   -1    0    0    0    0  0.00000000000E+00  0.00000000000E+00  0.45593999997E+02  0.45594000000E+02  0.51100000000E-03 0. -1.
         11   -1    0    0    0    0 -0.00000000000E+00 -0.00000000000E+00 -0.45593999997E+02  0.45594000000E+02  0.51100000000E-03 0.  1.
    9900012    2    1    2    0    0  0.11800080573E+01  0.97789265993E-02  0.27668157280E-01  0.90007627106E+02  0.89999886983E+02 0.  0.
        -12    1    1    2    0    0 -0.11800080573E+01 -0.97789265993E-02 -0.27668157280E-01  0.11803728943E+01  0.00000000000E+00 0.  1.
         11    1    3    3    0    0 -0.17380720217E+02  0.65026858068E+01  0.62269408529E+01  0.19574196040E+02  0.51100000000E-03 0. -1.
        -11    1    3    3    0    0 -0.12744249953E+02 -0.22326476589E+02  0.14684916202E+02  0.29606320741E+02  0.51100000000E-03 0.  1.
         12    1    3    3    0    0  0.31304978227E+02  0.15833569708E+02 -0.20884188897E+02  0.40827110324E+02  0.00000000000E+00 0. -1.
</event>
<event>
 7    1  0.3861961E-015  0.9000783E+02  0.7816164E-02  0.1186339E+00
        -11   -1    0    0    0    0  0.00000000000E+00  0.00000000000E+00  0.45593999997E+02  0.45594000000E+02  0.51100000000E-03 0.  1.
         11   -1    0    0    0    0 -0.00000000000E+00 -0.00000000000E+00 -0.45593999997E+02  0.45594000000E+02  0.51100000000E-03 0. -1.
    9900012    2    1    2    0    0 -0.72524593020E+00 -0.65571972272E+00  0.66094109337E+00  0.90007833426E+02  0.90000096027E+02 0.  0.
        -12    1    1    2    0    0  0.72524593020E+00  0.65571972272E+00 -0.66094109337E+00  0.11801665742E+01  0.00000000000E+00 0.  1.
         11    1    3    3    0    0  0.82844215176E+00 -0.33920999695E+02 -0.25145472553E+02  0.42232870218E+02  0.51100000000E-03 0. -1.
        -11    1    3    3    0    0 -0.10084652544E+02  0.96960619675E+01  0.39973483301E+01  0.14549660771E+02  0.51100000000E-03 0.  1.
        -12    1    3    3    0    0  0.85309644624E+01  0.23569218005E+02  0.21809065316E+02  0.33225302436E+02  0.00000000000E+00 0.  1.
</event>
<event>
 7    1  0.3861961E-015  0.9000777E+02  0.7816164E-02  0.1186339E+00
        -11   -1    0    0    0    0  0.00000000000E+00  0.00000000000E+00  0.45593999997E+02  0.45594000000E+02  0.51100000000E-03 0.  1.
         11   -1    0    0    0    0 -0.00000000000E+00 -0.00000000000E+00 -0.45593999997E+02  0.45594000000E+02  0.51100000000E-03 0. -1.
    9900012    2    1    2    0    0 -0.41869273681E+00 -0.40176702410E+00 -0.10277321904E+01  0.90007765360E+02  0.90000027063E+02 0.  0.
        -12    1    1    2    0    0  0.41869273681E+00  0.40176702410E+00  0.10277321904E+01  0.11802346397E+01  0.00000000000E+00 0.  1.
         11    1    3    3    0    0  0.27445369601E+01  0.81387557090E+01  0.13001035047E+01  0.86868922521E+01  0.51100000000E-03 0. -1.
        -11    1    3    3    0    0  0.35931537850E+02 -0.17082011670E+01 -0.15965299080E+02  0.39355865363E+02  0.51100000000E-03 0.  1.
         12    1    3    3    0    0 -0.39094767547E+02 -0.68323215661E+01  0.13637463384E+02  0.41965007746E+02  0.00000000000E+00 0. -1.
</event>
<event>
 7    1  0.3861961E-015  0.9000775E+02  0.7816164E-02  0.1186339E+00
        -11   -1    0    0    0    0  0.00000000000E+00  0.00000000000E+00  0.45593999997E+02  0.45594000000E+02  0.51100000000E-03 0.  1.
         11   -1    0    0    0    0 -0.00000000000E+00 -0.00000000000E+00 -0.45593999997E+02  0.45594000000E+02  0.51100000000E-03 0. -1.
    9900012    2    1    2    0    0  0.75323972713E+00 -0.88556678851E+00  0.20344493591E+00  0.90007750677E+02  0.90000012186E+02 0.  0.
        -12    1    1    2    0    0 -0.75323972713E+00  0.88556678851E+00 -0.20344493591E+00  0.11802493234E+01  0.00000000000E+00 0.  1.
         11    1    3    3    0    0  0.13584343214E+02 -0.36470702538E+02  0.58477175239E+01  0.39355334132E+02  0.51100000000E-03 0. -1.
        -11    1    3    3    0    0  0.97616782451E+01  0.41591044788E+01 -0.54917963581E+01  0.11947733665E+02  0.51100000000E-03 0.  1.
        -12    1    3    3    0    0 -0.22592781732E+02  0.31426031271E+02 -0.15247622989E+00  0.38704682879E+02  0.00000000000E+00 0.  1.
</event>
<event>
 7    1  0.3861961E-015  0.9000772E+02  0.7816164E-02  0.1186339E+00
        -11   -1    0    0    0    0  0.00000000000E+00  0.00000000000E+00  0.45593999997E+02  0.45594000000E+02  0.51100000000E-03 0.  1.
         11   -1    0    0    0    0 -0.00000000000E+00 -0.00000000000E+00 -0.45593999997E+02  0.45594000000E+02  0.51100000000E-03 0. -1.
    9900012    2    1    2    0    0 -0.30628582942E+00 -0.72024423156E+00  0.88345451687E+00  0.90007722640E+02  0.89999983779E+02 0.  0.
        -12    1    1    2    0    0  0.30628582942E+00  0.72024423156E+00 -0.88345451687E+00  0.11802773597E+01  0.00000000000E+00 0.  1.
         11    1    3    3    0    0  0.74142618987E+00 -0.45599064624E+01  0.64574242819E+01  0.79398229426E+01  0.51100000000E-03 0. -1.
        -11    1    3    3    0    0 -0.10261768059E+02  0.37191002780E+02  0.15473917029E+02  0.41568217185E+02  0.51100000000E-03 0.  1.
         12    1    3    3    0    0  0.92140560401E+01 -0.33351340549E+02 -0.21047886794E+02  0.40499682513E+02  0.00000000000E+00 0. -1.
</event>
<event>
 7    1  0.3861961E-015  0.9000786E+02  0.7816164E-02  0.1186339E+00
        -11   -1    0    0    0    0  0.00000000000E+00  0.00000000000E+00  0.45593999997E+02  0.45594000000E+02  0.51100000000E-03 0. -1.
         11   -1    0    0    0    0 -0.00000000000E+00 -0.00000000000E+00 -0.45593999997E+02  0.45594000000E+02  0.51100000000E-03 0.  1.
    9900012    2    1    2    0    0  0.58400605242E+00  0.99446117851E+00  0.25041969634E+00  0.90007861818E+02  0.90000124794E+02 0.  0.
        -12    1    1    2    0    0 -0.58400605242E+00 -0.99446117851E+00 -0.25041969634E+00  0.11801381822E+01  0.00000000000E+00 0.  1.
         11    1    3    3    0    0  0.12010410468E+02  0.24250536388E+02  0.11046706588E+02  0.29229577510E+02  0.51100000000E-03 0. -1.
        -11    1    3    3    0    0  0.19590296979E+02 -0.61697074445E+01  0.62619855918E+01  0.21472249288E+02  0.51100000000E-03 0.  1.
         12    1    3    3    0    0 -0.31016701395E+02 -0.17086367765E+02 -0.17058272483E+02  0.39306035019E+02  0.00000000000E+00 0. -1.
</event>
<event>
 7    1  0.3861961E-015  0.9000877E+02  0.7816164E-02  0.1186337E+00
        -11   -1    0    0    0    0  0.00000000000E+00  0.00000000000E+00  0.45593999997E+02  0.45594000000E+02  0.51100000000E-03 0.  1.
         11   -1    0    0    0    0 -0.00000000000E+00 -0.00000000000E+00 -0.45593999997E+02  0.45594000000E+02  0.51100000000E-03 0. -1.
    9900012    2    1    2    0    0 -0.47530816124E+00 -0.10790423751E+01  0.17963826867E-01  0.90008774409E+02  0.90001049425E+02 0.  0.
        -12    1    1    2    0    0  0.47530816124E+00  0.10790423751E+01 -0.17963826867E-01  0.11792255910E+01  0.00000000000E+00 0.  1.
         11    1    3    3    0    0 -0.29908691689E+01 -0.90653246805E+01  0.42642414010E+01  0.10455102340E+02  0.51100000000E-03 0. -1.
        -11    1    3    3    0    0  0.81228334650E+01 -0.24940332027E+02  0.24194793982E+02  0.35684571473E+02  0.51100000000E-03 0.  1.
         12    1    3    3    0    0 -0.56072724574E+01  0.32926614333E+02 -0.28441071556E+02  0.43869100596E+02  0.00000000000E+00 0. -1.
</event>
<event>
 7    1  0.3861961E-015  0.9000785E+02  0.7816164E-02  0.1186339E+00
        -11   -1    0    0    0    0  0.00000000000E+00  0.00000000000E+00  0.45593999997E+02  0.45594000000E+02  0.51100000000E-03 0.  1.
         11   -1    0    0    0    0 -0.00000000000E+00 -0.00000000000E+00 -0.45593999997E+02  0.45594000000E+02  0.51100000000E-03 0. -1.
    9900012    2    1    2    0    0  0.55235334125E+00 -0.21780715439E+00 -0.10199060803E+01  0.90007854847E+02  0.90000117731E+02 0.  0.
        -12    1    1    2    0    0 -0.55235334125E+00  0.21780715439E+00  0.10199060803E+01  0.11801451533E+01  0.00000000000E+00 0.  1.
         11    1    3    3    0    0  0.10899861894E+02 -0.28709087085E+01  0.34671676773E+01  0.11792809592E+02  0.51100000000E-03 0. -1.
        -11    1    3    3    0    0  0.19582119266E+02  0.28822616720E+02  0.94192035753E+01  0.36096038921E+02  0.51100000000E-03 0.  1.
         12    1    3    3    0    0 -0.29929627818E+02 -0.26169515166E+02 -0.13906277333E+02  0.42119006334E+02  0.00000000000E+00 0. -1.
</event>
<event>
 7    1  0.3861961E-015  0.9000777E+02  0.7816164E-02  0.1186339E+00
        -11   -1    0    0    0    0  0.00000000000E+00  0.00000000000E+00  0.45593999997E+02  0.45594000000E+02  0.51100000000E-03 0.  1.
         11   -1    0    0    0    0 -0.00000000000E+00 -0.00000000000E+00 -0.45593999997E+02  0.45594000000E+02  0.51100000000E-03 0. -1.
    9900012    2    1    2    0    0 -0.40736047424E+00 -0.49236386169E+00 -0.99226387888E+00  0.90007765984E+02  0.90000027695E+02 0.  0.
        -12    1    1    2    0    0  0.40736047424E+00  0.49236386169E+00  0.99226387888E+00  0.11802340165E+01  0.00000000000E+00 0.  1.
         11    1    3    3    0    0 -0.15422096364E+02 -0.36289591456E+02 -0.10279214926E+02  0.40748469469E+02  0.51100000000E-03 0. -1.
        -11    1    3    3    0    0  0.91548729506E+01 -0.25818543719E+01  0.26298533369E+01  0.98688296963E+01  0.51100000000E-03 0.  1.
        -12    1    3    3    0    0  0.58598629396E+01  0.38379081966E+02  0.66570977098E+01  0.39390466818E+02  0.00000000000E+00 0.  1.
</event>
<event>
 7    1  0.3861961E-015  0.9000772E+02  0.7816164E-02  0.1186339E+00
        -11   -1    0    0    0    0  0.00000000000E+00  0.00000000000E+00  0.45593999997E+02  0.45594000000E+02  0.51100000000E-03 0. -1.
         11   -1    0    0    0    0 -0.00000000000E+00 -0.00000000000E+00 -0.45593999997E+02  0.45594000000E+02  0.51100000000E-03 0.  1.
    9900012    2    1    2    0    0  0.47054792424E+00  0.58128090396E+00  0.91310426540E+00  0.90007719424E+02  0.89999980521E+02 0.  0.
        -12    1    1    2    0    0 -0.47054792424E+00 -0.58128090396E+00 -0.91310426540E+00  0.11802805759E+01  0.00000000000E+00 0.  1.
         11    1    3    3    0    0 -0.88481851768E+01 -0.37629603315E+01 -0.21391745054E+00  0.96174847187E+01  0.51100000000E-03 0. -1.
        -11    1    3    3    0    0 -0.29903599553E+02 -0.17559975076E+02  0.60324453243E+01  0.35198982766E+02  0.51100000000E-03 0.  1.
         12    1    3    3    0    0  0.39222332654E+02  0.21904216311E+02 -0.49054236083E+01  0.45191251939E+02  0.00000000000E+00 0. -1.
</event>
<event>
 7    1  0.3861961E-015  0.9000771E+02  0.7816164E-02  0.1186339E+00
        -11   -1    0    0    0    0  0.00000000000E+00  0.00000000000E+00  0.45593999997E+02  0.45594000000E+02  0.51100000000E-03 0.  1.
         11   -1    0    0    0    0 -0.00000000000E+00 -0.00000000000E+00 -0.45593999997E+02  0.45594000000E+02  0.51100000000E-03 0. -1.
    9900012    2    1    2    0    0 -0.10131215404E+01  0.96295779090E-02 -0.60545375239E+00  0.90007710955E+02  0.89999971939E+02 0.  0.
        -12    1    1    2    0    0  0.10131215404E+01 -0.96295779090E-02  0.60545375239E+00  0.11802890454E+01  0.00000000000E+00 0.  1.
         11    1    3    3    0    0  0.66824321704E+01  0.67577113691E+01 -0.10315438014E+02  0.14026040936E+02  0.51100000000E-03 0. -1.
        -11    1    3    3    0    0  0.19423826596E+02  0.16134997202E+02  0.26605604631E+02  0.36680803868E+02  0.51100000000E-03 0.  1.
         12    1    3    3    0    0 -0.27119380307E+02 -0.22883078994E+02 -0.16895620370E+02  0.39300866150E+02  0.00000000000E+00 0. -1.
</event>
<event>
 7    1  0.3861961E-015  0.9000774E+02  0.7816164E-02  0.1186339E+00
        -11   -1    0    0    0    0  0.00000000000E+00  0.00000000000E+00  0.45593999997E+02  0.45594000000E+02  0.51100000000E-03 0.  1.
         11   -1    0    0    0    0 -0.00000000000E+00 -0.00000000000E+00 -0.45593999997E+02  0.45594000000E+02  0.51100000000E-03 0. -1.
    9900012    2    1    2    0    0  0.89157182895E+00 -0.69828285745E+00  0.33242153963E+00  0.90007744369E+02  0.90000005794E+02 0.  0.
        -12    1    1    2    0    0 -0.89157182895E+00  0.69828285745E+00 -0.33242153963E+00  0.11802556313E+01  0.00000000000E+00 0.  1.
         11    1    3    3    0    0  0.46461189596E+01 -0.24232926064E+01  0.79113348984E+01  0.94893618636E+01  0.51100000000E-03 0. -1.
        -11    1    3    3    0    0 -0.13453400851E+02 -0.28344319376E+01  0.34477611176E+02  0.37117834952E+02  0.51100000000E-03 0.  1.
         12    1    3    3    0    0  0.96988537205E+01  0.45594416866E+01 -0.42056524535E+02  0.43400547553E+02  0.00000000000E+00 0. -1.
</event>
<event>
 7    1  0.3861961E-015  0.9000780E+02  0.7816164E-02  0.1186339E+00
        -11   -1    0    0    0    0  0.00000000000E+00  0.00000000000E+00  0.45593999997E+02  0.45594000000E+02  0.51100000000E-03 0.  1.
         11   -1    0    0    0    0 -0.00000000000E+00 -0.00000000000E+00 -0.45593999997E+02  0.45594000000E+02  0.51100000000E-03 0. -1.
    9900012    2    1    2    0    0 -0.35813702625E+00 -0.11136614029E+01  0.15612278248E+00  0.90007797402E+02  0.90000059527E+02 0.  0.
        -12    1    1    2    0    0  0.35813702625E+00  0.11136614029E+01 -0.15612278248E+00  0.11802025983E+01  0.00000000000E+00 0.  1.
         11    1    3    3    0    0  0.83833173052E+01  0.24711103308E+01 -0.38021298171E+01  0.95311377450E+01  0.51100000000E-03 0. -1.
        -11    1    3    3    0    0  0.19136588241E+02  0.27172209027E+02 -0.12930499872E+02  0.35661404629E+02  0.51100000000E-03 0.  1.
         12    1    3    3    0    0 -0.27878042572E+02 -0.30756980760E+02  0.16888752472E+02  0.44815255028E+02  0.00000000000E+00 0. -1.
</event>
<event>
 7    1  0.3861961E-015  0.9000779E+02  0.7816164E-02  0.1186339E+00
        -11   -1    0    0    0    0  0.00000000000E+00  0.00000000000E+00  0.45593999997E+02  0.45594000000E+02  0.51100000000E-03 0.  1.
         11   -1    0    0    0    0 -0.00000000000E+00 -0.00000000000E+00 -0.45593999997E+02  0.45594000000E+02  0.51100000000E-03 0. -1.
    9900012    2    1    2    0    0 -0.20811001273E+00  0.89780240197E+00 -0.73725056781E+00  0.90007789286E+02  0.90000051304E+02 0.  0.
        -12    1    1    2    0    0  0.20811001273E+00 -0.89780240197E+00  0.73725056781E+00  0.11802107143E+01  0.00000000000E+00 0.  1.
         11    1    3    3    0    0  0.62575144440E-01  0.84393730428E+01  0.14537256286E+01  0.85638923084E+01  0.51100000000E-03 0. -1.
        -11    1    3    3    0    0 -0.39816889368E+02  0.24275566076E+01 -0.65619577199E+01  0.40426934083E+02  0.51100000000E-03 0.  1.
         12    1    3    3    0    0  0.39546204211E+02 -0.99691272485E+01  0.43709815234E+01  0.41016962894E+02  0.00000000000E+00 0. -1.
</event>
<event>
 7    1  0.3861961E-015  0.9000754E+02  0.7816164E-02  0.1186339E+00
        -11   -1    0    0    0    0  0.00000000000E+00  0.00000000000E+00  0.45593999997E+02  0.45594000000E+02  0.51100000000E-03 0.  1.
         11   -1    0    0    0    0 -0.00000000000E+00 -0.00000000000E+00 -0.45593999997E+02  0.45594000000E+02  0.51100000000E-03 0. -1.
    9900012    2    1    2    0    0 -0.98006785670E+00  0.10289512291E+00 -0.64989628199E+00  0.90007540095E+02  0.89999798824E+02 0.  0.
        -12    1    1    2    0    0  0.98006785670E+00 -0.10289512291E+00  0.64989628199E+00  0.11804599050E+01  0.00000000000E+00 0.  1.
         11    1    3    3    0    0 -0.35595164334E+01  0.26402247495E+01 -0.10798504642E+02  0.11672559562E+02  0.51100000000E-03 0. -1.
        -11    1    3    3    0    0 -0.21065947087E+02  0.29195789591E+02 -0.41860136601E+01  0.36244875047E+02  0.51100000000E-03 0.  1.
         12    1    3    3    0    0  0.23645395664E+02 -0.31733119218E+02  0.14334622020E+02  0.42090105486E+02  0.00000000000E+00 0. -1.
</event>
<event>
 7    1  0.3861961E-015  0.9000777E+02  0.7816164E-02  0.1186339E+00
        -11   -1    0    0    0    0  0.00000000000E+00  0.00000000000E+00  0.45593999997E+02  0.45594000000E+02  0.51100000000E-03 0.  1.
         11   -1    0    0    0    0 -0.00000000000E+00 -0.00000000000E+00 -0.45593999997E+02  0.45594000000E+02  0.51100000000E-03 0. -1.
    9900012    2    1    2    0    0 -0.11316081706E+01  0.48537261609E-01  0.33174694003E+00  0.90007767417E+02  0.90000029147E+02 0.  0.
        -12    1    1    2    0    0  0.11316081706E+01 -0.48537261609E-01 -0.33174694003E+00  0.11802325829E+01  0.00000000000E+00 0.  1.
         11    1    3    3    0    0 -0.52603630634E+01  0.40943761184E+01  0.67371502914E+01  0.94775803699E+01  0.51100000000E-03 0. -1.
        -11    1    3    3    0    0 -0.29724875532E+02  0.10893891728E+02  0.17793949934E+02  0.36316246459E+02  0.51100000000E-03 0.  1.
         12    1    3    3    0    0  0.33853630425E+02 -0.14939730585E+02 -0.24199353285E+02  0.44213940588E+02  0.00000000000E+00 0. -1.
</event>
<event>
 7    1  0.3861961E-015  0.9000787E+02  0.7816164E-02  0.1186339E+00
        -11   -1    0    0    0    0  0.00000000000E+00  0.00000000000E+00  0.45593999997E+02  0.45594000000E+02  0.51100000000E-03 0.  1.
         11   -1    0    0    0    0 -0.00000000000E+00 -0.00000000000E+00 -0.45593999997E+02  0.45594000000E+02  0.51100000000E-03 0. -1.
    9900012    2    1    2    0    0 -0.32018484200E+00 -0.70891517960E+00 -0.88748414321E+00  0.90007869851E+02  0.90000132933E+02 0.  0.
        -12    1    1    2    0    0  0.32018484200E+00  0.70891517960E+00  0.88748414321E+00  0.11801301493E+01  0.00000000000E+00 0.  1.
         11    1    3    3    0    0  0.21017001287E+02 -0.30246276917E+02  0.95507230032E+01  0.38049545603E+02  0.51100000000E-03 0. -1.
        -11    1    3    3    0    0  0.98697710533E+01  0.43066605471E+01 -0.22166216999E+01  0.10994231112E+02  0.51100000000E-03 0.  1.
        -12    1    3    3    0    0 -0.31206957183E+02  0.25230701191E+02 -0.82215854466E+01  0.40964093136E+02  0.00000000000E+00 0.  1.
</event>
<event>
 7    1  0.3861961E-015  0.9000905E+02  0.7816164E-02  0.1186336E+00
        -11   -1    0    0    0    0  0.00000000000E+00  0.00000000000E+00  0.45593999997E+02  0.45594000000E+02  0.51100000000E-03 0.  1.
         11   -1    0    0    0    0 -0.00000000000E+00 -0.00000000000E+00 -0.45593999997E+02  0.45594000000E+02  0.51100000000E-03 0. -1.
    9900012    2    1    2    0    0 -0.22981495450E+00  0.68951906839E+00 -0.92826769706E+00  0.90009046067E+02  0.90001324665E+02 0.  0.
        -12    1    1    2    0    0  0.22981495450E+00 -0.68951906839E+00  0.92826769706E+00  0.11789539331E+01  0.00000000000E+00 0.  1.
         11    1    3    3    0    0  0.21149766188E+01 -0.35567427417E+01 -0.74656235878E+01  0.85357530918E+01  0.51100000000E-03 0. -1.
        -11    1    3    3    0    0  0.38958939461E+02  0.31554884963E+01  0.89024547136E+01  0.40087526386E+02  0.51100000000E-03 0.  1.
        -12    1    3    3    0    0 -0.41303731034E+02  0.10907733138E+01 -0.23650988229E+01  0.41385766589E+02  0.00000000000E+00 0.  1.
</event>
<event>
 7    1  0.3861961E-015  0.9000771E+02  0.7816164E-02  0.1186339E+00
        -11   -1    0    0    0    0  0.00000000000E+00  0.00000000000E+00  0.45593999997E+02  0.45594000000E+02  0.51100000000E-03 0.  1.
         11   -1    0    0    0    0 -0.00000000000E+00 -0.00000000000E+00 -0.45593999997E+02  0.45594000000E+02  0.51100000000E-03 0. -1.
    9900012    2    1    2    0    0  0.28685249506E+00  0.47218067215E+00 -0.10430026917E+01  0.90007706157E+02  0.89999967078E+02 0.  0.
        -12    1    1    2    0    0 -0.28685249506E+00 -0.47218067215E+00  0.10430026917E+01  0.11802938430E+01  0.00000000000E+00 0.  1.
         11    1    3    3    0    0  0.71184931101E+01  0.23193242385E+01  0.34608713992E+01  0.82480203798E+01  0.51100000000E-03 0. -1.
        -11    1    3    3    0    0 -0.21499488568E+02  0.24400456978E+02  0.23930068702E+02  0.40376459698E+02  0.51100000000E-03 0.  1.
         12    1    3    3    0    0  0.14667847953E+02 -0.26247600545E+02 -0.28433942793E+02  0.41383226079E+02  0.00000000000E+00 0. -1.
</event>
<event>
 7    1  0.3861961E-015  0.9000778E+02  0.7816164E-02  0.1186339E+00
        -11   -1    0    0    0    0  0.00000000000E+00  0.00000000000E+00  0.45593999997E+02  0.45594000000E+02  0.51100000000E-03 0. -1.
         11   -1    0    0    0    0 -0.00000000000E+00 -0.00000000000E+00 -0.45593999997E+02  0.45594000000E+02  0.51100000000E-03 0.  1.
    9900012    2    1    2    0    0  0.61762779072E+00  0.35946758466E+00  0.93927271142E+00  0.90007782114E+02  0.90000044038E+02 0.  0.
        -12    1    1    2    0    0 -0.61762779072E+00 -0.35946758466E+00 -0.93927271142E+00  0.11802178861E+01  0.00000000000E+00 0.  1.
         11    1    3    3    0    0 -0.13790887611E+02  0.79661937995E+01  0.29462071756E+02  0.33491230153E+02  0.51100000000E-03 0. -1.
        -11    1    3    3    0    0 -0.28939046392E+01  0.17184743592E+02 -0.16445093543E+02  0.23961035000E+02  0.51100000000E-03 0.  1.
        -12    1    3    3    0    0  0.17302420041E+02 -0.24791469807E+02 -0.12077705501E+02  0.32555516961E+02  0.00000000000E+00 0.  1.
</event>
<event>
 7    1  0.3861961E-015  0.9000778E+02  0.7816164E-02  0.1186339E+00
        -11   -1    0    0    0    0  0.00000000000E+00  0.00000000000E+00  0.45593999997E+02  0.45594000000E+02  0.51100000000E-03 0.  1.
         11   -1    0    0    0    0 -0.00000000000E+00 -0.00000000000E+00 -0.45593999997E+02  0.45594000000E+02  0.51100000000E-03 0. -1.
    9900012    2    1    2    0    0  0.89967014079E+00  0.76379805385E+00  0.11293871475E-01  0.90007779097E+02  0.90000040981E+02 0.  0.
        -12    1    1    2    0    0 -0.89967014079E+00 -0.76379805385E+00 -0.11293871475E-01  0.11802209034E+01  0.00000000000E+00 0.  1.
         11    1    3    3    0    0  0.22965638657E+02 -0.76632553829E+00 -0.33068402662E+02  0.40268189289E+02  0.51100000000E-03 0. -1.
        -11    1    3    3    0    0  0.70086039593E+01 -0.31173792528E+01  0.60322302732E+01  0.97584007498E+01  0.51100000000E-03 0.  1.
        -12    1    3    3    0    0 -0.29074572475E+02  0.46475028450E+01  0.27047466261E+02  0.39981189057E+02  0.00000000000E+00 0.  1.
</event>
<event>
 7    1  0.3861961E-015  0.9000780E+02  0.7816164E-02  0.1186339E+00
        -11   -1    0    0    0    0  0.00000000000E+00  0.00000000000E+00  0.45593999997E+02  0.45594000000E+02  0.51100000000E-03 0.  1.
         11   -1    0    0    0    0 -0.00000000000E+00 -0.00000000000E+00 -0.45593999997E+02  0.45594000000E+02  0.51100000000E-03 0. -1.
    9900012    2    1    2    0    0 -0.24210851556E-01  0.11638553156E+01 -0.19424266903E+00  0.90007798502E+02  0.90000060642E+02 0.  0.
        -12    1    1    2    0    0  0.24210851556E-01 -0.11638553156E+01  0.19424266903E+00  0.11802014978E+01  0.00000000000E+00 0.  1.
         11    1    3    3    0    0 -0.31962306167E+02  0.27199773690E+02 -0.88302355744E+01  0.42888107499E+02  0.51100000000E-03 0. -1.
        -11    1    3    3    0    0  0.81057556100E+01  0.20239553925E+01  0.58508002708E+01  0.10199584968E+02  0.51100000000E-03 0.  1.
        -12    1    3    3    0    0  0.23832339705E+02 -0.28059873767E+02  0.27851926346E+01  0.36920106035E+02  0.00000000000E+00 0.  1.
</event>
<event>
 7    1  0.3861961E-015  0.9000777E+02  0.7816164E-02  0.1186339E+00
        -11   -1    0    0    0    0  0.00000000000E+00  0.00000000000E+00  0.45593999997E+02  0.45594000000E+02  0.51100000000E-03 0.  1.
         11   -1    0    0    0    0 -0.00000000000E+00 -0.00000000000E+00 -0.45593999997E+02  0.45594000000E+02  0.51100000000E-03 0. -1.
    9900012    2    1    2    0    0 -0.10951893749E+01 -0.34375098715E+00 -0.27447543695E+00  0.90007770669E+02  0.90000032442E+02 0.  0.
        -12    1    1    2    0    0  0.10951893749E+01  0.34375098715E+00  0.27447543695E+00  0.11802293309E+01  0.00000000000E+00 0.  1.
         11    1    3    3    0    0  0.35381490078E+02 -0.19199427530E+02 -0.11391521987E+02  0.41835805610E+02  0.51100000000E-03 0. -1.
        -11    1    3    3    0    0 -0.90424905213E+01 -0.21274787397E+01 -0.44344161508E+01  0.10293534256E+02  0.51100000000E-03 0.  1.
        -12    1    3    3    0    0 -0.27434188932E+02  0.20983155282E+02  0.15551462701E+02  0.37878430803E+02  0.00000000000E+00 0.  1.
</event>
<event>
 7    1  0.3861961E-015  0.9000779E+02  0.7816164E-02  0.1186339E+00
        -11   -1    0    0    0    0  0.00000000000E+00  0.00000000000E+00  0.45593999997E+02  0.45594000000E+02  0.51100000000E-03 0. -1.
         11   -1    0    0    0    0 -0.00000000000E+00 -0.00000000000E+00 -0.45593999997E+02  0.45594000000E+02  0.51100000000E-03 0.  1.
    9900012    2    1    2    0    0  0.10288652342E+01 -0.15982989479E-01  0.57800050868E+00  0.90007786581E+02  0.90000048564E+02 0.  0.
        -12    1    1    2    0    0 -0.10288652342E+01  0.15982989479E-01 -0.57800050868E+00  0.11802134189E+01  0.00000000000E+00 0.  1.
         11    1    3    3    0    0  0.10191809580E+02 -0.26867230124E+02  0.31601752656E+02  0.42712899787E+02  0.51100000000E-03 0. -1.
        -11    1    3    3    0    0 -0.35769900406E+01 -0.31979089670E+01 -0.66606760354E+01  0.82089027904E+01  0.51100000000E-03 0.  1.
        -12    1    3    3    0    0 -0.55859543055E+01  0.30049156101E+02 -0.24363076112E+02  0.39085984004E+02  0.00000000000E+00 0.  1.
</event>
<event>
 7    1  0.3861961E-015  0.9000775E+02  0.7816164E-02  0.1186339E+00
        -11   -1    0    0    0    0  0.00000000000E+00  0.00000000000E+00  0.45593999997E+02  0.45594000000E+02  0.51100000000E-03 0.  1.
         11   -1    0    0    0    0 -0.00000000000E+00 -0.00000000000E+00 -0.45593999997E+02  0.45594000000E+02  0.51100000000E-03 0. -1.
    9900012    2    1    2    0    0 -0.71021947471E+00 -0.61908298235E-01 -0.94060620400E+00  0.90007752411E+02  0.90000013943E+02 0.  0.
        -12    1    1    2    0    0  0.71021947471E+00  0.61908298235E-01  0.94060620400E+00  0.11802475887E+01  0.00000000000E+00 0.  1.
         11    1    3    3    0    0 -0.36778968469E+02  0.46850468881E+01 -0.60248837528E+01  0.37562500056E+02  0.51100000000E-03 0. -1.
        -11    1    3    3    0    0 -0.52950229740E+01 -0.85967669763E+01 -0.20280187860E+01  0.10298278070E+02  0.51100000000E-03 0.  1.
        -12    1    3    3    0    0  0.41363771968E+02  0.38498117900E+01  0.71122963348E+01  0.42146974285E+02  0.00000000000E+00 0.  1.
</event>
<event>
 7    1  0.3861961E-015  0.9000774E+02  0.7816164E-02  0.1186339E+00
        -11   -1    0    0    0    0  0.00000000000E+00  0.00000000000E+00  0.45593999997E+02  0.45594000000E+02  0.51100000000E-03 0. -1.
         11   -1    0    0    0    0 -0.00000000000E+00 -0.00000000000E+00 -0.45593999997E+02  0.45594000000E+02  0.51100000000E-03 0.  1.
    9900012    2    1    2    0    0 -0.30381108312E+00  0.16234622742E+00  0.11288698338E+01  0.90007743853E+02  0.90000005271E+02 0.  0.
        -12    1    1    2    0    0  0.30381108312E+00 -0.16234622742E+00 -0.11288698338E+01  0.11802561474E+01  0.00000000000E+00 0.  1.
         11    1    3    3    0    0  0.90844914224E+01  0.35370711591E+01 -0.10019058240E+02  0.13979284140E+02  0.51100000000E-03 0. -1.
        -11    1    3    3    0    0 -0.13591328104E+02 -0.36475654024E+02  0.16421396712E+02  0.42247601191E+02  0.51100000000E-03 0.  1.
         12    1    3    3    0    0  0.42030255986E+01  0.33100929093E+02 -0.52734686386E+01  0.33780858522E+02  0.00000000000E+00 0. -1.
</event>
<event>
 7    1  0.3861961E-015  0.9000773E+02  0.7816164E-02  0.1186339E+00
        -11   -1    0    0    0    0  0.00000000000E+00  0.00000000000E+00  0.45593999997E+02  0.45594000000E+02  0.51100000000E-03 0.  1.
         11   -1    0    0    0    0 -0.00000000000E+00 -0.00000000000E+00 -0.45593999997E+02  0.45594000000E+02  0.51100000000E-03 0. -1.
    9900012    2    1    2    0    0 -0.46122053212E-01 -0.11773270113E+01  0.69280044467E-01  0.90007734835E+02  0.89999996135E+02 0.  0.
        -12    1    1    2    0    0  0.46122053212E-01  0.11773270113E+01 -0.69280044467E-01  0.11802651651E+01  0.00000000000E+00 0.  1.
         11    1    3    3    0    0 -0.45269689228E+01 -0.40107108854E+01 -0.63263124007E+01  0.87522270473E+01  0.51100000000E-03 0. -1.
        -11    1    3    3    0    0 -0.28168361965E+02  0.24963059525E+02 -0.93575563462E+01  0.38783692677E+02  0.51100000000E-03 0.  1.
         12    1    3    3    0    0  0.32649208834E+02 -0.22129675651E+02  0.15753148791E+02  0.42471815111E+02  0.00000000000E+00 0. -1.
</event>
<event>
 7    1  0.3861961E-015  0.9000771E+02  0.7816164E-02  0.1186339E+00
        -11   -1    0    0    0    0  0.00000000000E+00  0.00000000000E+00  0.45593999997E+02  0.45594000000E+02  0.51100000000E-03 0.  1.
         11   -1    0    0    0    0 -0.00000000000E+00 -0.00000000000E+00 -0.45593999997E+02  0.45594000000E+02  0.51100000000E-03 0. -1.
    9900012    2    1    2    0    0  0.76215924927E+00  0.85430576349E+00 -0.28698260548E+00  0.90007710173E+02  0.89999971148E+02 0.  0.
        -12    1    1    2    0    0 -0.76215924927E+00 -0.85430576349E+00  0.28698260548E+00  0.11802898265E+01  0.00000000000E+00 0.  1.
         11    1    3    3    0    0  0.24861013572E+02  0.18652570496E+02 -0.17291540593E+02  0.35566638276E+02  0.51100000000E-03 0. -1.
        -11    1    3    3    0    0  0.62114762660E+01  0.43480617311E+01 -0.66380146301E+01  0.10077267324E+02  0.51100000000E-03 0.  1.
        -12    1    3    3    0    0 -0.30310330589E+02 -0.22146326463E+02  0.23642572618E+02  0.44363804573E+02  0.00000000000E+00 0.  1.
</event>
<event>
 7    1  0.3861961E-015  0.9000819E+02  0.7816164E-02  0.1186338E+00
        -11   -1    0    0    0    0  0.00000000000E+00  0.00000000000E+00  0.45593999997E+02  0.45594000000E+02  0.51100000000E-03 0. -1.
         11   -1    0    0    0    0 -0.00000000000E+00 -0.00000000000E+00 -0.45593999997E+02  0.45594000000E+02  0.51100000000E-03 0.  1.
    9900012    2    1    2    0    0 -0.10185980363E+01 -0.45326705488E+00  0.38595418568E+00  0.90008189161E+02  0.90000456457E+02 0.  0.
        -12    1    1    2    0    0  0.10185980363E+01  0.45326705488E+00 -0.38595418568E+00  0.11798108391E+01  0.00000000000E+00 0.  1.
         11    1    3    3    0    0 -0.16575962089E+01  0.46688779669E+01  0.91535859254E+01  0.10408370776E+02  0.51100000000E-03 0. -1.
        -11    1    3    3    0    0  0.37050047669E+02  0.11637888281E+02 -0.71243519680E+01  0.39482944003E+02  0.51100000000E-03 0.  1.
         12    1    3    3    0    0 -0.36411049496E+02 -0.16760033303E+02 -0.16432797718E+01  0.40116874382E+02  0.00000000000E+00 0. -1.
</event>
<event>
 7    1  0.3861961E-015  0.9000778E+02  0.7816164E-02  0.1186339E+00
        -11   -1    0    0    0    0  0.00000000000E+00  0.00000000000E+00  0.45593999997E+02  0.45594000000E+02  0.51100000000E-03 0. -1.
         11   -1    0    0    0    0 -0.00000000000E+00 -0.00000000000E+00 -0.45593999997E+02  0.45594000000E+02  0.51100000000E-03 0.  1.
    9900012    2    1    2    0    0  0.13472619142E+00  0.23355077801E+00  0.11490127967E+01  0.90007776496E+02  0.90000038346E+02 0.  0.
        -12    1    1    2    0    0 -0.13472619142E+00 -0.23355077801E+00 -0.11490127967E+01  0.11802235040E+01  0.00000000000E+00 0.  1.
         11    1    3    3    0    0 -0.24099225418E+01  0.53219744247E+00 -0.11661335946E+02  0.11919635778E+02  0.51100000000E-03 0. -1.
        -11    1    3    3    0    0 -0.16347769762E+02  0.16056802057E+02 -0.24267151229E+02  0.33376115674E+02  0.51100000000E-03 0.  1.
         12    1    3    3    0    0  0.18892418495E+02 -0.16355448721E+02  0.37077499971E+02  0.44712025044E+02  0.00000000000E+00 0. -1.
</event>
<event>
 7    1  0.3861961E-015  0.9000770E+02  0.7816164E-02  0.1186339E+00
        -11   -1    0    0    0    0  0.00000000000E+00  0.00000000000E+00  0.45593999997E+02  0.45594000000E+02  0.51100000000E-03 0.  1.
         11   -1    0    0    0    0 -0.00000000000E+00 -0.00000000000E+00 -0.45593999997E+02  0.45594000000E+02  0.51100000000E-03 0. -1.
    9900012    2    1    2    0    0  0.91060074067E+00  0.61332758490E+00 -0.43329934982E+00  0.90007698021E+02  0.89999958835E+02 0.  0.
        -12    1    1    2    0    0 -0.91060074067E+00 -0.61332758490E+00  0.43329934982E+00  0.11803019791E+01  0.00000000000E+00 0.  1.
         11    1    3    3    0    0  0.38665549139E+01  0.20662737859E+01  0.96269290957E+01  0.10578161387E+02  0.51100000000E-03 0. -1.
        -11    1    3    3    0    0 -0.13183160087E+02  0.25425346929E+01  0.32664677925E+02  0.35316304687E+02  0.51100000000E-03 0.  1.
         12    1    3    3    0    0  0.10227205914E+02 -0.39954808939E+01 -0.42724906371E+02  0.44113231946E+02  0.00000000000E+00 0. -1.
</event>
<event>
 7    1  0.3861961E-015  0.9000775E+02  0.7816164E-02  0.1186339E+00
        -11   -1    0    0    0    0  0.00000000000E+00  0.00000000000E+00  0.45593999997E+02  0.45594000000E+02  0.51100000000E-03 0.  1.
         11   -1    0    0    0    0 -0.00000000000E+00 -0.00000000000E+00 -0.45593999997E+02  0.45594000000E+02  0.51100000000E-03 0. -1.
    9900012    2    1    2    0    0 -0.52934965991E+00 -0.33063771760E+00 -0.10017262583E+01  0.90007750933E+02  0.90000012446E+02 0.  0.
        -12    1    1    2    0    0  0.52934965991E+00  0.33063771760E+00  0.10017262583E+01  0.11802490667E+01  0.00000000000E+00 0.  1.
         11    1    3    3    0    0  0.16533959762E+02 -0.36307508628E+02  0.10595997784E+01  0.39909018532E+02  0.51100000000E-03 0. -1.
        -11    1    3    3    0    0 -0.11801894688E+01 -0.20996127596E+00 -0.97628543949E+01  0.98361708564E+01  0.51100000000E-03 0.  1.
        -12    1    3    3    0    0 -0.15883119953E+02  0.36186832187E+02  0.77015283582E+01  0.40262561545E+02  0.00000000000E+00 0.  1.
</event>
<event>
 7    1  0.3861961E-015  0.9000690E+02  0.7816164E-02  0.1186341E+00
        -11   -1    0    0    0    0  0.00000000000E+00  0.00000000000E+00  0.45593999997E+02  0.45594000000E+02  0.51100000000E-03 0.  1.
         11   -1    0    0    0    0 -0.00000000000E+00 -0.00000000000E+00 -0.45593999997E+02  0.45594000000E+02  0.51100000000E-03 0. -1.
    9900012    2    1    2    0    0 -0.11424021877E+01 -0.28511700657E+00 -0.92845001103E-01  0.90006901079E+02  0.89999151370E+02 0.  0.
        -12    1    1    2    0    0  0.11424021877E+01  0.28511700657E+00  0.92845001103E-01  0.11810989205E+01  0.00000000000E+00 0.  1.
         11    1    3    3    0    0 -0.19005524321E+02 -0.15271632589E+02 -0.10188669547E+02  0.26424263548E+02  0.51100000000E-03 0. -1.
        -11    1    3    3    0    0 -0.43979218517E+01 -0.19981306808E+02  0.83368297863E+01  0.22092918990E+02  0.51100000000E-03 0.  1.
         12    1    3    3    0    0  0.22261043985E+02  0.34967822391E+02  0.17589947594E+01  0.41489718541E+02  0.00000000000E+00 0. -1.
</event>
<event>
 7    1  0.3861961E-015  0.9000784E+02  0.7816164E-02  0.1186339E+00
        -11   -1    0    0    0    0  0.00000000000E+00  0.00000000000E+00  0.45593999997E+02  0.45594000000E+02  0.51100000000E-03 0.  1.
         11   -1    0    0    0    0 -0.00000000000E+00 -0.00000000000E+00 -0.45593999997E+02  0.45594000000E+02  0.51100000000E-03 0. -1.
    9900012    2    1    2    0    0 -0.20091775500E+00 -0.77314469388E+00 -0.86870399578E+00  0.90007844377E+02  0.90000107123E+02 0.  0.
        -12    1    1    2    0    0  0.20091775500E+00  0.77314469388E+00  0.86870399578E+00  0.11801556229E+01  0.00000000000E+00 0.  1.
         11    1    3    3    0    0  0.32887855590E+01 -0.59212572477E+01  0.91514551114E+01  0.11385364674E+02  0.51100000000E-03 0. -1.
        -11    1    3    3    0    0 -0.28257804576E+02  0.23641596469E+01  0.23515959613E+02  0.36838744917E+02  0.51100000000E-03 0.  1.
         12    1    3    3    0    0  0.24768101262E+02  0.27839529070E+01 -0.33536118720E+02  0.41783734786E+02  0.00000000000E+00 0. -1.
</event>
<event>
 7    1  0.3861961E-015  0.9000766E+02  0.7816164E-02  0.1186339E+00
        -11   -1    0    0    0    0  0.00000000000E+00  0.00000000000E+00  0.45593999997E+02  0.45594000000E+02  0.51100000000E-03 0.  1.
         11   -1    0    0    0    0 -0.00000000000E+00 -0.00000000000E+00 -0.45593999997E+02  0.45594000000E+02  0.51100000000E-03 0. -1.
    9900012    2    1    2    0    0  0.50169419828E-01 -0.92906155860E+00 -0.72630949460E+00  0.90007661984E+02  0.89999922322E+02 0.  0.
        -12    1    1    2    0    0 -0.50169419828E-01  0.92906155860E+00  0.72630949460E+00  0.11803380161E+01  0.00000000000E+00 0.  1.
         11    1    3    3    0    0  0.22510929445E+02 -0.12098541130E+02 -0.28297313569E+02  0.38129445281E+02  0.51100000000E-03 0. -1.
        -11    1    3    3    0    0 -0.66251198047E+01 -0.51508145576E+01 -0.67072043342E+01  0.10742890359E+02  0.51100000000E-03 0.  1.
        -12    1    3    3    0    0 -0.15835640221E+02  0.16320294129E+02  0.34278208409E+02  0.41135326343E+02  0.00000000000E+00 0.  1.
</event>
<event>
 7    1  0.3861961E-015  0.9000789E+02  0.7816164E-02  0.1186339E+00
        -11   -1    0    0    0    0  0.00000000000E+00  0.00000000000E+00  0.45593999997E+02  0.45594000000E+02  0.51100000000E-03 0.  1.
         11   -1    0    0    0    0 -0.00000000000E+00 -0.00000000000E+00 -0.45593999997E+02  0.45594000000E+02  0.51100000000E-03 0. -1.
    9900012    2    1    2    0    0 -0.93294125470E+00  0.14878147550E+00 -0.70720985631E+00  0.90007889373E+02  0.90000152712E+02 0.  0.
        -12    1    1    2    0    0  0.93294125470E+00 -0.14878147550E+00  0.70720985631E+00  0.11801106275E+01  0.00000000000E+00 0.  1.
         11    1    3    3    0    0 -0.12747434931E+02  0.33542154235E+02 -0.81322200110E+01  0.36792746712E+02  0.51100000000E-03 0. -1.
        -11    1    3    3    0    0 -0.28933726773E+01  0.76981155063E+01  0.47311761781E+01  0.94877086847E+01  0.51100000000E-03 0.  1.
        -12    1    3    3    0    0  0.14707866354E+02 -0.41091488266E+02  0.26938339766E+01  0.43727433976E+02  0.00000000000E+00 0.  1.
</event>
<event>
 7    1  0.3861961E-015  0.9000779E+02  0.7816164E-02  0.1186339E+00
        -11   -1    0    0    0    0  0.00000000000E+00  0.00000000000E+00  0.45593999997E+02  0.45594000000E+02  0.51100000000E-03 0.  1.
         11   -1    0    0    0    0 -0.00000000000E+00 -0.00000000000E+00 -0.45593999997E+02  0.45594000000E+02  0.51100000000E-03 0. -1.
    9900012    2    1    2    0    0 -0.42409058107E+00  0.10801435946E+01 -0.21523601857E+00  0.90007792582E+02  0.90000054644E+02 0.  0.
        -12    1    1    2    0    0  0.42409058107E+00 -0.10801435946E+01  0.21523601857E+00  0.11802074180E+01  0.00000000000E+00 0.  1.
         11    1    3    3    0    0  0.12733969918E+01 -0.72251060925E+01  0.55415072275E+01  0.91941285917E+01  0.51100000000E-03 0. -1.
        -11    1    3    3    0    0 -0.26046649763E+02 -0.23793939761E+02 -0.16747510823E+02  0.39051999338E+02  0.51100000000E-03 0.  1.
         12    1    3    3    0    0  0.24349162190E+02  0.32099189448E+02  0.10990767577E+02  0.41761664652E+02  0.00000000000E+00 0. -1.
</event>
<event>
 7    1  0.3861961E-015  0.9000774E+02  0.7816164E-02  0.1186339E+00
        -11   -1    0    0    0    0  0.00000000000E+00  0.00000000000E+00  0.45593999997E+02  0.45594000000E+02  0.51100000000E-03 0. -1.
         11   -1    0    0    0    0 -0.00000000000E+00 -0.00000000000E+00 -0.45593999997E+02  0.45594000000E+02  0.51100000000E-03 0.  1.
    9900012    2    1    2    0    0  0.11231956933E+01 -0.24305036994E+00  0.26902046387E+00  0.90007739835E+02  0.90000001201E+02 0.  0.
        -12    1    1    2    0    0 -0.11231956933E+01  0.24305036994E+00 -0.26902046387E+00  0.11802601653E+01  0.00000000000E+00 0.  1.
         11    1    3    3    0    0 -0.75330699370E+01  0.20474996467E+01  0.43414823927E+01  0.89324054490E+01  0.51100000000E-03 0. -1.
        -11    1    3    3    0    0 -0.36035449836E+02 -0.36745840010E+01 -0.30501044251E+01  0.36350506870E+02  0.51100000000E-03 0.  1.
         12    1    3    3    0    0  0.44691715466E+02  0.13840339843E+01 -0.10223575037E+01  0.44724827515E+02  0.00000000000E+00 0. -1.
</event>
<event>
 7    1  0.3861961E-015  0.9000794E+02  0.7816164E-02  0.1186339E+00
        -11   -1    0    0    0    0  0.00000000000E+00  0.00000000000E+00  0.45593999997E+02  0.45594000000E+02  0.51100000000E-03 0.  1.
         11   -1    0    0    0    0 -0.00000000000E+00 -0.00000000000E+00 -0.45593999997E+02  0.45594000000E+02  0.51100000000E-03 0. -1.
    9900012    2    1    2    0    0  0.36982073818E+00 -0.65855631422E+00 -0.90669155447E+00  0.90007935014E+02  0.90000198955E+02 0.  0.
        -12    1    1    2    0    0 -0.36982073818E+00  0.65855631422E+00  0.90669155447E+00  0.11800649865E+01  0.00000000000E+00 0.  1.
         11    1    3    3    0    0  0.38923253112E+01  0.36415864237E+02 -0.58337472886E+01  0.37085010073E+02  0.51100000000E-03 0. -1.
        -11    1    3    3    0    0 -0.68591059613E+01  0.53534133278E+01 -0.37732923935E+01  0.94838865764E+01  0.51100000000E-03 0.  1.
        -12    1    3    3    0    0  0.33366013883E+01 -0.42427833879E+02  0.87003481276E+01  0.43439038364E+02  0.00000000000E+00 0.  1.
</event>
<event>
 7    1  0.3861961E-015  0.9000769E+02  0.7816164E-02  0.1186339E+00
        -11   -1    0    0    0    0  0.00000000000E+00  0.00000000000E+00  0.45593999997E+02  0.45594000000E+02  0.51100000000E-03 0. -1.
         11   -1    0    0    0    0 -0.00000000000E+00 -0.00000000000E+00 -0.45593999997E+02  0.45594000000E+02  0.51100000000E-03 0.  1.
    9900012    2    1    2    0    0  0.51740342213E+00 -0.47441773414E+00  0.94887362062E+00  0.90007686637E+02  0.89999947300E+02 0.  0.
        -12    1    1    2    0    0 -0.51740342213E+00  0.47441773414E+00 -0.94887362062E+00  0.11803133633E+01  0.00000000000E+00 0.  1.
         11    1    3    3    0    0  0.37072663669E+00 -0.89906335262E+01  0.17634752386E+01  0.91694478907E+01  0.51100000000E-03 0. -1.
        -11    1    3    3    0    0 -0.60574926031E+01  0.41191388574E+02  0.14680575302E+02  0.44146834550E+02  0.51100000000E-03 0.  1.
         12    1    3    3    0    0  0.62041693886E+01 -0.32675172782E+02 -0.15495176920E+02  0.36691404196E+02  0.00000000000E+00 0. -1.
</event>
<event>
 7    1  0.3861961E-015  0.9000776E+02  0.7816164E-02  0.1186339E+00
        -11   -1    0    0    0    0  0.00000000000E+00  0.00000000000E+00  0.45593999997E+02  0.45594000000E+02  0.51100000000E-03 0. -1.
         11   -1    0    0    0    0 -0.00000000000E+00 -0.00000000000E+00 -0.45593999997E+02  0.45594000000E+02  0.51100000000E-03 0.  1.
    9900012    2    1    2    0    0  0.85852100310E+00  0.59930630528E+00 -0.54473434469E+00  0.90007761945E+02  0.90000023603E+02 0.  0.
        -12    1    1    2    0    0 -0.85852100310E+00 -0.59930630528E+00  0.54473434469E+00  0.11802380551E+01  0.00000000000E+00 0.  1.
         11    1    3    3    0    0  0.97456580335E+01  0.73966167290E+01  0.34666552623E+02  0.36762177038E+02  0.51100000000E-03 0. -1.
        -11    1    3    3    0    0  0.64783545227E+01 -0.36041773625E+01  0.57492173041E+01  0.93815068967E+01  0.51100000000E-03 0.  1.
        -12    1    3    3    0    0 -0.15365491553E+02 -0.31931330612E+01 -0.40960504272E+02  0.43864078010E+02  0.00000000000E+00 0.  1.
</event>
<event>
 7    1  0.3861961E-015  0.9000777E+02  0.7816164E-02  0.1186339E+00
        -11   -1    0    0    0    0  0.00000000000E+00  0.00000000000E+00  0.45593999997E+02  0.45594000000E+02  0.51100000000E-03 0. -1.
         11   -1    0    0    0    0 -0.00000000000E+00 -0.00000000000E+00 -0.45593999997E+02  0.45594000000E+02  0.51100000000E-03 0.  1.
    9900012    2    1    2    0    0  0.17852953354E+00  0.10638570011E+01  0.47881928544E+00  0.90007774419E+02  0.90000036242E+02 0.  0.
        -12    1    1    2    0    0 -0.17852953354E+00 -0.10638570011E+01 -0.47881928544E+00  0.11802255807E+01  0.00000000000E+00 0.  1.
         11    1    3    3    0    0 -0.95414753554E+00  0.35126534621E+02  0.10908107458E+02  0.36793622281E+02  0.51100000000E-03 0. -1.
        -11    1    3    3    0    0  0.16185239687E+01  0.89300857664E+01 -0.31506194707E+01  0.96068962180E+01  0.51100000000E-03 0.  1.
        -12    1    3    3    0    0 -0.48584689958E+00 -0.42992763386E+02 -0.72786687020E+01  0.43607255920E+02  0.00000000000E+00 0.  1.
</event>
<event>
 7    1  0.3861961E-015  0.9000774E+02  0.7816164E-02  0.1186339E+00
        -11   -1    0    0    0    0  0.00000000000E+00  0.00000000000E+00  0.45593999997E+02  0.45594000000E+02  0.51100000000E-03 0.  1.
         11   -1    0    0    0    0 -0.00000000000E+00 -0.00000000000E+00 -0.45593999997E+02  0.45594000000E+02  0.51100000000E-03 0. -1.
    9900012    2    1    2    0    0  0.18472726821E-01 -0.29470799197E-01 -0.11797438652E+01  0.90007743521E+02  0.90000004935E+02 0.  0.
        -12    1    1    2    0    0 -0.18472726821E-01  0.29470799197E-01  0.11797438652E+01  0.11802564794E+01  0.00000000000E+00 0.  1.
         11    1    3    3    0    0 -0.71506788610E+01  0.24105773160E+01 -0.49053205867E+01  0.90002923002E+01  0.51100000000E-03 0. -1.
        -11    1    3    3    0    0 -0.31673456353E+02 -0.11082801181E+02  0.18789750803E+02  0.38458952857E+02  0.51100000000E-03 0.  1.
         12    1    3    3    0    0  0.38842607941E+02  0.86427530663E+01 -0.15064174082E+02  0.42548498363E+02  0.00000000000E+00 0. -1.
</event>
<event>
 7    1  0.3861961E-015  0.9000782E+02  0.7816164E-02  0.1186339E+00
        -11   -1    0    0    0    0  0.00000000000E+00  0.00000000000E+00  0.45593999997E+02  0.45594000000E+02  0.51100000000E-03 0. -1.
         11   -1    0    0    0    0 -0.00000000000E+00 -0.00000000000E+00 -0.45593999997E+02  0.45594000000E+02  0.51100000000E-03 0.  1.
    9900012    2    1    2    0    0 -0.43034953977E+00 -0.71476312775E+00  0.83471030654E+00  0.90007818509E+02  0.90000080914E+02 0.  0.
        -12    1    1    2    0    0  0.43034953977E+00  0.71476312775E+00 -0.83471030654E+00  0.11801814907E+01  0.00000000000E+00 0.  1.
         11    1    3    3    0    0 -0.42711304074E+01 -0.61993724611E+01  0.77275469715E+01  0.10788408424E+02  0.51100000000E-03 0. -1.
        -11    1    3    3    0    0 -0.55326285026E+01  0.45740972661E+01 -0.42134236593E+02  0.42741387875E+02  0.51100000000E-03 0.  1.
         12    1    3    3    0    0  0.93734093702E+01  0.91051206716E+00  0.35241399928E+02  0.36478022210E+02  0.00000000000E+00 0. -1.
</event>
<event>
 7    1  0.3861961E-015  0.9000768E+02  0.7816164E-02  0.1186339E+00
        -11   -1    0    0    0    0  0.00000000000E+00  0.00000000000E+00  0.45593999997E+02  0.45594000000E+02  0.51100000000E-03 0.  1.
         11   -1    0    0    0    0 -0.00000000000E+00 -0.00000000000E+00 -0.45593999997E+02  0.45594000000E+02  0.51100000000E-03 0. -1.
    9900012    2    1    2    0    0 -0.74289007877E+00 -0.89178745870E+00 -0.21445008038E+00  0.90007678274E+02  0.89999938827E+02 0.  0.
        -12    1    1    2    0    0  0.74289007877E+00  0.89178745870E+00  0.21445008038E+00  0.11803217263E+01  0.00000000000E+00 0.  1.
         11    1    3    3    0    0  0.19173676110E+02 -0.29960647660E+02 -0.12092591764E+02  0.37569948624E+02  0.51100000000E-03 0. -1.
        -11    1    3    3    0    0  0.13933378590E+01 -0.30102951961E+01 -0.83153395567E+01  0.89525493443E+01  0.51100000000E-03 0.  1.
        -12    1    3    3    0    0 -0.21309904048E+02  0.32079155398E+02  0.20193481240E+02  0.43485180305E+02  0.00000000000E+00 0.  1.
</event>
<event>
 7    1  0.3861961E-015  0.9000765E+02  0.7816164E-02  0.1186339E+00
        -11   -1    0    0    0    0  0.00000000000E+00  0.00000000000E+00  0.45593999997E+02  0.45594000000E+02  0.51100000000E-03 0.  1.
         11   -1    0    0    0    0 -0.00000000000E+00 -0.00000000000E+00 -0.45593999997E+02  0.45594000000E+02  0.51100000000E-03 0. -1.
    9900012    2    1    2    0    0  0.66782071440E+00  0.80054393301E+00 -0.55350519101E+00  0.90007651284E+02  0.89999911481E+02 0.  0.
        -12    1    1    2    0    0 -0.66782071440E+00 -0.80054393301E+00  0.55350519101E+00  0.11803487162E+01  0.00000000000E+00 0.  1.
         11    1    3    3    0    0  0.31737185123E+01  0.49390278493E+01 -0.65490678756E+01  0.87952700693E+01  0.51100000000E-03 0. -1.
        -11    1    3    3    0    0 -0.36264364518E+02  0.99072088751E+01  0.19356401398E+02  0.42283888148E+02  0.51100000000E-03 0.  1.
         12    1    3    3    0    0  0.33758466720E+02 -0.14045692791E+02 -0.13360838714E+02  0.38928493066E+02  0.00000000000E+00 0. -1.
</event>
<event>
 7    1  0.3861961E-015  0.9000793E+02  0.7816164E-02  0.1186339E+00
        -11   -1    0    0    0    0  0.00000000000E+00  0.00000000000E+00  0.45593999997E+02  0.45594000000E+02  0.51100000000E-03 0.  1.
         11   -1    0    0    0    0 -0.00000000000E+00 -0.00000000000E+00 -0.45593999997E+02  0.45594000000E+02  0.51100000000E-03 0. -1.
    9900012    2    1    2    0    0 -0.66193609033E+00 -0.27705277369E+00 -0.93682836973E+00  0.90007930078E+02  0.90000193955E+02 0.  0.
        -12    1    1    2    0    0  0.66193609033E+00  0.27705277369E+00  0.93682836973E+00  0.11800699223E+01  0.00000000000E+00 0.  1.
         11    1    3    3    0    0 -0.32140362071E+02  0.10866684417E+02  0.16134261152E+02  0.37568631695E+02  0.51100000000E-03 0. -1.
        -11    1    3    3    0    0 -0.28481604959E+01  0.92327417285E+01 -0.35095107032E+01  0.10279698618E+02  0.51100000000E-03 0.  1.
        -12    1    3    3    0    0  0.34326586477E+02 -0.20376478919E+02 -0.13561578818E+02  0.42159599765E+02  0.00000000000E+00 0.  1.
</event>
<event>
 7    1  0.3861961E-015  0.9000778E+02  0.7816164E-02  0.1186339E+00
        -11   -1    0    0    0    0  0.00000000000E+00  0.00000000000E+00  0.45593999997E+02  0.45594000000E+02  0.51100000000E-03 0. -1.
         11   -1    0    0    0    0 -0.00000000000E+00 -0.00000000000E+00 -0.45593999997E+02  0.45594000000E+02  0.51100000000E-03 0.  1.
    9900012    2    1    2    0    0  0.11248471700E+01  0.30674672234E+00  0.18316828151E+00  0.90007777425E+02  0.90000039287E+02 0.  0.
        -12    1    1    2    0    0 -0.11248471700E+01 -0.30674672234E+00 -0.18316828151E+00  0.11802225751E+01  0.00000000000E+00 0.  1.
         11    1    3    3    0    0 -0.79055773399E+01  0.41341505267E+01 -0.71671440652E+00  0.89500298020E+01  0.51100000000E-03 0. -1.
        -11    1    3    3    0    0 -0.15984776791E+02  0.32313411997E+02  0.68726936534E+01  0.36700185317E+02  0.51100000000E-03 0.  1.
         12    1    3    3    0    0  0.25015201301E+02 -0.36140815801E+02 -0.59728109654E+01  0.44357562306E+02  0.00000000000E+00 0. -1.
</event>
<event>
 7    1  0.3861961E-015  0.9000773E+02  0.7816164E-02  0.1186339E+00
        -11   -1    0    0    0    0  0.00000000000E+00  0.00000000000E+00  0.45593999997E+02  0.45594000000E+02  0.51100000000E-03 0.  1.
         11   -1    0    0    0    0 -0.00000000000E+00 -0.00000000000E+00 -0.45593999997E+02  0.45594000000E+02  0.51100000000E-03 0. -1.
    9900012    2    1    2    0    0  0.51442491885E+00 -0.10575315749E+01 -0.10015079055E+00  0.90007730450E+02  0.89999991692E+02 0.  0.
        -12    1    1    2    0    0 -0.51442491885E+00  0.10575315749E+01  0.10015079055E+00  0.11802695496E+01  0.00000000000E+00 0.  1.
         11    1    3    3    0    0 -0.84028803503E+01 -0.10952537562E+00 -0.40981126314E+01  0.93495947180E+01  0.51100000000E-03 0. -1.
        -11    1    3    3    0    0 -0.27405832530E+01 -0.67017432080E+01 -0.36972363402E+02  0.37674657455E+02  0.51100000000E-03 0.  1.
         12    1    3    3    0    0  0.11657888522E+02  0.57537370088E+01  0.40970325242E+02  0.42983478277E+02  0.00000000000E+00 0. -1.
</event>
<event>
 7    1  0.3861961E-015  0.9000769E+02  0.7816164E-02  0.1186339E+00
        -11   -1    0    0    0    0  0.00000000000E+00  0.00000000000E+00  0.45593999997E+02  0.45594000000E+02  0.51100000000E-03 0. -1.
         11   -1    0    0    0    0 -0.00000000000E+00 -0.00000000000E+00 -0.45593999997E+02  0.45594000000E+02  0.51100000000E-03 0.  1.
    9900012    2    1    2    0    0  0.11008594002E+01  0.25927968962E+00  0.33764880216E+00  0.90007693222E+02  0.89999953973E+02 0.  0.
        -12    1    1    2    0    0 -0.11008594002E+01 -0.25927968962E+00 -0.33764880216E+00  0.11803067779E+01  0.00000000000E+00 0.  1.
         11    1    3    3    0    0  0.19601777762E+02 -0.10915702405E+02  0.29917427131E+02  0.37395650774E+02  0.51100000000E-03 0. -1.
        -11    1    3    3    0    0  0.88751812448E+01 -0.48905552598E+01 -0.15220474173E+01  0.10247097222E+02  0.51100000000E-03 0.  1.
        -12    1    3    3    0    0 -0.27376099606E+02  0.16065537355E+02 -0.28057730911E+02  0.42364945226E+02  0.00000000000E+00 0.  1.
</event>
<event>
 7    1  0.3861961E-015  0.9000772E+02  0.7816164E-02  0.1186339E+00
        -11   -1    0    0    0    0  0.00000000000E+00  0.00000000000E+00  0.45593999997E+02  0.45594000000E+02  0.51100000000E-03 0.  1.
         11   -1    0    0    0    0 -0.00000000000E+00 -0.00000000000E+00 -0.45593999997E+02  0.45594000000E+02  0.51100000000E-03 0. -1.
    9900012    2    1    2    0    0  0.83784538421E+00 -0.79498686042E+00 -0.24305900114E+00  0.90007717545E+02  0.89999978616E+02 0.  0.
        -12    1    1    2    0    0 -0.83784538421E+00  0.79498686042E+00  0.24305900114E+00  0.11802824552E+01  0.00000000000E+00 0.  1.
         11    1    3    3    0    0  0.42390740631E+02  0.70989464099E+01 -0.10352196438E+02  0.44210156104E+02  0.51100000000E-03 0. -1.
        -11    1    3    3    0    0 -0.99348169493E+01  0.17788892558E+01 -0.25208777226E+01  0.10402877465E+02  0.51100000000E-03 0.  1.
        -12    1    3    3    0    0 -0.31618078297E+02 -0.96728225261E+01  0.12630015159E+02  0.35394683976E+02  0.00000000000E+00 0.  1.
</event>
<event>
 7    1  0.3861961E-015  0.9000775E+02  0.7816164E-02  0.1186339E+00
        -11   -1    0    0    0    0  0.00000000000E+00  0.00000000000E+00  0.45593999997E+02  0.45594000000E+02  0.51100000000E-03 0. -1.
         11   -1    0    0    0    0 -0.00000000000E+00 -0.00000000000E+00 -0.45593999997E+02  0.45594000000E+02  0.51100000000E-03 0.  1.
    9900012    2    1    2    0    0 -0.58549306378E+00  0.69298767029E+00  0.75494829364E+00  0.90007753854E+02  0.90000015405E+02 0.  0.
        -12    1    1    2    0    0  0.58549306378E+00 -0.69298767029E+00 -0.75494829364E+00  0.11802461459E+01  0.00000000000E+00 0.  1.
         11    1    3    3    0    0 -0.93724709324E+01  0.18994169860E+02  0.29270362984E+02  0.36129985463E+02  0.51100000000E-03 0. -1.
        -11    1    3    3    0    0 -0.59929395975E+01  0.10449643286E+02 -0.13919158839E+02  0.18407969819E+02  0.51100000000E-03 0.  1.
        -12    1    3    3    0    0  0.14779917466E+02 -0.28750825476E+02 -0.14596255852E+02  0.35469798572E+02  0.00000000000E+00 0.  1.
</event>
<event>
 7    1  0.3861961E-015  0.9000791E+02  0.7816164E-02  0.1186339E+00
        -11   -1    0    0    0    0  0.00000000000E+00  0.00000000000E+00  0.45593999997E+02  0.45594000000E+02  0.51100000000E-03 0.  1.
         11   -1    0    0    0    0 -0.00000000000E+00 -0.00000000000E+00 -0.45593999997E+02  0.45594000000E+02  0.51100000000E-03 0. -1.
    9900012    2    1    2    0    0  0.59880999082E+00  0.41030302582E+00 -0.93042661414E+00  0.90007908621E+02  0.90000172215E+02 0.  0.
        -12    1    1    2    0    0 -0.59880999082E+00 -0.41030302582E+00  0.93042661414E+00  0.11800913788E+01  0.00000000000E+00 0.  1.
         11    1    3    3    0    0  0.18529296379E+02  0.18205134967E+02  0.24972801048E+01  0.26095941670E+02  0.51100000000E-03 0. -1.
        -11    1    3    3    0    0  0.90729782078E+01 -0.85482336974E+01  0.22259639168E+02  0.25512404219E+02  0.51100000000E-03 0.  1.
        -12    1    3    3    0    0 -0.27003464596E+02 -0.92465982438E+01 -0.25687345887E+02  0.38399562732E+02  0.00000000000E+00 0.  1.
</event>
<event>
 7    1  0.3861961E-015  0.9000772E+02  0.7816164E-02  0.1186339E+00
        -11   -1    0    0    0    0  0.00000000000E+00  0.00000000000E+00  0.45593999997E+02  0.45594000000E+02  0.51100000000E-03 0.  1.
         11   -1    0    0    0    0 -0.00000000000E+00 -0.00000000000E+00 -0.45593999997E+02  0.45594000000E+02  0.51100000000E-03 0. -1.
    9900012    2    1    2    0    0  0.11789656401E+01  0.51623780182E-01 -0.20937428592E-01  0.90007718944E+02  0.89999980034E+02 0.  0.
        -12    1    1    2    0    0 -0.11789656401E+01 -0.51623780182E-01  0.20937428592E-01  0.11802810560E+01  0.00000000000E+00 0.  1.
         11    1    3    3    0    0  0.60061418245E+01 -0.12937235117E+01 -0.58203332144E+01  0.84630809477E+01  0.51100000000E-03 0. -1.
        -11    1    3    3    0    0  0.33627186248E+02  0.18162666298E+02  0.95880087696E+01  0.39403045751E+02  0.51100000000E-03 0.  1.
         12    1    3    3    0    0 -0.38454362433E+02 -0.16817319006E+02 -0.37886129838E+01  0.42141592245E+02  0.00000000000E+00 0. -1.
</event>
<event>
 7    1  0.3861961E-015  0.9000769E+02  0.7816164E-02  0.1186339E+00
        -11   -1    0    0    0    0  0.00000000000E+00  0.00000000000E+00  0.45593999997E+02  0.45594000000E+02  0.51100000000E-03 0.  1.
         11   -1    0    0    0    0 -0.00000000000E+00 -0.00000000000E+00 -0.45593999997E+02  0.45594000000E+02  0.51100000000E-03 0. -1.
    9900012    2    1    2    0    0 -0.86135474578E+00  0.37997813977E+00 -0.71191770095E+00  0.90007685551E+02  0.89999946201E+02 0.  0.
        -12    1    1    2    0    0  0.86135474578E+00 -0.37997813977E+00  0.71191770095E+00  0.11803144487E+01  0.00000000000E+00 0.  1.
         11    1    3    3    0    0 -0.44402375297E+01 -0.36923478494E+01 -0.82380376315E+01  0.10060537075E+02  0.51100000000E-03 0. -1.
        -11    1    3    3    0    0  0.34173931912E+02 -0.17592536171E+02 -0.81865253656E+01  0.39298526042E+02  0.51100000000E-03 0.  1.
         12    1    3    3    0    0 -0.30595049128E+02  0.21664862161E+02  0.15712645296E+02  0.40648622434E+02  0.00000000000E+00 0. -1.
</event>
<event>
 7    1  0.3861961E-015  0.9000778E+02  0.7816164E-02  0.1186339E+00
        -11   -1    0    0    0    0  0.00000000000E+00  0.00000000000E+00  0.45593999997E+02  0.45594000000E+02  0.51100000000E-03 0.  1.
         11   -1    0    0    0    0 -0.00000000000E+00 -0.00000000000E+00 -0.45593999997E+02  0.45594000000E+02  0.51100000000E-03 0. -1.
    9900012    2    1    2    0    0  0.60630348393E+00 -0.10116543362E+01  0.43251533442E-01  0.90007780060E+02  0.90000041957E+02 0.  0.
        -12    1    1    2    0    0 -0.60630348393E+00  0.10116543362E+01 -0.43251533442E-01  0.11802199395E+01  0.00000000000E+00 0.  1.
         11    1    3    3    0    0 -0.33413423811E+02 -0.94480293334E+01  0.77280495938E+01  0.35573092357E+02  0.51100000000E-03 0. -1.
        -11    1    3    3    0    0 -0.91977898225E+01 -0.27668642073E+00 -0.44709762849E+01  0.10230616902E+02  0.51100000000E-03 0.  1.
        -12    1    3    3    0    0  0.43217517117E+02  0.87130614179E+01 -0.32138217754E+01  0.44204070802E+02  0.00000000000E+00 0.  1.
</event>
<event>
 7    1  0.3861961E-015  0.9000777E+02  0.7816164E-02  0.1186339E+00
        -11   -1    0    0    0    0  0.00000000000E+00  0.00000000000E+00  0.45593999997E+02  0.45594000000E+02  0.51100000000E-03 0.  1.
         11   -1    0    0    0    0 -0.00000000000E+00 -0.00000000000E+00 -0.45593999997E+02  0.45594000000E+02  0.51100000000E-03 0. -1.
    9900012    2    1    2    0    0  0.14710844960E+00 -0.12249175238E+00 -0.11646062473E+01  0.90007765770E+02  0.90000027479E+02 0.  0.
        -12    1    1    2    0    0 -0.14710844960E+00  0.12249175238E+00  0.11646062473E+01  0.11802342296E+01  0.00000000000E+00 0.  1.
         11    1    3    3    0    0  0.98967404791E+01 -0.37870648018E+01  0.66775806598E+00  0.10617590735E+02  0.51100000000E-03 0. -1.
        -11    1    3    3    0    0 -0.20486374761E+02  0.82398462166E+01  0.34649248166E+02  0.41087187970E+02  0.51100000000E-03 0.  1.
         12    1    3    3    0    0  0.10736742732E+02 -0.45752731672E+01 -0.36481612479E+02  0.38302987065E+02  0.00000000000E+00 0. -1.
</event>
<event>
 7    1  0.3861961E-015  0.9000778E+02  0.7816164E-02  0.1186339E+00
        -11   -1    0    0    0    0  0.00000000000E+00  0.00000000000E+00  0.45593999997E+02  0.45594000000E+02  0.51100000000E-03 0. -1.
         11   -1    0    0    0    0 -0.00000000000E+00 -0.00000000000E+00 -0.45593999997E+02  0.45594000000E+02  0.51100000000E-03 0.  1.
    9900012    2    1    2    0    0 -0.38112092901E+00 -0.10573051790E+01  0.36024654968E+00  0.90007777572E+02  0.90000039435E+02 0.  0.
        -12    1    1    2    0    0  0.38112092901E+00  0.10573051790E+01 -0.36024654968E+00  0.11802224285E+01  0.00000000000E+00 0.  1.
         11    1    3    3    0    0  0.60686193675E+01 -0.66118873727E+01 -0.13634414948E+01  0.90776741860E+01  0.51100000000E-03 0. -1.
        -11    1    3    3    0    0  0.35387482297E+02 -0.82937662004E+01  0.52321875598E+01  0.36721060007E+02  0.51100000000E-03 0.  1.
         12    1    3    3    0    0 -0.41837222594E+02  0.13848348394E+02 -0.35084995153E+01  0.44209043378E+02  0.00000000000E+00 0. -1.
</event>
<event>
 7    1  0.3861961E-015  0.9000768E+02  0.7816164E-02  0.1186339E+00
        -11   -1    0    0    0    0  0.00000000000E+00  0.00000000000E+00  0.45593999997E+02  0.45594000000E+02  0.51100000000E-03 0.  1.
         11   -1    0    0    0    0 -0.00000000000E+00 -0.00000000000E+00 -0.45593999997E+02  0.45594000000E+02  0.51100000000E-03 0. -1.
    9900012    2    1    2    0    0 -0.10987360273E+01  0.36870075749E+00  0.22357467470E+00  0.90007683627E+02  0.89999944250E+02 0.  0.
        -12    1    1    2    0    0  0.10987360273E+01 -0.36870075749E+00 -0.22357467470E+00  0.11803163734E+01  0.00000000000E+00 0.  1.
         11    1    3    3    0    0 -0.76632967058E+01 -0.40602221655E+01 -0.23149172803E+01  0.89760995265E+01  0.51100000000E-03 0. -1.
        -11    1    3    3    0    0  0.39590207946E+02  0.91336602568E+01 -0.15039917781E+02  0.43324443932E+02  0.51100000000E-03 0.  1.
         12    1    3    3    0    0 -0.33025647268E+02 -0.47047373338E+01  0.17578409736E+02  0.37707140168E+02  0.00000000000E+00 0. -1.
</event>
<event>
 7    1  0.3861961E-015  0.9000785E+02  0.7816164E-02  0.1186339E+00
        -11   -1    0    0    0    0  0.00000000000E+00  0.00000000000E+00  0.45593999997E+02  0.45594000000E+02  0.51100000000E-03 0. -1.
         11   -1    0    0    0    0 -0.00000000000E+00 -0.00000000000E+00 -0.45593999997E+02  0.45594000000E+02  0.51100000000E-03 0.  1.
    9900012    2    1    2    0    0  0.37496819639E+00 -0.98497865259E+00 -0.53100239467E+00  0.90007852705E+02  0.90000115561E+02 0.  0.
        -12    1    1    2    0    0 -0.37496819639E+00  0.98497865259E+00  0.53100239467E+00  0.11801472948E+01  0.00000000000E+00 0.  1.
         11    1    3    3    0    0 -0.22917551727E+02  0.62272375680E+01  0.33290639345E+02  0.40893267577E+02  0.51100000000E-03 0. -1.
        -11    1    3    3    0    0  0.61970787004E+01  0.57746799383E+01  0.65935850788E+00  0.84962030762E+01  0.51100000000E-03 0.  1.
        -12    1    3    3    0    0  0.17095441223E+02 -0.12986896159E+02 -0.34481000247E+02  0.40618382052E+02  0.00000000000E+00 0.  1.
</event>
<event>
 7    1  0.3861961E-015  0.9000763E+02  0.7816164E-02  0.1186339E+00
        -11   -1    0    0    0    0  0.00000000000E+00  0.00000000000E+00  0.45593999997E+02  0.45594000000E+02  0.51100000000E-03 0. -1.
         11   -1    0    0    0    0 -0.00000000000E+00 -0.00000000000E+00 -0.45593999997E+02  0.45594000000E+02  0.51100000000E-03 0.  1.
    9900012    2    1    2    0    0 -0.11539680023E+01  0.19974317342E+00  0.14739300343E+00  0.90007633877E+02  0.89999893845E+02 0.  0.
        -12    1    1    2    0    0  0.11539680023E+01 -0.19974317342E+00 -0.14739300343E+00  0.11803661225E+01  0.00000000000E+00 0.  1.
         11    1    3    3    0    0  0.51385333331E+01  0.14181438788E+01 -0.68075895948E+01  0.86463248395E+01  0.51100000000E-03 0. -1.
        -11    1    3    3    0    0 -0.41574279350E+02 -0.67255149747E+01  0.15091471293E+02  0.44737073677E+02  0.51100000000E-03 0.  1.
         12    1    3    3    0    0  0.35281778015E+02  0.55071142693E+01 -0.81364886945E+01  0.36624235361E+02  0.00000000000E+00 0. -1.
</event>
<event>
 7    1  0.3861961E-015  0.9000771E+02  0.7816164E-02  0.1186339E+00
        -11   -1    0    0    0    0  0.00000000000E+00  0.00000000000E+00  0.45593999997E+02  0.45594000000E+02  0.51100000000E-03 0.  1.
         11   -1    0    0    0    0 -0.00000000000E+00 -0.00000000000E+00 -0.45593999997E+02  0.45594000000E+02  0.51100000000E-03 0. -1.
    9900012    2    1    2    0    0  0.10406734022E+01 -0.53042616740E+00  0.16953736077E+00  0.90007705136E+02  0.89999966044E+02 0.  0.
        -12    1    1    2    0    0 -0.10406734022E+01  0.53042616740E+00 -0.16953736077E+00  0.11802948640E+01  0.00000000000E+00 0.  1.
         11    1    3    3    0    0  0.20868456995E+01  0.84589740550E+01 -0.69531781394E+01  0.11147010969E+02  0.51100000000E-03 0. -1.
        -11    1    3    3    0    0 -0.40417306339E+01  0.27067716863E+02  0.26261109685E+02  0.37929444563E+02  0.51100000000E-03 0.  1.
         12    1    3    3    0    0  0.29955583367E+01 -0.36057117085E+02 -0.19138394185E+02  0.40931249605E+02  0.00000000000E+00 0. -1.
</event>
<event>
 7    1  0.3861961E-015  0.9000775E+02  0.7816164E-02  0.1186339E+00
        -11   -1    0    0    0    0  0.00000000000E+00  0.00000000000E+00  0.45593999997E+02  0.45594000000E+02  0.51100000000E-03 0. -1.
         11   -1    0    0    0    0 -0.00000000000E+00 -0.00000000000E+00 -0.45593999997E+02  0.45594000000E+02  0.51100000000E-03 0.  1.
    9900012    2    1    2    0    0 -0.68553144803E+00  0.89133589596E+00 -0.35855452731E+00  0.90007748165E+02  0.90000009640E+02 0.  0.
        -12    1    1    2    0    0  0.68553144803E+00 -0.89133589596E+00  0.35855452731E+00  0.11802518353E+01  0.00000000000E+00 0.  1.
         11    1    3    3    0    0  0.39098230291E+02  0.17626013565E+01  0.19230489975E+00  0.39138412805E+02  0.51100000000E-03 0. -1.
        -11    1    3    3    0    0  0.11636482397E+01 -0.64721634708E+01 -0.63432253817E+01  0.91367108809E+01  0.51100000000E-03 0.  1.
        -12    1    3    3    0    0 -0.40947409979E+02  0.56008980102E+01  0.57923659546E+01  0.41732624479E+02  0.00000000000E+00 0.  1.
</event>
<event>
 7    1  0.3861961E-015  0.9000772E+02  0.7816164E-02  0.1186339E+00
        -11   -1    0    0    0    0  0.00000000000E+00  0.00000000000E+00  0.45593999997E+02  0.45594000000E+02  0.51100000000E-03 0. -1.
         11   -1    0    0    0    0 -0.00000000000E+00 -0.00000000000E+00 -0.45593999997E+02  0.45594000000E+02  0.51100000000E-03 0.  1.
    9900012    2    1    2    0    0 -0.40624206970E+00 -0.10617113527E+01  0.31750230528E+00  0.90007715573E+02  0.89999976618E+02 0.  0.
        -12    1    1    2    0    0  0.40624206970E+00  0.10617113527E+01 -0.31750230528E+00  0.11802844274E+01  0.00000000000E+00 0.  1.
         11    1    3    3    0    0 -0.17587551981E+01  0.60354194913E+01 -0.36289451105E+01  0.72587017543E+01  0.51100000000E-03 0. -1.
        -11    1    3    3    0    0 -0.27015825264E+02  0.53138853789E+01 -0.27289645174E+02  0.38766182769E+02  0.51100000000E-03 0.  1.
         12    1    3    3    0    0  0.28368338392E+02 -0.12411016223E+02  0.31236092590E+02  0.43982831049E+02  0.00000000000E+00 0. -1.
</event>
<event>
 7    1  0.3861961E-015  0.9000766E+02  0.7816164E-02  0.1186339E+00
        -11   -1    0    0    0    0  0.00000000000E+00  0.00000000000E+00  0.45593999997E+02  0.45594000000E+02  0.51100000000E-03 0. -1.
         11   -1    0    0    0    0 -0.00000000000E+00 -0.00000000000E+00 -0.45593999997E+02  0.45594000000E+02  0.51100000000E-03 0.  1.
    9900012    2    1    2    0    0 -0.11054779414E+01 -0.17525525094E+00  0.37471976793E+00  0.90007656496E+02  0.89999916762E+02 0.  0.
        -12    1    1    2    0    0  0.11054779414E+01  0.17525525094E+00 -0.37471976793E+00  0.11803435036E+01  0.00000000000E+00 0.  1.
         11    1    3    3    0    0  0.12001576277E+01  0.74061947671E+01 -0.47819725648E+01  0.88971546649E+01  0.51100000000E-03 0. -1.
        -11    1    3    3    0    0  0.21550452969E+02 -0.27532006909E+02 -0.20730523236E+02  0.40647115783E+02  0.51100000000E-03 0.  1.
         12    1    3    3    0    0 -0.23856088538E+02  0.19950556891E+02  0.25887215569E+02  0.40463386048E+02  0.00000000000E+00 0. -1.
</event>
<event>
 7    1  0.3861961E-015  0.9000774E+02  0.7816164E-02  0.1186339E+00
        -11   -1    0    0    0    0  0.00000000000E+00  0.00000000000E+00  0.45593999997E+02  0.45594000000E+02  0.51100000000E-03 0.  1.
         11   -1    0    0    0    0 -0.00000000000E+00 -0.00000000000E+00 -0.45593999997E+02  0.45594000000E+02  0.51100000000E-03 0. -1.
    9900012    2    1    2    0    0  0.83874475934E+00  0.34511025933E+00 -0.75526621063E+00  0.90007736931E+02  0.89999998259E+02 0.  0.
        -12    1    1    2    0    0 -0.83874475934E+00 -0.34511025933E+00  0.75526621063E+00  0.11802630687E+01  0.00000000000E+00 0.  1.
         11    1    3    3    0    0  0.10334620178E+02  0.35410969131E+02 -0.89509749039E+01  0.37958675701E+02  0.51100000000E-03 0. -1.
        -11    1    3    3    0    0 -0.16585226032E+01  0.73540498559E+01  0.44375440062E+01  0.87478307927E+01  0.51100000000E-03 0.  1.
        -12    1    3    3    0    0 -0.78373528153E+01 -0.42419908727E+02  0.37581646870E+01  0.43301230437E+02  0.00000000000E+00 0.  1.
</event>
<event>
 7    1  0.3861961E-015  0.9000777E+02  0.7816164E-02  0.1186339E+00
        -11   -1    0    0    0    0  0.00000000000E+00  0.00000000000E+00  0.45593999997E+02  0.45594000000E+02  0.51100000000E-03 0.  1.
         11   -1    0    0    0    0 -0.00000000000E+00 -0.00000000000E+00 -0.45593999997E+02  0.45594000000E+02  0.51100000000E-03 0. -1.
    9900012    2    1    2    0    0  0.21732331489E+00 -0.10522872307E+01 -0.48827461558E+00  0.90007766998E+02  0.90000028722E+02 0.  0.
        -12    1    1    2    0    0 -0.21732331489E+00  0.10522872307E+01  0.48827461558E+00  0.11802330021E+01  0.00000000000E+00 0.  1.
         11    1    3    3    0    0 -0.69481190944E+01 -0.10560245808E+02 -0.41106040118E+02  0.43005833150E+02  0.51100000000E-03 0. -1.
        -11    1    3    3    0    0 -0.64983356862E+01  0.40962894115E+01  0.73454755302E+01  0.10628450718E+02  0.51100000000E-03 0.  1.
        -12    1    3    3    0    0  0.13663778095E+02  0.54116691662E+01  0.33272289972E+02  0.36373483130E+02  0.00000000000E+00 0.  1.
</event>
<event>
 7    1  0.3861961E-015  0.9000773E+02  0.7816164E-02  0.1186339E+00
        -11   -1    0    0    0    0  0.00000000000E+00  0.00000000000E+00  0.45593999997E+02  0.45594000000E+02  0.51100000000E-03 0.  1.
         11   -1    0    0    0    0 -0.00000000000E+00 -0.00000000000E+00 -0.45593999997E+02  0.45594000000E+02  0.51100000000E-03 0. -1.
    9900012    2    1    2    0    0  0.70634265815E+00 -0.20936588119E+00 -0.92210286158E+00  0.90007734051E+02  0.89999995341E+02 0.  0.
        -12    1    1    2    0    0 -0.70634265815E+00  0.20936588119E+00  0.92210286158E+00  0.11802659490E+01  0.00000000000E+00 0.  1.
         11    1    3    3    0    0  0.32804527888E+00  0.99085289178E+01 -0.15177271549E+01  0.10029459357E+02  0.51100000000E-03 0. -1.
        -11    1    3    3    0    0  0.33868715615E+02  0.11120150172E+02  0.13734036415E+02  0.38201719775E+02  0.51100000000E-03 0.  1.
         12    1    3    3    0    0 -0.33490418235E+02 -0.21238044971E+02 -0.13138412122E+02  0.41776554919E+02  0.00000000000E+00 0. -1.
</event>
<event>
 7    1  0.3861961E-015  0.9000761E+02  0.7816164E-02  0.1186339E+00
        -11   -1    0    0    0    0  0.00000000000E+00  0.00000000000E+00  0.45593999997E+02  0.45594000000E+02  0.51100000000E-03 0.  1.
         11   -1    0    0    0    0 -0.00000000000E+00 -0.00000000000E+00 -0.45593999997E+02  0.45594000000E+02  0.51100000000E-03 0. -1.
    9900012    2    1    2    0    0 -0.83362493407E+00  0.56050339938E+00  0.61986733010E+00  0.90007605956E+02  0.89999865555E+02 0.  0.
        -12    1    1    2    0    0  0.83362493407E+00 -0.56050339938E+00 -0.61986733010E+00  0.11803940437E+01  0.00000000000E+00 0.  1.
         11    1    3    3    0    0  0.97990794487E+01 -0.32873789806E+02 -0.15700231697E+02  0.37725393170E+02  0.51100000000E-03 0. -1.
        -11    1    3    3    0    0 -0.12854750574E+01 -0.73817413712E+01  0.46316279702E+01  0.88087757214E+01  0.51100000000E-03 0.  1.
        -12    1    3    3    0    0 -0.93472293254E+01  0.40816034576E+02  0.11688471057E+02  0.43473437065E+02  0.00000000000E+00 0.  1.
</event>
<event>
 7    1  0.3861961E-015  0.9000769E+02  0.7816164E-02  0.1186339E+00
        -11   -1    0    0    0    0  0.00000000000E+00  0.00000000000E+00  0.45593999997E+02  0.45594000000E+02  0.51100000000E-03 0.  1.
         11   -1    0    0    0    0 -0.00000000000E+00 -0.00000000000E+00 -0.45593999997E+02  0.45594000000E+02  0.51100000000E-03 0. -1.
    9900012    2    1    2    0    0 -0.93546779767E+00  0.17787644055E+00 -0.69742038132E+00  0.90007688509E+02  0.89999949197E+02 0.  0.
        -12    1    1    2    0    0  0.93546779767E+00 -0.17787644055E+00  0.69742038132E+00  0.11803114915E+01  0.00000000000E+00 0.  1.
         11    1    3    3    0    0  0.19155753161E+01 -0.26587466816E+01  0.76995368327E+01  0.83678689287E+01  0.51100000000E-03 0. -1.
        -11    1    3    3    0    0 -0.34242862345E+01  0.29410907826E+02  0.25142891197E+02  0.38844461811E+02  0.51100000000E-03 0.  1.
         12    1    3    3    0    0  0.57324312067E+00 -0.26574284704E+02 -0.33539848411E+02  0.42795357769E+02  0.00000000000E+00 0. -1.
</event>
<event>
 7    1  0.3861961E-015  0.9000775E+02  0.7816164E-02  0.1186339E+00
        -11   -1    0    0    0    0  0.00000000000E+00  0.00000000000E+00  0.45593999997E+02  0.45594000000E+02  0.51100000000E-03 0.  1.
         11   -1    0    0    0    0 -0.00000000000E+00 -0.00000000000E+00 -0.45593999997E+02  0.45594000000E+02  0.51100000000E-03 0. -1.
    9900012    2    1    2    0    0 -0.71162140060E+00 -0.54616421888E+00 -0.76700567978E+00  0.90007746602E+02  0.90000008057E+02 0.  0.
        -12    1    1    2    0    0  0.71162140060E+00  0.54616421888E+00  0.76700567978E+00  0.11802533985E+01  0.00000000000E+00 0.  1.
         11    1    3    3    0    0  0.41867907431E+02  0.21164902067E+01  0.34184988765E+01  0.42060519947E+02  0.51100000000E-03 0. -1.
        -11    1    3    3    0    0 -0.55301133092E+01 -0.85303700729E+01  0.28842049920E+00  0.10170179617E+02  0.51100000000E-03 0.  1.
        -12    1    3    3    0    0 -0.37049415522E+02  0.58677156473E+01 -0.44739250555E+01  0.37777047037E+02  0.00000000000E+00 0.  1.
</event>
<event>
 7    1  0.3861961E-015  0.9000779E+02  0.7816164E-02  0.1186339E+00
        -11   -1    0    0    0    0  0.00000000000E+00  0.00000000000E+00  0.45593999997E+02  0.45594000000E+02  0.51100000000E-03 0.  1.
         11   -1    0    0    0    0 -0.00000000000E+00 -0.00000000000E+00 -0.45593999997E+02  0.45594000000E+02  0.51100000000E-03 0. -1.
    9900012    2    1    2    0    0  0.88543462454E+00 -0.74729139710E+00  0.22463192313E+00  0.90007788829E+02  0.90000050842E+02 0.  0.
        -12    1    1    2    0    0 -0.88543462454E+00  0.74729139710E+00 -0.22463192313E+00  0.11802111707E+01  0.00000000000E+00 0.  1.
         11    1    3    3    0    0  0.26212201492E+02  0.25643617091E+02 -0.13454932924E+01  0.36694481289E+02  0.51100000000E-03 0. -1.
        -11    1    3    3    0    0 -0.34088812465E+01  0.69187446872E+01 -0.92049654792E+01  0.12009200187E+02  0.51100000000E-03 0.  1.
        -12    1    3    3    0    0 -0.21917885621E+02 -0.33309653175E+02  0.10775090695E+02  0.41304107353E+02  0.00000000000E+00 0.  1.
</event>
<event>
 7    1  0.3861961E-015  0.9000777E+02  0.7816164E-02  0.1186339E+00
        -11   -1    0    0    0    0  0.00000000000E+00  0.00000000000E+00  0.45593999997E+02  0.45594000000E+02  0.51100000000E-03 0. -1.
         11   -1    0    0    0    0 -0.00000000000E+00 -0.00000000000E+00 -0.45593999997E+02  0.45594000000E+02  0.51100000000E-03 0.  1.
    9900012    2    1    2    0    0  0.24888973008E+00 -0.62026827114E+00  0.97276413287E+00  0.90007767445E+02  0.90000029175E+02 0.  0.
        -12    1    1    2    0    0 -0.24888973008E+00  0.62026827114E+00 -0.97276413287E+00  0.11802325551E+01  0.00000000000E+00 0.  1.
         11    1    3    3    0    0 -0.23844139829E+02 -0.31145403123E+02 -0.12905922247E+01  0.39245952256E+02  0.51100000000E-03 0. -1.
        -11    1    3    3    0    0 -0.26612342412E+01 -0.19752843670E+00  0.90732056185E+01  0.94574967949E+01  0.51100000000E-03 0.  1.
        -12    1    3    3    0    0  0.26754263801E+02  0.30722663289E+02 -0.68098492609E+01  0.41304318394E+02  0.00000000000E+00 0.  1.
</event>
<event>
 7    1  0.3861961E-015  0.9000772E+02  0.7816164E-02  0.1186339E+00
        -11   -1    0    0    0    0  0.00000000000E+00  0.00000000000E+00  0.45593999997E+02  0.45594000000E+02  0.51100000000E-03 0. -1.
         11   -1    0    0    0    0 -0.00000000000E+00 -0.00000000000E+00 -0.45593999997E+02  0.45594000000E+02  0.51100000000E-03 0.  1.
    9900012    2    1    2    0    0  0.66326479522E+00 -0.81938062280E-01  0.97284186273E+00  0.90007722353E+02  0.89999983488E+02 0.  0.
        -12    1    1    2    0    0 -0.66326479522E+00  0.81938062280E-01 -0.97284186273E+00  0.11802776472E+01  0.00000000000E+00 0.  1.
         11    1    3    3    0    0 -0.66095231608E+01  0.64978734101E+01 -0.89901462272E-01  0.92691012403E+01  0.51100000000E-03 0. -1.
        -11    1    3    3    0    0 -0.43909854448E+01 -0.41727435638E+02 -0.77608290668E+01  0.42669545418E+02  0.51100000000E-03 0.  1.
         12    1    3    3    0    0  0.11663773401E+02  0.35147624166E+02  0.88235723918E+01  0.38069075694E+02  0.00000000000E+00 0. -1.
</event>
<event>
 7    1  0.3861961E-015  0.9000768E+02  0.7816164E-02  0.1186339E+00
        -11   -1    0    0    0    0  0.00000000000E+00  0.00000000000E+00  0.45593999997E+02  0.45594000000E+02  0.51100000000E-03 0.  1.
         11   -1    0    0    0    0 -0.00000000000E+00 -0.00000000000E+00 -0.45593999997E+02  0.45594000000E+02  0.51100000000E-03 0. -1.
    9900012    2    1    2    0    0 -0.52169862570E+00 -0.37327211194E+00 -0.99078840698E+00  0.90007676657E+02  0.89999937189E+02 0.  0.
        -12    1    1    2    0    0  0.52169862570E+00  0.37327211194E+00  0.99078840698E+00  0.11803233426E+01  0.00000000000E+00 0.  1.
         11    1    3    3    0    0  0.46944012710E+01  0.23745353559E+01  0.65227518171E+01  0.83798635418E+01  0.51100000000E-03 0. -1.
        -11    1    3    3    0    0 -0.12467326437E+02  0.19591515741E+02  0.29652002104E+02  0.37663018288E+02  0.51100000000E-03 0.  1.
         12    1    3    3    0    0  0.72512265401E+01 -0.22339323209E+02 -0.37165542328E+02  0.43964794828E+02  0.00000000000E+00 0. -1.
</event>
<event>
 7    1  0.3861961E-015  0.9000799E+02  0.7816164E-02  0.1186339E+00
        -11   -1    0    0    0    0  0.00000000000E+00  0.00000000000E+00  0.45593999997E+02  0.45594000000E+02  0.51100000000E-03 0.  1.
         11   -1    0    0    0    0 -0.00000000000E+00 -0.00000000000E+00 -0.45593999997E+02  0.45594000000E+02  0.51100000000E-03 0. -1.
    9900012    2    1    2    0    0  0.44268641565E+00  0.68442560909E+00 -0.85323811877E+00  0.90007989422E+02  0.90000254082E+02 0.  0.
        -12    1    1    2    0    0 -0.44268641565E+00 -0.68442560909E+00  0.85323811877E+00  0.11800105780E+01  0.00000000000E+00 0.  1.
         11    1    3    3    0    0  0.24887634334E+01 -0.80402698820E+01  0.35629951717E+01  0.91397384021E+01  0.51100000000E-03 0. -1.
        -11    1    3    3    0    0 -0.10732312927E+02 -0.23994725510E+02  0.24809830917E+02  0.36144945753E+02  0.51100000000E-03 0.  1.
         12    1    3    3    0    0  0.86862359089E+01  0.32719421002E+02 -0.29226064208E+02  0.44723305267E+02  0.00000000000E+00 0. -1.
</event>
<event>
 7    1  0.3861961E-015  0.9000771E+02  0.7816164E-02  0.1186339E+00
        -11   -1    0    0    0    0  0.00000000000E+00  0.00000000000E+00  0.45593999997E+02  0.45594000000E+02  0.51100000000E-03 0.  1.
         11   -1    0    0    0    0 -0.00000000000E+00 -0.00000000000E+00 -0.45593999997E+02  0.45594000000E+02  0.51100000000E-03 0. -1.
    9900012    2    1    2    0    0 -0.10287434079E+01  0.31698417931E+00 -0.48404901044E+00  0.90007705370E+02  0.89999966281E+02 0.  0.
        -12    1    1    2    0    0  0.10287434079E+01 -0.31698417931E+00  0.48404901044E+00  0.11802946301E+01  0.00000000000E+00 0.  1.
         11    1    3    3    0    0 -0.14851851628E+02 -0.22557678814E+01 -0.20977267387E+02  0.25801390133E+02  0.51100000000E-03 0. -1.
        -11    1    3    3    0    0  0.73839600512E+01  0.24965463584E+01 -0.20904677298E+02  0.22310561243E+02  0.51100000000E-03 0.  1.
        -12    1    3    3    0    0  0.64391481691E+01  0.76205702320E-01  0.41397895675E+02  0.41895753994E+02  0.00000000000E+00 0.  1.
</event>
<event>
 7    1  0.3861961E-015  0.9000778E+02  0.7816164E-02  0.1186339E+00
        -11   -1    0    0    0    0  0.00000000000E+00  0.00000000000E+00  0.45593999997E+02  0.45594000000E+02  0.51100000000E-03 0. -1.
         11   -1    0    0    0    0 -0.00000000000E+00 -0.00000000000E+00 -0.45593999997E+02  0.45594000000E+02  0.51100000000E-03 0.  1.
    9900012    2    1    2    0    0  0.10872655905E+01 -0.13640014489E+00  0.43836127893E+00  0.90007783039E+02  0.90000044975E+02 0.  0.
        -12    1    1    2    0    0 -0.10872655905E+01  0.13640014489E+00 -0.43836127893E+00  0.11802169609E+01  0.00000000000E+00 0.  1.
         11    1    3    3    0    0 -0.17116954203E+02 -0.57791897885E+01  0.34103171602E+02  0.38592945850E+02  0.51100000000E-03 0. -1.
        -11    1    3    3    0    0 -0.87363425690E+01 -0.20238713824E+01 -0.20928598346E+01  0.92086806549E+01  0.51100000000E-03 0.  1.
        -12    1    3    3    0    0  0.26940562363E+02  0.76666610260E+01 -0.31571950489E+02  0.42206156534E+02  0.00000000000E+00 0.  1.
</event>
<event>
 7    1  0.3861961E-015  0.9000767E+02  0.7816164E-02  0.1186339E+00
        -11   -1    0    0    0    0  0.00000000000E+00  0.00000000000E+00  0.45593999997E+02  0.45594000000E+02  0.51100000000E-03 0.  1.
         11   -1    0    0    0    0 -0.00000000000E+00 -0.00000000000E+00 -0.45593999997E+02  0.45594000000E+02  0.51100000000E-03 0. -1.
    9900012    2    1    2    0    0 -0.39456411897E+00  0.10842253366E+01 -0.24892662044E+00  0.90007665350E+02  0.89999925732E+02 0.  0.
        -12    1    1    2    0    0  0.39456411897E+00 -0.10842253366E+01  0.24892662044E+00  0.11803346504E+01  0.00000000000E+00 0.  1.
         11    1    3    3    0    0  0.13629410571E+02 -0.58575313413E+01 -0.28090459749E+02  0.31767049518E+02  0.51100000000E-03 0. -1.
        -11    1    3    3    0    0  0.91363815002E+01  0.67937503102E+01 -0.91432758741E+01  0.14602328724E+02  0.51100000000E-03 0.  1.
        -12    1    3    3    0    0 -0.23160356190E+02  0.14800636769E+00  0.36984809002E+02  0.43638287108E+02  0.00000000000E+00 0.  1.
</event>
<event>
 7    1  0.3861961E-015  0.9000766E+02  0.7816164E-02  0.1186339E+00
        -11   -1    0    0    0    0  0.00000000000E+00  0.00000000000E+00  0.45593999997E+02  0.45594000000E+02  0.51100000000E-03 0.  1.
         11   -1    0    0    0    0 -0.00000000000E+00 -0.00000000000E+00 -0.45593999997E+02  0.45594000000E+02  0.51100000000E-03 0. -1.
    9900012    2    1    2    0    0 -0.16844120303E+00  0.10057389360E+01 -0.59441587615E+00  0.90007655355E+02  0.89999915606E+02 0.  0.
        -12    1    1    2    0    0  0.16844120303E+00 -0.10057389360E+01  0.59441587615E+00  0.11803446446E+01  0.00000000000E+00 0.  1.
         11    1    3    3    0    0 -0.55526777290E+01 -0.82635983702E+01 -0.12168685931E+02  0.15722474536E+02  0.51100000000E-03 0. -1.
        -11    1    3    3    0    0  0.17010138865E+02 -0.27105818716E+02  0.16112628310E+02  0.35828578311E+02  0.51100000000E-03 0.  1.
        -12    1    3    3    0    0 -0.11625902339E+02  0.36375156023E+02 -0.45383582549E+01  0.38456602509E+02  0.00000000000E+00 0.  1.
</event>
<event>
 7    1  0.3861961E-015  0.9000771E+02  0.7816164E-02  0.1186339E+00
        -11   -1    0    0    0    0  0.00000000000E+00  0.00000000000E+00  0.45593999997E+02  0.45594000000E+02  0.51100000000E-03 0. -1.
         11   -1    0    0    0    0 -0.00000000000E+00 -0.00000000000E+00 -0.45593999997E+02  0.45594000000E+02  0.51100000000E-03 0.  1.
    9900012    2    1    2    0    0  0.19035775241E+00 -0.30491624035E+00  0.11242193292E+01  0.90007712286E+02  0.89999973288E+02 0.  0.
        -12    1    1    2    0    0 -0.19035775241E+00  0.30491624035E+00 -0.11242193292E+01  0.11802877139E+01  0.00000000000E+00 0.  1.
         11    1    3    3    0    0 -0.32721041063E+02 -0.22645270001E+02 -0.11678049547E+02  0.41471093826E+02  0.51100000000E-03 0. -1.
        -11    1    3    3    0    0  0.60985968468E+01 -0.52328738868E+01  0.11233011505E+00  0.80366952742E+01  0.51100000000E-03 0.  1.
        -12    1    3    3    0    0  0.26812801968E+02  0.27573227647E+02  0.12689938761E+02  0.40499923186E+02  0.00000000000E+00 0.  1.
</event>
<event>
 7    1  0.3861961E-015  0.9000775E+02  0.7816164E-02  0.1186339E+00
        -11   -1    0    0    0    0  0.00000000000E+00  0.00000000000E+00  0.45593999997E+02  0.45594000000E+02  0.51100000000E-03 0. -1.
         11   -1    0    0    0    0 -0.00000000000E+00 -0.00000000000E+00 -0.45593999997E+02  0.45594000000E+02  0.51100000000E-03 0.  1.
    9900012    2    1    2    0    0 -0.90578809868E+00 -0.51184725570E+00  0.55727783963E+00  0.90007746517E+02  0.90000007971E+02 0.  0.
        -12    1    1    2    0    0  0.90578809868E+00  0.51184725570E+00 -0.55727783963E+00  0.11802534827E+01  0.00000000000E+00 0.  1.
         11    1    3    3    0    0 -0.49510564135E+01  0.13415698409E+01 -0.70921672804E+01  0.87528056211E+01  0.51100000000E-03 0. -1.
        -11    1    3    3    0    0 -0.23308048432E+02 -0.29323267585E+02  0.17368828732E+02  0.41289167531E+02  0.51100000000E-03 0.  1.
         12    1    3    3    0    0  0.27353316747E+02  0.27469850489E+02 -0.97193836121E+01  0.39965773366E+02  0.00000000000E+00 0. -1.
</event>
<event>
 7    1  0.3861961E-015  0.9000776E+02  0.7816164E-02  0.1186339E+00
        -11   -1    0    0    0    0  0.00000000000E+00  0.00000000000E+00  0.45593999997E+02  0.45594000000E+02  0.51100000000E-03 0. -1.
         11   -1    0    0    0    0 -0.00000000000E+00 -0.00000000000E+00 -0.45593999997E+02  0.45594000000E+02  0.51100000000E-03 0.  1.
    9900012    2    1    2    0    0  0.72555910279E+00 -0.57550324905E+00 -0.73165794884E+00  0.90007761314E+02  0.90000022964E+02 0.  0.
        -12    1    1    2    0    0 -0.72555910279E+00  0.57550324905E+00  0.73165794884E+00  0.11802386858E+01  0.00000000000E+00 0.  1.
         11    1    3    3    0    0  0.99840791595E+01  0.53150110224E+01  0.39276977304E+02  0.40873122284E+02  0.51100000000E-03 0. -1.
        -11    1    3    3    0    0 -0.47325988342E+01 -0.65125881890E+01  0.78248925109E+00  0.80884847984E+01  0.51100000000E-03 0.  1.
        -12    1    3    3    0    0 -0.45259212225E+01  0.62207391754E+00 -0.40791124504E+02  0.41046154232E+02  0.00000000000E+00 0.  1.
</event>
<event>
 7    1  0.3861961E-015  0.9000767E+02  0.7816164E-02  0.1186339E+00
        -11   -1    0    0    0    0  0.00000000000E+00  0.00000000000E+00  0.45593999997E+02  0.45594000000E+02  0.51100000000E-03 0. -1.
         11   -1    0    0    0    0 -0.00000000000E+00 -0.00000000000E+00 -0.45593999997E+02  0.45594000000E+02  0.51100000000E-03 0.  1.
    9900012    2    1    2    0    0  0.11469215973E+00 -0.21858503619E+00  0.11542280245E+01  0.90007671214E+02  0.89999931674E+02 0.  0.
        -12    1    1    2    0    0 -0.11469215973E+00  0.21858503619E+00 -0.11542280245E+01  0.11803287856E+01  0.00000000000E+00 0.  1.
         11    1    3    3    0    0  0.74031402614E+01 -0.39541809647E+02  0.14376660156E+02  0.42720598701E+02  0.51100000000E-03 0. -1.
        -11    1    3    3    0    0 -0.60765155829E+01  0.58783234420E+01  0.43276098462E+01  0.94977331696E+01  0.51100000000E-03 0.  1.
        -12    1    3    3    0    0 -0.12119325187E+01  0.33444901169E+02 -0.17550041978E+02  0.37789339344E+02  0.00000000000E+00 0.  1.
</event>
<event>
 7    1  0.3861961E-015  0.9000759E+02  0.7816164E-02  0.1186339E+00
        -11   -1    0    0    0    0  0.00000000000E+00  0.00000000000E+00  0.45593999997E+02  0.45594000000E+02  0.51100000000E-03 0.  1.
         11   -1    0    0    0    0 -0.00000000000E+00 -0.00000000000E+00 -0.45593999997E+02  0.45594000000E+02  0.51100000000E-03 0. -1.
    9900012    2    1    2    0    0  0.78646470594E-01  0.86709737588E+00 -0.79707278200E+00  0.90007589840E+02  0.89999849226E+02 0.  0.
        -12    1    1    2    0    0 -0.78646470594E-01 -0.86709737588E+00  0.79707278200E+00  0.11804101602E+01  0.00000000000E+00 0.  1.
         11    1    3    3    0    0  0.99373676072E+01  0.22591162558E+02  0.31934576216E+02  0.40359993298E+02  0.51100000000E-03 0. -1.
        -11    1    3    3    0    0 -0.40549068392E+01 -0.26470123435E+01  0.50065075324E+01  0.69652036406E+01  0.51100000000E-03 0.  1.
        -12    1    3    3    0    0 -0.58038142974E+01 -0.19077052839E+02 -0.37738156531E+02  0.42682392901E+02  0.00000000000E+00 0.  1.
</event>
<event>
 7    1  0.3861961E-015  0.9000759E+02  0.7816164E-02  0.1186339E+00
        -11   -1    0    0    0    0  0.00000000000E+00  0.00000000000E+00  0.45593999997E+02  0.45594000000E+02  0.51100000000E-03 0.  1.
         11   -1    0    0    0    0 -0.00000000000E+00 -0.00000000000E+00 -0.45593999997E+02  0.45594000000E+02  0.51100000000E-03 0. -1.
    9900012    2    1    2    0    0  0.57186148281E+00  0.94532486304E+00  0.41557938641E+00  0.90007588682E+02  0.89999848053E+02 0.  0.
        -12    1    1    2    0    0 -0.57186148281E+00 -0.94532486304E+00 -0.41557938641E+00  0.11804113176E+01  0.00000000000E+00 0.  1.
         11    1    3    3    0    0 -0.95502123764E+01  0.54898427351E+01 -0.36767939417E+02  0.38382630172E+02  0.51100000000E-03 0. -1.
        -11    1    3    3    0    0  0.36125559335E+01  0.84989846805E+01 -0.23163483287E+01  0.95209648047E+01  0.51100000000E-03 0.  1.
        -12    1    3    3    0    0  0.65095179257E+01 -0.13043502553E+02  0.39499867132E+02  0.42103993705E+02  0.00000000000E+00 0.  1.
</event>
<event>
 7    1  0.3861961E-015  0.9000780E+02  0.7816164E-02  0.1186339E+00
        -11   -1    0    0    0    0  0.00000000000E+00  0.00000000000E+00  0.45593999997E+02  0.45594000000E+02  0.51100000000E-03 0.  1.
         11   -1    0    0    0    0 -0.00000000000E+00 -0.00000000000E+00 -0.45593999997E+02  0.45594000000E+02  0.51100000000E-03 0. -1.
    9900012    2    1    2    0    0 -0.11267227748E+01  0.29845332567E+00  0.18520214261E+00  0.90007797292E+02  0.90000059416E+02 0.  0.
        -12    1    1    2    0    0  0.11267227748E+01 -0.29845332567E+00 -0.18520214261E+00  0.11802027083E+01  0.00000000000E+00 0.  1.
         11    1    3    3    0    0 -0.24297617859E+02  0.28263845560E+02 -0.17641789086E+02  0.41236536249E+02  0.51100000000E-03 0. -1.
        -11    1    3    3    0    0 -0.54144971574E+01 -0.35026520322E+01  0.72206006346E+01  0.96810342687E+01  0.51100000000E-03 0.  1.
        -12    1    3    3    0    0  0.28585392242E+02 -0.24462740202E+02  0.10606390594E+02  0.39090226774E+02  0.00000000000E+00 0.  1.
</event>
<event>
 7    1  0.3861961E-015  0.9000772E+02  0.7816164E-02  0.1186339E+00
        -11   -1    0    0    0    0  0.00000000000E+00  0.00000000000E+00  0.45593999997E+02  0.45594000000E+02  0.51100000000E-03 0.  1.
         11   -1    0    0    0    0 -0.00000000000E+00 -0.00000000000E+00 -0.45593999997E+02  0.45594000000E+02  0.51100000000E-03 0. -1.
    9900012    2    1    2    0    0 -0.11779184099E+01 -0.66804336155E-01  0.33123516713E-01  0.90007723860E+02  0.89999985015E+02 0.  0.
        -12    1    1    2    0    0  0.11779184099E+01  0.66804336155E-01 -0.33123516713E-01  0.11802761402E+01  0.00000000000E+00 0.  1.
         11    1    3    3    0    0  0.86758919367E+01  0.14822616735E+02 -0.35464700507E+02  0.39404645032E+02  0.51100000000E-03 0. -1.
        -11    1    3    3    0    0 -0.14388929556E+01 -0.59716793847E+01 -0.52313497154E+01  0.80683571883E+01  0.51100000000E-03 0.  1.
        -12    1    3    3    0    0 -0.84149173910E+01 -0.89177416860E+01  0.40729173739E+02  0.42534721640E+02  0.00000000000E+00 0.  1.
</event>
<event>
 7    1  0.3861961E-015  0.9000818E+02  0.7816164E-02  0.1186338E+00
        -11   -1    0    0    0    0  0.00000000000E+00  0.00000000000E+00  0.45593999997E+02  0.45594000000E+02  0.51100000000E-03 0.  1.
         11   -1    0    0    0    0 -0.00000000000E+00 -0.00000000000E+00 -0.45593999997E+02  0.45594000000E+02  0.51100000000E-03 0. -1.
    9900012    2    1    2    0    0  0.32423134474E+00 -0.11261631606E+01 -0.13637873605E+00  0.90008182816E+02  0.90000450028E+02 0.  0.
        -12    1    1    2    0    0 -0.32423134474E+00  0.11261631606E+01  0.13637873605E+00  0.11798171845E+01  0.00000000000E+00 0.  1.
         11    1    3    3    0    0 -0.61583529575E+01 -0.30354061371E+02  0.20069858396E+02  0.36906551846E+02  0.51100000000E-03 0. -1.
        -11    1    3    3    0    0 -0.53162406728E+01 -0.37028506988E+01  0.64348079450E+01  0.91312798522E+01  0.51100000000E-03 0.  1.
        -12    1    3    3    0    0  0.11798824975E+02  0.32930748910E+02 -0.26641045077E+02  0.43970351117E+02  0.00000000000E+00 0.  1.
</event>
<event>
 7    1  0.4314281E-015  0.9000771E+02  0.7816164E-02  0.1186339E+00
        -11   -1    0    0    0    0  0.00000000000E+00  0.00000000000E+00  0.45593999997E+02  0.45594000000E+02  0.51100000000E-03 0.  1.
         11   -1    0    0    0    0 -0.00000000000E+00 -0.00000000000E+00 -0.45593999997E+02  0.45594000000E+02  0.51100000000E-03 0. -1.
    9900012    2    1    2    0    0  0.35032743317E+00 -0.31417646240E+00 -0.10824275199E+01  0.90007709571E+02  0.89999970538E+02 0.  0.
        -12    1    1    2    0    0 -0.35032743317E+00  0.31417646240E+00  0.10824275199E+01  0.11802904286E+01  0.00000000000E+00 0.  1.
         11    1    3    3    0    0  0.60854556979E+01  0.74947756198E+01  0.12277464376E+01  0.97319984699E+01  0.51100000000E-03 0. -1.
        -11    1    3    3    0    0 -0.13348145078E+02  0.32308857025E+02  0.12071731784E+02  0.36983265510E+02  0.51100000000E-03 0.  1.
         12    1    3    3    0    0  0.76130168133E+01 -0.40117809107E+02 -0.14381905741E+02  0.43292445591E+02  0.00000000000E+00 0. -1.
</event>
<event>
 7    1  0.3861961E-015  0.9000774E+02  0.7816164E-02  0.1186339E+00
        -11   -1    0    0    0    0  0.00000000000E+00  0.00000000000E+00  0.45593999997E+02  0.45594000000E+02  0.51100000000E-03 0. -1.
         11   -1    0    0    0    0 -0.00000000000E+00 -0.00000000000E+00 -0.45593999997E+02  0.45594000000E+02  0.51100000000E-03 0.  1.
    9900012    2    1    2    0    0  0.86004447600E+00  0.63492317632E+00  0.50020501405E+00  0.90007741979E+02  0.90000003373E+02 0.  0.
        -12    1    1    2    0    0 -0.86004447600E+00 -0.63492317632E+00 -0.50020501405E+00  0.11802580212E+01  0.00000000000E+00 0.  1.
         11    1    3    3    0    0 -0.57666951874E+01 -0.28533461883E+01 -0.91596535870E+00  0.64988730296E+01  0.51100000000E-03 0. -1.
        -11    1    3    3    0    0 -0.36913272907E+02  0.12166422583E+02 -0.24545961848E+01  0.38944018769E+02  0.51100000000E-03 0.  1.
         12    1    3    3    0    0  0.43540012570E+02 -0.86781532184E+01  0.38707665575E+01  0.44564850181E+02  0.00000000000E+00 0. -1.
</event>
<event>
 7    1  0.3861961E-015  0.9000775E+02  0.7816164E-02  0.1186339E+00
        -11   -1    0    0    0    0  0.00000000000E+00  0.00000000000E+00  0.45593999997E+02  0.45594000000E+02  0.51100000000E-03 0. -1.
         11   -1    0    0    0    0 -0.00000000000E+00 -0.00000000000E+00 -0.45593999997E+02  0.45594000000E+02  0.51100000000E-03 0.  1.
    9900012    2    1    2    0    0 -0.11560393050E+01  0.34377251817E-02  0.23782725824E+00  0.90007745579E+02  0.90000007021E+02 0.  0.
        -12    1    1    2    0    0  0.11560393050E+01 -0.34377251817E-02 -0.23782725824E+00  0.11802544206E+01  0.00000000000E+00 0.  1.
         11    1    3    3    0    0 -0.24196910574E+02  0.23682592382E+02 -0.27568653405E+02  0.43662184028E+02  0.51100000000E-03 0. -1.
        -11    1    3    3    0    0  0.89742565422E+01 -0.36306511181E+01  0.54149749526E+00  0.96959851395E+01  0.51100000000E-03 0.  1.
        -12    1    3    3    0    0  0.14066614727E+02 -0.20048503539E+02  0.27264983168E+02  0.36649576412E+02  0.00000000000E+00 0.  1.
</event>
<event>
 7    1  0.3861961E-015  0.9000772E+02  0.7816164E-02  0.1186339E+00
        -11   -1    0    0    0    0  0.00000000000E+00  0.00000000000E+00  0.45593999997E+02  0.45594000000E+02  0.51100000000E-03 0.  1.
         11   -1    0    0    0    0 -0.00000000000E+00 -0.00000000000E+00 -0.45593999997E+02  0.45594000000E+02  0.51100000000E-03 0. -1.
    9900012    2    1    2    0    0 -0.39887779863E+00  0.58512666626E+00 -0.94423131115E+00  0.90007724828E+02  0.89999985995E+02 0.  0.
        -12    1    1    2    0    0  0.39887779863E+00 -0.58512666626E+00  0.94423131115E+00  0.11802751725E+01  0.00000000000E+00 0.  1.
         11    1    3    3    0    0  0.34068143363E+02 -0.92951873827E+01  0.14947248851E+02  0.38346566328E+02  0.51100000000E-03 0. -1.
        -11    1    3    3    0    0 -0.20439311110E+01  0.33682544775E+00  0.92869173987E+01  0.95151427105E+01  0.51100000000E-03 0.  1.
        -12    1    3    3    0    0 -0.32423090051E+02  0.95434886012E+01 -0.25178397561E+02  0.42146015789E+02  0.00000000000E+00 0.  1.
</event>
<event>
 7    1  0.3861961E-015  0.9000770E+02  0.7816164E-02  0.1186339E+00
        -11   -1    0    0    0    0  0.00000000000E+00  0.00000000000E+00  0.45593999997E+02  0.45594000000E+02  0.51100000000E-03 0.  1.
         11   -1    0    0    0    0 -0.00000000000E+00 -0.00000000000E+00 -0.45593999997E+02  0.45594000000E+02  0.51100000000E-03 0. -1.
    9900012    2    1    2    0    0  0.94160088990E+00 -0.53630965067E+00  0.46783606634E+00  0.90007698826E+02  0.89999959650E+02 0.  0.
        -12    1    1    2    0    0 -0.94160088990E+00  0.53630965067E+00 -0.46783606634E+00  0.11803011744E+01  0.00000000000E+00 0.  1.
         11    1    3    3    0    0 -0.13811687668E+02  0.26253800668E+02 -0.48102344091E+01  0.30052672445E+02  0.51100000000E-03 0. -1.
        -11    1    3    3    0    0 -0.10492070017E+02 -0.99993512526E+01  0.21222019757E+02  0.25699118302E+02  0.51100000000E-03 0.  1.
        -12    1    3    3    0    0  0.25245358574E+02 -0.16790759066E+02 -0.15943949281E+02  0.34255908078E+02  0.00000000000E+00 0.  1.
</event>
<event>
 7    1  0.3861961E-015  0.9000775E+02  0.7816164E-02  0.1186339E+00
        -11   -1    0    0    0    0  0.00000000000E+00  0.00000000000E+00  0.45593999997E+02  0.45594000000E+02  0.51100000000E-03 0.  1.
         11   -1    0    0    0    0 -0.00000000000E+00 -0.00000000000E+00 -0.45593999997E+02  0.45594000000E+02  0.51100000000E-03 0. -1.
    9900012    2    1    2    0    0  0.21865766491E+00  0.38548874119E+00 -0.10938836760E+01  0.90007748230E+02  0.90000009707E+02 0.  0.
        -12    1    1    2    0    0 -0.21865766491E+00 -0.38548874119E+00  0.10938836760E+01  0.11802517700E+01  0.00000000000E+00 0.  1.
         11    1    3    3    0    0  0.97539764695E+01 -0.45075945268E+01  0.19214904347E+00  0.10746878007E+02  0.51100000000E-03 0. -1.
        -11    1    3    3    0    0 -0.14568162751E+02 -0.23503637485E+02  0.27155257141E+02  0.38756423101E+02  0.51100000000E-03 0.  1.
         12    1    3    3    0    0  0.50328439460E+01  0.28396720753E+02 -0.28441289860E+02  0.40504447122E+02  0.00000000000E+00 0. -1.
</event>
<event>
 7    1  0.3861961E-015  0.9000746E+02  0.7816164E-02  0.1186340E+00
        -11   -1    0    0    0    0  0.00000000000E+00  0.00000000000E+00  0.45593999997E+02  0.45594000000E+02  0.51100000000E-03 0.  1.
         11   -1    0    0    0    0 -0.00000000000E+00 -0.00000000000E+00 -0.45593999997E+02  0.45594000000E+02  0.51100000000E-03 0. -1.
    9900012    2    1    2    0    0  0.22087165769E+00 -0.61561207522E+00  0.98281250955E+00  0.90007456504E+02  0.89999714130E+02 0.  0.
        -12    1    1    2    0    0 -0.22087165769E+00  0.61561207522E+00 -0.98281250955E+00  0.11805434957E+01  0.00000000000E+00 0.  1.
         11    1    3    3    0    0  0.10420604748E+02 -0.18098800542E+01 -0.32716516072E+02  0.34383645724E+02  0.51100000000E-03 0. -1.
        -11    1    3    3    0    0  0.11288929566E+02 -0.48647717871E+01 -0.30122537619E+01  0.12656208290E+02  0.51100000000E-03 0.  1.
         12    1    3    3    0    0 -0.21488662656E+02  0.60590397660E+01  0.36711582343E+02  0.42967602491E+02  0.00000000000E+00 0. -1.
</event>
<event>
 7    1  0.3861961E-015  0.9000770E+02  0.7816164E-02  0.1186339E+00
        -11   -1    0    0    0    0  0.00000000000E+00  0.00000000000E+00  0.45593999997E+02  0.45594000000E+02  0.51100000000E-03 0.  1.
         11   -1    0    0    0    0 -0.00000000000E+00 -0.00000000000E+00 -0.45593999997E+02  0.45594000000E+02  0.51100000000E-03 0. -1.
    9900012    2    1    2    0    0  0.22159393567E-01 -0.73641918076E+00 -0.92211747576E+00  0.90007701357E+02  0.89999962214E+02 0.  0.
        -12    1    1    2    0    0 -0.22159393567E-01  0.73641918076E+00  0.92211747576E+00  0.11802986434E+01  0.00000000000E+00 0.  1.
         11    1    3    3    0    0 -0.34739547750E+00 -0.14034452746E+00  0.79391217556E+01  0.79479578960E+01  0.51100000000E-03 0. -1.
        -11    1    3    3    0    0 -0.38556678634E+02  0.94125393977E+01  0.39250726133E+01  0.39882572139E+02  0.51100000000E-03 0.  1.
         12    1    3    3    0    0  0.38926233505E+02 -0.10008614051E+02 -0.12786311845E+02  0.42177171321E+02  0.00000000000E+00 0. -1.
</event>
<event>
 7    1  0.3861961E-015  0.9000773E+02  0.7816164E-02  0.1186339E+00
        -11   -1    0    0    0    0  0.00000000000E+00  0.00000000000E+00  0.45593999997E+02  0.45594000000E+02  0.51100000000E-03 0. -1.
         11   -1    0    0    0    0 -0.00000000000E+00 -0.00000000000E+00 -0.45593999997E+02  0.45594000000E+02  0.51100000000E-03 0.  1.
    9900012    2    1    2    0    0 -0.96825870272E+00  0.24433150314E+00  0.62913277017E+00  0.90007732725E+02  0.89999993997E+02 0.  0.
        -12    1    1    2    0    0  0.96825870272E+00 -0.24433150314E+00 -0.62913277017E+00  0.11802672754E+01  0.00000000000E+00 0.  1.
         11    1    3    3    0    0  0.55230452282E-01  0.40567391598E+02 -0.52315590003E+01  0.40903368092E+02  0.51100000000E-03 0. -1.
        -11    1    3    3    0    0  0.32750046891E+01 -0.34551202745E+00  0.81917037357E+01  0.88288756152E+01  0.51100000000E-03 0.  1.
        -12    1    3    3    0    0 -0.42984938441E+01 -0.39977548067E+02 -0.23310119652E+01  0.40275489017E+02  0.00000000000E+00 0.  1.
</event>
<event>
 7    1  0.3861961E-015  0.9000785E+02  0.7816164E-02  0.1186339E+00
        -11   -1    0    0    0    0  0.00000000000E+00  0.00000000000E+00  0.45593999997E+02  0.45594000000E+02  0.51100000000E-03 0. -1.
         11   -1    0    0    0    0 -0.00000000000E+00 -0.00000000000E+00 -0.45593999997E+02  0.45594000000E+02  0.51100000000E-03 0.  1.
    9900012    2    1    2    0    0  0.10107039366E+01  0.80648836326E-01 -0.60393245480E+00  0.90007847005E+02  0.90000109785E+02 0.  0.
        -12    1    1    2    0    0 -0.10107039366E+01 -0.80648836326E-01  0.60393245480E+00  0.11801529953E+01  0.00000000000E+00 0.  1.
         11    1    3    3    0    0  0.39599766225E+02  0.65192704261E+01  0.46309508687E+01  0.40399109869E+02  0.51100000000E-03 0. -1.
        -11    1    3    3    0    0  0.44642172616E+00 -0.80367646487E+01  0.46682995229E+01  0.93049394986E+01  0.51100000000E-03 0.  1.
        -12    1    3    3    0    0 -0.39035484015E+02  0.15981430589E+01 -0.99031828464E+01  0.40303797637E+02  0.00000000000E+00 0.  1.
</event>
<event>
 7    1  0.3876677E-015  0.9000827E+02  0.7816164E-02  0.1186338E+00
        -11   -1    0    0    0    0  0.00000000000E+00  0.00000000000E+00  0.45593999997E+02  0.45594000000E+02  0.51100000000E-03 0. -1.
         11   -1    0    0    0    0 -0.00000000000E+00 -0.00000000000E+00 -0.45593999997E+02  0.45594000000E+02  0.51100000000E-03 0.  1.
    9900012    2    1    2    0    0  0.56854304531E+00 -0.48673991177E+00  0.91192234871E+00  0.90008271512E+02  0.90000539894E+02 0.  0.
        -12    1    1    2    0    0 -0.56854304531E+00  0.48673991177E+00 -0.91192234871E+00  0.11797284883E+01  0.00000000000E+00 0.  1.
         11    1    3    3    0    0  0.75888096553E+01 -0.60679966899E+01 -0.90670204081E+00  0.97587255657E+01  0.51100000000E-03 0. -1.
        -11    1    3    3    0    0  0.29210016926E+01 -0.35267863507E+02 -0.96332360569E+01  0.36676336846E+02  0.51100000000E-03 0.  1.
         12    1    3    3    0    0 -0.99412683026E+01  0.40849120286E+02  0.11451860446E+02  0.43573209100E+02  0.00000000000E+00 0. -1.
</event>
<event>
 7    1  0.3861961E-015  0.9000770E+02  0.7816164E-02  0.1186339E+00
        -11   -1    0    0    0    0  0.00000000000E+00  0.00000000000E+00  0.45593999997E+02  0.45594000000E+02  0.51100000000E-03 0. -1.
         11   -1    0    0    0    0 -0.00000000000E+00 -0.00000000000E+00 -0.45593999997E+02  0.45594000000E+02  0.51100000000E-03 0.  1.
    9900012    2    1    2    0    0  0.95070903378E+00 -0.23075915703E+00  0.66031578539E+00  0.90007697330E+02  0.89999958135E+02 0.  0.
        -12    1    1    2    0    0 -0.95070903378E+00  0.23075915703E+00 -0.66031578539E+00  0.11803026696E+01  0.00000000000E+00 0.  1.
         11    1    3    3    0    0 -0.78547218866E+01 -0.17781370876E+02  0.37255762953E+02  0.42022204602E+02  0.51100000000E-03 0. -1.
        -11    1    3    3    0    0 -0.58225032602E+01 -0.22725150322E+01 -0.94234291366E+01  0.11307824094E+02  0.51100000000E-03 0.  1.
        -12    1    3    3    0    0  0.14627934181E+02  0.19823126751E+02 -0.27172018031E+02  0.36677668634E+02  0.00000000000E+00 0.  1.
</event>
<event>
 7    1  0.3861961E-015  0.9000783E+02  0.7816164E-02  0.1186339E+00
        -11   -1    0    0    0    0  0.00000000000E+00  0.00000000000E+00  0.45593999997E+02  0.45594000000E+02  0.51100000000E-03 0.  1.
         11   -1    0    0    0    0 -0.00000000000E+00 -0.00000000000E+00 -0.45593999997E+02  0.45594000000E+02  0.51100000000E-03 0. -1.
    9900012    2    1    2    0    0 -0.10192958062E+01  0.20915073392E-01 -0.59448251452E+00  0.90007825928E+02  0.90000088430E+02 0.  0.
        -12    1    1    2    0    0  0.10192958062E+01 -0.20915073392E-01  0.59448251452E+00  0.11801740723E+01  0.00000000000E+00 0.  1.
         11    1    3    3    0    0 -0.24712257258E+02 -0.25893595977E+02 -0.14688064906E+02  0.38689962811E+02  0.51100000000E-03 0. -1.
        -11    1    3    3    0    0  0.56196308490E+01 -0.85300422708E+01  0.49904002407E+01  0.11368639622E+02  0.51100000000E-03 0.  1.
        -12    1    3    3    0    0  0.18073330603E+02  0.34444553321E+02  0.91031821511E+01  0.39949223495E+02  0.00000000000E+00 0.  1.
</event>
<event>
 7    1  0.3861961E-015  0.9000735E+02  0.7816164E-02  0.1186340E+00
        -11   -1    0    0    0    0  0.00000000000E+00  0.00000000000E+00  0.45593999997E+02  0.45594000000E+02  0.51100000000E-03 0. -1.
         11   -1    0    0    0    0 -0.00000000000E+00 -0.00000000000E+00 -0.45593999997E+02  0.45594000000E+02  0.51100000000E-03 0.  1.
    9900012    2    1    2    0    0  0.31754341687E+00  0.10922387155E+01  0.31642450438E+00  0.90007346071E+02  0.89999602238E+02 0.  0.
        -12    1    1    2    0    0 -0.31754341687E+00 -0.10922387155E+01 -0.31642450438E+00  0.11806539290E+01  0.00000000000E+00 0.  1.
         11    1    3    3    0    0  0.84865997400E+01  0.36419567280E+02 -0.58590633318E+01  0.37851497717E+02  0.51100000000E-03 0. -1.
        -11    1    3    3    0    0 -0.25216532164E+01  0.62502730722E+01  0.76182738296E+01  0.10171663818E+02  0.51100000000E-03 0.  1.
        -12    1    3    3    0    0 -0.56474031067E+01 -0.41577601637E+02 -0.14427859934E+01  0.41984184536E+02  0.00000000000E+00 0.  1.
</event>
<event>
 7    1  0.3861961E-015  0.9000761E+02  0.7816164E-02  0.1186339E+00
        -11   -1    0    0    0    0  0.00000000000E+00  0.00000000000E+00  0.45593999997E+02  0.45594000000E+02  0.51100000000E-03 0. -1.
         11   -1    0    0    0    0 -0.00000000000E+00 -0.00000000000E+00 -0.45593999997E+02  0.45594000000E+02  0.51100000000E-03 0.  1.
    9900012    2    1    2    0    0  0.64341031360E+00 -0.71141239273E+00  0.68792588332E+00  0.90007607504E+02  0.89999867123E+02 0.  0.
        -12    1    1    2    0    0 -0.64341031360E+00  0.71141239273E+00 -0.68792588332E+00  0.11803924962E+01  0.00000000000E+00 0.  1.
         11    1    3    3    0    0 -0.16602663770E+02  0.10635923731E+01 -0.15464410092E+02  0.22714040872E+02  0.51100000000E-03 0.  1.
        -11    1    3    3    0    0  0.27999375517E+02  0.22358495470E+02  0.19278958398E+02  0.40688396211E+02  0.51100000000E-03 0. -1.
         12    1    3    3    0    0 -0.10753301434E+02 -0.24133500236E+02 -0.31266224219E+01  0.26605170421E+02  0.00000000000E+00 0. -1.
</event>
<event>
 7    1  0.3861961E-015  0.9000804E+02  0.7816164E-02  0.1186338E+00
        -11   -1    0    0    0    0  0.00000000000E+00  0.00000000000E+00  0.45593999997E+02  0.45594000000E+02  0.51100000000E-03 0.  1.
         11   -1    0    0    0    0 -0.00000000000E+00 -0.00000000000E+00 -0.45593999997E+02  0.45594000000E+02  0.51100000000E-03 0. -1.
    9900012    2    1    2    0    0 -0.35518166423E+00  0.44877666260E+00 -0.10318667065E+01  0.90008040930E+02  0.90000306270E+02 0.  0.
        -12    1    1    2    0    0  0.35518166423E+00 -0.44877666260E+00  0.10318667065E+01  0.11799590702E+01  0.00000000000E+00 0.  1.
         11    1    3    3    0    0 -0.24241983907E+01  0.25822237818E+02 -0.29889896674E+02  0.39573610237E+02  0.51100000000E-03 0. -1.
        -11    1    3    3    0    0 -0.14923518422E+01 -0.41890868163E+01 -0.71999454042E+01  0.84625514155E+01  0.51100000000E-03 0.  1.
        -12    1    3    3    0    0  0.35613685687E+01 -0.21184374339E+02  0.36057975371E+02  0.41971879278E+02  0.00000000000E+00 0.  1.
</event>
<event>
 7    1  0.4066327E-015  0.9000770E+02  0.7816164E-02  0.1186339E+00
        -11   -1    0    0    0    0  0.00000000000E+00  0.00000000000E+00  0.45593999997E+02  0.45594000000E+02  0.51100000000E-03 0. -1.
         11   -1    0    0    0    0 -0.00000000000E+00 -0.00000000000E+00 -0.45593999997E+02  0.45594000000E+02  0.51100000000E-03 0.  1.
    9900012    2    1    2    0    0  0.82425625442E+00  0.59106526592E+00  0.60361700731E+00  0.90007699185E+02  0.89999960015E+02 0.  0.
        -12    1    1    2    0    0 -0.82425625442E+00 -0.59106526592E+00 -0.60361700731E+00  0.11803008146E+01  0.00000000000E+00 0.  1.
         11    1    3    3    0    0 -0.44773517906E+01  0.70107039186E+01  0.48247937300E+01  0.96164069844E+01  0.51100000000E-03 0. -1.
        -11    1    3    3    0    0  0.67847720180E+01  0.15126509997E+02 -0.37338817988E+02  0.40853785198E+02  0.51100000000E-03 0.  1.
         12    1    3    3    0    0 -0.14831639730E+01 -0.21546148649E+02  0.33117641266E+02  0.39537507003E+02  0.00000000000E+00 0. -1.
</event>
<event>
 7    1  0.3861961E-015  0.9000773E+02  0.7816164E-02  0.1186339E+00
        -11   -1    0    0    0    0  0.00000000000E+00  0.00000000000E+00  0.45593999997E+02  0.45594000000E+02  0.51100000000E-03 0. -1.
         11   -1    0    0    0    0 -0.00000000000E+00 -0.00000000000E+00 -0.45593999997E+02  0.45594000000E+02  0.51100000000E-03 0.  1.
    9900012    2    1    2    0    0 -0.93506720286E+00  0.69144603641E+00  0.20144564663E+00  0.90007733656E+02  0.89999994940E+02 0.  0.
        -12    1    1    2    0    0  0.93506720286E+00 -0.69144603641E+00 -0.20144564663E+00  0.11802663444E+01  0.00000000000E+00 0.  1.
         11    1    3    3    0    0  0.13340225009E+02 -0.44314319646E+01  0.34103508982E+02  0.36886969484E+02  0.51100000000E-03 0. -1.
        -11    1    3    3    0    0 -0.85721421788E+01 -0.12693759725E+01  0.71189281763E+01  0.11214815002E+02  0.51100000000E-03 0.  1.
        -12    1    3    3    0    0 -0.57031500328E+01  0.63922539734E+01 -0.41020991512E+02  0.41905949169E+02  0.00000000000E+00 0.  1.
</event>
<event>
 7    1  0.3861961E-015  0.9000780E+02  0.7816164E-02  0.1186339E+00
        -11   -1    0    0    0    0  0.00000000000E+00  0.00000000000E+00  0.45593999997E+02  0.45594000000E+02  0.51100000000E-03 0.  1.
         11   -1    0    0    0    0 -0.00000000000E+00 -0.00000000000E+00 -0.45593999997E+02  0.45594000000E+02  0.51100000000E-03 0. -1.
    9900012    2    1    2    0    0  0.71787603249E+00 -0.82320527876E+00 -0.44706296513E+00  0.90007797380E+02  0.90000059506E+02 0.  0.
        -12    1    1    2    0    0 -0.71787603249E+00  0.82320527876E+00  0.44706296513E+00  0.11802026198E+01  0.00000000000E+00 0.  1.
         11    1    3    3    0    0 -0.48303627724E+01 -0.74207652897E+01 -0.25570869907E+01  0.92162278692E+01  0.51100000000E-03 0. -1.
        -11    1    3    3    0    0 -0.20020214829E+02 -0.86942583659E+01 -0.29928255071E+02  0.37041862564E+02  0.51100000000E-03 0.  1.
         12    1    3    3    0    0  0.25568453634E+02  0.15291818377E+02  0.32038279097E+02  0.43749706947E+02  0.00000000000E+00 0. -1.
</event>
<event>
 7    1  0.3861961E-015  0.9000777E+02  0.7816164E-02  0.1186339E+00
        -11   -1    0    0    0    0  0.00000000000E+00  0.00000000000E+00  0.45593999997E+02  0.45594000000E+02  0.51100000000E-03 0.  1.
         11   -1    0    0    0    0 -0.00000000000E+00 -0.00000000000E+00 -0.45593999997E+02  0.45594000000E+02  0.51100000000E-03 0. -1.
    9900012    2    1    2    0    0 -0.71231887408E+00  0.86609271902E+00 -0.36799770364E+00  0.90007772443E+02  0.90000034239E+02 0.  0.
        -12    1    1    2    0    0  0.71231887408E+00 -0.86609271902E+00  0.36799770364E+00  0.11802275570E+01  0.00000000000E+00 0.  1.
         11    1    3    3    0    0 -0.12617209051E+02  0.31624061412E+02 -0.20890950091E+02  0.39946301712E+02  0.51100000000E-03 0. -1.
        -11    1    3    3    0    0 -0.87934431811E+01 -0.44309501525E+01 -0.15277104662E+01  0.99645301828E+01  0.51100000000E-03 0.  1.
        -12    1    3    3    0    0  0.20698333358E+02 -0.26327018541E+02  0.22050662854E+02  0.40096940549E+02  0.00000000000E+00 0.  1.
</event>
<event>
 7    1  0.3861961E-015  0.9000772E+02  0.7816164E-02  0.1186339E+00
        -11   -1    0    0    0    0  0.00000000000E+00  0.00000000000E+00  0.45593999997E+02  0.45594000000E+02  0.51100000000E-03 0.  1.
         11   -1    0    0    0    0 -0.00000000000E+00 -0.00000000000E+00 -0.45593999997E+02  0.45594000000E+02  0.51100000000E-03 0. -1.
    9900012    2    1    2    0    0 -0.72770439914E+00 -0.85267616918E+00 -0.36940664190E+00  0.90007715454E+02  0.89999976498E+02 0.  0.
        -12    1    1    2    0    0  0.72770439914E+00  0.85267616918E+00  0.36940664190E+00  0.11802845458E+01  0.00000000000E+00 0.  1.
         11    1    3    3    0    0  0.70366358405E+01 -0.97731241008E+00  0.34267540553E+01  0.78874601181E+01  0.51100000000E-03 0. -1.
        -11    1    3    3    0    0  0.28972834287E+02  0.24351517964E+02 -0.44572619753E+01  0.38108906287E+02  0.51100000000E-03 0.  1.
         12    1    3    3    0    0 -0.36737174527E+02 -0.24226881723E+02  0.66110127802E+00  0.44011349049E+02  0.00000000000E+00 0. -1.
</event>
<event>
 7    1  0.3861961E-015  0.9000776E+02  0.7816164E-02  0.1186339E+00
        -11   -1    0    0    0    0  0.00000000000E+00  0.00000000000E+00  0.45593999997E+02  0.45594000000E+02  0.51100000000E-03 0.  1.
         11   -1    0    0    0    0 -0.00000000000E+00 -0.00000000000E+00 -0.45593999997E+02  0.45594000000E+02  0.51100000000E-03 0. -1.
    9900012    2    1    2    0    0 -0.69526110926E+00 -0.73950037774E+00  0.60226270397E+00  0.90007758845E+02  0.90000020462E+02 0.  0.
        -12    1    1    2    0    0  0.69526110926E+00  0.73950037774E+00 -0.60226270397E+00  0.11802411547E+01  0.00000000000E+00 0.  1.
         11    1    3    3    0    0  0.59552754112E+01 -0.12428833880E+01  0.59359325806E+01  0.84997270663E+01  0.51100000000E-03 0. -1.
        -11    1    3    3    0    0  0.67615098067E+01  0.37135034280E+02  0.10850662085E+02  0.39274236514E+02  0.51100000000E-03 0.  1.
         12    1    3    3    0    0 -0.13412046327E+02 -0.36631651270E+02 -0.16184331962E+02  0.42233795265E+02  0.00000000000E+00 0. -1.
</event>
<event>
 7    1  0.4049819E-015  0.9000775E+02  0.7816164E-02  0.1186339E+00
        -11   -1    0    0    0    0  0.00000000000E+00  0.00000000000E+00  0.45593999997E+02  0.45594000000E+02  0.51100000000E-03 0.  1.
         11   -1    0    0    0    0 -0.00000000000E+00 -0.00000000000E+00 -0.45593999997E+02  0.45594000000E+02  0.51100000000E-03 0. -1.
    9900012    2    1    2    0    0 -0.96944157746E+00 -0.44424665721E+00  0.50578873344E+00  0.90007748202E+02  0.90000009678E+02 0.  0.
        -12    1    1    2    0    0  0.96944157746E+00  0.44424665721E+00 -0.50578873344E+00  0.11802517983E+01  0.00000000000E+00 0.  1.
         11    1    3    3    0    0 -0.14484419834E+01 -0.40128046670E+01 -0.78285031144E+01  0.89154947562E+01  0.51100000000E-03 0. -1.
        -11    1    3    3    0    0  0.31311253150E+02 -0.10361179565E+02 -0.18584743534E+02  0.37856852857E+02  0.51100000000E-03 0.  1.
         12    1    3    3    0    0 -0.30832252744E+02  0.13929737574E+02  0.26919035381E+02  0.43235400588E+02  0.00000000000E+00 0. -1.
</event>
<event>
 7    1  0.3861961E-015  0.9000722E+02  0.7816164E-02  0.1186340E+00
        -11   -1    0    0    0    0  0.00000000000E+00  0.00000000000E+00  0.45593999997E+02  0.45594000000E+02  0.51100000000E-03 0. -1.
         11   -1    0    0    0    0 -0.00000000000E+00 -0.00000000000E+00 -0.45593999997E+02  0.45594000000E+02  0.51100000000E-03 0.  1.
    9900012    2    1    2    0    0 -0.89975212504E+00  0.69862410678E+00  0.31081614707E+00  0.90007222203E+02  0.89999476734E+02 0.  0.
        -12    1    1    2    0    0  0.89975212504E+00 -0.69862410678E+00 -0.31081614707E+00  0.11807777972E+01  0.00000000000E+00 0.  1.
         11    1    3    3    0    0 -0.20446105368E+02  0.32465472157E+02  0.18320768678E+02  0.42517063308E+02  0.51100000000E-03 0. -1.
        -11    1    3    3    0    0  0.88037053585E+01 -0.27846468807E+01  0.34550046974E+01  0.98588307628E+01  0.51100000000E-03 0.  1.
        -12    1    3    3    0    0  0.10742647884E+02 -0.28982201170E+02 -0.21464957228E+02  0.37631328132E+02  0.00000000000E+00 0.  1.
</event>
<event>
 7    1  0.3861961E-015  0.9000772E+02  0.7816164E-02  0.1186339E+00
        -11   -1    0    0    0    0  0.00000000000E+00  0.00000000000E+00  0.45593999997E+02  0.45594000000E+02  0.51100000000E-03 0.  1.
         11   -1    0    0    0    0 -0.00000000000E+00 -0.00000000000E+00 -0.45593999997E+02  0.45594000000E+02  0.51100000000E-03 0. -1.
    9900012    2    1    2    0    0 -0.97772511969E+00 -0.53299401072E+00 -0.39118244748E+00  0.90007723451E+02  0.89999984600E+02 0.  0.
        -12    1    1    2    0    0  0.97772511969E+00  0.53299401072E+00  0.39118244748E+00  0.11802765491E+01  0.00000000000E+00 0.  1.
         11    1    3    3    0    0 -0.10123605222E+02  0.20161166349E+01  0.32028922825E+01  0.10807896567E+02  0.51100000000E-03 0. -1.
        -11    1    3    3    0    0 -0.58357466224E+00  0.32370213675E+02  0.17962980955E+02  0.37024856216E+02  0.51100000000E-03 0.  1.
         12    1    3    3    0    0  0.97294547641E+01 -0.34919324321E+02 -0.21557055685E+02  0.42174970668E+02  0.00000000000E+00 0. -1.
</event>
<event>
 7    1  0.3861961E-015  0.9000793E+02  0.7816164E-02  0.1186339E+00
        -11   -1    0    0    0    0  0.00000000000E+00  0.00000000000E+00  0.45593999997E+02  0.45594000000E+02  0.51100000000E-03 0.  1.
         11   -1    0    0    0    0 -0.00000000000E+00 -0.00000000000E+00 -0.45593999997E+02  0.45594000000E+02  0.51100000000E-03 0. -1.
    9900012    2    1    2    0    0 -0.95489908860E+00  0.66122325320E+00  0.20862368530E+00  0.90007926993E+02  0.90000190829E+02 0.  0.
        -12    1    1    2    0    0  0.95489908860E+00 -0.66122325320E+00 -0.20862368530E+00  0.11800730071E+01  0.00000000000E+00 0.  1.
         11    1    3    3    0    0 -0.26735345468E+02  0.14080995943E+02 -0.21240585151E+02  0.36935289384E+02  0.51100000000E-03 0. -1.
        -11    1    3    3    0    0 -0.46564461788E+01  0.60775453652E+01 -0.42170521050E+01  0.87408567887E+01  0.51100000000E-03 0.  1.
        -12    1    3    3    0    0  0.30436892558E+02 -0.19497318055E+02  0.25666260942E+02  0.44331780820E+02  0.00000000000E+00 0.  1.
</event>
<event>
 7    1  0.3861961E-015  0.9000772E+02  0.7816164E-02  0.1186339E+00
        -11   -1    0    0    0    0  0.00000000000E+00  0.00000000000E+00  0.45593999997E+02  0.45594000000E+02  0.51100000000E-03 0.  1.
         11   -1    0    0    0    0 -0.00000000000E+00 -0.00000000000E+00 -0.45593999997E+02  0.45594000000E+02  0.51100000000E-03 0. -1.
    9900012    2    1    2    0    0 -0.19406937262E+00 -0.65760357024E+00 -0.96070819689E+00  0.90007717993E+02  0.89999979070E+02 0.  0.
        -12    1    1    2    0    0  0.19406937262E+00  0.65760357024E+00  0.96070819689E+00  0.11802820072E+01  0.00000000000E+00 0.  1.
         11    1    3    3    0    0 -0.35655130194E+02  0.85492443377E+01 -0.12137717460E+02  0.38622559125E+02  0.51100000000E-03 0. -1.
        -11    1    3    3    0    0 -0.55648332182E+01  0.54721850408E+00  0.70731589073E+01  0.90164512990E+01  0.51100000000E-03 0.  1.
        -12    1    3    3    0    0  0.41025894040E+02 -0.97540664120E+01  0.41038503562E+01  0.42368707569E+02  0.00000000000E+00 0.  1.
</event>
<event>
 7    1  0.3861961E-015  0.9000786E+02  0.7816164E-02  0.1186339E+00
        -11   -1    0    0    0    0  0.00000000000E+00  0.00000000000E+00  0.45593999997E+02  0.45594000000E+02  0.51100000000E-03 0.  1.
         11   -1    0    0    0    0 -0.00000000000E+00 -0.00000000000E+00 -0.45593999997E+02  0.45594000000E+02  0.51100000000E-03 0. -1.
    9900012    2    1    2    0    0 -0.10456523678E+01  0.36266686528E+00  0.40965039876E+00  0.90007860356E+02  0.90000123313E+02 0.  0.
        -12    1    1    2    0    0  0.10456523678E+01 -0.36266686528E+00 -0.40965039876E+00  0.11801396437E+01  0.00000000000E+00 0.  1.
         11    1    3    3    0    0  0.16188217981E+02 -0.22559906928E+02 -0.28315322053E+02  0.39658104660E+02  0.51100000000E-03 0. -1.
        -11    1    3    3    0    0  0.72816930893E+01  0.82933003783E+01  0.19449598214E+01  0.11206460386E+02  0.51100000000E-03 0.  1.
        -12    1    3    3    0    0 -0.24515563438E+02  0.14629273415E+02  0.26780012630E+02  0.39143295311E+02  0.00000000000E+00 0.  1.
</event>
<event>
 7    1  0.3861961E-015  0.9000773E+02  0.7816164E-02  0.1186339E+00
        -11   -1    0    0    0    0  0.00000000000E+00  0.00000000000E+00  0.45593999997E+02  0.45594000000E+02  0.51100000000E-03 0.  1.
         11   -1    0    0    0    0 -0.00000000000E+00 -0.00000000000E+00 -0.45593999997E+02  0.45594000000E+02  0.51100000000E-03 0. -1.
    9900012    2    1    2    0    0  0.53019877823E+00 -0.95143117539E+00 -0.45464080985E+00  0.90007732957E+02  0.89999994232E+02 0.  0.
        -12    1    1    2    0    0 -0.53019877823E+00  0.95143117539E+00  0.45464080985E+00  0.11802670426E+01  0.00000000000E+00 0.  1.
         11    1    3    3    0    0 -0.91329873812E+01 -0.20221726559E+02 -0.29813250659E+02  0.37163955638E+02  0.51100000000E-03 0. -1.
        -11    1    3    3    0    0 -0.21703387920E+01  0.54386407320E+01 -0.87974685143E+01  0.10568095193E+02  0.51100000000E-03 0.  1.
        -12    1    3    3    0    0  0.11833524951E+02  0.13831654652E+02  0.38156078363E+02  0.42275682127E+02  0.00000000000E+00 0.  1.
</event>
<event>
 7    1  0.3861961E-015  0.9000761E+02  0.7816164E-02  0.1186339E+00
        -11   -1    0    0    0    0  0.00000000000E+00  0.00000000000E+00  0.45593999997E+02  0.45594000000E+02  0.51100000000E-03 0.  1.
         11   -1    0    0    0    0 -0.00000000000E+00 -0.00000000000E+00 -0.45593999997E+02  0.45594000000E+02  0.51100000000E-03 0. -1.
    9900012    2    1    2    0    0 -0.43222169372E+00  0.68980860517E-01 -0.10962435765E+01  0.90007608569E+02  0.89999868202E+02 0.  0.
        -12    1    1    2    0    0  0.43222169372E+00 -0.68980860517E-01  0.10962435765E+01  0.11803914311E+01  0.00000000000E+00 0.  1.
         11    1    3    3    0    0  0.31766300347E+02  0.53663487906E+01 -0.20540382573E+02  0.38207366484E+02  0.51100000000E-03 0. -1.
        -11    1    3    3    0    0  0.74884735163E+01 -0.57884875963E+00  0.60648566852E+01  0.96537447845E+01  0.51100000000E-03 0.  1.
        -12    1    3    3    0    0 -0.39686995557E+02 -0.47185191704E+01  0.13379282312E+02  0.42146497301E+02  0.00000000000E+00 0.  1.
</event>
<event>
 7    1  0.3861961E-015  0.9000769E+02  0.7816164E-02  0.1186339E+00
        -11   -1    0    0    0    0  0.00000000000E+00  0.00000000000E+00  0.45593999997E+02  0.45594000000E+02  0.51100000000E-03 0.  1.
         11   -1    0    0    0    0 -0.00000000000E+00 -0.00000000000E+00 -0.45593999997E+02  0.45594000000E+02  0.51100000000E-03 0. -1.
    9900012    2    1    2    0    0  0.48964064110E+00  0.80581869179E+00 -0.70995243087E+00  0.90007693186E+02  0.89999953936E+02 0.  0.
        -12    1    1    2    0    0 -0.48964064110E+00 -0.80581869179E+00  0.70995243087E+00  0.11803068142E+01  0.00000000000E+00 0.  1.
         11    1    3    3    0    0  0.82685186275E+01  0.18300141826E+01 -0.10721097872E+01  0.85362035975E+01  0.51100000000E-03 0. -1.
        -11    1    3    3    0    0  0.27817455726E+02 -0.24191386643E+02  0.94099009012E+01  0.38047079599E+02  0.51100000000E-03 0.  1.
         12    1    3    3    0    0 -0.35596333713E+02  0.23167191152E+02 -0.90477435449E+01  0.43424409989E+02  0.00000000000E+00 0. -1.
</event>
<event>
 7    1  0.3861961E-015  0.9000743E+02  0.7816164E-02  0.1186340E+00
        -11   -1    0    0    0    0  0.00000000000E+00  0.00000000000E+00  0.45593999997E+02  0.45594000000E+02  0.51100000000E-03 0.  1.
         11   -1    0    0    0    0 -0.00000000000E+00 -0.00000000000E+00 -0.45593999997E+02  0.45594000000E+02  0.51100000000E-03 0. -1.
    9900012    2    1    2    0    0 -0.15970460405E+00 -0.19459762637E+00 -0.11534157641E+01  0.90007431611E+02  0.89999688907E+02 0.  0.
        -12    1    1    2    0    0  0.15970460405E+00  0.19459762637E+00  0.11534157641E+01  0.11805683893E+01  0.00000000000E+00 0.  1.
         11    1    3    3    0    0 -0.30148505415E+02  0.60661170044E+01  0.33309752786E+01  0.30932596898E+02  0.51100000000E-03 0. -1.
        -11    1    3    3    0    0 -0.91870211694E+01 -0.10085622218E+02 -0.12952753745E+02  0.18812096197E+02  0.51100000000E-03 0.  1.
        -12    1    3    3    0    0  0.39175821980E+02  0.38249075876E+01  0.84683627025E+01  0.40262738515E+02  0.00000000000E+00 0.  1.
</event>
<event>
 7    1  0.3861961E-015  0.9000770E+02  0.7816164E-02  0.1186339E+00
        -11   -1    0    0    0    0  0.00000000000E+00  0.00000000000E+00  0.45593999997E+02  0.45594000000E+02  0.51100000000E-03 0.  1.
         11   -1    0    0    0    0 -0.00000000000E+00 -0.00000000000E+00 -0.45593999997E+02  0.45594000000E+02  0.51100000000E-03 0. -1.
    9900012    2    1    2    0    0 -0.18934736695E+00 -0.13719300398E+00 -0.11569093501E+01  0.90007697670E+02  0.89999958479E+02 0.  0.
        -12    1    1    2    0    0  0.18934736695E+00  0.13719300398E+00  0.11569093501E+01  0.11803023300E+01  0.00000000000E+00 0.  1.
         11    1    3    3    0    0 -0.15757012493E+01 -0.83754098819E+01  0.38111164695E+01  0.93356806995E+01  0.51100000000E-03 0. -1.
        -11    1    3    3    0    0  0.47363012419E+01 -0.42832135390E+01  0.36588179831E+02  0.37141262382E+02  0.51100000000E-03 0.  1.
         12    1    3    3    0    0 -0.33499473595E+01  0.12521430417E+02 -0.41556205651E+02  0.43530754589E+02  0.00000000000E+00 0. -1.
</event>
<event>
 7    1  0.3861961E-015  0.9000749E+02  0.7816164E-02  0.1186340E+00
        -11   -1    0    0    0    0  0.00000000000E+00  0.00000000000E+00  0.45593999997E+02  0.45594000000E+02  0.51100000000E-03 0. -1.
         11   -1    0    0    0    0 -0.00000000000E+00 -0.00000000000E+00 -0.45593999997E+02  0.45594000000E+02  0.51100000000E-03 0.  1.
    9900012    2    1    2    0    0 -0.66506865972E+00 -0.96291595691E+00  0.15517934817E+00  0.90007489902E+02  0.89999747968E+02 0.  0.
        -12    1    1    2    0    0  0.66506865972E+00  0.96291595691E+00 -0.15517934817E+00  0.11805100983E+01  0.00000000000E+00 0.  1.
         11    1    3    3    0    0 -0.15208504757E+02 -0.34177678474E+02  0.11943595011E+02  0.39269094525E+02  0.51100000000E-03 0. -1.
        -11    1    3    3    0    0  0.67631379408E+01 -0.47526473851E+01  0.36295832795E+01  0.90278218313E+01  0.51100000000E-03 0.  1.
        -12    1    3    3    0    0  0.77802981560E+01  0.37967409902E+02 -0.15417998942E+02  0.41710573545E+02  0.00000000000E+00 0.  1.
</event>
<event>
 7    1  0.3861961E-015  0.9000784E+02  0.7816164E-02  0.1186339E+00
        -11   -1    0    0    0    0  0.00000000000E+00  0.00000000000E+00  0.45593999997E+02  0.45594000000E+02  0.51100000000E-03 0.  1.
         11   -1    0    0    0    0 -0.00000000000E+00 -0.00000000000E+00 -0.45593999997E+02  0.45594000000E+02  0.51100000000E-03 0. -1.
    9900012    2    1    2    0    0 -0.36730157959E-01  0.17560928302E+00 -0.11664398888E+01  0.90007843341E+02  0.90000106073E+02 0.  0.
        -12    1    1    2    0    0  0.36730157959E-01 -0.17560928302E+00  0.11664398888E+01  0.11801566586E+01  0.00000000000E+00 0.  1.
         11    1    3    3    0    0  0.19326090557E+02  0.33516472928E+02 -0.16967335887E+02  0.42246209547E+02  0.51100000000E-03 0. -1.
        -11    1    3    3    0    0 -0.65353792930E+01  0.25026920891E+01  0.22153184811E+01  0.73404554648E+01  0.51100000000E-03 0.  1.
        -12    1    3    3    0    0 -0.12827441422E+02 -0.35843555734E+02  0.13585577517E+02  0.40421178330E+02  0.00000000000E+00 0.  1.
</event>
<event>
 7    1  0.3861961E-015  0.9000781E+02  0.7816164E-02  0.1186339E+00
        -11   -1    0    0    0    0  0.00000000000E+00  0.00000000000E+00  0.45593999997E+02  0.45594000000E+02  0.51100000000E-03 0. -1.
         11   -1    0    0    0    0 -0.00000000000E+00 -0.00000000000E+00 -0.45593999997E+02  0.45594000000E+02  0.51100000000E-03 0.  1.
    9900012    2    1    2    0    0  0.80468759128E+00 -0.62931861375E+00 -0.59101083505E+00  0.90007806014E+02  0.90000068253E+02 0.  0.
        -12    1    1    2    0    0 -0.80468759128E+00  0.62931861375E+00  0.59101083505E+00  0.11801939859E+01  0.00000000000E+00 0.  1.
         11    1    3    3    0    0 -0.20926014758E+01  0.12404933998E+01  0.97739580870E+01  0.10072142858E+02  0.51100000000E-03 0. -1.
        -11    1    3    3    0    0 -0.24321102666E+02 -0.12001042223E+02  0.23100282040E+02  0.35625329191E+02  0.51100000000E-03 0.  1.
         12    1    3    3    0    0  0.27218391733E+02  0.10131230210E+02 -0.33465250962E+02  0.44310333965E+02  0.00000000000E+00 0. -1.
</event>
<event>
 7    1  0.3861961E-015  0.9000772E+02  0.7816164E-02  0.1186339E+00
        -11   -1    0    0    0    0  0.00000000000E+00  0.00000000000E+00  0.45593999997E+02  0.45594000000E+02  0.51100000000E-03 0.  1.
         11   -1    0    0    0    0 -0.00000000000E+00 -0.00000000000E+00 -0.45593999997E+02  0.45594000000E+02  0.51100000000E-03 0. -1.
    9900012    2    1    2    0    0  0.85281493803E+00  0.64039071149E+00 -0.50564623276E+00  0.90007715418E+02  0.89999976461E+02 0.  0.
        -12    1    1    2    0    0 -0.85281493803E+00 -0.64039071149E+00  0.50564623276E+00  0.11802845820E+01  0.00000000000E+00 0.  1.
         11    1    3    3    0    0 -0.25973613650E+02  0.13644690788E+02  0.13839619346E+01  0.29372121878E+02  0.51100000000E-03 0. -1.
        -11    1    3    3    0    0 -0.31259538817E+01 -0.20479509584E+01 -0.22404475295E+02  0.22714008988E+02  0.51100000000E-03 0.  1.
        -12    1    3    3    0    0  0.29952382470E+02 -0.10956349118E+02  0.20514867128E+02  0.37921584551E+02  0.00000000000E+00 0.  1.
</event>
<event>
 7    1  0.3861961E-015  0.9000778E+02  0.7816164E-02  0.1186339E+00
        -11   -1    0    0    0    0  0.00000000000E+00  0.00000000000E+00  0.45593999997E+02  0.45594000000E+02  0.51100000000E-03 0. -1.
         11   -1    0    0    0    0 -0.00000000000E+00 -0.00000000000E+00 -0.45593999997E+02  0.45594000000E+02  0.51100000000E-03 0.  1.
    9900012    2    1    2    0    0 -0.88865309674E+00  0.59704951378E+00 -0.49672547258E+00  0.90007784493E+02  0.90000046448E+02 0.  0.
        -12    1    1    2    0    0  0.88865309674E+00 -0.59704951378E+00  0.49672547258E+00  0.11802155072E+01  0.00000000000E+00 0.  1.
         11    1    3    3    0    0  0.28158467744E+02 -0.10184515711E+01  0.11245233304E+02  0.30337960077E+02  0.51100000000E-03 0. -1.
        -11    1    3    3    0    0  0.76847660934E+01  0.63506463704E+01  0.12058432102E+02  0.15645834086E+02  0.51100000000E-03 0.  1.
        -12    1    3    3    0    0 -0.36731886934E+02 -0.47351452855E+01 -0.23800390879E+02  0.44023990330E+02  0.00000000000E+00 0.  1.
</event>
<event>
 7    1  0.3861961E-015  0.9000774E+02  0.7816164E-02  0.1186339E+00
        -11   -1    0    0    0    0  0.00000000000E+00  0.00000000000E+00  0.45593999997E+02  0.45594000000E+02  0.51100000000E-03 0.  1.
         11   -1    0    0    0    0 -0.00000000000E+00 -0.00000000000E+00 -0.45593999997E+02  0.45594000000E+02  0.51100000000E-03 0. -1.
    9900012    2    1    2    0    0  0.32348030535E+00  0.82728786471E+00 -0.77715405398E+00  0.90007740222E+02  0.90000001593E+02 0.  0.
        -12    1    1    2    0    0 -0.32348030535E+00 -0.82728786471E+00  0.77715405398E+00  0.11802597776E+01  0.00000000000E+00 0.  1.
         11    1    3    3    0    0 -0.34280881606E+02 -0.90106258099E+01 -0.12349803955E+02  0.37535155244E+02  0.51100000000E-03 0. -1.
        -11    1    3    3    0    0 -0.71627676095E+01  0.19489946717E+01  0.61159389142E+01  0.96181354285E+01  0.51100000000E-03 0.  1.
        -12    1    3    3    0    0  0.41767129521E+02  0.78889190029E+01  0.54567109871E+01  0.42854449550E+02  0.00000000000E+00 0.  1.
</event>
<event>
 7    1  0.3861961E-015  0.9000771E+02  0.7816164E-02  0.1186339E+00
        -11   -1    0    0    0    0  0.00000000000E+00  0.00000000000E+00  0.45593999997E+02  0.45594000000E+02  0.51100000000E-03 0.  1.
         11   -1    0    0    0    0 -0.00000000000E+00 -0.00000000000E+00 -0.45593999997E+02  0.45594000000E+02  0.51100000000E-03 0. -1.
    9900012    2    1    2    0    0  0.79747200360E+00  0.75937741701E+00  0.42481763258E+00  0.90007709494E+02  0.89999970459E+02 0.  0.
        -12    1    1    2    0    0 -0.79747200360E+00 -0.75937741701E+00 -0.42481763258E+00  0.11802905062E+01  0.00000000000E+00 0.  1.
         11    1    3    3    0    0  0.29641426214E+01  0.14998877716E+02 -0.37925080232E+02  0.40890881442E+02  0.51100000000E-03 0. -1.
        -11    1    3    3    0    0 -0.10093366696E+02 -0.24884620947E+00  0.34141744135E+01  0.10658075009E+02  0.51100000000E-03 0.  1.
        -12    1    3    3    0    0  0.79266960786E+01 -0.13990654090E+02  0.34935723451E+02  0.38458753043E+02  0.00000000000E+00 0.  1.
</event>
<event>
 7    1  0.3861961E-015  0.9000765E+02  0.7816164E-02  0.1186339E+00
        -11   -1    0    0    0    0  0.00000000000E+00  0.00000000000E+00  0.45593999997E+02  0.45594000000E+02  0.51100000000E-03 0. -1.
         11   -1    0    0    0    0 -0.00000000000E+00 -0.00000000000E+00 -0.45593999997E+02  0.45594000000E+02  0.51100000000E-03 0.  1.
    9900012    2    1    2    0    0 -0.75515157980E+00  0.61972941410E+00  0.66249719421E+00  0.90007652175E+02  0.89999912384E+02 0.  0.
        -12    1    1    2    0    0  0.75515157980E+00 -0.61972941410E+00 -0.66249719421E+00  0.11803478248E+01  0.00000000000E+00 0.  1.
         11    1    3    3    0    0  0.38593045826E+01  0.73429425196E+01 -0.57480880485E+01  0.10092252136E+02  0.51100000000E-03 0. -1.
        -11    1    3    3    0    0 -0.30849208086E+02  0.15043525589E+02  0.23683635667E+02  0.41700070748E+02  0.51100000000E-03 0.  1.
         12    1    3    3    0    0  0.26234751923E+02 -0.21766738694E+02 -0.17273050425E+02  0.38215329291E+02  0.00000000000E+00 0. -1.
</event>
<event>
 7    1  0.3861961E-015  0.9000774E+02  0.7816164E-02  0.1186339E+00
        -11   -1    0    0    0    0  0.00000000000E+00  0.00000000000E+00  0.45593999997E+02  0.45594000000E+02  0.51100000000E-03 0.  1.
         11   -1    0    0    0    0 -0.00000000000E+00 -0.00000000000E+00 -0.45593999997E+02  0.45594000000E+02  0.51100000000E-03 0. -1.
    9900012    2    1    2    0    0 -0.80019232866E+00  0.80008404429E+00 -0.33553320675E+00  0.90007735295E+02  0.89999996601E+02 0.  0.
        -12    1    1    2    0    0  0.80019232866E+00 -0.80008404429E+00  0.33553320675E+00  0.11802647049E+01  0.00000000000E+00 0.  1.
         11    1    3    3    0    0 -0.50852217736E+01 -0.31360859465E+02 -0.16763226050E+02  0.35921702837E+02  0.51100000000E-03 0. -1.
        -11    1    3    3    0    0 -0.58258678751E+01 -0.80465275082E+01  0.47636159603E+01  0.11017230991E+02  0.51100000000E-03 0.  1.
        -12    1    3    3    0    0  0.10110897320E+02  0.40207471017E+02  0.11664076883E+02  0.43068801467E+02  0.00000000000E+00 0.  1.
</event>
<event>
 7    1  0.3861961E-015  0.9000783E+02  0.7816164E-02  0.1186339E+00
        -11   -1    0    0    0    0  0.00000000000E+00  0.00000000000E+00  0.45593999997E+02  0.45594000000E+02  0.51100000000E-03 0. -1.
         11   -1    0    0    0    0 -0.00000000000E+00 -0.00000000000E+00 -0.45593999997E+02  0.45594000000E+02  0.51100000000E-03 0.  1.
    9900012    2    1    2    0    0  0.34476202694E+00  0.50948288340E+00  0.10071566620E+01  0.90007831281E+02  0.90000093854E+02 0.  0.
        -12    1    1    2    0    0 -0.34476202694E+00 -0.50948288340E+00 -0.10071566620E+01  0.11801687191E+01  0.00000000000E+00 0.  1.
         11    1    3    3    0    0 -0.32542069413E+02 -0.24403348120E+01 -0.14824487547E+02  0.35842808860E+02  0.51100000000E-03 0. -1.
        -11    1    3    3    0    0 -0.51839409196E+01 -0.38335936140E+01 -0.67904146196E+01  0.93637286602E+01  0.51100000000E-03 0.  1.
        -12    1    3    3    0    0  0.38070772359E+02  0.67834113093E+01  0.22622058828E+02  0.44801293761E+02  0.00000000000E+00 0.  1.
</event>
<event>
 7    1  0.3861961E-015  0.9000772E+02  0.7816164E-02  0.1186339E+00
        -11   -1    0    0    0    0  0.00000000000E+00  0.00000000000E+00  0.45593999997E+02  0.45594000000E+02  0.51100000000E-03 0. -1.
         11   -1    0    0    0    0 -0.00000000000E+00 -0.00000000000E+00 -0.45593999997E+02  0.45594000000E+02  0.51100000000E-03 0.  1.
    9900012    2    1    2    0    0  0.60728622052E+00  0.38973682461E+00  0.93400782691E+00  0.90007719539E+02  0.89999980637E+02 0.  0.
        -12    1    1    2    0    0 -0.60728622052E+00 -0.38973682461E+00 -0.93400782691E+00  0.11802804611E+01  0.00000000000E+00 0.  1.
         11    1    3    3    0    0 -0.24005987104E+02 -0.28379502989E+02  0.94076765369E+01  0.38343030459E+02  0.51100000000E-03 0. -1.
        -11    1    3    3    0    0 -0.26642466973E+01 -0.46633255290E+01 -0.65539453863E+01  0.84734299927E+01  0.51100000000E-03 0.  1.
        -12    1    3    3    0    0  0.27277520022E+02  0.33432565342E+02 -0.19197233237E+01  0.43191259087E+02  0.00000000000E+00 0.  1.
</event>
<event>
 7    1  0.3861961E-015  0.9000773E+02  0.7816164E-02  0.1186339E+00
        -11   -1    0    0    0    0  0.00000000000E+00  0.00000000000E+00  0.45593999997E+02  0.45594000000E+02  0.51100000000E-03 0. -1.
         11   -1    0    0    0    0 -0.00000000000E+00 -0.00000000000E+00 -0.45593999997E+02  0.45594000000E+02  0.51100000000E-03 0.  1.
    9900012    2    1    2    0    0 -0.75608134492E+00 -0.67048011830E+00  0.60978259803E+00  0.90007729944E+02  0.89999991179E+02 0.  0.
        -12    1    1    2    0    0  0.75608134492E+00  0.67048011830E+00 -0.60978259803E+00  0.11802700564E+01  0.00000000000E+00 0.  1.
         11    1    3    3    0    0 -0.65618018242E+01 -0.20974533317E+02 -0.30219126470E+01  0.22183783432E+02  0.51100000000E-03 0. -1.
        -11    1    3    3    0    0 -0.10126213742E+02  0.14307411426E+01 -0.26768231105E+02  0.28655286104E+02  0.51100000000E-03 0.  1.
         12    1    3    3    0    0  0.15931934221E+02  0.18873312056E+02  0.30399926350E+02  0.39168660407E+02  0.00000000000E+00 0. -1.
</event>
<event>
 7    1  0.3861961E-015  0.9000781E+02  0.7816164E-02  0.1186339E+00
        -11   -1    0    0    0    0  0.00000000000E+00  0.00000000000E+00  0.45593999997E+02  0.45594000000E+02  0.51100000000E-03 0.  1.
         11   -1    0    0    0    0 -0.00000000000E+00 -0.00000000000E+00 -0.45593999997E+02  0.45594000000E+02  0.51100000000E-03 0. -1.
    9900012    2    1    2    0    0  0.59063934855E+00 -0.99816092701E+00 -0.21831336188E+00  0.90007813235E+02  0.90000075570E+02 0.  0.
        -12    1    1    2    0    0 -0.59063934855E+00  0.99816092701E+00  0.21831336188E+00  0.11801867650E+01  0.00000000000E+00 0.  1.
         11    1    3    3    0    0 -0.96613243267E+01 -0.29277251201E+02  0.18867821142E+02  0.36145446470E+02  0.51100000000E-03 0. -1.
        -11    1    3    3    0    0  0.52034446593E+01 -0.77605152181E+01  0.46273099428E+01  0.10426573279E+02  0.51100000000E-03 0.  1.
        -12    1    3    3    0    0  0.50485190160E+01  0.36039605492E+02 -0.23713444446E+02  0.43435793486E+02  0.00000000000E+00 0.  1.
</event>
<event>
 7    1  0.6840864E-015  0.9000777E+02  0.7816164E-02  0.1186339E+00
        -11   -1    0    0    0    0  0.00000000000E+00  0.00000000000E+00  0.45593999997E+02  0.45594000000E+02  0.51100000000E-03 0.  1.
         11   -1    0    0    0    0 -0.00000000000E+00 -0.00000000000E+00 -0.45593999997E+02  0.45594000000E+02  0.51100000000E-03 0. -1.
    9900012    2    1    2    0    0 -0.11215713780E+01  0.65297788458E-01  0.36160830983E+00  0.90007768359E+02  0.90000030101E+02 0.  0.
        -12    1    1    2    0    0  0.11215713780E+01 -0.65297788458E-01 -0.36160830983E+00  0.11802316412E+01  0.00000000000E+00 0.  1.
         11    1    3    3    0    0 -0.59669382361E+01 -0.30480130250E+00 -0.70736726001E+01  0.92592710330E+01  0.51100000000E-03 0. -1.
        -11    1    3    3    0    0 -0.26396830196E+02 -0.27675142858E+02  0.87322786728E+00  0.38255309485E+02  0.51100000000E-03 0.  1.
         12    1    3    3    0    0  0.31242197054E+02  0.28045241949E+02  0.65620530427E+01  0.42493187841E+02  0.00000000000E+00 0. -1.
</event>
<event>
 7    1  0.3861961E-015  0.9000770E+02  0.7816164E-02  0.1186339E+00
        -11   -1    0    0    0    0  0.00000000000E+00  0.00000000000E+00  0.45593999997E+02  0.45594000000E+02  0.51100000000E-03 0. -1.
         11   -1    0    0    0    0 -0.00000000000E+00 -0.00000000000E+00 -0.45593999997E+02  0.45594000000E+02  0.51100000000E-03 0.  1.
    9900012    2    1    2    0    0  0.16062824061E+00 -0.11633652659E+00  0.11635184264E+01  0.90007698874E+02  0.89999959699E+02 0.  0.
        -12    1    1    2    0    0 -0.16062824061E+00  0.11633652659E+00 -0.11635184264E+01  0.11803011258E+01  0.00000000000E+00 0.  1.
         11    1    3    3    0    0  0.49512883495E+01 -0.53721697332E+01  0.69820191232E+01  0.10105644723E+02  0.51100000000E-03 0. -1.
        -11    1    3    3    0    0 -0.11399580644E+02 -0.36070235280E+02 -0.33948307396E+01  0.37980747597E+02  0.51100000000E-03 0.  1.
         12    1    3    3    0    0  0.66089205355E+01  0.41326068486E+02 -0.24236699572E+01  0.41921306555E+02  0.00000000000E+00 0. -1.
</event>
<event>
 7    1  0.3861961E-015  0.9000774E+02  0.7816164E-02  0.1186339E+00
        -11   -1    0    0    0    0  0.00000000000E+00  0.00000000000E+00  0.45593999997E+02  0.45594000000E+02  0.51100000000E-03 0.  1.
         11   -1    0    0    0    0 -0.00000000000E+00 -0.00000000000E+00 -0.45593999997E+02  0.45594000000E+02  0.51100000000E-03 0. -1.
    9900012    2    1    2    0    0 -0.97815592336E+00  0.22953734143E+00 -0.61930591317E+00  0.90007738921E+02  0.90000000274E+02 0.  0.
        -12    1    1    2    0    0  0.97815592336E+00 -0.22953734143E+00  0.61930591317E+00  0.11802610794E+01  0.00000000000E+00 0.  1.
         11    1    3    3    0    0 -0.23978942504E+02  0.28488496582E+02  0.57908058649E+01  0.37684447110E+02  0.51100000000E-03 0. -1.
        -11    1    3    3    0    0  0.11946663859E+01  0.57725590872E+01  0.75348988769E+01  0.95668368615E+01  0.51100000000E-03 0.  1.
        -12    1    3    3    0    0  0.21806120195E+02 -0.34031518328E+02 -0.13945010655E+02  0.42756454949E+02  0.00000000000E+00 0.  1.
</event>
<event>
 7    1  0.3861961E-015  0.9000769E+02  0.7816164E-02  0.1186339E+00
        -11   -1    0    0    0    0  0.00000000000E+00  0.00000000000E+00  0.45593999997E+02  0.45594000000E+02  0.51100000000E-03 0.  1.
         11   -1    0    0    0    0 -0.00000000000E+00 -0.00000000000E+00 -0.45593999997E+02  0.45594000000E+02  0.51100000000E-03 0. -1.
    9900012    2    1    2    0    0  0.49934271146E+00 -0.40826086641E+00 -0.98848870677E+00  0.90007690718E+02  0.89999951435E+02 0.  0.
        -12    1    1    2    0    0 -0.49934271146E+00  0.40826086641E+00  0.98848870677E+00  0.11803092823E+01  0.00000000000E+00 0.  1.
         11    1    3    3    0    0  0.26199402241E+02  0.25668308010E+02  0.16450155414E+02  0.40197989095E+02  0.51100000000E-03 0. -1.
        -11    1    3    3    0    0  0.18858922088E+00 -0.47717803841E+01  0.68913564824E+01  0.83842857988E+01  0.51100000000E-03 0.  1.
        -12    1    3    3    0    0 -0.25888648751E+02 -0.21304788492E+02 -0.24330000603E+02  0.41425415824E+02  0.00000000000E+00 0.  1.
</event>
<event>
 7    1  0.3861961E-015  0.9000774E+02  0.7816164E-02  0.1186339E+00
        -11   -1    0    0    0    0  0.00000000000E+00  0.00000000000E+00  0.45593999997E+02  0.45594000000E+02  0.51100000000E-03 0. -1.
         11   -1    0    0    0    0 -0.00000000000E+00 -0.00000000000E+00 -0.45593999997E+02  0.45594000000E+02  0.51100000000E-03 0.  1.
    9900012    2    1    2    0    0 -0.58568665023E+00  0.10219805273E+01  0.74434239073E-01  0.90007740068E+02  0.90000001437E+02 0.  0.
        -12    1    1    2    0    0  0.58568665023E+00 -0.10219805273E+01 -0.74434239073E-01  0.11802599317E+01  0.00000000000E+00 0.  1.
         11    1    3    3    0    0 -0.12071048274E+01  0.86673342520E+00  0.99374344187E+01  0.10047931727E+02  0.51100000000E-03 0. -1.
        -11    1    3    3    0    0  0.78544210387E+01  0.19191815802E+02  0.29254667718E+02  0.35858796789E+02  0.51100000000E-03 0.  1.
         12    1    3    3    0    0 -0.72330028615E+01 -0.19036568700E+02 -0.39117667897E+02  0.44101011553E+02  0.00000000000E+00 0. -1.
</event>
<event>
 7    1  0.3861961E-015  0.9000768E+02  0.7816164E-02  0.1186339E+00
        -11   -1    0    0    0    0  0.00000000000E+00  0.00000000000E+00  0.45593999997E+02  0.45594000000E+02  0.51100000000E-03 0.  1.
         11   -1    0    0    0    0 -0.00000000000E+00 -0.00000000000E+00 -0.45593999997E+02  0.45594000000E+02  0.51100000000E-03 0. -1.
    9900012    2    1    2    0    0 -0.11254798942E+00 -0.41560295755E+00 -0.10989774995E+01  0.90007684613E+02  0.89999945250E+02 0.  0.
        -12    1    1    2    0    0  0.11254798942E+00  0.41560295755E+00  0.10989774995E+01  0.11803153870E+01  0.00000000000E+00 0.  1.
         11    1    3    3    0    0 -0.85753999803E+00 -0.73509066359E+01 -0.63575480353E+01  0.97565168221E+01  0.51100000000E-03 0. -1.
        -11    1    3    3    0    0 -0.86343048876E+01 -0.34694560333E+02 -0.56724742940E+01  0.36200009703E+02  0.51100000000E-03 0.  1.
         12    1    3    3    0    0  0.93792968962E+01  0.41629864011E+02  0.10931044830E+02  0.44051158088E+02  0.00000000000E+00 0. -1.
</event>
<event>
 7    1  0.3861961E-015  0.9000718E+02  0.7816164E-02  0.1186340E+00
        -11   -1    0    0    0    0  0.00000000000E+00  0.00000000000E+00  0.45593999997E+02  0.45594000000E+02  0.51100000000E-03 0.  1.
         11   -1    0    0    0    0 -0.00000000000E+00 -0.00000000000E+00 -0.45593999997E+02  0.45594000000E+02  0.51100000000E-03 0. -1.
    9900012    2    1    2    0    0  0.96293377085E+00  0.19388147665E+00 -0.65536705642E+00  0.90007179331E+02  0.89999433296E+02 0.  0.
        -12    1    1    2    0    0 -0.96293377085E+00 -0.19388147665E+00  0.65536705642E+00  0.11808206691E+01  0.00000000000E+00 0.  1.
         11    1    3    3    0    0 -0.21733228687E+01  0.57432474989E+01  0.17532122144E+02  0.18576424071E+02  0.51100000000E-03 0. -1.
        -11    1    3    3    0    0  0.12796047261E+02 -0.25192983726E+02  0.14756155357E+02  0.31877411684E+02  0.51100000000E-03 0.  1.
         12    1    3    3    0    0 -0.96597906211E+01  0.19643617704E+02 -0.32943644557E+02  0.39553343576E+02  0.00000000000E+00 0. -1.
</event>
<event>
 7    1  0.3861961E-015  0.9000773E+02  0.7816164E-02  0.1186339E+00
        -11   -1    0    0    0    0  0.00000000000E+00  0.00000000000E+00  0.45593999997E+02  0.45594000000E+02  0.51100000000E-03 0. -1.
         11   -1    0    0    0    0 -0.00000000000E+00 -0.00000000000E+00 -0.45593999997E+02  0.45594000000E+02  0.51100000000E-03 0.  1.
    9900012    2    1    2    0    0 -0.44814791007E+00 -0.92749152505E+00  0.57615476452E+00  0.90007732492E+02  0.89999993761E+02 0.  0.
        -12    1    1    2    0    0  0.44814791007E+00  0.92749152505E+00 -0.57615476452E+00  0.11802675082E+01  0.00000000000E+00 0.  1.
         11    1    3    3    0    0 -0.27252645697E+01  0.69191530885E+01  0.84586846918E+01  0.11262819070E+02  0.51100000000E-03 0. -1.
        -11    1    3    3    0    0  0.14743098337E+02  0.32715427141E+02 -0.25084799009E+01  0.35971524756E+02  0.51100000000E-03 0.  1.
         12    1    3    3    0    0 -0.12465981677E+02 -0.40562071755E+02 -0.53740500263E+01  0.42773388665E+02  0.00000000000E+00 0. -1.
</event>
<event>
 7    1  0.3861961E-015  0.9000775E+02  0.7816164E-02  0.1186339E+00
        -11   -1    0    0    0    0  0.00000000000E+00  0.00000000000E+00  0.45593999997E+02  0.45594000000E+02  0.51100000000E-03 0.  1.
         11   -1    0    0    0    0 -0.00000000000E+00 -0.00000000000E+00 -0.45593999997E+02  0.45594000000E+02  0.51100000000E-03 0. -1.
    9900012    2    1    2    0    0 -0.19288760996E+00  0.11590543361E+01  0.11129536533E+00  0.90007746111E+02  0.90000007560E+02 0.  0.
        -12    1    1    2    0    0  0.19288760996E+00 -0.11590543361E+01 -0.11129536533E+00  0.11802538890E+01  0.00000000000E+00 0.  1.
         11    1    3    3    0    0 -0.91099291828E+01 -0.15129850312E+02 -0.34452270016E+02  0.38715140316E+02  0.51100000000E-03 0. -1.
        -11    1    3    3    0    0  0.65040908768E+01  0.47119848031E+01 -0.53590502543E+01  0.96553311082E+01  0.51100000000E-03 0.  1.
        -12    1    3    3    0    0  0.24129506960E+01  0.11576919845E+02  0.39922615636E+02  0.41637274687E+02  0.00000000000E+00 0.  1.
</event>
<event>
 7    1  0.3861961E-015  0.9000770E+02  0.7816164E-02  0.1186339E+00
        -11   -1    0    0    0    0  0.00000000000E+00  0.00000000000E+00  0.45593999997E+02  0.45594000000E+02  0.51100000000E-03 0.  1.
         11   -1    0    0    0    0 -0.00000000000E+00 -0.00000000000E+00 -0.45593999997E+02  0.45594000000E+02  0.51100000000E-03 0. -1.
    9900012    2    1    2    0    0  0.10820011396E+00 -0.11054047397E+01 -0.39935262560E+00  0.90007699435E+02  0.89999960268E+02 0.  0.
        -12    1    1    2    0    0 -0.10820011396E+00  0.11054047397E+01  0.39935262560E+00  0.11803005646E+01  0.00000000000E+00 0.  1.
         11    1    3    3    0    0 -0.23980883991E+02  0.91754749813E+01 -0.26515128551E+02  0.36909675973E+02  0.51100000000E-03 0. -1.
        -11    1    3    3    0    0 -0.59239640263E+01 -0.75884825424E+01 -0.40643802360E+01  0.10449765741E+02  0.51100000000E-03 0.  1.
        -12    1    3    3    0    0  0.30013048131E+02 -0.26923971786E+01  0.30180156162E+02  0.42648257721E+02  0.00000000000E+00 0.  1.
</event>
<event>
 7    1  0.3861961E-015  0.9000817E+02  0.7816164E-02  0.1186338E+00
        -11   -1    0    0    0    0  0.00000000000E+00  0.00000000000E+00  0.45593999997E+02  0.45594000000E+02  0.51100000000E-03 0.  1.
         11   -1    0    0    0    0 -0.00000000000E+00 -0.00000000000E+00 -0.45593999997E+02  0.45594000000E+02  0.51100000000E-03 0. -1.
    9900012    2    1    2    0    0  0.56447740512E+00 -0.75727758874E+00 -0.70703493268E+00  0.90008168451E+02  0.90000435474E+02 0.  0.
        -12    1    1    2    0    0 -0.56447740512E+00  0.75727758874E+00  0.70703493268E+00  0.11798315487E+01  0.00000000000E+00 0.  1.
         11    1    3    3    0    0 -0.30310411099E+02 -0.13771652112E+02 -0.18302446816E+02  0.37991564624E+02  0.51100000000E-03 0. -1.
        -11    1    3    3    0    0 -0.78418595910E+01  0.52941380727E+01  0.29957036168E+01  0.99245604537E+01  0.51100000000E-03 0.  1.
        -12    1    3    3    0    0  0.38716748095E+02  0.77202364503E+01  0.14599708266E+02  0.42092043374E+02  0.00000000000E+00 0.  1.
</event>
<event>
 7    1  0.3861961E-015  0.9000791E+02  0.7816164E-02  0.1186339E+00
        -11   -1    0    0    0    0  0.00000000000E+00  0.00000000000E+00  0.45593999997E+02  0.45594000000E+02  0.51100000000E-03 0.  1.
         11   -1    0    0    0    0 -0.00000000000E+00 -0.00000000000E+00 -0.45593999997E+02  0.45594000000E+02  0.51100000000E-03 0. -1.
    9900012    2    1    2    0    0  0.98392350106E+00  0.64453013163E+00  0.95358386205E-01  0.90007907729E+02  0.90000171311E+02 0.  0.
        -12    1    1    2    0    0 -0.98392350106E+00 -0.64453013163E+00 -0.95358386205E-01  0.11800922711E+01  0.00000000000E+00 0.  1.
         11    1    3    3    0    0  0.73976768649E+00  0.33256627644E+02 -0.14011426177E+02  0.36095298894E+02  0.51100000000E-03 0. -1.
        -11    1    3    3    0    0  0.36213515778E+01  0.13105947240E+01 -0.10947877509E+02  0.11605510243E+02  0.51100000000E-03 0.  1.
        -12    1    3    3    0    0 -0.33771957633E+01 -0.33922692236E+02  0.25054662072E+02  0.42307098592E+02  0.00000000000E+00 0.  1.
</event>
<event>
 7    1  0.3861961E-015  0.9000767E+02  0.7816164E-02  0.1186339E+00
        -11   -1    0    0    0    0  0.00000000000E+00  0.00000000000E+00  0.45593999997E+02  0.45594000000E+02  0.51100000000E-03 0.  1.
         11   -1    0    0    0    0 -0.00000000000E+00 -0.00000000000E+00 -0.45593999997E+02  0.45594000000E+02  0.51100000000E-03 0. -1.
    9900012    2    1    2    0    0 -0.98442943109E+00 -0.16426867513E+00 -0.63014657559E+00  0.90007673685E+02  0.89999934178E+02 0.  0.
        -12    1    1    2    0    0  0.98442943109E+00  0.16426867513E+00  0.63014657559E+00  0.11803263147E+01  0.00000000000E+00 0.  1.
         11    1    3    3    0    0  0.72794547166E+00  0.10682073405E+02  0.41213865301E+00  0.10714777430E+02  0.51100000000E-03 0. -1.
        -11    1    3    3    0    0 -0.15223801863E+01  0.21831644537E+02  0.28024897828E+02  0.35557463958E+02  0.51100000000E-03 0.  1.
         12    1    3    3    0    0 -0.18999471650E+00 -0.32677986617E+02 -0.29067183057E+02  0.43735432297E+02  0.00000000000E+00 0. -1.
</event>
<event>
 7    1  0.3861961E-015  0.9000789E+02  0.7816164E-02  0.1186339E+00
        -11   -1    0    0    0    0  0.00000000000E+00  0.00000000000E+00  0.45593999997E+02  0.45594000000E+02  0.51100000000E-03 0. -1.
         11   -1    0    0    0    0 -0.00000000000E+00 -0.00000000000E+00 -0.45593999997E+02  0.45594000000E+02  0.51100000000E-03 0.  1.
    9900012    2    1    2    0    0  0.72089011379E+00 -0.67181036106E+00  0.64933536290E+00  0.90007894864E+02  0.90000158277E+02 0.  0.
        -12    1    1    2    0    0 -0.72089011379E+00  0.67181036106E+00 -0.64933536290E+00  0.11801051355E+01  0.00000000000E+00 0.  1.
         11    1    3    3    0    0 -0.18839617892E+02 -0.20913759115E+01  0.27591300818E+02  0.33475139083E+02  0.51100000000E-03 0. -1.
        -11    1    3    3    0    0 -0.68811861605E+01 -0.26501810400E+00  0.93413567369E+01  0.11605253272E+02  0.51100000000E-03 0.  1.
        -12    1    3    3    0    0  0.26441694166E+02  0.16845836544E+01 -0.36283322192E+02  0.44927502509E+02  0.00000000000E+00 0.  1.
</event>
<event>
 7    1  0.3861961E-015  0.9000774E+02  0.7816164E-02  0.1186339E+00
        -11   -1    0    0    0    0  0.00000000000E+00  0.00000000000E+00  0.45593999997E+02  0.45594000000E+02  0.51100000000E-03 0. -1.
         11   -1    0    0    0    0 -0.00000000000E+00 -0.00000000000E+00 -0.45593999997E+02  0.45594000000E+02  0.51100000000E-03 0.  1.
    9900012    2    1    2    0    0 -0.53821110133E+00 -0.97267538066E+00 -0.39653126210E+00  0.90007743406E+02  0.90000004819E+02 0.  0.
        -12    1    1    2    0    0  0.53821110133E+00  0.97267538066E+00  0.39653126210E+00  0.11802565939E+01  0.00000000000E+00 0.  1.
         11    1    3    3    0    0  0.37758986660E+01 -0.67082048024E+00 -0.85968903409E+01  0.94134974716E+01  0.51100000000E-03 0. -1.
        -11    1    3    3    0    0 -0.30775085333E+02 -0.28111472920E+02  0.63513851618E+01  0.42162790239E+02  0.51100000000E-03 0.  1.
         12    1    3    3    0    0  0.26460975566E+02  0.27809618020E+02  0.18489739170E+01  0.38431455695E+02  0.00000000000E+00 0. -1.
</event>
<event>
 7    1  0.3861961E-015  0.9000796E+02  0.7816164E-02  0.1186339E+00
        -11   -1    0    0    0    0  0.00000000000E+00  0.00000000000E+00  0.45593999997E+02  0.45594000000E+02  0.51100000000E-03 0.  1.
         11   -1    0    0    0    0 -0.00000000000E+00 -0.00000000000E+00 -0.45593999997E+02  0.45594000000E+02  0.51100000000E-03 0. -1.
    9900012    2    1    2    0    0  0.44975803368E+00  0.10723775395E+01 -0.20053352554E+00  0.90007962047E+02  0.90000226346E+02 0.  0.
        -12    1    1    2    0    0 -0.44975803368E+00 -0.10723775395E+01  0.20053352554E+00  0.11800379531E+01  0.00000000000E+00 0.  1.
         11    1    3    3    0    0 -0.11388477623E+02  0.50688880433E+01  0.12737803114E+02  0.17822532844E+02  0.51100000000E-03 0. -1.
        -11    1    3    3    0    0 -0.23640420120E+02 -0.15030197537E+02  0.85180495375E+01  0.29280257335E+02  0.51100000000E-03 0.  1.
         12    1    3    3    0    0  0.35478655776E+02  0.11033687033E+02 -0.21456386177E+02  0.42905171868E+02  0.00000000000E+00 0. -1.
</event>
<event>
 7    1  0.3861961E-015  0.9000773E+02  0.7816164E-02  0.1186339E+00
        -11   -1    0    0    0    0  0.00000000000E+00  0.00000000000E+00  0.45593999997E+02  0.45594000000E+02  0.51100000000E-03 0.  1.
         11   -1    0    0    0    0 -0.00000000000E+00 -0.00000000000E+00 -0.45593999997E+02  0.45594000000E+02  0.51100000000E-03 0. -1.
    9900012    2    1    2    0    0  0.11567707527E+00 -0.61624791690E+00 -0.99995109476E+00  0.90007726780E+02  0.89999987974E+02 0.  0.
        -12    1    1    2    0    0 -0.11567707527E+00  0.61624791690E+00  0.99995109476E+00  0.11802732195E+01  0.00000000000E+00 0.  1.
         11    1    3    3    0    0 -0.11242285749E+01 -0.77893095384E+01 -0.67450424023E+01  0.10364980957E+02  0.51100000000E-03 0. -1.
        -11    1    3    3    0    0  0.17974139633E+02 -0.12353879440E+02  0.34656959733E+02  0.40948661650E+02  0.51100000000E-03 0.  1.
         12    1    3    3    0    0 -0.16734233983E+02  0.19526941061E+02 -0.28911868425E+02  0.38694084173E+02  0.00000000000E+00 0. -1.
</event>
<event>
 7    1  0.3861961E-015  0.9000779E+02  0.7816164E-02  0.1186339E+00
        -11   -1    0    0    0    0  0.00000000000E+00  0.00000000000E+00  0.45593999997E+02  0.45594000000E+02  0.51100000000E-03 0. -1.
         11   -1    0    0    0    0 -0.00000000000E+00 -0.00000000000E+00 -0.45593999997E+02  0.45594000000E+02  0.51100000000E-03 0.  1.
    9900012    2    1    2    0    0  0.11392967263E+01  0.60485078805E-01 -0.30207301012E+00  0.90007786638E+02  0.90000048622E+02 0.  0.
        -12    1    1    2    0    0 -0.11392967263E+01 -0.60485078805E-01  0.30207301012E+00  0.11802133616E+01  0.00000000000E+00 0.  1.
         11    1    3    3    0    0 -0.16320134988E+02 -0.18909472435E+02  0.30100900564E+02  0.39114948151E+02  0.51100000000E-03 0. -1.
        -11    1    3    3    0    0  0.77631440625E+01  0.64580480293E+01  0.56119449852E+01  0.11552779616E+02  0.51100000000E-03 0.  1.
        -12    1    3    3    0    0  0.96962876517E+01  0.12511909485E+02 -0.36014918559E+02  0.39340058872E+02  0.00000000000E+00 0.  1.
</event>
<event>
 7    1  0.3861961E-015  0.9000774E+02  0.7816164E-02  0.1186339E+00
        -11   -1    0    0    0    0  0.00000000000E+00  0.00000000000E+00  0.45593999997E+02  0.45594000000E+02  0.51100000000E-03 0.  1.
         11   -1    0    0    0    0 -0.00000000000E+00 -0.00000000000E+00 -0.45593999997E+02  0.45594000000E+02  0.51100000000E-03 0. -1.
    9900012    2    1    2    0    0  0.99753876141E+00 -0.24656394348E-01 -0.63034127912E+00  0.90007736620E+02  0.89999997943E+02 0.  0.
        -12    1    1    2    0    0 -0.99753876141E+00  0.24656394348E-01  0.63034127912E+00  0.11802633801E+01  0.00000000000E+00 0.  1.
         11    1    3    3    0    0 -0.59133560714E+01  0.10276625702E+01  0.65866854685E+01  0.89111332673E+01  0.51100000000E-03 0. -1.
        -11    1    3    3    0    0 -0.30233069749E+00 -0.88437028438E+01  0.35754255161E+02  0.36832991275E+02  0.51100000000E-03 0.  1.
         12    1    3    3    0    0  0.72132255303E+01  0.77913838792E+01 -0.42971281909E+02  0.44263612078E+02  0.00000000000E+00 0. -1.
</event>
<event>
 7    1  0.3861961E-015  0.9000781E+02  0.7816164E-02  0.1186339E+00
        -11   -1    0    0    0    0  0.00000000000E+00  0.00000000000E+00  0.45593999997E+02  0.45594000000E+02  0.51100000000E-03 0. -1.
         11   -1    0    0    0    0 -0.00000000000E+00 -0.00000000000E+00 -0.45593999997E+02  0.45594000000E+02  0.51100000000E-03 0.  1.
    9900012    2    1    2    0    0  0.68982102285E+00 -0.79522921427E+00 -0.53349236432E+00  0.90007806520E+02  0.90000068766E+02 0.  0.
        -12    1    1    2    0    0 -0.68982102285E+00  0.79522921427E+00  0.53349236432E+00  0.11801934797E+01  0.00000000000E+00 0.  1.
         11    1    3    3    0    0 -0.13106355966E+02  0.14766128025E+02 -0.31437969938E+02  0.37123591659E+02  0.51100000000E-03 0. -1.
        -11    1    3    3    0    0  0.10021453733E+02  0.20597988664E+01 -0.59674334437E+01  0.11844094244E+02  0.51100000000E-03 0.  1.
        -12    1    3    3    0    0  0.37747232554E+01 -0.17621156106E+02  0.36871911018E+02  0.41040120617E+02  0.00000000000E+00 0.  1.
</event>
<event>
 7    1  0.3861961E-015  0.9000774E+02  0.7816164E-02  0.1186339E+00
        -11   -1    0    0    0    0  0.00000000000E+00  0.00000000000E+00  0.45593999997E+02  0.45594000000E+02  0.51100000000E-03 0. -1.
         11   -1    0    0    0    0 -0.00000000000E+00 -0.00000000000E+00 -0.45593999997E+02  0.45594000000E+02  0.51100000000E-03 0.  1.
    9900012    2    1    2    0    0  0.89174246769E+00  0.71664991117E+00  0.29020017077E+00  0.90007742459E+02  0.90000003860E+02 0.  0.
        -12    1    1    2    0    0 -0.89174246769E+00 -0.71664991117E+00 -0.29020017077E+00  0.11802575410E+01  0.00000000000E+00 0.  1.
         11    1    3    3    0    0  0.15970702276E+01 -0.77926305964E+01 -0.70440813325E+01  0.10625196798E+02  0.51100000000E-03 0. -1.
        -11    1    3    3    0    0 -0.32489383235E+02 -0.18319647050E+02  0.10185048620E+01  0.37312288103E+02  0.51100000000E-03 0.  1.
         12    1    3    3    0    0  0.31784055475E+02  0.26828927558E+02  0.63157766413E+01  0.42070257558E+02  0.00000000000E+00 0. -1.
</event>
<event>
 7    1  0.3861961E-015  0.9000782E+02  0.7816164E-02  0.1186339E+00
        -11   -1    0    0    0    0  0.00000000000E+00  0.00000000000E+00  0.45593999997E+02  0.45594000000E+02  0.51100000000E-03 0.  1.
         11   -1    0    0    0    0 -0.00000000000E+00 -0.00000000000E+00 -0.45593999997E+02  0.45594000000E+02  0.51100000000E-03 0. -1.
    9900012    2    1    2    0    0  0.32428964695E+00  0.10529391762E+01 -0.42305408357E+00  0.90007822284E+02  0.90000084738E+02 0.  0.
        -12    1    1    2    0    0 -0.32428964695E+00 -0.10529391762E+01  0.42305408357E+00  0.11801777161E+01  0.00000000000E+00 0.  1.
         11    1    3    3    0    0 -0.12243958073E+02  0.48754926446E+01 -0.35876506263E+02  0.38220526419E+02  0.51100000000E-03 0. -1.
        -11    1    3    3    0    0 -0.94060406580E+01  0.34850128312E+01  0.73956673252E+00  0.10058124801E+02  0.51100000000E-03 0.  1.
        -12    1    3    3    0    0  0.21974288378E+02 -0.73075662996E+01  0.34713885447E+02  0.41729171065E+02  0.00000000000E+00 0.  1.
</event>
<event>
 7    1  0.3861961E-015  0.9000773E+02  0.7816164E-02  0.1186339E+00
        -11   -1    0    0    0    0  0.00000000000E+00  0.00000000000E+00  0.45593999997E+02  0.45594000000E+02  0.51100000000E-03 0. -1.
         11   -1    0    0    0    0 -0.00000000000E+00 -0.00000000000E+00 -0.45593999997E+02  0.45594000000E+02  0.51100000000E-03 0.  1.
    9900012    2    1    2    0    0  0.85809191371E+00 -0.17586363684E+00  0.79106381128E+00  0.90007732359E+02  0.89999993626E+02 0.  0.
        -12    1    1    2    0    0 -0.85809191371E+00  0.17586363684E+00 -0.79106381128E+00  0.11802676411E+01  0.00000000000E+00 0.  1.
         11    1    3    3    0    0 -0.20672067446E+01 -0.26438170935E+01  0.96295069263E+01  0.10197574047E+02  0.51100000000E-03 0. -1.
        -11    1    3    3    0    0  0.20981525870E+02 -0.29617340426E+02  0.11080971158E+02  0.37949956572E+02  0.51100000000E-03 0.  1.
         12    1    3    3    0    0 -0.18056227212E+02  0.32085293883E+02 -0.19919414273E+02  0.41860201739E+02  0.00000000000E+00 0. -1.
</event>
<event>
 7    1  0.3861961E-015  0.9000838E+02  0.7816164E-02  0.1186338E+00
        -11   -1    0    0    0    0  0.00000000000E+00  0.00000000000E+00  0.45593999997E+02  0.45594000000E+02  0.51100000000E-03 0.  1.
         11   -1    0    0    0    0 -0.00000000000E+00 -0.00000000000E+00 -0.45593999997E+02  0.45594000000E+02  0.51100000000E-03 0. -1.
    9900012    2    1    2    0    0 -0.93229816773E+00  0.39465521157E+00 -0.60545500757E+00  0.90008377867E+02  0.90000647653E+02 0.  0.
        -12    1    1    2    0    0  0.93229816773E+00 -0.39465521157E+00  0.60545500757E+00  0.11796221326E+01  0.00000000000E+00 0.  1.
         11    1    3    3    0    0 -0.28801185101E+02  0.22547509338E+02 -0.64496650129E+01  0.37141575351E+02  0.51100000000E-03 0. -1.
        -11    1    3    3    0    0 -0.29133104350E+01  0.55289213581E+01  0.94306047838E+01  0.11313383929E+02  0.51100000000E-03 0.  1.
        -12    1    3    3    0    0  0.30782197368E+02 -0.27681775484E+02 -0.35863947785E+01  0.41553418587E+02  0.00000000000E+00 0.  1.
</event>
<event>
 7    1  0.6743124E-015  0.9000772E+02  0.7816164E-02  0.1186339E+00
        -11   -1    0    0    0    0  0.00000000000E+00  0.00000000000E+00  0.45593999997E+02  0.45594000000E+02  0.51100000000E-03 0. -1.
         11   -1    0    0    0    0 -0.00000000000E+00 -0.00000000000E+00 -0.45593999997E+02  0.45594000000E+02  0.51100000000E-03 0.  1.
    9900012    2    1    2    0    0  0.21679051602E+00 -0.46016419205E-01  0.11592835698E+01  0.90007722899E+02  0.89999984042E+02 0.  0.
        -12    1    1    2    0    0 -0.21679051602E+00  0.46016419205E-01 -0.11592835698E+01  0.11802771005E+01  0.00000000000E+00 0.  1.
         11    1    3    3    0    0  0.91274935294E+01  0.13911324558E+01 -0.17316881859E+01  0.93938880062E+01  0.51100000000E-03 0. -1.
        -11    1    3    3    0    0 -0.12413927884E+02  0.18162067545E+02 -0.32947108669E+02  0.39616641364E+02  0.51100000000E-03 0.  1.
         12    1    3    3    0    0  0.35032248710E+01 -0.19599216420E+02  0.35838080425E+02  0.40997193530E+02  0.00000000000E+00 0. -1.
</event>
<event>
 7    1  0.3861961E-015  0.9000779E+02  0.7816164E-02  0.1186339E+00
        -11   -1    0    0    0    0  0.00000000000E+00  0.00000000000E+00  0.45593999997E+02  0.45594000000E+02  0.51100000000E-03 0.  1.
         11   -1    0    0    0    0 -0.00000000000E+00 -0.00000000000E+00 -0.45593999997E+02  0.45594000000E+02  0.51100000000E-03 0. -1.
    9900012    2    1    2    0    0  0.56043558082E+00  0.53567577930E+00 -0.88986250708E+00  0.90007791602E+02  0.90000053651E+02 0.  0.
        -12    1    1    2    0    0 -0.56043558082E+00 -0.53567577930E+00  0.88986250708E+00  0.11802083978E+01  0.00000000000E+00 0.  1.
         11    1    3    3    0    0  0.90836314040E+00 -0.66828984049E+01 -0.83996408813E+01  0.10772196706E+02  0.51100000000E-03 0. -1.
        -11    1    3    3    0    0 -0.37672903241E+02  0.19307857497E+01  0.15359252513E+02  0.40729377730E+02  0.51100000000E-03 0.  1.
         12    1    3    3    0    0  0.37324975682E+02  0.52877884346E+01 -0.78494741386E+01  0.38506217166E+02  0.00000000000E+00 0. -1.
</event>
<event>
 7    1  0.3861961E-015  0.9000766E+02  0.7816164E-02  0.1186339E+00
        -11   -1    0    0    0    0  0.00000000000E+00  0.00000000000E+00  0.45593999997E+02  0.45594000000E+02  0.51100000000E-03 0. -1.
         11   -1    0    0    0    0 -0.00000000000E+00 -0.00000000000E+00 -0.45593999997E+02  0.45594000000E+02  0.51100000000E-03 0.  1.
    9900012    2    1    2    0    0 -0.60946892946E+00 -0.48524847656E+00  0.88672519062E+00  0.90007661056E+02  0.89999921381E+02 0.  0.
        -12    1    1    2    0    0  0.60946892946E+00  0.48524847656E+00 -0.88672519062E+00  0.11803389444E+01  0.00000000000E+00 0.  1.
         11    1    3    3    0    0 -0.67860043659E+01  0.57100242460E+00 -0.45030389985E+01  0.81641447505E+01  0.51100000000E-03 0. -1.
        -11    1    3    3    0    0  0.29112130501E+00  0.30753355219E+02 -0.23316172173E+02  0.38594008523E+02  0.51100000000E-03 0.  1.
         12    1    3    3    0    0  0.58854141315E+01 -0.31809606120E+02  0.28705936362E+02  0.43249507782E+02  0.00000000000E+00 0. -1.
</event>
<event>
 7    1  0.3861961E-015  0.9000773E+02  0.7816164E-02  0.1186339E+00
        -11   -1    0    0    0    0  0.00000000000E+00  0.00000000000E+00  0.45593999997E+02  0.45594000000E+02  0.51100000000E-03 0.  1.
         11   -1    0    0    0    0 -0.00000000000E+00 -0.00000000000E+00 -0.45593999997E+02  0.45594000000E+02  0.51100000000E-03 0. -1.
    9900012    2    1    2    0    0 -0.11013482552E+01  0.30118614041E+00 -0.29891476161E+00  0.90007732613E+02  0.89999993883E+02 0.  0.
        -12    1    1    2    0    0  0.11013482552E+01 -0.30118614041E+00  0.29891476161E+00  0.11802673871E+01  0.00000000000E+00 0.  1.
         11    1    3    3    0    0  0.57375307507E+01 -0.19528516986E+02 -0.24041167278E+02  0.31500158082E+02  0.51100000000E-03 0. -1.
        -11    1    3    3    0    0  0.91187644780E+01 -0.66550452728E+01 -0.82749569273E+01  0.13997014167E+02  0.51100000000E-03 0.  1.
        -12    1    3    3    0    0 -0.15957643484E+02  0.26484748399E+02  0.32017209444E+02  0.44510560364E+02  0.00000000000E+00 0.  1.
</event>
<event>
 7    1  0.3861961E-015  0.9000766E+02  0.7816164E-02  0.1186339E+00
        -11   -1    0    0    0    0  0.00000000000E+00  0.00000000000E+00  0.45593999997E+02  0.45594000000E+02  0.51100000000E-03 0.  1.
         11   -1    0    0    0    0 -0.00000000000E+00 -0.00000000000E+00 -0.45593999997E+02  0.45594000000E+02  0.51100000000E-03 0. -1.
    9900012    2    1    2    0    0  0.83477711292E+00  0.77107913230E+00 -0.31902466573E+00  0.90007664203E+02  0.89999924570E+02 0.  0.
        -12    1    1    2    0    0 -0.83477711292E+00 -0.77107913230E+00  0.31902466573E+00  0.11803357971E+01  0.00000000000E+00 0.  1.
         11    1    3    3    0    0  0.24768046670E+00  0.69991157636E-01 -0.10781156461E+02  0.10784228266E+02  0.51100000000E-03 0. -1.
        -11    1    3    3    0    0  0.39229881115E+02  0.31302985061E+01  0.10109156831E+01  0.39367553795E+02  0.51100000000E-03 0.  1.
         12    1    3    3    0    0 -0.38642784469E+02 -0.24292105315E+01  0.94512161126E+01  0.39855882142E+02  0.00000000000E+00 0. -1.
</event>
<event>
 7    1  0.3861961E-015  0.9000749E+02  0.7816164E-02  0.1186340E+00
        -11   -1    0    0    0    0  0.00000000000E+00  0.00000000000E+00  0.45593999997E+02  0.45594000000E+02  0.51100000000E-03 0. -1.
         11   -1    0    0    0    0 -0.00000000000E+00 -0.00000000000E+00 -0.45593999997E+02  0.45594000000E+02  0.51100000000E-03 0.  1.
    9900012    2    1    2    0    0 -0.78659888088E+00 -0.44541250871E+00  0.75925204483E+00  0.90007494274E+02  0.89999752398E+02 0.  0.
        -12    1    1    2    0    0  0.78659888088E+00  0.44541250871E+00 -0.75925204483E+00  0.11805057263E+01  0.00000000000E+00 0.  1.
         11    1    3    3    0    0 -0.13287002550E+02 -0.21721574788E+02  0.32190999856E+02  0.41044265373E+02  0.51100000000E-03 0. -1.
        -11    1    3    3    0    0 -0.87157995442E+01  0.32522156569E+01 -0.49356289807E+01  0.10531025689E+02  0.51100000000E-03 0.  1.
        -12    1    3    3    0    0  0.21216203213E+02  0.18023946622E+02 -0.26496118831E+02  0.38432203211E+02  0.00000000000E+00 0.  1.
</event>
<event>
 7    1  0.3861961E-015  0.9000776E+02  0.7816164E-02  0.1186339E+00
        -11   -1    0    0    0    0  0.00000000000E+00  0.00000000000E+00  0.45593999997E+02  0.45594000000E+02  0.51100000000E-03 0. -1.
         11   -1    0    0    0    0 -0.00000000000E+00 -0.00000000000E+00 -0.45593999997E+02  0.45594000000E+02  0.51100000000E-03 0.  1.
    9900012    2    1    2    0    0  0.10561563389E+01  0.40901024579E+00 -0.33196270428E+00  0.90007764926E+02  0.90000026623E+02 0.  0.
        -12    1    1    2    0    0 -0.10561563389E+01 -0.40901024579E+00  0.33196270428E+00  0.11802350742E+01  0.00000000000E+00 0.  1.
         11    1    3    3    0    0 -0.14764990150E+02  0.14070180743E+02  0.33903398554E+02  0.39565330202E+02  0.51100000000E-03 0. -1.
        -11    1    3    3    0    0 -0.46027989262E+00  0.76692175014E+01 -0.10331228361E+01  0.77521672917E+01  0.51100000000E-03 0.  1.
        -12    1    3    3    0    0  0.16281426381E+02 -0.21330387999E+02 -0.33202238422E+02  0.42690267432E+02  0.00000000000E+00 0.  1.
</event>
<event>
 7    1  0.3861961E-015  0.9000767E+02  0.7816164E-02  0.1186339E+00
        -11   -1    0    0    0    0  0.00000000000E+00  0.00000000000E+00  0.45593999997E+02  0.45594000000E+02  0.51100000000E-03 0.  1.
         11   -1    0    0    0    0 -0.00000000000E+00 -0.00000000000E+00 -0.45593999997E+02  0.45594000000E+02  0.51100000000E-03 0. -1.
    9900012    2    1    2    0    0 -0.30790853820E-01 -0.48566432172E+00 -0.10753390544E+01  0.90007672930E+02  0.89999933413E+02 0.  0.
        -12    1    1    2    0    0  0.30790853820E-01  0.48566432172E+00  0.10753390544E+01  0.11803270699E+01  0.00000000000E+00 0.  1.
         11    1    3    3    0    0 -0.28504525980E+02 -0.19693311117E+02 -0.65306489686E+01  0.35255976519E+02  0.51100000000E-03 0. -1.
        -11    1    3    3    0    0 -0.94849995373E+01 -0.36526422656E+01  0.74986208440E+00  0.10191629171E+02  0.51100000000E-03 0.  1.
        -12    1    3    3    0    0  0.37958734664E+02  0.22860289061E+02  0.47054478298E+01  0.44560067241E+02  0.00000000000E+00 0.  1.
</event>
<event>
 7    1  0.3861961E-015  0.9000783E+02  0.7816164E-02  0.1186339E+00
        -11   -1    0    0    0    0  0.00000000000E+00  0.00000000000E+00  0.45593999997E+02  0.45594000000E+02  0.51100000000E-03 0. -1.
         11   -1    0    0    0    0 -0.00000000000E+00 -0.00000000000E+00 -0.45593999997E+02  0.45594000000E+02  0.51100000000E-03 0.  1.
    9900012    2    1    2    0    0 -0.48792224348E+00 -0.75363076378E-01  0.10719411065E+01  0.90007828214E+02  0.90000090746E+02 0.  0.
        -12    1    1    2    0    0  0.48792224348E+00  0.75363076378E-01 -0.10719411065E+01  0.11801717861E+01  0.00000000000E+00 0.  1.
         11    1    3    3    0    0 -0.33382081164E+02 -0.20736589003E+02  0.12354238500E+01  0.39317880649E+02  0.51100000000E-03 0. -1.
        -11    1    3    3    0    0 -0.38289787908E+01  0.61125619634E+01  0.75524344787E+01  0.10443359572E+02  0.51100000000E-03 0.  1.
        -12    1    3    3    0    0  0.36723137712E+02  0.14548663964E+02 -0.77159172222E+01  0.40246587993E+02  0.00000000000E+00 0.  1.
</event>
<event>
 7    1  0.3861961E-015  0.9000774E+02  0.7816164E-02  0.1186339E+00
        -11   -1    0    0    0    0  0.00000000000E+00  0.00000000000E+00  0.45593999997E+02  0.45594000000E+02  0.51100000000E-03 0.  1.
         11   -1    0    0    0    0 -0.00000000000E+00 -0.00000000000E+00 -0.45593999997E+02  0.45594000000E+02  0.51100000000E-03 0. -1.
    9900012    2    1    2    0    0 -0.96268248258E+00  0.64751193167E+00  0.21676940113E+00  0.90007738064E+02  0.89999999407E+02 0.  0.
        -12    1    1    2    0    0  0.96268248258E+00 -0.64751193167E+00 -0.21676940113E+00  0.11802619358E+01  0.00000000000E+00 0.  1.
         11    1    3    3    0    0  0.12767602660E+02  0.17367745792E+02 -0.30157171490E+02  0.37068925856E+02  0.51100000000E-03 0. -1.
        -11    1    3    3    0    0 -0.48079806955E+01  0.41482810464E+01 -0.68505569055E+01  0.93410408512E+01  0.51100000000E-03 0.  1.
        -12    1    3    3    0    0 -0.89223044475E+01 -0.20868514907E+02  0.37224497797E+02  0.43597771357E+02  0.00000000000E+00 0.  1.
</event>
<event>
 7    1  0.3861961E-015  0.9000772E+02  0.7816164E-02  0.1186339E+00
        -11   -1    0    0    0    0  0.00000000000E+00  0.00000000000E+00  0.45593999997E+02  0.45594000000E+02  0.51100000000E-03 0.  1.
         11   -1    0    0    0    0 -0.00000000000E+00 -0.00000000000E+00 -0.45593999997E+02  0.45594000000E+02  0.51100000000E-03 0. -1.
    9900012    2    1    2    0    0 -0.71702842681E-01 -0.11656729411E+01 -0.17066679576E+00  0.90007719585E+02  0.89999980683E+02 0.  0.
        -12    1    1    2    0    0  0.71702842681E-01  0.11656729411E+01  0.17066679576E+00  0.11802804152E+01  0.00000000000E+00 0.  1.
         11    1    3    3    0    0  0.23714156377E+02  0.19864414751E+02  0.22791746604E+02  0.38424209811E+02  0.51100000000E-03 0. -1.
        -11    1    3    3    0    0  0.72630492359E+01  0.12143329798E+01 -0.70888508589E+01  0.10221462496E+02  0.51100000000E-03 0.  1.
        -12    1    3    3    0    0 -0.31048908456E+02 -0.22244420672E+02 -0.15873562541E+02  0.41362047278E+02  0.00000000000E+00 0.  1.
</event>
<event>
 7    1  0.4147488E-015  0.9000775E+02  0.7816164E-02  0.1186339E+00
        -11   -1    0    0    0    0  0.00000000000E+00  0.00000000000E+00  0.45593999997E+02  0.45594000000E+02  0.51100000000E-03 0. -1.
         11   -1    0    0    0    0 -0.00000000000E+00 -0.00000000000E+00 -0.45593999997E+02  0.45594000000E+02  0.51100000000E-03 0.  1.
    9900012    2    1    2    0    0  0.32215028889E+00  0.20104668776E+00  0.11174907154E+01  0.90007751688E+02  0.90000013210E+02 0.  0.
        -12    1    1    2    0    0 -0.32215028889E+00 -0.20104668776E+00 -0.11174907154E+01  0.11802483122E+01  0.00000000000E+00 0.  1.
         11    1    3    3    0    0 -0.84945250638E+01  0.42536914505E+01 -0.33284340638E+01  0.10066246599E+02  0.51100000000E-03 0. -1.
        -11    1    3    3    0    0  0.69682771869E+01 -0.22501527855E+02 -0.31595773493E+02  0.39410259396E+02  0.51100000000E-03 0.  1.
         12    1    3    3    0    0  0.18483981658E+01  0.18448883092E+02  0.36041698272E+02  0.40531245693E+02  0.00000000000E+00 0. -1.
</event>
<event>
 7    1  0.3861961E-015  0.9000772E+02  0.7816164E-02  0.1186339E+00
        -11   -1    0    0    0    0  0.00000000000E+00  0.00000000000E+00  0.45593999997E+02  0.45594000000E+02  0.51100000000E-03 0.  1.
         11   -1    0    0    0    0 -0.00000000000E+00 -0.00000000000E+00 -0.45593999997E+02  0.45594000000E+02  0.51100000000E-03 0. -1.
    9900012    2    1    2    0    0  0.57698841296E+00  0.16023110474E+00 -0.10170915871E+01  0.90007718283E+02  0.89999979364E+02 0.  0.
        -12    1    1    2    0    0 -0.57698841296E+00 -0.16023110474E+00  0.10170915871E+01  0.11802817173E+01  0.00000000000E+00 0.  1.
         11    1    3    3    0    0  0.83074026235E+01  0.27689871637E+00 -0.86940630635E+01  0.12028147990E+02  0.51100000000E-03 0. -1.
        -11    1    3    3    0    0 -0.72903892625E+01  0.26532161726E+02  0.31785743893E+02  0.42040919311E+02  0.51100000000E-03 0.  1.
         12    1    3    3    0    0 -0.44002494806E+00 -0.26648829337E+02 -0.24108772416E+02  0.35938650982E+02  0.00000000000E+00 0. -1.
</event>
<event>
 7    1  0.3861961E-015  0.9000780E+02  0.7816164E-02  0.1186339E+00
        -11   -1    0    0    0    0  0.00000000000E+00  0.00000000000E+00  0.45593999997E+02  0.45594000000E+02  0.51100000000E-03 0. -1.
         11   -1    0    0    0    0 -0.00000000000E+00 -0.00000000000E+00 -0.45593999997E+02  0.45594000000E+02  0.51100000000E-03 0.  1.
    9900012    2    1    2    0    0 -0.76642843270E+00  0.13225814397E+00  0.88767214698E+00  0.90007802305E+02  0.90000064495E+02 0.  0.
        -12    1    1    2    0    0  0.76642843270E+00 -0.13225814397E+00 -0.88767214698E+00  0.11801976951E+01  0.00000000000E+00 0.  1.
         11    1    3    3    0    0 -0.52121745084E+01  0.62929819021E+01 -0.38183641144E+01  0.90193286389E+01  0.51100000000E-03 0. -1.
        -11    1    3    3    0    0 -0.20753432111E+02  0.20568220980E+02 -0.21146713391E+02  0.36068547880E+02  0.51100000000E-03 0.  1.
         12    1    3    3    0    0  0.25199178187E+02 -0.26728944738E+02  0.25852749652E+02  0.44919925786E+02  0.00000000000E+00 0. -1.
</event>
<event>
 7    1  0.3861961E-015  0.9000776E+02  0.7816164E-02  0.1186339E+00
        -11   -1    0    0    0    0  0.00000000000E+00  0.00000000000E+00  0.45593999997E+02  0.45594000000E+02  0.51100000000E-03 0. -1.
         11   -1    0    0    0    0 -0.00000000000E+00 -0.00000000000E+00 -0.45593999997E+02  0.45594000000E+02  0.51100000000E-03 0.  1.
    9900012    2    1    2    0    0  0.40383055213E+00 -0.72978911525E+00  0.83504854814E+00  0.90007755388E+02  0.90000016959E+02 0.  0.
        -12    1    1    2    0    0 -0.40383055213E+00  0.72978911525E+00 -0.83504854814E+00  0.11802446125E+01  0.00000000000E+00 0.  1.
         11    1    3    3    0    0  0.28524657770E+02 -0.25057738621E+02  0.42741560654E+01  0.38207522506E+02  0.51100000000E-03 0. -1.
        -11    1    3    3    0    0 -0.52417830209E+01 -0.94840808289E+01 -0.13706347352E+01  0.10922578370E+02  0.51100000000E-03 0.  1.
        -12    1    3    3    0    0 -0.22879044197E+02  0.33812030335E+02 -0.20684727820E+01  0.40877654512E+02  0.00000000000E+00 0.  1.
</event>
<event>
 7    1  0.3861961E-015  0.9000769E+02  0.7816164E-02  0.1186339E+00
        -11   -1    0    0    0    0  0.00000000000E+00  0.00000000000E+00  0.45593999997E+02  0.45594000000E+02  0.51100000000E-03 0. -1.
         11   -1    0    0    0    0 -0.00000000000E+00 -0.00000000000E+00 -0.45593999997E+02  0.45594000000E+02  0.51100000000E-03 0.  1.
    9900012    2    1    2    0    0 -0.54371796581E+00  0.10029986972E+01  0.30246889418E+00  0.90007693665E+02  0.89999954421E+02 0.  0.
        -12    1    1    2    0    0  0.54371796581E+00 -0.10029986972E+01 -0.30246889418E+00  0.11803063352E+01  0.00000000000E+00 0.  1.
         11    1    3    3    0    0  0.31447668385E+02  0.17028916404E+02 -0.26480487664E+01  0.35860172940E+02  0.51100000000E-03 0. -1.
        -11    1    3    3    0    0  0.18384378975E-01  0.10815720549E+02 -0.44989421145E+01  0.11714120940E+02  0.51100000000E-03 0.  1.
        -12    1    3    3    0    0 -0.32009770730E+02 -0.26841638256E+02  0.74494597751E+01  0.42433399785E+02  0.00000000000E+00 0.  1.
</event>
<event>
 7    1  0.3861961E-015  0.9000802E+02  0.7816164E-02  0.1186338E+00
        -11   -1    0    0    0    0  0.00000000000E+00  0.00000000000E+00  0.45593999997E+02  0.45594000000E+02  0.51100000000E-03 0. -1.
         11   -1    0    0    0    0 -0.00000000000E+00 -0.00000000000E+00 -0.45593999997E+02  0.45594000000E+02  0.51100000000E-03 0.  1.
    9900012    2    1    2    0    0 -0.21143663228E+00  0.69114142586E+00  0.93272458464E+00  0.90008018190E+02  0.90000283230E+02 0.  0.
        -12    1    1    2    0    0  0.21143663228E+00 -0.69114142586E+00 -0.93272458464E+00  0.11799818095E+01  0.00000000000E+00 0.  1.
         11    1    3    3    0    0 -0.16889171072E+00  0.60783962645E+01  0.83325299041E+01  0.10315351687E+02  0.51100000000E-03 0. -1.
        -11    1    3    3    0    0  0.13563721547E+02  0.32176768613E+02 -0.16647458394E+02  0.38684064572E+02  0.51100000000E-03 0.  1.
         12    1    3    3    0    0 -0.13606266468E+02 -0.37564023451E+02  0.92476530743E+01  0.41008601932E+02  0.00000000000E+00 0. -1.
</event>
<event>
 7    1  0.3861961E-015  0.9000761E+02  0.7816164E-02  0.1186339E+00
        -11   -1    0    0    0    0  0.00000000000E+00  0.00000000000E+00  0.45593999997E+02  0.45594000000E+02  0.51100000000E-03 0.  1.
         11   -1    0    0    0    0 -0.00000000000E+00 -0.00000000000E+00 -0.45593999997E+02  0.45594000000E+02  0.51100000000E-03 0. -1.
    9900012    2    1    2    0    0  0.59734944232E+00 -0.17700938626E+00 -0.10025828553E+01  0.90007605549E+02  0.89999865142E+02 0.  0.
        -12    1    1    2    0    0 -0.59734944232E+00  0.17700938626E+00  0.10025828553E+01  0.11803944513E+01  0.00000000000E+00 0.  1.
         11    1    3    3    0    0 -0.33898503136E+01 -0.33183759886E+01 -0.95327928750E+01  0.10647856339E+02  0.51100000000E-03 0. -1.
        -11    1    3    3    0    0  0.60441844822E+01 -0.36680540855E+02  0.12659341158E+02  0.39271531194E+02  0.51100000000E-03 0.  1.
         12    1    3    3    0    0 -0.20569847263E+01  0.39821907458E+02 -0.41291311385E+01  0.40088218016E+02  0.00000000000E+00 0. -1.
</event>
<event>
 7    1  0.3861961E-015  0.9000773E+02  0.7816164E-02  0.1186339E+00
        -11   -1    0    0    0    0  0.00000000000E+00  0.00000000000E+00  0.45593999997E+02  0.45594000000E+02  0.51100000000E-03 0. -1.
         11   -1    0    0    0    0 -0.00000000000E+00 -0.00000000000E+00 -0.45593999997E+02  0.45594000000E+02  0.51100000000E-03 0.  1.
    9900012    2    1    2    0    0  0.51643531516E+00 -0.28985351055E+00  0.10209397960E+01  0.90007729455E+02  0.89999990684E+02 0.  0.
        -12    1    1    2    0    0 -0.51643531516E+00  0.28985351055E+00 -0.10209397960E+01  0.11802705450E+01  0.00000000000E+00 0.  1.
         11    1    3    3    0    0 -0.12254350339E+02 -0.11643549989E+01 -0.30745789637E+01  0.12687705106E+02  0.51100000000E-03 0. -1.
        -11    1    3    3    0    0  0.44152216528E+01 -0.32656278797E+02  0.20768355673E+02  0.38951910412E+02  0.51100000000E-03 0.  1.
         12    1    3    3    0    0  0.83555640016E+01  0.33530780285E+02 -0.16672836913E+02  0.38368113937E+02  0.00000000000E+00 0. -1.
</event>
<event>
 7    1  0.4804849E-015  0.9000772E+02  0.7816164E-02  0.1186339E+00
        -11   -1    0    0    0    0  0.00000000000E+00  0.00000000000E+00  0.45593999997E+02  0.45594000000E+02  0.51100000000E-03 0. -1.
         11   -1    0    0    0    0 -0.00000000000E+00 -0.00000000000E+00 -0.45593999997E+02  0.45594000000E+02  0.51100000000E-03 0.  1.
    9900012    2    1    2    0    0  0.95871733070E+00 -0.68347887344E+00  0.82343160338E-01  0.90007719234E+02  0.89999980328E+02 0.  0.
        -12    1    1    2    0    0 -0.95871733070E+00  0.68347887344E+00 -0.82343160338E-01  0.11802807660E+01  0.00000000000E+00 0.  1.
         11    1    3    3    0    0 -0.53080421354E+01  0.75692645071E+01 -0.18384046291E+01  0.94259645835E+01  0.51100000000E-03 0. -1.
        -11    1    3    3    0    0  0.78844173335E+01  0.32107498229E+02  0.17356339408E+02  0.37340299907E+02  0.51100000000E-03 0.  1.
         12    1    3    3    0    0 -0.16176578674E+01 -0.40360241609E+02 -0.15435591619E+02  0.43241454744E+02  0.00000000000E+00 0. -1.
</event>
<event>
 7    1  0.3861961E-015  0.9000776E+02  0.7816164E-02  0.1186339E+00
        -11   -1    0    0    0    0  0.00000000000E+00  0.00000000000E+00  0.45593999997E+02  0.45594000000E+02  0.51100000000E-03 0.  1.
         11   -1    0    0    0    0 -0.00000000000E+00 -0.00000000000E+00 -0.45593999997E+02  0.45594000000E+02  0.51100000000E-03 0. -1.
    9900012    2    1    2    0    0 -0.79689246110E+00 -0.65147597943E+00 -0.57750274283E+00  0.90007759362E+02  0.90000020985E+02 0.  0.
        -12    1    1    2    0    0  0.79689246110E+00  0.65147597943E+00  0.57750274283E+00  0.11802406383E+01  0.00000000000E+00 0.  1.
         11    1    3    3    0    0  0.34957382335E+01 -0.38994600893E+02 -0.43164652599E+01  0.39388208352E+02  0.51100000000E-03 0. -1.
        -11    1    3    3    0    0  0.32076494310E+01 -0.30777149924E+01 -0.59472886332E+01  0.74250647670E+01  0.51100000000E-03 0.  1.
        -12    1    3    3    0    0 -0.75002801256E+01  0.41420839905E+02  0.96862511503E+01  0.43194486243E+02  0.00000000000E+00 0.  1.
</event>
<event>
 7    1  0.3861961E-015  0.9000777E+02  0.7816164E-02  0.1186339E+00
        -11   -1    0    0    0    0  0.00000000000E+00  0.00000000000E+00  0.45593999997E+02  0.45594000000E+02  0.51100000000E-03 0. -1.
         11   -1    0    0    0    0 -0.00000000000E+00 -0.00000000000E+00 -0.45593999997E+02  0.45594000000E+02  0.51100000000E-03 0.  1.
    9900012    2    1    2    0    0 -0.72617670894E+00 -0.40485565995E+00  0.83767380631E+00  0.90007772003E+02  0.90000033794E+02 0.  0.
        -12    1    1    2    0    0  0.72617670894E+00  0.40485565995E+00 -0.83767380631E+00  0.11802279965E+01  0.00000000000E+00 0.  1.
         11    1    3    3    0    0  0.14622256189E+02 -0.84368665162E+01  0.30948279958E+02  0.35253186030E+02  0.51100000000E-03 0. -1.
        -11    1    3    3    0    0 -0.16062965536E+02 -0.45414864710E+01  0.50230221903E+01  0.17432002563E+02  0.51100000000E-03 0.  1.
        -12    1    3    3    0    0  0.71453263818E+00  0.12573497327E+02 -0.35133628342E+02  0.37322583410E+02  0.00000000000E+00 0.  1.
</event>
<event>
 7    1  0.3861961E-015  0.9000772E+02  0.7816164E-02  0.1186339E+00
        -11   -1    0    0    0    0  0.00000000000E+00  0.00000000000E+00  0.45593999997E+02  0.45594000000E+02  0.51100000000E-03 0.  1.
         11   -1    0    0    0    0 -0.00000000000E+00 -0.00000000000E+00 -0.45593999997E+02  0.45594000000E+02  0.51100000000E-03 0. -1.
    9900012    2    1    2    0    0 -0.70225256250E+00 -0.38534517299E+00 -0.86684066329E+00  0.90007719398E+02  0.89999980494E+02 0.  0.
        -12    1    1    2    0    0  0.70225256250E+00  0.38534517299E+00  0.86684066329E+00  0.11802806020E+01  0.00000000000E+00 0.  1.
         11    1    3    3    0    0  0.61531939292E+01  0.65895684517E+01 -0.98290145357E+00  0.90691953027E+01  0.51100000000E-03 0. -1.
        -11    1    3    3    0    0  0.23567246831E+02 -0.73682750257E+01  0.29616510315E+02  0.38559619858E+02  0.51100000000E-03 0.  1.
         12    1    3    3    0    0 -0.30422693323E+02  0.39336140096E+00 -0.29500449525E+02  0.42378904238E+02  0.00000000000E+00 0. -1.
</event>
<event>
 7    1  0.3861961E-015  0.9000748E+02  0.7816164E-02  0.1186340E+00
        -11   -1    0    0    0    0  0.00000000000E+00  0.00000000000E+00  0.45593999997E+02  0.45594000000E+02  0.51100000000E-03 0.  1.
         11   -1    0    0    0    0 -0.00000000000E+00 -0.00000000000E+00 -0.45593999997E+02  0.45594000000E+02  0.51100000000E-03 0. -1.
    9900012    2    1    2    0    0  0.10497076683E+01 -0.31353786256E+00  0.43980542253E+00  0.90007482745E+02  0.89999740717E+02 0.  0.
        -12    1    1    2    0    0 -0.10497076683E+01  0.31353786256E+00 -0.43980542253E+00  0.11805172552E+01  0.00000000000E+00 0.  1.
         11    1    3    3    0    0 -0.20039202214E+02 -0.17353517429E+02 -0.28819695100E+02  0.39157234561E+02  0.51100000000E-03 0. -1.
        -11    1    3    3    0    0  0.57862260487E+01 -0.19631038876E+01 -0.56082838563E+01  0.82937950803E+01  0.51100000000E-03 0.  1.
        -12    1    3    3    0    0  0.15302683834E+02  0.19003083454E+02  0.34867784379E+02  0.42556453104E+02  0.00000000000E+00 0.  1.
</event>
<event>
 7    1  0.3861961E-015  0.9000776E+02  0.7816164E-02  0.1186339E+00
        -11   -1    0    0    0    0  0.00000000000E+00  0.00000000000E+00  0.45593999997E+02  0.45594000000E+02  0.51100000000E-03 0.  1.
         11   -1    0    0    0    0 -0.00000000000E+00 -0.00000000000E+00 -0.45593999997E+02  0.45594000000E+02  0.51100000000E-03 0. -1.
    9900012    2    1    2    0    0  0.70771568138E-01  0.42446530411E-01 -0.11773556512E+01  0.90007755681E+02  0.90000017256E+02 0.  0.
        -12    1    1    2    0    0 -0.70771568138E-01 -0.42446530411E-01  0.11773556512E+01  0.11802443189E+01  0.00000000000E+00 0.  1.
         11    1    3    3    0    0 -0.26265192593E+02  0.73988264148E+01 -0.26192064385E+02  0.37823632973E+02  0.51100000000E-03 0. -1.
        -11    1    3    3    0    0  0.16578436090E+01  0.54886638109E+00 -0.91435633486E+01  0.93088372372E+01  0.51100000000E-03 0.  1.
        -12    1    3    3    0    0  0.24678120552E+02 -0.79052462655E+01  0.34158272083E+02  0.42875285471E+02  0.00000000000E+00 0.  1.
</event>
<event>
 7    1  0.3861961E-015  0.9000771E+02  0.7816164E-02  0.1186339E+00
        -11   -1    0    0    0    0  0.00000000000E+00  0.00000000000E+00  0.45593999997E+02  0.45594000000E+02  0.51100000000E-03 0. -1.
         11   -1    0    0    0    0 -0.00000000000E+00 -0.00000000000E+00 -0.45593999997E+02  0.45594000000E+02  0.51100000000E-03 0.  1.
    9900012    2    1    2    0    0 -0.12418510215E-01  0.44046089697E+00  0.10949507103E+01  0.90007713137E+02  0.89999974150E+02 0.  0.
        -12    1    1    2    0    0  0.12418510215E-01 -0.44046089697E+00 -0.10949507103E+01  0.11802868630E+01  0.00000000000E+00 0.  1.
         11    1    3    3    0    0 -0.54675943419E+01  0.53929428492E+01 -0.44796961160E+01  0.88907872551E+01  0.51100000000E-03 0. -1.
        -11    1    3    3    0    0  0.41809378602E+02 -0.16295138826E+01 -0.71688782185E+01  0.42450821780E+02  0.51100000000E-03 0.  1.
         12    1    3    3    0    0 -0.36354202771E+02 -0.33229680696E+01  0.12743525045E+02  0.38666104102E+02  0.00000000000E+00 0. -1.
</event>
<event>
 7    1  0.3861961E-015  0.9000779E+02  0.7816164E-02  0.1186339E+00
        -11   -1    0    0    0    0  0.00000000000E+00  0.00000000000E+00  0.45593999997E+02  0.45594000000E+02  0.51100000000E-03 0.  1.
         11   -1    0    0    0    0 -0.00000000000E+00 -0.00000000000E+00 -0.45593999997E+02  0.45594000000E+02  0.51100000000E-03 0. -1.
    9900012    2    1    2    0    0 -0.16152607443E+00  0.42082189947E+00 -0.10907400487E+01  0.90007790020E+02  0.90000052048E+02 0.  0.
        -12    1    1    2    0    0  0.16152607443E+00 -0.42082189947E+00  0.10907400487E+01  0.11802099803E+01  0.00000000000E+00 0.  1.
         11    1    3    3    0    0 -0.18943027080E+02 -0.33330583010E+02 -0.59813451850E+01  0.38801321231E+02  0.51100000000E-03 0. -1.
        -11    1    3    3    0    0 -0.79856652012E+01  0.39856442994E+00  0.24868046518E+01  0.83734043225E+01  0.51100000000E-03 0.  1.
        -12    1    3    3    0    0  0.26767166207E+02  0.33352840480E+02  0.24038004845E+01  0.42833064466E+02  0.00000000000E+00 0.  1.
</event>
<event>
 7    1  0.3861961E-015  0.9000776E+02  0.7816164E-02  0.1186339E+00
        -11   -1    0    0    0    0  0.00000000000E+00  0.00000000000E+00  0.45593999997E+02  0.45594000000E+02  0.51100000000E-03 0. -1.
         11   -1    0    0    0    0 -0.00000000000E+00 -0.00000000000E+00 -0.45593999997E+02  0.45594000000E+02  0.51100000000E-03 0.  1.
    9900012    2    1    2    0    0  0.98522459940E+00  0.60943384502E+00  0.22556078275E+00  0.90007764943E+02  0.90000026640E+02 0.  0.
        -12    1    1    2    0    0 -0.98522459940E+00 -0.60943384502E+00 -0.22556078275E+00  0.11802350569E+01  0.00000000000E+00 0.  1.
         11    1    3    3    0    0 -0.37498988259E+02  0.72386597136E+01  0.52840425209E+01  0.38555069972E+02  0.51100000000E-03 0. -1.
        -11    1    3    3    0    0 -0.16464004964E+01 -0.66397223265E+01  0.67606086096E+01  0.96178155629E+01  0.51100000000E-03 0.  1.
        -12    1    3    3    0    0  0.40130613355E+02  0.10496457888E-01 -0.11819090348E+02  0.41834879408E+02  0.00000000000E+00 0.  1.
</event>
<event>
 7    1  0.3861961E-015  0.9000777E+02  0.7816164E-02  0.1186339E+00
        -11   -1    0    0    0    0  0.00000000000E+00  0.00000000000E+00  0.45593999997E+02  0.45594000000E+02  0.51100000000E-03 0. -1.
         11   -1    0    0    0    0 -0.00000000000E+00 -0.00000000000E+00 -0.45593999997E+02  0.45594000000E+02  0.51100000000E-03 0.  1.
    9900012    2    1    2    0    0 -0.11609770321E+01  0.11451308151E+00  0.17876409513E+00  0.90007772261E+02  0.90000034055E+02 0.  0.
        -12    1    1    2    0    0  0.11609770321E+01 -0.11451308151E+00 -0.17876409513E+00  0.11802277393E+01  0.00000000000E+00 0.  1.
         11    1    3    3    0    0  0.41461597622E+01 -0.72926349032E+01  0.24303715060E+01  0.87338348119E+01  0.51100000000E-03 0. -1.
        -11    1    3    3    0    0  0.32056532001E+02  0.32388287613E+01  0.19674556167E+02  0.37751813417E+02  0.51100000000E-03 0.  1.
         12    1    3    3    0    0 -0.37363668795E+02  0.41683192234E+01 -0.21926163578E+02  0.43522124032E+02  0.00000000000E+00 0. -1.
</event>
<event>
 7    1  0.3861961E-015  0.9000774E+02  0.7816164E-02  0.1186339E+00
        -11   -1    0    0    0    0  0.00000000000E+00  0.00000000000E+00  0.45593999997E+02  0.45594000000E+02  0.51100000000E-03 0.  1.
         11   -1    0    0    0    0 -0.00000000000E+00 -0.00000000000E+00 -0.45593999997E+02  0.45594000000E+02  0.51100000000E-03 0. -1.
    9900012    2    1    2    0    0 -0.61314702892E+00 -0.49355883612E+00 -0.87946575874E+00  0.90007741713E+02  0.90000003103E+02 0.  0.
        -12    1    1    2    0    0  0.61314702892E+00  0.49355883612E+00  0.87946575874E+00  0.11802582872E+01  0.00000000000E+00 0.  1.
         11    1    3    3    0    0  0.18901803039E+01  0.66020964076E+01 -0.52239668596E+01  0.86284580644E+01  0.51100000000E-03 0. -1.
        -11    1    3    3    0    0 -0.30594197573E+02  0.22332442773E+02  0.12499209003E+02  0.39887004792E+02  0.51100000000E-03 0.  1.
         12    1    3    3    0    0  0.28090870240E+02 -0.29428098017E+02 -0.81547079025E+01  0.41492278856E+02  0.00000000000E+00 0. -1.
</event>
<event>
 7    1  0.3861961E-015  0.9000792E+02  0.7816164E-02  0.1186339E+00
        -11   -1    0    0    0    0  0.00000000000E+00  0.00000000000E+00  0.45593999997E+02  0.45594000000E+02  0.51100000000E-03 0. -1.
         11   -1    0    0    0    0 -0.00000000000E+00 -0.00000000000E+00 -0.45593999997E+02  0.45594000000E+02  0.51100000000E-03 0.  1.
    9900012    2    1    2    0    0 -0.57920756901E-02  0.29586333157E+00  0.11423745243E+01  0.90007920252E+02  0.90000183999E+02 0.  0.
        -12    1    1    2    0    0  0.57920756901E-02 -0.29586333157E+00 -0.11423745243E+01  0.11800797485E+01  0.00000000000E+00 0.  1.
         11    1    3    3    0    0  0.70650050334E+01 -0.42347523221E+01 -0.39374438997E+01  0.91296707540E+01  0.51100000000E-03 0. -1.
        -11    1    3    3    0    0 -0.28135942037E+02  0.27267604638E+02 -0.17114784876E+02  0.42755927761E+02  0.51100000000E-03 0.  1.
         12    1    3    3    0    0  0.21065144928E+02 -0.22736988985E+02  0.22194603300E+02  0.38122321737E+02  0.00000000000E+00 0. -1.
</event>
<event>
 7    1  0.3861961E-015  0.9000775E+02  0.7816164E-02  0.1186339E+00
        -11   -1    0    0    0    0  0.00000000000E+00  0.00000000000E+00  0.45593999997E+02  0.45594000000E+02  0.51100000000E-03 0.  1.
         11   -1    0    0    0    0 -0.00000000000E+00 -0.00000000000E+00 -0.45593999997E+02  0.45594000000E+02  0.51100000000E-03 0. -1.
    9900012    2    1    2    0    0 -0.18711713134E-01 -0.99016460943E-01 -0.11759386168E+01  0.90007751713E+02  0.90000013236E+02 0.  0.
        -12    1    1    2    0    0  0.18711713134E-01  0.99016460943E-01  0.11759386168E+01  0.11802482867E+01  0.00000000000E+00 0.  1.
         11    1    3    3    0    0  0.10282246254E+02 -0.64607802167E+01 -0.30029130885E+02  0.32391587967E+02  0.51100000000E-03 0. -1.
        -11    1    3    3    0    0 -0.18360683508E+02 -0.10947668465E+02 -0.18536573653E+01  0.21456984634E+02  0.51100000000E-03 0.  1.
        -12    1    3    3    0    0  0.80597255413E+01  0.17309432221E+02  0.30706849634E+02  0.36159179112E+02  0.00000000000E+00 0.  1.
</event>
<event>
 7    1  0.3861961E-015  0.9000774E+02  0.7816164E-02  0.1186339E+00
        -11   -1    0    0    0    0  0.00000000000E+00  0.00000000000E+00  0.45593999997E+02  0.45594000000E+02  0.51100000000E-03 0. -1.
         11   -1    0    0    0    0 -0.00000000000E+00 -0.00000000000E+00 -0.45593999997E+02  0.45594000000E+02  0.51100000000E-03 0.  1.
    9900012    2    1    2    0    0 -0.70181174224E+00 -0.91796404766E+00  0.24046463494E+00  0.90007736913E+02  0.89999998240E+02 0.  0.
        -12    1    1    2    0    0  0.70181174224E+00  0.91796404766E+00 -0.24046463494E+00  0.11802630872E+01  0.00000000000E+00 0.  1.
         11    1    3    3    0    0 -0.26137445503E+02 -0.11588791571E+02 -0.31042098653E+02  0.42202820244E+02  0.51100000000E-03 0. -1.
        -11    1    3    3    0    0  0.20158053683E+01  0.10391483036E+02  0.28390901517E+01  0.10959325897E+02  0.51100000000E-03 0.  1.
        -12    1    3    3    0    0  0.23419828392E+02  0.27934448718E+00  0.28443473136E+02  0.36845590772E+02  0.00000000000E+00 0.  1.
</event>
<event>
 7    1  0.3861961E-015  0.9000767E+02  0.7816164E-02  0.1186339E+00
        -11   -1    0    0    0    0  0.00000000000E+00  0.00000000000E+00  0.45593999997E+02  0.45594000000E+02  0.51100000000E-03 0.  1.
         11   -1    0    0    0    0 -0.00000000000E+00 -0.00000000000E+00 -0.45593999997E+02  0.45594000000E+02  0.51100000000E-03 0. -1.
    9900012    2    1    2    0    0 -0.28836203326E+00 -0.97293040245E+00 -0.60285095179E+00  0.90007671444E+02  0.89999931907E+02 0.  0.
        -12    1    1    2    0    0  0.28836203326E+00  0.97293040245E+00  0.60285095179E+00  0.11803285561E+01  0.00000000000E+00 0.  1.
         11    1    3    3    0    0 -0.34982680172E+02 -0.10696267525E+01 -0.92324093337E-01  0.34999150524E+02  0.51100000000E-03 0. -1.
        -11    1    3    3    0    0 -0.71055267677E+01  0.95983097475E+01 -0.20395116021E+01  0.12115100845E+02  0.51100000000E-03 0.  1.
        -12    1    3    3    0    0  0.41799844906E+02 -0.95016133974E+01  0.15289847436E+01  0.42893420075E+02  0.00000000000E+00 0.  1.
</event>
<event>
 7    1  0.3861961E-015  0.9000767E+02  0.7816164E-02  0.1186339E+00
        -11   -1    0    0    0    0  0.00000000000E+00  0.00000000000E+00  0.45593999997E+02  0.45594000000E+02  0.51100000000E-03 0. -1.
         11   -1    0    0    0    0 -0.00000000000E+00 -0.00000000000E+00 -0.45593999997E+02  0.45594000000E+02  0.51100000000E-03 0.  1.
    9900012    2    1    2    0    0 -0.10030445239E+01  0.20148987675E+00 -0.58862824196E+00  0.90007669667E+02  0.89999930107E+02 0.  0.
        -12    1    1    2    0    0  0.10030445239E+01 -0.20148987675E+00  0.58862824196E+00  0.11803303328E+01  0.00000000000E+00 0.  1.
         11    1    3    3    0    0  0.19169652988E+02 -0.28059407891E+02 -0.18841727859E+02  0.38856359529E+02  0.51100000000E-03 0. -1.
        -11    1    3    3    0    0  0.90099153095E+00 -0.61900874434E+01  0.66555971763E+01  0.91337802869E+01  0.51100000000E-03 0.  1.
        -12    1    3    3    0    0 -0.21073689043E+02  0.34450985211E+02  0.11597502441E+02  0.42017529851E+02  0.00000000000E+00 0.  1.
</event>
<event>
 7    1  0.3861961E-015  0.9000728E+02  0.7816164E-02  0.1186340E+00
        -11   -1    0    0    0    0  0.00000000000E+00  0.00000000000E+00  0.45593999997E+02  0.45594000000E+02  0.51100000000E-03 0. -1.
         11   -1    0    0    0    0 -0.00000000000E+00 -0.00000000000E+00 -0.45593999997E+02  0.45594000000E+02  0.51100000000E-03 0.  1.
    9900012    2    1    2    0    0 -0.89563605620E+00 -0.64303827320E+00  0.42241782282E+00  0.90007280311E+02  0.89999535610E+02 0.  0.
        -12    1    1    2    0    0  0.89563605620E+00  0.64303827320E+00 -0.42241782282E+00  0.11807196886E+01  0.00000000000E+00 0.  1.
         11    1    3    3    0    0 -0.14993674531E+01 -0.55155922745E+01 -0.70995537941E+01  0.91144679074E+01  0.51100000000E-03 0. -1.
        -11    1    3    3    0    0  0.32399305289E+02  0.26637660999E+02  0.22718329861E+01  0.42005251959E+02  0.51100000000E-03 0.  1.
         12    1    3    3    0    0 -0.31795573892E+02 -0.21765106998E+02  0.52501386309E+01  0.38887560446E+02  0.00000000000E+00 0. -1.
</event>
<event>
 7    1  0.3861961E-015  0.9000775E+02  0.7816164E-02  0.1186339E+00
        -11   -1    0    0    0    0  0.00000000000E+00  0.00000000000E+00  0.45593999997E+02  0.45594000000E+02  0.51100000000E-03 0.  1.
         11   -1    0    0    0    0 -0.00000000000E+00 -0.00000000000E+00 -0.45593999997E+02  0.45594000000E+02  0.51100000000E-03 0. -1.
    9900012    2    1    2    0    0 -0.82714176723E+00 -0.66091870723E+00 -0.52154976404E+00  0.90007749519E+02  0.90000011013E+02 0.  0.
        -12    1    1    2    0    0  0.82714176723E+00  0.66091870723E+00  0.52154976404E+00  0.11802504806E+01  0.00000000000E+00 0.  1.
         11    1    3    3    0    0  0.63752661607E+01  0.66286524143E+01 -0.28004877469E+01  0.96138329157E+01  0.51100000000E-03 0. -1.
        -11    1    3    3    0    0 -0.43091961217E+02 -0.76124005974E+01 -0.40611634179E+01  0.43947227591E+02  0.51100000000E-03 0.  1.
         12    1    3    3    0    0  0.35889553289E+02  0.32282947586E+00  0.63401014007E+01  0.36446689012E+02  0.00000000000E+00 0. -1.
</event>
<event>
 7    1  0.3861961E-015  0.9000756E+02  0.7816164E-02  0.1186339E+00
        -11   -1    0    0    0    0  0.00000000000E+00  0.00000000000E+00  0.45593999997E+02  0.45594000000E+02  0.51100000000E-03 0.  1.
         11   -1    0    0    0    0 -0.00000000000E+00 -0.00000000000E+00 -0.45593999997E+02  0.45594000000E+02  0.51100000000E-03 0. -1.
    9900012    2    1    2    0    0  0.10693342935E+00  0.69521699735E+00  0.94798147601E+00  0.90007563508E+02  0.89999822547E+02 0.  0.
        -12    1    1    2    0    0 -0.10693342935E+00 -0.69521699735E+00 -0.94798147601E+00  0.11804364916E+01  0.00000000000E+00 0.  1.
         11    1    3    3    0    0  0.73378294865E+01  0.83056900477E-01 -0.74052150111E+01  0.10425346500E+02  0.51100000000E-03 0. -1.
        -11    1    3    3    0    0 -0.79752049268E+01  0.32764495046E+02 -0.17798963682E+02  0.38130291602E+02  0.51100000000E-03 0.  1.
         12    1    3    3    0    0  0.74430886965E+00 -0.32152334950E+02  0.26152160169E+02  0.41451925406E+02  0.00000000000E+00 0. -1.
</event>
<event>
 7    1  0.3861961E-015  0.9000778E+02  0.7816164E-02  0.1186339E+00
        -11   -1    0    0    0    0  0.00000000000E+00  0.00000000000E+00  0.45593999997E+02  0.45594000000E+02  0.51100000000E-03 0.  1.
         11   -1    0    0    0    0 -0.00000000000E+00 -0.00000000000E+00 -0.45593999997E+02  0.45594000000E+02  0.51100000000E-03 0. -1.
    9900012    2    1    2    0    0 -0.53275868492E+00  0.10154417097E+01 -0.27920330351E+00  0.90007784695E+02  0.90000046653E+02 0.  0.
        -12    1    1    2    0    0  0.53275868492E+00 -0.10154417097E+01  0.27920330351E+00  0.11802153053E+01  0.00000000000E+00 0.  1.
         11    1    3    3    0    0 -0.12662384169E+02  0.29024496789E+02 -0.22542766648E+02  0.38870730828E+02  0.51100000000E-03 0. -1.
        -11    1    3    3    0    0 -0.92408299544E+01 -0.18892897065E+02  0.36045374964E+01  0.21338397048E+02  0.51100000000E-03 0.  1.
        -12    1    3    3    0    0  0.21370455438E+02 -0.91161580152E+01  0.18659025848E+02  0.29798656819E+02  0.00000000000E+00 0.  1.
</event>
<event>
 7    1  0.3861961E-015  0.9000769E+02  0.7816164E-02  0.1186339E+00
        -11   -1    0    0    0    0  0.00000000000E+00  0.00000000000E+00  0.45593999997E+02  0.45594000000E+02  0.51100000000E-03 0. -1.
         11   -1    0    0    0    0 -0.00000000000E+00 -0.00000000000E+00 -0.45593999997E+02  0.45594000000E+02  0.51100000000E-03 0.  1.
    9900012    2    1    2    0    0 -0.45598492099E+00 -0.10098511065E+01  0.40670985786E+00  0.90007688849E+02  0.89999949541E+02 0.  0.
        -12    1    1    2    0    0  0.45598492099E+00  0.10098511065E+01 -0.40670985786E+00  0.11803111513E+01  0.00000000000E+00 0.  1.
         11    1    3    3    0    0 -0.35320434078E+02  0.19176182471E+01  0.90510146762E+01  0.36512069102E+02  0.51100000000E-03 0. -1.
        -11    1    3    3    0    0 -0.60208814231E+01 -0.19705433889E+00  0.73544247668E+01  0.95067032895E+01  0.51100000000E-03 0.  1.
        -12    1    3    3    0    0  0.40885330580E+02 -0.27304150146E+01 -0.15998729585E+02  0.43988916457E+02  0.00000000000E+00 0.  1.
</event>
<event>
 7    1  0.3861961E-015  0.9000778E+02  0.7816164E-02  0.1186339E+00
        -11   -1    0    0    0    0  0.00000000000E+00  0.00000000000E+00  0.45593999997E+02  0.45594000000E+02  0.51100000000E-03 0. -1.
         11   -1    0    0    0    0 -0.00000000000E+00 -0.00000000000E+00 -0.45593999997E+02  0.45594000000E+02  0.51100000000E-03 0.  1.
    9900012    2    1    2    0    0 -0.62464390584E+00 -0.33951659405E+00  0.94205024230E+00  0.90007783839E+02  0.90000045786E+02 0.  0.
        -12    1    1    2    0    0  0.62464390584E+00  0.33951659405E+00 -0.94205024230E+00  0.11802161606E+01  0.00000000000E+00 0.  1.
         11    1    3    3    0    0 -0.70268519686E+01  0.93161317465E+00  0.64151194752E+01  0.95602463273E+01  0.51100000000E-03 0. -1.
        -11    1    3    3    0    0 -0.21185384051E+02 -0.12727086802E+02  0.26810763455E+02  0.36463903701E+02  0.51100000000E-03 0.  1.
         12    1    3    3    0    0  0.27587592114E+02  0.11455957033E+02 -0.32283832688E+02  0.43983633811E+02  0.00000000000E+00 0. -1.
</event>
<event>
 7    1  0.3861961E-015  0.9000759E+02  0.7816164E-02  0.1186339E+00
        -11   -1    0    0    0    0  0.00000000000E+00  0.00000000000E+00  0.45593999997E+02  0.45594000000E+02  0.51100000000E-03 0. -1.
         11   -1    0    0    0    0 -0.00000000000E+00 -0.00000000000E+00 -0.45593999997E+02  0.45594000000E+02  0.51100000000E-03 0.  1.
    9900012    2    1    2    0    0  0.52366856018E+00 -0.98843698214E+00  0.37699595875E+00  0.90007592282E+02  0.89999851700E+02 0.  0.
        -12    1    1    2    0    0 -0.52366856018E+00  0.98843698214E+00 -0.37699595875E+00  0.11804077183E+01  0.00000000000E+00 0.  1.
         11    1    3    3    0    0  0.40961541186E+00 -0.33935461674E+02  0.35086605357E+01  0.34118822413E+02  0.51100000000E-03 0. -1.
        -11    1    3    3    0    0  0.35726835051E+01 -0.93612881762E+01  0.70299482944E+01  0.12240014585E+02  0.51100000000E-03 0.  1.
        -12    1    3    3    0    0 -0.34586303568E+01  0.42308312868E+02 -0.10161612871E+02  0.43648755284E+02  0.00000000000E+00 0.  1.
</event>
<event>
 7    1  0.3861961E-015  0.9000764E+02  0.7816164E-02  0.1186339E+00
        -11   -1    0    0    0    0  0.00000000000E+00  0.00000000000E+00  0.45593999997E+02  0.45594000000E+02  0.51100000000E-03 0. -1.
         11   -1    0    0    0    0 -0.00000000000E+00 -0.00000000000E+00 -0.45593999997E+02  0.45594000000E+02  0.51100000000E-03 0.  1.
    9900012    2    1    2    0    0  0.53637624273E+00 -0.10507230630E+01 -0.39123403239E-01  0.90007640280E+02  0.89999900331E+02 0.  0.
        -12    1    1    2    0    0 -0.53637624273E+00  0.10507230630E+01  0.39123403239E-01  0.11803597204E+01  0.00000000000E+00 0.  1.
         11    1    3    3    0    0 -0.39043130405E+02 -0.12820817364E+01 -0.53507100917E-01  0.39064211610E+02  0.51100000000E-03 0. -1.
        -11    1    3    3    0    0 -0.16453043924E+01  0.70306193161E+01  0.51189596682E+01  0.88510102732E+01  0.51100000000E-03 0.  1.
        -12    1    3    3    0    0  0.41224811041E+02 -0.67992606426E+01 -0.51045759705E+01  0.42092418396E+02  0.00000000000E+00 0.  1.
</event>
<event>
 7    1  0.3861961E-015  0.9000773E+02  0.7816164E-02  0.1186339E+00
        -11   -1    0    0    0    0  0.00000000000E+00  0.00000000000E+00  0.45593999997E+02  0.45594000000E+02  0.51100000000E-03 0.  1.
         11   -1    0    0    0    0 -0.00000000000E+00 -0.00000000000E+00 -0.45593999997E+02  0.45594000000E+02  0.51100000000E-03 0. -1.
    9900012    2    1    2    0    0  0.87332773108E+00  0.43607406802E-01 -0.79274320303E+00  0.90007726846E+02  0.89999988040E+02 0.  0.
        -12    1    1    2    0    0 -0.87332773108E+00 -0.43607406802E-01  0.79274320303E+00  0.11802731539E+01  0.00000000000E+00 0.  1.
         11    1    3    3    0    0 -0.11049830362E+02 -0.21104830721E+02  0.29067994663E+02  0.37582721359E+02  0.51100000000E-03 0. -1.
        -11    1    3    3    0    0 -0.55818379616E+01  0.53574327606E+01  0.58046098368E+01  0.96722539479E+01  0.51100000000E-03 0.  1.
        -12    1    3    3    0    0  0.17504996055E+02  0.15791005367E+02 -0.35665347703E+02  0.42752751539E+02  0.00000000000E+00 0.  1.
</event>
<event>
 7    1  0.3861961E-015  0.9000777E+02  0.7816164E-02  0.1186339E+00
        -11   -1    0    0    0    0  0.00000000000E+00  0.00000000000E+00  0.45593999997E+02  0.45594000000E+02  0.51100000000E-03 0. -1.
         11   -1    0    0    0    0 -0.00000000000E+00 -0.00000000000E+00 -0.45593999997E+02  0.45594000000E+02  0.51100000000E-03 0.  1.
    9900012    2    1    2    0    0 -0.16365327213E+00  0.11427508873E+01  0.24553294339E+00  0.90007767646E+02  0.90000029379E+02 0.  0.
        -12    1    1    2    0    0  0.16365327213E+00 -0.11427508873E+01 -0.24553294339E+00  0.11802323544E+01  0.00000000000E+00 0.  1.
         11    1    3    3    0    0  0.90632613821E+01  0.32624189306E+02  0.13054251044E+02  0.36289032852E+02  0.51100000000E-03 0. -1.
        -11    1    3    3    0    0  0.50533260438E+01  0.29482514389E+01  0.88501797277E+01  0.10609145683E+02  0.51100000000E-03 0.  1.
        -12    1    3    3    0    0 -0.14280240698E+02 -0.34429689858E+02 -0.21658897829E+02  0.43109589110E+02  0.00000000000E+00 0.  1.
</event>
<event>
 7    1  0.5758522E-015  0.9000777E+02  0.7816164E-02  0.1186339E+00
        -11   -1    0    0    0    0  0.00000000000E+00  0.00000000000E+00  0.45593999997E+02  0.45594000000E+02  0.51100000000E-03 0. -1.
         11   -1    0    0    0    0 -0.00000000000E+00 -0.00000000000E+00 -0.45593999997E+02  0.45594000000E+02  0.51100000000E-03 0.  1.
    9900012    2    1    2    0    0 -0.66777441421E+00  0.13044449805E+00  0.96436646216E+00  0.90007770739E+02  0.90000032513E+02 0.  0.
        -12    1    1    2    0    0  0.66777441421E+00 -0.13044449805E+00 -0.96436646216E+00  0.11802292611E+01  0.00000000000E+00 0.  1.
         11    1    3    3    0    0 -0.83605336080E+01  0.62795259147E+01  0.11773031000E+01  0.10522215108E+02  0.51100000000E-03 0. -1.
        -11    1    3    3    0    0 -0.24574335296E+02  0.58083716223E+01 -0.26181926301E+02  0.36374831975E+02  0.51100000000E-03 0.  1.
         12    1    3    3    0    0  0.32267094490E+02 -0.11957453039E+02  0.25968989663E+02  0.43110723656E+02  0.00000000000E+00 0. -1.
</event>
<event>
 7    1  0.3861961E-015  0.9000778E+02  0.7816164E-02  0.1186339E+00
        -11   -1    0    0    0    0  0.00000000000E+00  0.00000000000E+00  0.45593999997E+02  0.45594000000E+02  0.51100000000E-03 0. -1.
         11   -1    0    0    0    0 -0.00000000000E+00 -0.00000000000E+00 -0.45593999997E+02  0.45594000000E+02  0.51100000000E-03 0.  1.
    9900012    2    1    2    0    0 -0.11039279625E+01  0.62131586898E-01  0.41280845399E+00  0.90007776250E+02  0.90000038096E+02 0.  0.
        -12    1    1    2    0    0  0.11039279625E+01 -0.62131586898E-01 -0.41280845399E+00  0.11802237500E+01  0.00000000000E+00 0.  1.
         11    1    3    3    0    0 -0.38204794257E+02 -0.84103941194E-01 -0.94400614634E+01  0.39353883397E+02  0.51100000000E-03 0. -1.
        -11    1    3    3    0    0 -0.52876980454E+01 -0.45700702344E+01  0.62447092004E+00  0.70167839327E+01  0.51100000000E-03 0.  1.
        -12    1    3    3    0    0  0.42388564340E+02  0.47163057625E+01  0.92283989973E+01  0.43637108920E+02  0.00000000000E+00 0.  1.
</event>
<event>
 7    1  0.3861961E-015  0.9000771E+02  0.7816164E-02  0.1186339E+00
        -11   -1    0    0    0    0  0.00000000000E+00  0.00000000000E+00  0.45593999997E+02  0.45594000000E+02  0.51100000000E-03 0. -1.
         11   -1    0    0    0    0 -0.00000000000E+00 -0.00000000000E+00 -0.45593999997E+02  0.45594000000E+02  0.51100000000E-03 0.  1.
    9900012    2    1    2    0    0  0.30258543286E+00  0.11408117416E+01  0.81909433651E-02  0.90007713397E+02  0.89999974414E+02 0.  0.
        -12    1    1    2    0    0 -0.30258543286E+00 -0.11408117416E+01 -0.81909433651E-02  0.11802866031E+01  0.00000000000E+00 0.  1.
         11    1    3    3    0    0 -0.95754902826E+01  0.69340930680E+00 -0.20496967544E+01  0.98169286269E+01  0.51100000000E-03 0. -1.
        -11    1    3    3    0    0 -0.26998801993E+02  0.21646333539E+02 -0.99235787963E+01  0.35999673347E+02  0.51100000000E-03 0.  1.
         12    1    3    3    0    0  0.36876877708E+02 -0.21198931104E+02  0.11981466494E+02  0.44191111423E+02  0.00000000000E+00 0. -1.
</event>
<event>
 7    1  0.3861961E-015  0.9000758E+02  0.7816164E-02  0.1186339E+00
        -11   -1    0    0    0    0  0.00000000000E+00  0.00000000000E+00  0.45593999997E+02  0.45594000000E+02  0.51100000000E-03 0. -1.
         11   -1    0    0    0    0 -0.00000000000E+00 -0.00000000000E+00 -0.45593999997E+02  0.45594000000E+02  0.51100000000E-03 0.  1.
    9900012    2    1    2    0    0 -0.92059953333E+00  0.37320621567E+00  0.63765055102E+00  0.90007582868E+02  0.89999842162E+02 0.  0.
        -12    1    1    2    0    0  0.92059953333E+00 -0.37320621567E+00 -0.63765055102E+00  0.11804171320E+01  0.00000000000E+00 0.  1.
         11    1    3    3    0    0  0.27888479273E+02  0.19938142967E+02  0.22328410066E+02  0.40912769614E+02  0.51100000000E-03 0. -1.
        -11    1    3    3    0    0 -0.21715701773E+01 -0.77697313776E+01  0.50771454072E+01  0.95321481556E+01  0.51100000000E-03 0.  1.
        -12    1    3    3    0    0 -0.26637508629E+02 -0.11795205374E+02 -0.26767904923E+02  0.39562665099E+02  0.00000000000E+00 0.  1.
</event>
<event>
 7    1  0.4183367E-015  0.9000772E+02  0.7816164E-02  0.1186339E+00
        -11   -1    0    0    0    0  0.00000000000E+00  0.00000000000E+00  0.45593999997E+02  0.45594000000E+02  0.51100000000E-03 0. -1.
         11   -1    0    0    0    0 -0.00000000000E+00 -0.00000000000E+00 -0.45593999997E+02  0.45594000000E+02  0.51100000000E-03 0.  1.
    9900012    2    1    2    0    0  0.79417182243E+00 -0.53949598052E+00 -0.68650502598E+00  0.90007722936E+02  0.89999984079E+02 0.  0.
        -12    1    1    2    0    0 -0.79417182243E+00  0.53949598052E+00  0.68650502598E+00  0.11802770638E+01  0.00000000000E+00 0.  1.
         11    1    3    3    0    0 -0.21060321149E+01  0.26444886917E+01 -0.92201574605E+01  0.98203867321E+01  0.51100000000E-03 0. -1.
        -11    1    3    3    0    0  0.39875287688E+02  0.56974101562E+01  0.11928331979E+02  0.42009334139E+02  0.51100000000E-03 0.  1.
         12    1    3    3    0    0 -0.36975083751E+02 -0.88813948284E+01 -0.33946795449E+01  0.38178002065E+02  0.00000000000E+00 0. -1.
</event>
<event>
 7    1  0.3861961E-015  0.9000796E+02  0.7816164E-02  0.1186339E+00
        -11   -1    0    0    0    0  0.00000000000E+00  0.00000000000E+00  0.45593999997E+02  0.45594000000E+02  0.51100000000E-03 0. -1.
         11   -1    0    0    0    0 -0.00000000000E+00 -0.00000000000E+00 -0.45593999997E+02  0.45594000000E+02  0.51100000000E-03 0.  1.
    9900012    2    1    2    0    0  0.85583012542E+00  0.49039486272E+00  0.64773153968E+00  0.90007962512E+02  0.90000226817E+02 0.  0.
        -12    1    1    2    0    0 -0.85583012542E+00 -0.49039486272E+00 -0.64773153968E+00  0.11800374877E+01  0.00000000000E+00 0.  1.
         11    1    3    3    0    0  0.28408964521E+01  0.56114393958E+01  0.33497187970E+01  0.71259778995E+01  0.51100000000E-03 0. -1.
        -11    1    3    3    0    0  0.29903200203E+01 -0.64075635388E+01 -0.42332841829E+02  0.42919324109E+02  0.51100000000E-03 0.  1.
         12    1    3    3    0    0 -0.49753863470E+01  0.12865190058E+01  0.39630854572E+02  0.39962660504E+02  0.00000000000E+00 0. -1.
</event>
<event>
 7    1  0.3861961E-015  0.9000776E+02  0.7816164E-02  0.1186339E+00
        -11   -1    0    0    0    0  0.00000000000E+00  0.00000000000E+00  0.45593999997E+02  0.45594000000E+02  0.51100000000E-03 0.  1.
         11   -1    0    0    0    0 -0.00000000000E+00 -0.00000000000E+00 -0.45593999997E+02  0.45594000000E+02  0.51100000000E-03 0. -1.
    9900012    2    1    2    0    0  0.22445245283E+00 -0.80561114015E+00 -0.83281122932E+00  0.90007761568E+02  0.90000023221E+02 0.  0.
        -12    1    1    2    0    0 -0.22445245283E+00  0.80561114015E+00  0.83281122932E+00  0.11802384320E+01  0.00000000000E+00 0.  1.
         11    1    3    3    0    0 -0.24332003160E+02 -0.45679920158E+01  0.14300906827E+02  0.28590712918E+02  0.51100000000E-03 0. -1.
        -11    1    3    3    0    0 -0.13945917246E+02 -0.21490285286E+01 -0.17394324343E+02  0.22397978727E+02  0.51100000000E-03 0.  1.
        -12    1    3    3    0    0  0.38502372858E+02  0.59114094043E+01  0.22606062862E+01  0.39019069923E+02  0.00000000000E+00 0.  1.
</event>
<event>
 7    1  0.3861961E-015  0.9000764E+02  0.7816164E-02  0.1186339E+00
        -11   -1    0    0    0    0  0.00000000000E+00  0.00000000000E+00  0.45593999997E+02  0.45594000000E+02  0.51100000000E-03 0.  1.
         11   -1    0    0    0    0 -0.00000000000E+00 -0.00000000000E+00 -0.45593999997E+02  0.45594000000E+02  0.51100000000E-03 0. -1.
    9900012    2    1    2    0    0  0.76498124794E-01 -0.63698419737E+00 -0.99078700615E+00  0.90007635767E+02  0.89999895759E+02 0.  0.
        -12    1    1    2    0    0 -0.76498124794E-01  0.63698419737E+00  0.99078700615E+00  0.11803642329E+01  0.00000000000E+00 0.  1.
         11    1    3    3    0    0  0.10530324027E+02  0.11001269159E+02  0.80915132823E+00  0.15250258140E+02  0.51100000000E-03 0. -1.
        -11    1    3    3    0    0  0.25668891594E+02 -0.17469516772E+00  0.18616710457E+02  0.31709689727E+02  0.51100000000E-03 0.  1.
         12    1    3    3    0    0 -0.36122717496E+02 -0.11463558188E+02 -0.20416648792E+02  0.43047687900E+02  0.00000000000E+00 0. -1.
</event>
<event>
 7    1  0.3861961E-015  0.9000771E+02  0.7816164E-02  0.1186339E+00
        -11   -1    0    0    0    0  0.00000000000E+00  0.00000000000E+00  0.45593999997E+02  0.45594000000E+02  0.51100000000E-03 0.  1.
         11   -1    0    0    0    0 -0.00000000000E+00 -0.00000000000E+00 -0.45593999997E+02  0.45594000000E+02  0.51100000000E-03 0. -1.
    9900012    2    1    2    0    0  0.46397177374E+00  0.16505451261E+00 -0.10726458727E+01  0.90007711066E+02  0.89999972052E+02 0.  0.
        -12    1    1    2    0    0 -0.46397177374E+00 -0.16505451261E+00  0.10726458727E+01  0.11802889338E+01  0.00000000000E+00 0.  1.
         11    1    3    3    0    0  0.39145563098E+01 -0.51765354866E+01  0.67672475401E+01  0.93763484511E+01  0.51100000000E-03 0. -1.
        -11    1    3    3    0    0 -0.25256616867E+02 -0.16709704172E+01  0.28221803575E+02  0.37909880440E+02  0.51100000000E-03 0.  1.
         12    1    3    3    0    0  0.21806032331E+02  0.70125604163E+01 -0.36061696988E+02  0.42721482175E+02  0.00000000000E+00 0. -1.
</event>
<event>
 7    1  0.3861961E-015  0.9000777E+02  0.7816164E-02  0.1186339E+00
        -11   -1    0    0    0    0  0.00000000000E+00  0.00000000000E+00  0.45593999997E+02  0.45594000000E+02  0.51100000000E-03 0.  1.
         11   -1    0    0    0    0 -0.00000000000E+00 -0.00000000000E+00 -0.45593999997E+02  0.45594000000E+02  0.51100000000E-03 0. -1.
    9900012    2    1    2    0    0  0.13327359948E+00  0.42758752230E+00  0.10919485585E+01  0.90007769262E+02  0.90000031016E+02 0.  0.
        -12    1    1    2    0    0 -0.13327359948E+00 -0.42758752230E+00 -0.10919485585E+01  0.11802307385E+01  0.00000000000E+00 0.  1.
         11    1    3    3    0    0 -0.16440942782E+02 -0.96966653308E+01 -0.34467498286E+02  0.39399725335E+02  0.51100000000E-03 0. -1.
        -11    1    3    3    0    0 -0.50842945953E+00 -0.89700149884E+01  0.36789068762E+01  0.97084512397E+01  0.51100000000E-03 0.  1.
        -12    1    3    3    0    0  0.17082645841E+02  0.19094267842E+02  0.31880539968E+02  0.40899592687E+02  0.00000000000E+00 0.  1.
</event>
<event>
 7    1  0.3861961E-015  0.9000770E+02  0.7816164E-02  0.1186339E+00
        -11   -1    0    0    0    0  0.00000000000E+00  0.00000000000E+00  0.45593999997E+02  0.45594000000E+02  0.51100000000E-03 0.  1.
         11   -1    0    0    0    0 -0.00000000000E+00 -0.00000000000E+00 -0.45593999997E+02  0.45594000000E+02  0.51100000000E-03 0. -1.
    9900012    2    1    2    0    0  0.14751735166E-01  0.11801180725E+01  0.14783419793E-01  0.90007697146E+02  0.89999957948E+02 0.  0.
        -12    1    1    2    0    0 -0.14751735166E-01 -0.11801180725E+01 -0.14783419793E-01  0.11803028544E+01  0.00000000000E+00 0.  1.
         11    1    3    3    0    0 -0.34599985001E+02 -0.14563270317E+02  0.95553815115E+01  0.38736973559E+02  0.51100000000E-03 0. -1.
        -11    1    3    3    0    0 -0.25449577774E+01 -0.61678161413E+01  0.12841147065E+01  0.67946829862E+01  0.51100000000E-03 0.  1.
        -12    1    3    3    0    0  0.37159694514E+02  0.21911204531E+02 -0.10824712798E+02  0.44476040601E+02  0.00000000000E+00 0.  1.
</event>
<event>
 7    1  0.3861961E-015  0.9000765E+02  0.7816164E-02  0.1186339E+00
        -11   -1    0    0    0    0  0.00000000000E+00  0.00000000000E+00  0.45593999997E+02  0.45594000000E+02  0.51100000000E-03 0. -1.
         11   -1    0    0    0    0 -0.00000000000E+00 -0.00000000000E+00 -0.45593999997E+02  0.45594000000E+02  0.51100000000E-03 0.  1.
    9900012    2    1    2    0    0  0.69250447079E+00 -0.65979706683E+00 -0.69162358001E+00  0.90007645059E+02  0.89999905173E+02 0.  0.
        -12    1    1    2    0    0 -0.69250447079E+00  0.65979706683E+00  0.69162358001E+00  0.11803549415E+01  0.00000000000E+00 0.  1.
         11    1    3    3    0    0  0.18887719567E+02  0.37018746061E+02 -0.58212502167E+01  0.41964514351E+02  0.51100000000E-03 0. -1.
        -11    1    3    3    0    0 -0.19895744736E+01 -0.22017266275E+01 -0.66650718693E+01  0.72958337435E+01  0.51100000000E-03 0.  1.
        -12    1    3    3    0    0 -0.16205640622E+02 -0.35476816501E+02  0.11794698506E+02  0.40747296964E+02  0.00000000000E+00 0.  1.
</event>
<event>
 7    1  0.3861961E-015  0.9000769E+02  0.7816164E-02  0.1186339E+00
        -11   -1    0    0    0    0  0.00000000000E+00  0.00000000000E+00  0.45593999997E+02  0.45594000000E+02  0.51100000000E-03 0. -1.
         11   -1    0    0    0    0 -0.00000000000E+00 -0.00000000000E+00 -0.45593999997E+02  0.45594000000E+02  0.51100000000E-03 0.  1.
    9900012    2    1    2    0    0  0.78391324409E-01  0.36684623797E-01  0.11771300748E+01  0.90007692339E+02  0.89999953078E+02 0.  0.
        -12    1    1    2    0    0 -0.78391324409E-01 -0.36684623797E-01 -0.11771300748E+01  0.11803076609E+01  0.00000000000E+00 0.  1.
         11    1    3    3    0    0  0.67906751477E+01 -0.43554202957E+01 -0.72774412807E+01  0.10864810480E+02  0.51100000000E-03 0. -1.
        -11    1    3    3    0    0  0.23879149602E+02 -0.25360322310E+02  0.10614262774E+02  0.36414589217E+02  0.51100000000E-03 0.  1.
         12    1    3    3    0    0 -0.30591433425E+02  0.29752427230E+02 -0.21596914180E+01  0.42728292642E+02  0.00000000000E+00 0. -1.
</event>
<event>
 7    1  0.3861961E-015  0.9000776E+02  0.7816164E-02  0.1186339E+00
        -11   -1    0    0    0    0  0.00000000000E+00  0.00000000000E+00  0.45593999997E+02  0.45594000000E+02  0.51100000000E-03 0.  1.
         11   -1    0    0    0    0 -0.00000000000E+00 -0.00000000000E+00 -0.45593999997E+02  0.45594000000E+02  0.51100000000E-03 0. -1.
    9900012    2    1    2    0    0 -0.58001418437E+00 -0.99720876458E+00  0.24922779809E+00  0.90007764316E+02  0.90000026005E+02 0.  0.
        -12    1    1    2    0    0  0.58001418437E+00  0.99720876458E+00 -0.24922779809E+00  0.11802356839E+01  0.00000000000E+00 0.  1.
         11    1    3    3    0    0  0.16344486143E+02 -0.17103285640E+02 -0.31635334715E+02  0.39502645605E+02  0.51100000000E-03 0. -1.
        -11    1    3    3    0    0  0.71376432386E+01  0.64813768533E+01  0.29561210203E+00  0.96458065340E+01  0.51100000000E-03 0.  1.
        -12    1    3    3    0    0 -0.24062143566E+02  0.96247000220E+01  0.31588950412E+02  0.40859312177E+02  0.00000000000E+00 0.  1.
</event>
<event>
 7    1  0.3861961E-015  0.9000777E+02  0.7816164E-02  0.1186339E+00
        -11   -1    0    0    0    0  0.00000000000E+00  0.00000000000E+00  0.45593999997E+02  0.45594000000E+02  0.51100000000E-03 0. -1.
         11   -1    0    0    0    0 -0.00000000000E+00 -0.00000000000E+00 -0.45593999997E+02  0.45594000000E+02  0.51100000000E-03 0.  1.
    9900012    2    1    2    0    0 -0.57759409031E+00 -0.85794694949E+00  0.56855834788E+00  0.90007768457E+02  0.90000030200E+02 0.  0.
        -12    1    1    2    0    0  0.57759409031E+00  0.85794694949E+00 -0.56855834788E+00  0.11802315435E+01  0.00000000000E+00 0.  1.
         11    1    3    3    0    0  0.35533893698E+02 -0.85965460238E+01  0.40979148141E+01  0.36787920721E+02  0.51100000000E-03 0. -1.
        -11    1    3    3    0    0  0.46925056747E+01 -0.80451101403E+01 -0.13947985384E+01  0.94174768330E+01  0.51100000000E-03 0.  1.
        -12    1    3    3    0    0 -0.40803993463E+02  0.15783709215E+02 -0.21345579278E+01  0.43802370902E+02  0.00000000000E+00 0.  1.
</event>
<event>
 7    1  0.3861961E-015  0.9000779E+02  0.7816164E-02  0.1186339E+00
        -11   -1    0    0    0    0  0.00000000000E+00  0.00000000000E+00  0.45593999997E+02  0.45594000000E+02  0.51100000000E-03 0.  1.
         11   -1    0    0    0    0 -0.00000000000E+00 -0.00000000000E+00 -0.45593999997E+02  0.45594000000E+02  0.51100000000E-03 0. -1.
    9900012    2    1    2    0    0  0.10433635605E+01 -0.33408705195E+00 -0.43895325678E+00  0.90007787460E+02  0.90000049455E+02 0.  0.
        -12    1    1    2    0    0 -0.10433635605E+01  0.33408705195E+00  0.43895325678E+00  0.11802125399E+01  0.00000000000E+00 0.  1.
         11    1    3    3    0    0 -0.20050264189E+02  0.37044057747E+01 -0.19865735169E+02  0.28467229410E+02  0.51100000000E-03 0. -1.
        -11    1    3    3    0    0 -0.16083774201E+02 -0.47895132901E+00 -0.50761979126E+01  0.16872610125E+02  0.51100000000E-03 0.  1.
        -12    1    3    3    0    0  0.37177401951E+02 -0.35595414976E+01  0.24502979825E+02  0.44667947925E+02  0.00000000000E+00 0.  1.
</event>
<event>
 7    1  0.3861961E-015  0.9000776E+02  0.7816164E-02  0.1186339E+00
        -11   -1    0    0    0    0  0.00000000000E+00  0.00000000000E+00  0.45593999997E+02  0.45594000000E+02  0.51100000000E-03 0.  1.
         11   -1    0    0    0    0 -0.00000000000E+00 -0.00000000000E+00 -0.45593999997E+02  0.45594000000E+02  0.51100000000E-03 0. -1.
    9900012    2    1    2    0    0 -0.56201247703E-02  0.49822820342E+00 -0.10699131566E+01  0.90007755495E+02  0.90000017068E+02 0.  0.
        -12    1    1    2    0    0  0.56201247703E-02 -0.49822820342E+00  0.10699131566E+01  0.11802445048E+01  0.00000000000E+00 0.  1.
         11    1    3    3    0    0 -0.78949945013E+01 -0.66282449949E+01 -0.14660111758E+01  0.10412192801E+02  0.51100000000E-03 0. -1.
        -11    1    3    3    0    0 -0.98529549714E+01  0.75806850985E+01  0.36936760112E+02  0.38972705270E+02  0.51100000000E-03 0.  1.
         12    1    3    3    0    0  0.17742329348E+02 -0.45421190013E+00 -0.36540662093E+02  0.40622857424E+02  0.00000000000E+00 0. -1.
</event>
<event>
 7    1  0.3861961E-015  0.9000781E+02  0.7816164E-02  0.1186339E+00
        -11   -1    0    0    0    0  0.00000000000E+00  0.00000000000E+00  0.45593999997E+02  0.45594000000E+02  0.51100000000E-03 0. -1.
         11   -1    0    0    0    0 -0.00000000000E+00 -0.00000000000E+00 -0.45593999997E+02  0.45594000000E+02  0.51100000000E-03 0.  1.
    9900012    2    1    2    0    0  0.18201376943E+00  0.10476071761E+01  0.51208148052E+00  0.90007814739E+02  0.90000077094E+02 0.  0.
        -12    1    1    2    0    0 -0.18201376943E+00 -0.10476071761E+01 -0.51208148052E+00  0.11801852610E+01  0.00000000000E+00 0.  1.
         11    1    3    3    0    0  0.19262863508E+02  0.37467252318E+01  0.32308906175E+02  0.37801604185E+02  0.51100000000E-03 0. -1.
        -11    1    3    3    0    0 -0.13921882578E+01 -0.14883860642E+02 -0.14387386720E+01  0.15017904813E+02  0.51100000000E-03 0.  1.
        -12    1    3    3    0    0 -0.17688661480E+02  0.12184742586E+02 -0.30358086023E+02  0.37188305740E+02  0.00000000000E+00 0.  1.
</event>
<event>
 7    1  0.3861961E-015  0.9000757E+02  0.7816164E-02  0.1186339E+00
        -11   -1    0    0    0    0  0.00000000000E+00  0.00000000000E+00  0.45593999997E+02  0.45594000000E+02  0.51100000000E-03 0.  1.
         11   -1    0    0    0    0 -0.00000000000E+00 -0.00000000000E+00 -0.45593999997E+02  0.45594000000E+02  0.51100000000E-03 0. -1.
    9900012    2    1    2    0    0 -0.43423912778E+00 -0.99866848151E+00 -0.45552440334E+00  0.90007574298E+02  0.89999833479E+02 0.  0.
        -12    1    1    2    0    0  0.43423912778E+00  0.99866848151E+00  0.45552440334E+00  0.11804257021E+01  0.00000000000E+00 0.  1.
         11    1    3    3    0    0  0.17188117249E+02  0.13174857922E+02  0.14389937152E+02  0.26001510482E+02  0.51100000000E-03 0.  1.
        -11    1    3    3    0    0 -0.13577029117E+02 -0.15729779534E+02 -0.36457752728E+02  0.41963429532E+02  0.51100000000E-03 0. -1.
         12    1    3    3    0    0 -0.40453272603E+01  0.15562531305E+01  0.21612291173E+02  0.22042634284E+02  0.00000000000E+00 0. -1.
</event>
<event>
 7    1  0.3861961E-015  0.9000772E+02  0.7816164E-02  0.1186339E+00
        -11   -1    0    0    0    0  0.00000000000E+00  0.00000000000E+00  0.45593999997E+02  0.45594000000E+02  0.51100000000E-03 0.  1.
         11   -1    0    0    0    0 -0.00000000000E+00 -0.00000000000E+00 -0.45593999997E+02  0.45594000000E+02  0.51100000000E-03 0. -1.
    9900012    2    1    2    0    0  0.42453929396E+00 -0.13636354384E+00 -0.10928129253E+01  0.90007716679E+02  0.89999977739E+02 0.  0.
        -12    1    1    2    0    0 -0.42453929396E+00  0.13636354384E+00  0.10928129253E+01  0.11802833210E+01  0.00000000000E+00 0.  1.
         11    1    3    3    0    0  0.48606021842E+01 -0.49110109006E+01  0.69136956897E+01  0.97745930866E+01  0.51100000000E-03 0. -1.
        -11    1    3    3    0    0  0.38780589654E+01  0.24874190092E+02  0.28320425292E+02  0.37892098953E+02  0.51100000000E-03 0.  1.
         12    1    3    3    0    0 -0.83141218556E+01 -0.20099542735E+02 -0.36326933907E+02  0.42341024639E+02  0.00000000000E+00 0. -1.
</event>
<event>
 7    1  0.3861961E-015  0.9000769E+02  0.7816164E-02  0.1186339E+00
        -11   -1    0    0    0    0  0.00000000000E+00  0.00000000000E+00  0.45593999997E+02  0.45594000000E+02  0.51100000000E-03 0.  1.
         11   -1    0    0    0    0 -0.00000000000E+00 -0.00000000000E+00 -0.45593999997E+02  0.45594000000E+02  0.51100000000E-03 0. -1.
    9900012    2    1    2    0    0 -0.11794651282E+01  0.70340814373E-02 -0.44171377260E-01  0.90007687085E+02  0.89999947754E+02 0.  0.
        -12    1    1    2    0    0  0.11794651282E+01 -0.70340814373E-02  0.44171377260E-01  0.11803129150E+01  0.00000000000E+00 0.  1.
         11    1    3    3    0    0 -0.88025787665E+01 -0.13288094348E+01 -0.60471750752E+01  0.10761944718E+02  0.51100000000E-03 0. -1.
        -11    1    3    3    0    0  0.27657800141E+02  0.20289280104E+02 -0.21349192006E+02  0.40402930529E+02  0.51100000000E-03 0.  1.
         12    1    3    3    0    0 -0.20034686502E+02 -0.18953436588E+02  0.27352195704E+02  0.38842811839E+02  0.00000000000E+00 0. -1.
</event>
<event>
 7    1  0.3861961E-015  0.9000775E+02  0.7816164E-02  0.1186339E+00
        -11   -1    0    0    0    0  0.00000000000E+00  0.00000000000E+00  0.45593999997E+02  0.45594000000E+02  0.51100000000E-03 0.  1.
         11   -1    0    0    0    0 -0.00000000000E+00 -0.00000000000E+00 -0.45593999997E+02  0.45594000000E+02  0.51100000000E-03 0. -1.
    9900012    2    1    2    0    0  0.10101919199E+01 -0.10101542527E-01 -0.61024071227E+00  0.90007752787E+02  0.90000014324E+02 0.  0.
        -12    1    1    2    0    0 -0.10101919199E+01  0.10101542527E-01  0.61024071227E+00  0.11802472127E+01  0.00000000000E+00 0.  1.
         11    1    3    3    0    0 -0.30580482076E+00 -0.15305413773E+02 -0.36785739460E+02  0.39843943520E+02  0.51100000000E-03 0. -1.
        -11    1    3    3    0    0  0.49414347720E+01 -0.89328269467E+01  0.94819233223E+01  0.13932696976E+02  0.51100000000E-03 0.  1.
        -12    1    3    3    0    0 -0.36254380313E+01  0.24228139177E+02  0.26693575425E+02  0.36231112292E+02  0.00000000000E+00 0.  1.
</event>
<event>
 7    1  0.3861961E-015  0.9000780E+02  0.7816164E-02  0.1186339E+00
        -11   -1    0    0    0    0  0.00000000000E+00  0.00000000000E+00  0.45593999997E+02  0.45594000000E+02  0.51100000000E-03 0.  1.
         11   -1    0    0    0    0 -0.00000000000E+00 -0.00000000000E+00 -0.45593999997E+02  0.45594000000E+02  0.51100000000E-03 0. -1.
    9900012    2    1    2    0    0 -0.48677757554E+00  0.93170523701E+00 -0.53650992077E+00  0.90007800885E+02  0.90000063056E+02 0.  0.
        -12    1    1    2    0    0  0.48677757554E+00 -0.93170523701E+00  0.53650992077E+00  0.11801991153E+01  0.00000000000E+00 0.  1.
         11    1    3    3    0    0 -0.71064029725E+01 -0.14789098201E+02  0.12436328954E+02  0.20588362415E+02  0.51100000000E-03 0. -1.
        -11    1    3    3    0    0 -0.15855603698E+02  0.35069664173E+02 -0.59756982533E+01  0.38948562023E+02  0.51100000000E-03 0.  1.
         12    1    3    3    0    0  0.22475229095E+02 -0.19348860734E+02 -0.69971406211E+01  0.30470876447E+02  0.00000000000E+00 0. -1.
</event>
<event>
 7    1  0.4135990E-015  0.9000780E+02  0.7816164E-02  0.1186339E+00
        -11   -1    0    0    0    0  0.00000000000E+00  0.00000000000E+00  0.45593999997E+02  0.45594000000E+02  0.51100000000E-03 0.  1.
         11   -1    0    0    0    0 -0.00000000000E+00 -0.00000000000E+00 -0.45593999997E+02  0.45594000000E+02  0.51100000000E-03 0. -1.
    9900012    2    1    2    0    0  0.10112283137E+01 -0.52542592576E+00  0.30692914784E+00  0.90007804843E+02  0.90000067067E+02 0.  0.
        -12    1    1    2    0    0 -0.10112283137E+01  0.52542592576E+00 -0.30692914784E+00  0.11801951566E+01  0.00000000000E+00 0.  1.
         11    1    3    3    0    0 -0.21028739763E+01 -0.56306540171E+01 -0.72104144393E+01  0.93870346898E+01  0.51100000000E-03 0. -1.
        -11    1    3    3    0    0 -0.24292215643E+02  0.23220735518E+02 -0.18818416201E+02  0.38515543452E+02  0.51100000000E-03 0.  1.
         12    1    3    3    0    0  0.27406317933E+02 -0.18115507426E+02  0.26335759788E+02  0.42105226701E+02  0.00000000000E+00 0. -1.
</event>
<event>
 7    1  0.3861961E-015  0.9000781E+02  0.7816164E-02  0.1186339E+00
        -11   -1    0    0    0    0  0.00000000000E+00  0.00000000000E+00  0.45593999997E+02  0.45594000000E+02  0.51100000000E-03 0. -1.
         11   -1    0    0    0    0 -0.00000000000E+00 -0.00000000000E+00 -0.45593999997E+02  0.45594000000E+02  0.51100000000E-03 0.  1.
    9900012    2    1    2    0    0 -0.62660549885E+00 -0.35534223964E+00  0.93484546124E+00  0.90007814169E+02  0.90000076516E+02 0.  0.
        -12    1    1    2    0    0  0.62660549885E+00  0.35534223964E+00 -0.93484546124E+00  0.11801858307E+01  0.00000000000E+00 0.  1.
         11    1    3    3    0    0  0.75115059523E+01 -0.16487535368E+01  0.68537568791E+01  0.10301218060E+02  0.51100000000E-03 0. -1.
        -11    1    3    3    0    0  0.35088447703E+02 -0.60585178367E+01 -0.37698605724E+01  0.35806656498E+02  0.51100000000E-03 0.  1.
         12    1    3    3    0    0 -0.43226559154E+02  0.73519291338E+01 -0.21490508455E+01  0.43899939611E+02  0.00000000000E+00 0. -1.
</event>
<event>
 7    1  0.3861961E-015  0.9000778E+02  0.7816164E-02  0.1186339E+00
        -11   -1    0    0    0    0  0.00000000000E+00  0.00000000000E+00  0.45593999997E+02  0.45594000000E+02  0.51100000000E-03 0. -1.
         11   -1    0    0    0    0 -0.00000000000E+00 -0.00000000000E+00 -0.45593999997E+02  0.45594000000E+02  0.51100000000E-03 0.  1.
    9900012    2    1    2    0    0 -0.23894618278E+00 -0.11551604886E+01 -0.37692448521E-01  0.90007783175E+02  0.90000045113E+02 0.  0.
        -12    1    1    2    0    0  0.23894618278E+00  0.11551604886E+01  0.37692448521E-01  0.11802168247E+01  0.00000000000E+00 0.  1.
         11    1    3    3    0    0 -0.83168713948E+01 -0.23177934797E+01 -0.49141328734E+01  0.99343454022E+01  0.51100000000E-03 0. -1.
        -11    1    3    3    0    0 -0.15353793953E+02  0.23892486201E+02 -0.23466689985E+02  0.36841219100E+02  0.51100000000E-03 0.  1.
         12    1    3    3    0    0  0.23431719165E+02 -0.22729853210E+02  0.28343130410E+02  0.43232218673E+02  0.00000000000E+00 0. -1.
</event>
<event>
 7    1  0.3861961E-015  0.9000765E+02  0.7816164E-02  0.1186339E+00
        -11   -1    0    0    0    0  0.00000000000E+00  0.00000000000E+00  0.45593999997E+02  0.45594000000E+02  0.51100000000E-03 0. -1.
         11   -1    0    0    0    0 -0.00000000000E+00 -0.00000000000E+00 -0.45593999997E+02  0.45594000000E+02  0.51100000000E-03 0.  1.
    9900012    2    1    2    0    0 -0.11322701179E+01  0.29816285350E+00  0.14929341087E+00  0.90007650378E+02  0.89999910563E+02 0.  0.
        -12    1    1    2    0    0  0.11322701179E+01 -0.29816285350E+00 -0.14929341087E+00  0.11803496217E+01  0.00000000000E+00 0.  1.
         11    1    3    3    0    0 -0.20391031740E+01 -0.26435638349E+00  0.87395236369E+01  0.89781456723E+01  0.51100000000E-03 0. -1.
        -11    1    3    3    0    0 -0.27019659103E+02 -0.17049294494E+02 -0.28212414744E+02  0.42622538248E+02  0.51100000000E-03 0.  1.
         12    1    3    3    0    0  0.27926492159E+02  0.17611813731E+02  0.19622184518E+02  0.38406966458E+02  0.00000000000E+00 0. -1.
</event>
<event>
 7    1  0.3861961E-015  0.9000776E+02  0.7816164E-02  0.1186339E+00
        -11   -1    0    0    0    0  0.00000000000E+00  0.00000000000E+00  0.45593999997E+02  0.45594000000E+02  0.51100000000E-03 0. -1.
         11   -1    0    0    0    0 -0.00000000000E+00 -0.00000000000E+00 -0.45593999997E+02  0.45594000000E+02  0.51100000000E-03 0.  1.
    9900012    2    1    2    0    0 -0.89178211685E+00  0.50988767204E-01  0.77141830777E+00  0.90007762141E+02  0.90000023801E+02 0.  0.
        -12    1    1    2    0    0  0.89178211685E+00 -0.50988767204E-01 -0.77141830777E+00  0.11802378590E+01  0.00000000000E+00 0.  1.
         11    1    3    3    0    0 -0.38498721250E+02  0.48709417743E+01 -0.61347745689E-01  0.38805687411E+02  0.51100000000E-03 0. -1.
        -11    1    3    3    0    0 -0.13395599571E+01 -0.11188554925E+02  0.30567317609E+01  0.11675692335E+02  0.51100000000E-03 0.  1.
        -12    1    3    3    0    0  0.38946499090E+02  0.63686019176E+01 -0.22239657075E+01  0.39526382395E+02  0.00000000000E+00 0.  1.
</event>
<event>
 7    1  0.3861961E-015  0.9000774E+02  0.7816164E-02  0.1186339E+00
        -11   -1    0    0    0    0  0.00000000000E+00  0.00000000000E+00  0.45593999997E+02  0.45594000000E+02  0.51100000000E-03 0.  1.
         11   -1    0    0    0    0 -0.00000000000E+00 -0.00000000000E+00 -0.45593999997E+02  0.45594000000E+02  0.51100000000E-03 0. -1.
    9900012    2    1    2    0    0 -0.92889677843E+00  0.34615862556E+00 -0.64057125533E+00  0.90007743014E+02  0.90000004422E+02 0.  0.
        -12    1    1    2    0    0  0.92889677843E+00 -0.34615862556E+00  0.64057125533E+00  0.11802569856E+01  0.00000000000E+00 0.  1.
         11    1    3    3    0    0 -0.10618502895E+01  0.14013975995E+02 -0.32938004267E+02  0.35811048219E+02  0.51100000000E-03 0. -1.
        -11    1    3    3    0    0 -0.47816804433E+01  0.75918227795E+01 -0.55210215666E+01  0.10534795697E+02  0.51100000000E-03 0.  1.
        -12    1    3    3    0    0  0.49146339543E+01 -0.21259640149E+02  0.37818454578E+02  0.43661899098E+02  0.00000000000E+00 0.  1.
</event>
<event>
 7    1  0.3861961E-015  0.9000776E+02  0.7816164E-02  0.1186339E+00
        -11   -1    0    0    0    0  0.00000000000E+00  0.00000000000E+00  0.45593999997E+02  0.45594000000E+02  0.51100000000E-03 0.  1.
         11   -1    0    0    0    0 -0.00000000000E+00 -0.00000000000E+00 -0.45593999997E+02  0.45594000000E+02  0.51100000000E-03 0. -1.
    9900012    2    1    2    0    0 -0.15063643738E+00  0.10485194523E+01  0.52046725133E+00  0.90007758271E+02  0.90000019881E+02 0.  0.
        -12    1    1    2    0    0  0.15063643738E+00 -0.10485194523E+01 -0.52046725133E+00  0.11802417285E+01  0.00000000000E+00 0.  1.
         11    1    3    3    0    0 -0.38352608648E+01 -0.78845293506E+01 -0.25240630830E+01  0.91239204123E+01  0.51100000000E-03 0. -1.
        -11    1    3    3    0    0 -0.33089036658E+02  0.84507218607E+01  0.20861184457E+02  0.40018596479E+02  0.51100000000E-03 0.  1.
         12    1    3    3    0    0  0.36773661086E+02  0.48232694220E+00 -0.17816654123E+02  0.40865241380E+02  0.00000000000E+00 0. -1.
</event>
<event>
 7    1  0.3861961E-015  0.9000770E+02  0.7816164E-02  0.1186339E+00
        -11   -1    0    0    0    0  0.00000000000E+00  0.00000000000E+00  0.45593999997E+02  0.45594000000E+02  0.51100000000E-03 0.  1.
         11   -1    0    0    0    0 -0.00000000000E+00 -0.00000000000E+00 -0.45593999997E+02  0.45594000000E+02  0.51100000000E-03 0. -1.
    9900012    2    1    2    0    0  0.94296081061E+00  0.30030682786E+00 -0.64323843898E+00  0.90007697085E+02  0.89999957887E+02 0.  0.
        -12    1    1    2    0    0 -0.94296081061E+00 -0.30030682786E+00  0.64323843898E+00  0.11803029148E+01  0.00000000000E+00 0.  1.
         11    1    3    3    0    0  0.48237531459E+01  0.11776777119E+02  0.56115513739E+01  0.13908651365E+02  0.51100000000E-03 0. -1.
        -11    1    3    3    0    0  0.87488554176E+01 -0.91244783470E+01  0.32711797560E+02  0.35069363782E+02  0.51100000000E-03 0.  1.
         12    1    3    3    0    0 -0.12629647753E+02 -0.23519919441E+01 -0.38966587373E+02  0.41029681938E+02  0.00000000000E+00 0. -1.
</event>
<event>
 7    1  0.3861961E-015  0.9000768E+02  0.7816164E-02  0.1186339E+00
        -11   -1    0    0    0    0  0.00000000000E+00  0.00000000000E+00  0.45593999997E+02  0.45594000000E+02  0.51100000000E-03 0. -1.
         11   -1    0    0    0    0 -0.00000000000E+00 -0.00000000000E+00 -0.45593999997E+02  0.45594000000E+02  0.51100000000E-03 0.  1.
    9900012    2    1    2    0    0  0.54801892250E-01 -0.11489884028E+01 -0.26451791652E+00  0.90007683379E+02  0.89999944000E+02 0.  0.
        -12    1    1    2    0    0 -0.54801892250E-01  0.11489884028E+01  0.26451791652E+00  0.11803166208E+01  0.00000000000E+00 0.  1.
         11    1    3    3    0    0 -0.13884073105E+01 -0.87339329473E+01 -0.59792055196E+01  0.10675212340E+02  0.51100000000E-03 0. -1.
        -11    1    3    3    0    0 -0.37109420056E+02  0.83254851881E+01 -0.71204044067E+01  0.38692672687E+02  0.51100000000E-03 0.  1.
         12    1    3    3    0    0  0.38552629259E+02 -0.74054064363E+00  0.12835092010E+02  0.40639798352E+02  0.00000000000E+00 0. -1.
</event>
<event>
 7    1  0.3861961E-015  0.9000775E+02  0.7816164E-02  0.1186339E+00
        -11   -1    0    0    0    0  0.00000000000E+00  0.00000000000E+00  0.45593999997E+02  0.45594000000E+02  0.51100000000E-03 0. -1.
         11   -1    0    0    0    0 -0.00000000000E+00 -0.00000000000E+00 -0.45593999997E+02  0.45594000000E+02  0.51100000000E-03 0.  1.
    9900012    2    1    2    0    0 -0.11033333068E+01 -0.36056786875E+00 -0.21360531244E+00  0.90007753922E+02  0.90000015474E+02 0.  0.
        -12    1    1    2    0    0  0.11033333068E+01  0.36056786875E+00  0.21360531244E+00  0.11802460775E+01  0.00000000000E+00 0.  1.
         11    1    3    3    0    0 -0.45163789103E+01 -0.10049857889E+02 -0.13656611760E+01  0.11102357982E+02  0.51100000000E-03 0. -1.
        -11    1    3    3    0    0  0.17627865912E+02 -0.49226866219E+00 -0.34751889323E+02  0.38970216793E+02  0.51100000000E-03 0.  1.
         12    1    3    3    0    0 -0.14214820309E+02  0.10181558682E+02  0.35903945187E+02  0.39935179148E+02  0.00000000000E+00 0. -1.
</event>
<event>
 7    1  0.3861961E-015  0.9000771E+02  0.7816164E-02  0.1186339E+00
        -11   -1    0    0    0    0  0.00000000000E+00  0.00000000000E+00  0.45593999997E+02  0.45594000000E+02  0.51100000000E-03 0.  1.
         11   -1    0    0    0    0 -0.00000000000E+00 -0.00000000000E+00 -0.45593999997E+02  0.45594000000E+02  0.51100000000E-03 0. -1.
    9900012    2    1    2    0    0  0.10109485564E+01 -0.49187002385E+00  0.35936282572E+00  0.90007705653E+02  0.89999966568E+02 0.  0.
        -12    1    1    2    0    0 -0.10109485564E+01  0.49187002385E+00 -0.35936282572E+00  0.11802943465E+01  0.00000000000E+00 0.  1.
         11    1    3    3    0    0 -0.13705659212E+02 -0.22566523859E+02 -0.25548946448E+02  0.36740192683E+02  0.51100000000E-03 0. -1.
        -11    1    3    3    0    0  0.64975295281E+01 -0.23580343148E+01 -0.80647164727E+01  0.10621575582E+02  0.51100000000E-03 0.  1.
        -12    1    3    3    0    0  0.82190782403E+01  0.24432688150E+02  0.33973025746E+02  0.42645937388E+02  0.00000000000E+00 0.  1.
</event>
<event>
 7    1  0.3861961E-015  0.9000772E+02  0.7816164E-02  0.1186339E+00
        -11   -1    0    0    0    0  0.00000000000E+00  0.00000000000E+00  0.45593999997E+02  0.45594000000E+02  0.51100000000E-03 0. -1.
         11   -1    0    0    0    0 -0.00000000000E+00 -0.00000000000E+00 -0.45593999997E+02  0.45594000000E+02  0.51100000000E-03 0.  1.
    9900012    2    1    2    0    0 -0.10004684939E+00  0.75375285838E+00  0.90272661738E+00  0.90007716945E+02  0.89999978009E+02 0.  0.
        -12    1    1    2    0    0  0.10004684939E+00 -0.75375285838E+00 -0.90272661738E+00  0.11802830547E+01  0.00000000000E+00 0.  1.
         11    1    3    3    0    0 -0.37658099290E+01  0.92789503110E+01  0.28571831826E+02  0.30275894990E+02  0.51100000000E-03 0. -1.
        -11    1    3    3    0    0 -0.35891859345E+00  0.50208563315E+01  0.14451950710E+02  0.15303486545E+02  0.51100000000E-03 0.  1.
        -12    1    3    3    0    0  0.40246816731E+01 -0.13546053784E+02 -0.42121055918E+02  0.44428335410E+02  0.00000000000E+00 0.  1.
</event>
<event>
 7    1  0.3861961E-015  0.9000779E+02  0.7816164E-02  0.1186339E+00
        -11   -1    0    0    0    0  0.00000000000E+00  0.00000000000E+00  0.45593999997E+02  0.45594000000E+02  0.51100000000E-03 0. -1.
         11   -1    0    0    0    0 -0.00000000000E+00 -0.00000000000E+00 -0.45593999997E+02  0.45594000000E+02  0.51100000000E-03 0.  1.
    9900012    2    1    2    0    0  0.96796437882E+00  0.22311480417E+00  0.63731265533E+00  0.90007787021E+02  0.90000049010E+02 0.  0.
        -12    1    1    2    0    0 -0.96796437882E+00 -0.22311480417E+00 -0.63731265533E+00  0.11802129787E+01  0.00000000000E+00 0.  1.
         11    1    3    3    0    0  0.24348198858E+01  0.58242401700E+01 -0.38062586694E+01  0.73714128058E+01  0.51100000000E-03 0. -1.
        -11    1    3    3    0    0 -0.61861217157E+01 -0.13411117320E+02 -0.37189608287E+02  0.40014911401E+02  0.51100000000E-03 0.  1.
         12    1    3    3    0    0  0.47192662087E+01  0.78099919537E+01  0.41633179612E+02  0.42621462814E+02  0.00000000000E+00 0. -1.
</event>
<event>
 7    1  0.3861961E-015  0.9000777E+02  0.7816164E-02  0.1186339E+00
        -11   -1    0    0    0    0  0.00000000000E+00  0.00000000000E+00  0.45593999997E+02  0.45594000000E+02  0.51100000000E-03 0. -1.
         11   -1    0    0    0    0 -0.00000000000E+00 -0.00000000000E+00 -0.45593999997E+02  0.45594000000E+02  0.51100000000E-03 0.  1.
    9900012    2    1    2    0    0 -0.89891095117E+00 -0.34939508299E+00  0.68030467905E+00  0.90007774480E+02  0.90000036303E+02 0.  0.
        -12    1    1    2    0    0  0.89891095117E+00  0.34939508299E+00 -0.68030467905E+00  0.11802255202E+01  0.00000000000E+00 0.  1.
         11    1    3    3    0    0 -0.18569939738E+02  0.26696448152E+02 -0.51932949337E+00  0.32524032794E+02  0.51100000000E-03 0. -1.
        -11    1    3    3    0    0 -0.14738398997E+01  0.12670138888E+02 -0.32705726473E+01  0.13168191569E+02  0.51100000000E-03 0.  1.
        -12    1    3    3    0    0  0.19144868687E+02 -0.39715982124E+02  0.44702068197E+01  0.44315550116E+02  0.00000000000E+00 0.  1.
</event>
<event>
 7    1  0.4402659E-015  0.9000752E+02  0.7816164E-02  0.1186339E+00
        -11   -1    0    0    0    0  0.00000000000E+00  0.00000000000E+00  0.45593999997E+02  0.45594000000E+02  0.51100000000E-03 0.  1.
         11   -1    0    0    0    0 -0.00000000000E+00 -0.00000000000E+00 -0.45593999997E+02  0.45594000000E+02  0.51100000000E-03 0. -1.
    9900012    2    1    2    0    0  0.66509568771E+00  0.86458228224E+00 -0.45131709445E+00  0.90007516236E+02  0.89999774650E+02 0.  0.
        -12    1    1    2    0    0 -0.66509568771E+00 -0.86458228224E+00  0.45131709445E+00  0.11804837637E+01  0.00000000000E+00 0.  1.
         11    1    3    3    0    0  0.42269823723E+01 -0.31723120720E+01  0.72118387440E+01  0.89410045402E+01  0.51100000000E-03 0. -1.
        -11    1    3    3    0    0  0.22610018432E+02  0.97686984118E+01  0.27462364267E+02  0.36889318963E+02  0.51100000000E-03 0.  1.
         12    1    3    3    0    0 -0.26171905116E+02 -0.57318040575E+01 -0.35125520105E+02  0.44177192734E+02  0.00000000000E+00 0. -1.
</event>
<event>
 7    1  0.3861961E-015  0.9000770E+02  0.7816164E-02  0.1186339E+00
        -11   -1    0    0    0    0  0.00000000000E+00  0.00000000000E+00  0.45593999997E+02  0.45594000000E+02  0.51100000000E-03 0.  1.
         11   -1    0    0    0    0 -0.00000000000E+00 -0.00000000000E+00 -0.45593999997E+02  0.45594000000E+02  0.51100000000E-03 0. -1.
    9900012    2    1    2    0    0 -0.56897874298E+00 -0.44774762426E+00  0.93213929748E+00  0.90007704099E+02  0.89999964993E+02 0.  0.
        -12    1    1    2    0    0  0.56897874298E+00  0.44774762426E+00 -0.93213929748E+00  0.11802959014E+01  0.00000000000E+00 0.  1.
         11    1    3    3    0    0 -0.20782475811E+02  0.28904678592E+02  0.19851907208E+02  0.40761378355E+02  0.51100000000E-03 0. -1.
        -11    1    3    3    0    0 -0.68127445662E+01 -0.41795740864E+01 -0.58993433053E+00  0.80143839965E+01  0.51100000000E-03 0.  1.
        -12    1    3    3    0    0  0.27026241634E+02 -0.25172852130E+02 -0.18329833580E+02  0.41231941747E+02  0.00000000000E+00 0.  1.
</event>
<event>
 7    1  0.3861961E-015  0.9000825E+02  0.7816164E-02  0.1186338E+00
        -11   -1    0    0    0    0  0.00000000000E+00  0.00000000000E+00  0.45593999997E+02  0.45594000000E+02  0.51100000000E-03 0. -1.
         11   -1    0    0    0    0 -0.00000000000E+00 -0.00000000000E+00 -0.45593999997E+02  0.45594000000E+02  0.51100000000E-03 0.  1.
    9900012    2    1    2    0    0  0.69404115567E+00  0.95374168902E+00 -0.22294883050E-01  0.90008248587E+02  0.90000516667E+02 0.  0.
        -12    1    1    2    0    0 -0.69404115567E+00 -0.95374168902E+00  0.22294883050E-01  0.11797514132E+01  0.00000000000E+00 0.  1.
         11    1    3    3    0    0  0.78076338735E+01 -0.83494252755E+00  0.38718295796E+02  0.39506489408E+02  0.51100000000E-03 0. -1.
        -11    1    3    3    0    0 -0.87391408742E+01  0.43701401643E+01  0.17244263769E+01  0.99219128632E+01  0.51100000000E-03 0.  1.
        -12    1    3    3    0    0  0.16255481564E+01 -0.25814559477E+01 -0.40465017056E+02  0.40579846315E+02  0.00000000000E+00 0.  1.
</event>
<event>
 7    1  0.3861961E-015  0.9000771E+02  0.7816164E-02  0.1186339E+00
        -11   -1    0    0    0    0  0.00000000000E+00  0.00000000000E+00  0.45593999997E+02  0.45594000000E+02  0.51100000000E-03 0.  1.
         11   -1    0    0    0    0 -0.00000000000E+00 -0.00000000000E+00 -0.45593999997E+02  0.45594000000E+02  0.51100000000E-03 0. -1.
    9900012    2    1    2    0    0 -0.10119264545E+01 -0.59885862384E+00 -0.10224212414E+00  0.90007711793E+02  0.89999972788E+02 0.  0.
        -12    1    1    2    0    0  0.10119264545E+01  0.59885862384E+00  0.10224212414E+00  0.11802882074E+01  0.00000000000E+00 0.  1.
         11    1    3    3    0    0  0.89432572174E+01 -0.15128141119E+01 -0.88921814454E+00  0.91137898464E+01  0.51100000000E-03 0. -1.
        -11    1    3    3    0    0 -0.21986690641E+02 -0.23909281529E+02  0.27451273326E+02  0.42528116771E+02  0.51100000000E-03 0.  1.
         12    1    3    3    0    0  0.12031506969E+02  0.24823237017E+02 -0.26664297306E+02  0.38365805175E+02  0.00000000000E+00 0. -1.
</event>
<event>
 7    1  0.3861961E-015  0.9000773E+02  0.7816164E-02  0.1186339E+00
        -11   -1    0    0    0    0  0.00000000000E+00  0.00000000000E+00  0.45593999997E+02  0.45594000000E+02  0.51100000000E-03 0. -1.
         11   -1    0    0    0    0 -0.00000000000E+00 -0.00000000000E+00 -0.45593999997E+02  0.45594000000E+02  0.51100000000E-03 0.  1.
    9900012    2    1    2    0    0  0.53916330832E+00  0.73706223328E+00  0.74771683536E+00  0.90007729576E+02  0.89999990806E+02 0.  0.
        -12    1    1    2    0    0 -0.53916330832E+00 -0.73706223328E+00 -0.74771683536E+00  0.11802704244E+01  0.00000000000E+00 0.  1.
         11    1    3    3    0    0 -0.38230168104E+01  0.94300285399E+01  0.63388260706E+01  0.11988394889E+02  0.51100000000E-03 0. -1.
        -11    1    3    3    0    0 -0.31705662313E+02  0.10548716489E+02 -0.14093522176E+02  0.36265021852E+02  0.51100000000E-03 0.  1.
         12    1    3    3    0    0  0.36067842432E+02 -0.19241682796E+02  0.85024129413E+01  0.41754312835E+02  0.00000000000E+00 0. -1.
</event>
<event>
 7    1  0.3861961E-015  0.9000768E+02  0.7816164E-02  0.1186339E+00
        -11   -1    0    0    0    0  0.00000000000E+00  0.00000000000E+00  0.45593999997E+02  0.45594000000E+02  0.51100000000E-03 0. -1.
         11   -1    0    0    0    0 -0.00000000000E+00 -0.00000000000E+00 -0.45593999997E+02  0.45594000000E+02  0.51100000000E-03 0.  1.
    9900012    2    1    2    0    0 -0.10894210237E+01  0.44490459126E+00 -0.91481778601E-01  0.90007683442E+02  0.89999944063E+02 0.  0.
        -12    1    1    2    0    0  0.10894210237E+01 -0.44490459126E+00  0.91481778601E-01  0.11803165584E+01  0.00000000000E+00 0.  1.
         11    1    3    3    0    0  0.15585607597E+02 -0.59270465418E+01  0.33572012263E+02  0.37484944345E+02  0.51100000000E-03 0. -1.
        -11    1    3    3    0    0  0.77625857458E+01  0.35799358201E+00  0.27634783059E+01  0.82475881004E+01  0.51100000000E-03 0.  1.
        -12    1    3    3    0    0 -0.24437614367E+02  0.60139575511E+01 -0.36426972348E+02  0.44275150996E+02  0.00000000000E+00 0.  1.
</event>
<event>
 7    1  0.3861961E-015  0.9000761E+02  0.7816164E-02  0.1186339E+00
        -11   -1    0    0    0    0  0.00000000000E+00  0.00000000000E+00  0.45593999997E+02  0.45594000000E+02  0.51100000000E-03 0. -1.
         11   -1    0    0    0    0 -0.00000000000E+00 -0.00000000000E+00 -0.45593999997E+02  0.45594000000E+02  0.51100000000E-03 0.  1.
    9900012    2    1    2    0    0  0.85102805831E+00  0.41189433769E+00  0.70669973411E+00  0.90007605907E+02  0.89999865505E+02 0.  0.
        -12    1    1    2    0    0 -0.85102805831E+00 -0.41189433769E+00 -0.70669973411E+00  0.11803940934E+01  0.00000000000E+00 0.  1.
         11    1    3    3    0    0  0.17622947181E+00 -0.39067749090E+01  0.66383883728E+01  0.77046834760E+01  0.51100000000E-03 0. -1.
        -11    1    3    3    0    0 -0.38301217910E+02 -0.93497030206E+01 -0.10356369955E+02  0.40763398274E+02  0.51100000000E-03 0.  1.
         12    1    3    3    0    0  0.38976016497E+02  0.13668372267E+02  0.44246813159E+01  0.41539524156E+02  0.00000000000E+00 0. -1.
</event>
<event>
 7    1  0.3861961E-015  0.9000776E+02  0.7816164E-02  0.1186339E+00
        -11   -1    0    0    0    0  0.00000000000E+00  0.00000000000E+00  0.45593999997E+02  0.45594000000E+02  0.51100000000E-03 0.  1.
         11   -1    0    0    0    0 -0.00000000000E+00 -0.00000000000E+00 -0.45593999997E+02  0.45594000000E+02  0.51100000000E-03 0. -1.
    9900012    2    1    2    0    0  0.76902148852E+00  0.72822669118E+00 -0.52081501663E+00  0.90007764242E+02  0.90000025930E+02 0.  0.
        -12    1    1    2    0    0 -0.76902148852E+00 -0.72822669118E+00  0.52081501663E+00  0.11802357583E+01  0.00000000000E+00 0.  1.
         11    1    3    3    0    0  0.19325451575E+01  0.49337207242E+01  0.60356145673E+01  0.80314988910E+01  0.51100000000E-03 0. -1.
        -11    1    3    3    0    0  0.39262417583E+02  0.60603312705E+01  0.17350755145E+00  0.39727763021E+02  0.51100000000E-03 0.  1.
         12    1    3    3    0    0 -0.40425941252E+02 -0.10265825303E+02 -0.67299371354E+01  0.42248502329E+02  0.00000000000E+00 0. -1.
</event>
<event>
 7    1  0.3861961E-015  0.9000780E+02  0.7816164E-02  0.1186339E+00
        -11   -1    0    0    0    0  0.00000000000E+00  0.00000000000E+00  0.45593999997E+02  0.45594000000E+02  0.51100000000E-03 0. -1.
         11   -1    0    0    0    0 -0.00000000000E+00 -0.00000000000E+00 -0.45593999997E+02  0.45594000000E+02  0.51100000000E-03 0.  1.
    9900012    2    1    2    0    0 -0.47523166650E+00 -0.48747732731E+00  0.96405464266E+00  0.90007796358E+02  0.90000058470E+02 0.  0.
        -12    1    1    2    0    0  0.47523166650E+00  0.48747732731E+00 -0.96405464266E+00  0.11802036415E+01  0.00000000000E+00 0.  1.
         11    1    3    3    0    0 -0.43986124773E+00 -0.34397022902E+02 -0.20973410888E+02  0.40289361214E+02  0.51100000000E-03 0. -1.
        -11    1    3    3    0    0 -0.81768422539E-01 -0.30602403848E+01  0.10624023018E+02  0.11056293350E+02  0.51100000000E-03 0.  1.
        -12    1    3    3    0    0  0.46398003769E-01  0.36969785960E+02  0.11313442513E+02  0.38662141795E+02  0.00000000000E+00 0.  1.
</event>
<event>
 7    1  0.3861961E-015  0.9000771E+02  0.7816164E-02  0.1186339E+00
        -11   -1    0    0    0    0  0.00000000000E+00  0.00000000000E+00  0.45593999997E+02  0.45594000000E+02  0.51100000000E-03 0.  1.
         11   -1    0    0    0    0 -0.00000000000E+00 -0.00000000000E+00 -0.45593999997E+02  0.45594000000E+02  0.51100000000E-03 0. -1.
    9900012    2    1    2    0    0 -0.93526030972E+00  0.71064269516E+00 -0.11562881730E+00  0.90007705583E+02  0.89999966497E+02 0.  0.
        -12    1    1    2    0    0  0.93526030972E+00 -0.71064269516E+00  0.11562881730E+00  0.11802944169E+01  0.00000000000E+00 0.  1.
         11    1    3    3    0    0 -0.35391377483E+02  0.15090949814E+02  0.16948586497E+00  0.38474863121E+02  0.51100000000E-03 0. -1.
        -11    1    3    3    0    0 -0.59654500362E+01 -0.24729761642E+01 -0.62343536643E+01  0.89760442911E+01  0.51100000000E-03 0.  1.
        -12    1    3    3    0    0  0.40421567210E+02 -0.11907330954E+02  0.59492389820E+01  0.42556798171E+02  0.00000000000E+00 0.  1.
</event>
<event>
 7    1  0.3861961E-015  0.9000773E+02  0.7816164E-02  0.1186339E+00
        -11   -1    0    0    0    0  0.00000000000E+00  0.00000000000E+00  0.45593999997E+02  0.45594000000E+02  0.51100000000E-03 0.  1.
         11   -1    0    0    0    0 -0.00000000000E+00 -0.00000000000E+00 -0.45593999997E+02  0.45594000000E+02  0.51100000000E-03 0. -1.
    9900012    2    1    2    0    0 -0.89301027727E+00  0.77168982913E+00 -0.75299110643E-02  0.90007733400E+02  0.89999994681E+02 0.  0.
        -12    1    1    2    0    0  0.89301027727E+00 -0.77168982913E+00  0.75299110643E-02  0.11802666001E+01  0.00000000000E+00 0.  1.
         11    1    3    3    0    0  0.10962631055E+01  0.91410221500E+01 -0.13855895615E+01  0.93102060899E+01  0.51100000000E-03 0. -1.
        -11    1    3    3    0    0 -0.12522727257E+02  0.33100000210E+02  0.10571288340E+02  0.36934818929E+02  0.51100000000E-03 0.  1.
         12    1    3    3    0    0  0.10533453874E+02 -0.41469332531E+02 -0.91932286895E+01  0.43762708381E+02  0.00000000000E+00 0. -1.
</event>
<event>
 7    1  0.3861961E-015  0.9000777E+02  0.7816164E-02  0.1186339E+00
        -11   -1    0    0    0    0  0.00000000000E+00  0.00000000000E+00  0.45593999997E+02  0.45594000000E+02  0.51100000000E-03 0.  1.
         11   -1    0    0    0    0 -0.00000000000E+00 -0.00000000000E+00 -0.45593999997E+02  0.45594000000E+02  0.51100000000E-03 0. -1.
    9900012    2    1    2    0    0 -0.86990543818E+00  0.46323667698E+00 -0.64932440353E+00  0.90007768721E+02  0.90000030468E+02 0.  0.
        -12    1    1    2    0    0  0.86990543818E+00 -0.46323667698E+00  0.64932440353E+00  0.11802312787E+01  0.00000000000E+00 0.  1.
         11    1    3    3    0    0 -0.21764005694E+02 -0.31591122617E+02 -0.22108833014E+01  0.38426019535E+02  0.51100000000E-03 0. -1.
        -11    1    3    3    0    0  0.85962759834E+00 -0.64177379993E+01 -0.43559848426E+01  0.78039044616E+01  0.51100000000E-03 0.  1.
        -12    1    3    3    0    0  0.20034472658E+02  0.38472097293E+02  0.59175437405E+01  0.43777844725E+02  0.00000000000E+00 0.  1.
</event>
<event>
 7    1  0.3861961E-015  0.9000776E+02  0.7816164E-02  0.1186339E+00
        -11   -1    0    0    0    0  0.00000000000E+00  0.00000000000E+00  0.45593999997E+02  0.45594000000E+02  0.51100000000E-03 0.  1.
         11   -1    0    0    0    0 -0.00000000000E+00 -0.00000000000E+00 -0.45593999997E+02  0.45594000000E+02  0.51100000000E-03 0. -1.
    9900012    2    1    2    0    0 -0.39416732594E+00 -0.44272911067E+00 -0.10205845336E+01  0.90007758611E+02  0.90000020225E+02 0.  0.
        -12    1    1    2    0    0  0.39416732594E+00  0.44272911067E+00  0.10205845336E+01  0.11802413891E+01  0.00000000000E+00 0.  1.
         11    1    3    3    0    0  0.10361722561E+00 -0.60995656420E+01  0.11396026989E+02  0.12926131244E+02  0.51100000000E-03 0. -1.
        -11    1    3    3    0    0 -0.30166926998E+02 -0.23641080293E+01  0.16856236251E+02  0.34637626825E+02  0.51100000000E-03 0.  1.
         12    1    3    3    0    0  0.29669142446E+02  0.80209445606E+01 -0.29272847774E+02  0.42444000541E+02  0.00000000000E+00 0. -1.
</event>
<event>
 7    1  0.3861961E-015  0.9000777E+02  0.7816164E-02  0.1186339E+00
        -11   -1    0    0    0    0  0.00000000000E+00  0.00000000000E+00  0.45593999997E+02  0.45594000000E+02  0.51100000000E-03 0.  1.
         11   -1    0    0    0    0 -0.00000000000E+00 -0.00000000000E+00 -0.45593999997E+02  0.45594000000E+02  0.51100000000E-03 0. -1.
    9900012    2    1    2    0    0 -0.63906796573E+00 -0.98646543979E+00  0.10682020157E+00  0.90007774393E+02  0.90000036215E+02 0.  0.
        -12    1    1    2    0    0  0.63906796573E+00  0.98646543979E+00 -0.10682020157E+00  0.11802256073E+01  0.00000000000E+00 0.  1.
         11    1    3    3    0    0  0.10400303037E+02 -0.23845903361E+02  0.18215497803E+02  0.31758428343E+02  0.51100000000E-03 0. -1.
        -11    1    3    3    0    0  0.14032306701E+01 -0.99143772294E+00  0.15277448637E+02  0.15373758233E+02  0.51100000000E-03 0.  1.
         12    1    3    3    0    0 -0.12442601672E+02  0.23850875644E+02 -0.33386126239E+02  0.42875587817E+02  0.00000000000E+00 0. -1.
</event>
<event>
 7    1  0.3861961E-015  0.9000777E+02  0.7816164E-02  0.1186339E+00
        -11   -1    0    0    0    0  0.00000000000E+00  0.00000000000E+00  0.45593999997E+02  0.45594000000E+02  0.51100000000E-03 0.  1.
         11   -1    0    0    0    0 -0.00000000000E+00 -0.00000000000E+00 -0.45593999997E+02  0.45594000000E+02  0.51100000000E-03 0. -1.
    9900012    2    1    2    0    0 -0.28628230545E+00 -0.99044353118E+00 -0.57445800157E+00  0.90007772080E+02  0.90000033872E+02 0.  0.
        -12    1    1    2    0    0  0.28628230545E+00  0.99044353118E+00  0.57445800157E+00  0.11802279197E+01  0.00000000000E+00 0.  1.
         11    1    3    3    0    0  0.37039907007E+02  0.12833724155E+02  0.94305801676E+01  0.40318668497E+02  0.51100000000E-03 0. -1.
        -11    1    3    3    0    0 -0.83205717554E+01  0.85654905881E+01 -0.11809882859E+01  0.11999761537E+02  0.51100000000E-03 0.  1.
        -12    1    3    3    0    0 -0.29005617557E+02 -0.22389658275E+02 -0.88240498832E+01  0.37689342046E+02  0.00000000000E+00 0.  1.
</event>
<event>
 7    1  0.3861961E-015  0.9000845E+02  0.7816164E-02  0.1186338E+00
        -11   -1    0    0    0    0  0.00000000000E+00  0.00000000000E+00  0.45593999997E+02  0.45594000000E+02  0.51100000000E-03 0.  1.
         11   -1    0    0    0    0 -0.00000000000E+00 -0.00000000000E+00 -0.45593999997E+02  0.45594000000E+02  0.51100000000E-03 0. -1.
    9900012    2    1    2    0    0 -0.21093350304E-01  0.27186261699E+00 -0.11475968932E+01  0.90008452273E+02  0.90000723040E+02 0.  0.
        -12    1    1    2    0    0  0.21093350304E-01 -0.27186261699E+00  0.11475968932E+01  0.11795477274E+01  0.00000000000E+00 0.  1.
         11    1    3    3    0    0  0.15678955341E+01 -0.24737924516E+01  0.89168225062E+01  0.93855031494E+01  0.51100000000E-03 0. -1.
        -11    1    3    3    0    0  0.24834651255E+02 -0.28803645102E+01  0.25665046987E+02  0.35829471665E+02  0.51100000000E-03 0.  1.
         12    1    3    3    0    0 -0.26423640140E+02  0.56260195788E+01 -0.35729466387E+02  0.44793477458E+02  0.00000000000E+00 0. -1.
</event>
<event>
 7    1  0.3861961E-015  0.9000789E+02  0.7816164E-02  0.1186339E+00
        -11   -1    0    0    0    0  0.00000000000E+00  0.00000000000E+00  0.45593999997E+02  0.45594000000E+02  0.51100000000E-03 0.  1.
         11   -1    0    0    0    0 -0.00000000000E+00 -0.00000000000E+00 -0.45593999997E+02  0.45594000000E+02  0.51100000000E-03 0. -1.
    9900012    2    1    2    0    0  0.27473378135E+00  0.86457728758E+00 -0.75477746185E+00  0.90007889177E+02  0.90000152514E+02 0.  0.
        -12    1    1    2    0    0 -0.27473378135E+00 -0.86457728758E+00  0.75477746185E+00  0.11801108226E+01  0.00000000000E+00 0.  1.
         11    1    3    3    0    0 -0.80322206802E+01 -0.27098574940E+01  0.51234582170E+01  0.99050351365E+01  0.51100000000E-03 0. -1.
        -11    1    3    3    0    0 -0.24434892518E+01 -0.37243873817E+02  0.99207223158E+00  0.37337126084E+02  0.51100000000E-03 0.  1.
         12    1    3    3    0    0  0.10750443713E+02  0.40818308599E+02 -0.68703079104E+01  0.42765727957E+02  0.00000000000E+00 0. -1.
</event>
<event>
 7    1  0.3861961E-015  0.9000773E+02  0.7816164E-02  0.1186339E+00
        -11   -1    0    0    0    0  0.00000000000E+00  0.00000000000E+00  0.45593999997E+02  0.45594000000E+02  0.51100000000E-03 0. -1.
         11   -1    0    0    0    0 -0.00000000000E+00 -0.00000000000E+00 -0.45593999997E+02  0.45594000000E+02  0.51100000000E-03 0.  1.
    9900012    2    1    2    0    0  0.98953238761E-01 -0.92017357669E+00  0.73247144062E+00  0.90007734959E+02  0.89999996261E+02 0.  0.
        -12    1    1    2    0    0 -0.98953238761E-01  0.92017357669E+00 -0.73247144062E+00  0.11802650406E+01  0.00000000000E+00 0.  1.
         11    1    3    3    0    0 -0.28874348426E+02 -0.17199095158E+02  0.28332077458E+02  0.43957291598E+02  0.51100000000E-03 0. -1.
        -11    1    3    3    0    0  0.53200871234E+01 -0.30413135856E+01 -0.64784737091E+01  0.89175970523E+01  0.51100000000E-03 0.  1.
        -12    1    3    3    0    0  0.23653214541E+02  0.19320235167E+02 -0.21121132308E+02  0.37132846309E+02  0.00000000000E+00 0.  1.
</event>
<event>
 7    1  0.3861961E-015  0.9000774E+02  0.7816164E-02  0.1186339E+00
        -11   -1    0    0    0    0  0.00000000000E+00  0.00000000000E+00  0.45593999997E+02  0.45594000000E+02  0.51100000000E-03 0.  1.
         11   -1    0    0    0    0 -0.00000000000E+00 -0.00000000000E+00 -0.45593999997E+02  0.45594000000E+02  0.51100000000E-03 0. -1.
    9900012    2    1    2    0    0  0.42004956418E+00 -0.73653767564E+00 -0.82102733091E+00  0.90007739325E+02  0.90000000684E+02 0.  0.
        -12    1    1    2    0    0 -0.42004956418E+00  0.73653767564E+00  0.82102733091E+00  0.11802606755E+01  0.00000000000E+00 0.  1.
         11    1    3    3    0    0  0.25241770649E+02  0.14532755796E+02 -0.20929584532E+02  0.35866355899E+02  0.51100000000E-03 0. -1.
        -11    1    3    3    0    0  0.76487706709E+01 -0.17611800295E+01 -0.63790002162E+01  0.10114202484E+02  0.51100000000E-03 0.  1.
        -12    1    3    3    0    0 -0.32470491756E+02 -0.13508113443E+02  0.26487557418E+02  0.44027180941E+02  0.00000000000E+00 0.  1.
</event>
<event>
 7    1  0.5860122E-015  0.9000780E+02  0.7816164E-02  0.1186339E+00
        -11   -1    0    0    0    0  0.00000000000E+00  0.00000000000E+00  0.45593999997E+02  0.45594000000E+02  0.51100000000E-03 0. -1.
         11   -1    0    0    0    0 -0.00000000000E+00 -0.00000000000E+00 -0.45593999997E+02  0.45594000000E+02  0.51100000000E-03 0.  1.
    9900012    2    1    2    0    0  0.37370125336E-01 -0.20818127193E+00  0.11610944215E+01  0.90007798227E+02  0.90000060364E+02 0.  0.
        -12    1    1    2    0    0 -0.37370125336E-01  0.20818127193E+00 -0.11610944215E+01  0.11802017726E+01  0.00000000000E+00 0.  1.
         11    1    3    3    0    0 -0.88298636409E+01  0.49807851288E+01 -0.13463867725E+01  0.10226801554E+02  0.51100000000E-03 0. -1.
        -11    1    3    3    0    0 -0.20398516679E+02 -0.16479818257E+00 -0.29663621409E+02  0.36000792721E+02  0.51100000000E-03 0.  1.
         12    1    3    3    0    0  0.29265750445E+02 -0.50241682182E+01  0.32171102604E+02  0.43780203953E+02  0.00000000000E+00 0. -1.
</event>
<event>
 7    1  0.3861961E-015  0.9000773E+02  0.7816164E-02  0.1186339E+00
        -11   -1    0    0    0    0  0.00000000000E+00  0.00000000000E+00  0.45593999997E+02  0.45594000000E+02  0.51100000000E-03 0. -1.
         11   -1    0    0    0    0 -0.00000000000E+00 -0.00000000000E+00 -0.45593999997E+02  0.45594000000E+02  0.51100000000E-03 0.  1.
    9900012    2    1    2    0    0 -0.45200068968E-01 -0.76975503159E+00  0.89357195371E+00  0.90007730246E+02  0.89999991486E+02 0.  0.
        -12    1    1    2    0    0  0.45200068968E-01  0.76975503159E+00 -0.89357195371E+00  0.11802697536E+01  0.00000000000E+00 0.  1.
         11    1    3    3    0    0  0.33521886809E+00  0.31688282305E+02  0.12909422535E+02  0.34218603092E+02  0.51100000000E-03 0. -1.
        -11    1    3    3    0    0 -0.10281728554E+02  0.77700747144E+01 -0.47097013029E+01  0.13721125673E+02  0.51100000000E-03 0.  1.
        -12    1    3    3    0    0  0.99013096165E+01 -0.40228112051E+02 -0.73061492787E+01  0.42068001481E+02  0.00000000000E+00 0.  1.
</event>
<event>
 7    1  0.3861961E-015  0.9000770E+02  0.7816164E-02  0.1186339E+00
        -11   -1    0    0    0    0  0.00000000000E+00  0.00000000000E+00  0.45593999997E+02  0.45594000000E+02  0.51100000000E-03 0.  1.
         11   -1    0    0    0    0 -0.00000000000E+00 -0.00000000000E+00 -0.45593999997E+02  0.45594000000E+02  0.51100000000E-03 0. -1.
    9900012    2    1    2    0    0 -0.15147684767E+00 -0.11700314395E+01 -0.34349627212E-01  0.90007703977E+02  0.89999964870E+02 0.  0.
        -12    1    1    2    0    0  0.15147684767E+00  0.11700314395E+01  0.34349627212E-01  0.11802960229E+01  0.00000000000E+00 0.  1.
         11    1    3    3    0    0 -0.96760624754E+01 -0.35003355395E+02  0.11307244418E+02  0.38035704944E+02  0.51100000000E-03 0. -1.
        -11    1    3    3    0    0 -0.57099176498E+00 -0.77699623666E+01 -0.30448448611E+01  0.83647729953E+01  0.51100000000E-03 0.  1.
        -12    1    3    3    0    0  0.10095577393E+02  0.41603286322E+02 -0.82967491844E+01  0.43607226038E+02  0.00000000000E+00 0.  1.
</event>
<event>
 7    1  0.3861961E-015  0.9000769E+02  0.7816164E-02  0.1186339E+00
        -11   -1    0    0    0    0  0.00000000000E+00  0.00000000000E+00  0.45593999997E+02  0.45594000000E+02  0.51100000000E-03 0.  1.
         11   -1    0    0    0    0 -0.00000000000E+00 -0.00000000000E+00 -0.45593999997E+02  0.45594000000E+02  0.51100000000E-03 0. -1.
    9900012    2    1    2    0    0 -0.26992131114E-01  0.37425945028E+00 -0.11190756722E+01  0.90007691112E+02  0.89999951835E+02 0.  0.
        -12    1    1    2    0    0  0.26992131114E-01 -0.37425945028E+00  0.11190756722E+01  0.11803088881E+01  0.00000000000E+00 0.  1.
         11    1    3    3    0    0  0.78766834337E+01 -0.48367625201E+01  0.66245806457E+01  0.11371960367E+02  0.51100000000E-03 0. -1.
        -11    1    3    3    0    0  0.13096746938E+02  0.25532978586E+02  0.22585924439E+02  0.36518238715E+02  0.51100000000E-03 0.  1.
         12    1    3    3    0    0 -0.21000422503E+02 -0.20321956615E+02 -0.30329580757E+02  0.42117492030E+02  0.00000000000E+00 0. -1.
</event>
<event>
 7    1  0.3861961E-015  0.9000782E+02  0.7816164E-02  0.1186339E+00
        -11   -1    0    0    0    0  0.00000000000E+00  0.00000000000E+00  0.45593999997E+02  0.45594000000E+02  0.51100000000E-03 0. -1.
         11   -1    0    0    0    0 -0.00000000000E+00 -0.00000000000E+00 -0.45593999997E+02  0.45594000000E+02  0.51100000000E-03 0.  1.
    9900012    2    1    2    0    0 -0.48019072248E+00  0.96048464096E+00  0.48960469347E+00  0.90007819238E+02  0.90000081652E+02 0.  0.
        -12    1    1    2    0    0  0.48019072248E+00 -0.96048464096E+00 -0.48960469347E+00  0.11801807621E+01  0.00000000000E+00 0.  1.
         11    1    3    3    0    0 -0.28124234406E+02 -0.27011044142E+02  0.12814779681E+02  0.41046164804E+02  0.51100000000E-03 0. -1.
        -11    1    3    3    0    0 -0.34311138177E+01  0.98779199397E+01  0.12379185054E+01  0.10529875918E+02  0.51100000000E-03 0.  1.
        -12    1    3    3    0    0  0.31075157502E+02  0.18093608844E+02 -0.13563093493E+02  0.38431778515E+02  0.00000000000E+00 0.  1.
</event>
<event>
 7    1  0.3861961E-015  0.9000781E+02  0.7816164E-02  0.1186339E+00
        -11   -1    0    0    0    0  0.00000000000E+00  0.00000000000E+00  0.45593999997E+02  0.45594000000E+02  0.51100000000E-03 0. -1.
         11   -1    0    0    0    0 -0.00000000000E+00 -0.00000000000E+00 -0.45593999997E+02  0.45594000000E+02  0.51100000000E-03 0.  1.
    9900012    2    1    2    0    0 -0.66891434275E+00 -0.55051810331E+00  0.80145430847E+00  0.90007811206E+02  0.90000073514E+02 0.  0.
        -12    1    1    2    0    0  0.66891434275E+00  0.55051810331E+00 -0.80145430847E+00  0.11801887936E+01  0.00000000000E+00 0.  1.
         11    1    3    3    0    0 -0.29492635958E+02 -0.67944231393E+01  0.27829867079E+02  0.41115462584E+02  0.51100000000E-03 0. -1.
        -11    1    3    3    0    0  0.29463138925E+01 -0.83592902265E+01 -0.20994328877E+00  0.88658093308E+01  0.51100000000E-03 0.  1.
        -12    1    3    3    0    0  0.25877407723E+02  0.14603195263E+02 -0.26818469482E+02  0.40026539292E+02  0.00000000000E+00 0.  1.
</event>
<event>
 7    1  0.3861961E-015  0.9000770E+02  0.7816164E-02  0.1186339E+00
        -11   -1    0    0    0    0  0.00000000000E+00  0.00000000000E+00  0.45593999997E+02  0.45594000000E+02  0.51100000000E-03 0. -1.
         11   -1    0    0    0    0 -0.00000000000E+00 -0.00000000000E+00 -0.45593999997E+02  0.45594000000E+02  0.51100000000E-03 0.  1.
    9900012    2    1    2    0    0  0.40863914841E+00 -0.10890685841E+01 -0.20012737950E+00  0.90007700334E+02  0.89999961178E+02 0.  0.
        -12    1    1    2    0    0 -0.40863914841E+00  0.10890685841E+01  0.20012737950E+00  0.11802996664E+01  0.00000000000E+00 0.  1.
         11    1    3    3    0    0  0.20111046241E+01 -0.33986761459E+01  0.81407904398E+01  0.90480943076E+01  0.51100000000E-03 0. -1.
        -11    1    3    3    0    0  0.38686725822E+02  0.66047265914E+01 -0.96703851003E+01  0.40420310692E+02  0.51100000000E-03 0.  1.
         12    1    3    3    0    0 -0.40289191298E+02 -0.42951190296E+01  0.13294672810E+01  0.40539295334E+02  0.00000000000E+00 0. -1.
</event>
<event>
 7    1  0.3861961E-015  0.9000784E+02  0.7816164E-02  0.1186339E+00
        -11   -1    0    0    0    0  0.00000000000E+00  0.00000000000E+00  0.45593999997E+02  0.45594000000E+02  0.51100000000E-03 0. -1.
         11   -1    0    0    0    0 -0.00000000000E+00 -0.00000000000E+00 -0.45593999997E+02  0.45594000000E+02  0.51100000000E-03 0.  1.
    9900012    2    1    2    0    0 -0.11659970761E+01 -0.13228921461E+00 -0.12539989551E+00  0.90007841218E+02  0.90000103922E+02 0.  0.
        -12    1    1    2    0    0  0.11659970761E+01  0.13228921461E+00  0.12539989551E+00  0.11801587823E+01  0.00000000000E+00 0.  1.
         11    1    3    3    0    0 -0.71592002035E+01 -0.45870249259E+01  0.11759022107E+01  0.85835710223E+01  0.51100000000E-03 0. -1.
        -11    1    3    3    0    0 -0.19494715365E+02  0.25287612004E+02 -0.25257146370E+02  0.40711554761E+02  0.51100000000E-03 0.  1.
         12    1    3    3    0    0  0.25487918492E+02 -0.20832876293E+02  0.23955844264E+02  0.40712715435E+02  0.00000000000E+00 0. -1.
</event>
<event>
 7    1  0.3861961E-015  0.9000769E+02  0.7816164E-02  0.1186339E+00
        -11   -1    0    0    0    0  0.00000000000E+00  0.00000000000E+00  0.45593999997E+02  0.45594000000E+02  0.51100000000E-03 0.  1.
         11   -1    0    0    0    0 -0.00000000000E+00 -0.00000000000E+00 -0.45593999997E+02  0.45594000000E+02  0.51100000000E-03 0. -1.
    9900012    2    1    2    0    0 -0.11328054223E+01 -0.31562492189E+00 -0.10134059546E+00  0.90007687697E+02  0.89999948375E+02 0.  0.
        -12    1    1    2    0    0  0.11328054223E+01  0.31562492189E+00  0.10134059546E+00  0.11803123029E+01  0.00000000000E+00 0.  1.
         11    1    3    3    0    0  0.45034895162E+01 -0.28814798991E+02 -0.19827943258E+02  0.35266434365E+02  0.51100000000E-03 0. -1.
        -11    1    3    3    0    0 -0.66845676952E+01 -0.10214073342E+02  0.30925961874E+01  0.12592652260E+02  0.51100000000E-03 0.  1.
        -12    1    3    3    0    0  0.10482727567E+01  0.38713247411E+02  0.16634006476E+02  0.42148601072E+02  0.00000000000E+00 0.  1.
</event>
<event>
 7    1  0.3861961E-015  0.9000791E+02  0.7816164E-02  0.1186339E+00
        -11   -1    0    0    0    0  0.00000000000E+00  0.00000000000E+00  0.45593999997E+02  0.45594000000E+02  0.51100000000E-03 0. -1.
         11   -1    0    0    0    0 -0.00000000000E+00 -0.00000000000E+00 -0.45593999997E+02  0.45594000000E+02  0.51100000000E-03 0.  1.
    9900012    2    1    2    0    0 -0.57889634525E+00  0.76930256977E+00  0.68239927440E+00  0.90007908397E+02  0.90000171987E+02 0.  0.
        -12    1    1    2    0    0  0.57889634525E+00 -0.76930256977E+00 -0.68239927440E+00  0.11800916033E+01  0.00000000000E+00 0.  1.
         11    1    3    3    0    0 -0.32342449271E+02  0.14158863439E+02 -0.19467323315E+02  0.40317293015E+02  0.51100000000E-03 0. -1.
        -11    1    3    3    0    0 -0.48030116428E+01  0.35818849471E+00  0.69492057386E+01  0.84550978998E+01  0.51100000000E-03 0.  1.
        -12    1    3    3    0    0  0.36566564568E+02 -0.13747749364E+02  0.13200516851E+02  0.41235517482E+02  0.00000000000E+00 0.  1.
</event>
<event>
 7    1  0.3861961E-015  0.9000788E+02  0.7816164E-02  0.1186339E+00
        -11   -1    0    0    0    0  0.00000000000E+00  0.00000000000E+00  0.45593999997E+02  0.45594000000E+02  0.51100000000E-03 0.  1.
         11   -1    0    0    0    0 -0.00000000000E+00 -0.00000000000E+00 -0.45593999997E+02  0.45594000000E+02  0.51100000000E-03 0. -1.
    9900012    2    1    2    0    0  0.30766084949E+00  0.47311779052E+00 -0.10364305788E+01  0.90007879673E+02  0.90000142884E+02 0.  0.
        -12    1    1    2    0    0 -0.30766084949E+00 -0.47311779052E+00  0.10364305788E+01  0.11801203272E+01  0.00000000000E+00 0.  1.
         11    1    3    3    0    0  0.54658881058E+01 -0.10888830187E+02 -0.72329769358E+01  0.14168927667E+02  0.51100000000E-03 0. -1.
        -11    1    3    3    0    0  0.24588151645E+02 -0.76247357106E+01 -0.19407804184E+02  0.32239365060E+02  0.51100000000E-03 0.  1.
         12    1    3    3    0    0 -0.29746378901E+02  0.18986683688E+02  0.25604350541E+02  0.43599586946E+02  0.00000000000E+00 0. -1.
</event>
<event>
 7    1  0.3861961E-015  0.9000782E+02  0.7816164E-02  0.1186339E+00
        -11   -1    0    0    0    0  0.00000000000E+00  0.00000000000E+00  0.45593999997E+02  0.45594000000E+02  0.51100000000E-03 0.  1.
         11   -1    0    0    0    0 -0.00000000000E+00 -0.00000000000E+00 -0.45593999997E+02  0.45594000000E+02  0.51100000000E-03 0. -1.
    9900012    2    1    2    0    0  0.20503894985E+00  0.46014185991E-01 -0.11613239462E+01  0.90007817139E+02  0.90000079526E+02 0.  0.
        -12    1    1    2    0    0 -0.20503894985E+00 -0.46014185991E-01  0.11613239462E+01  0.11801828605E+01  0.00000000000E+00 0.  1.
         11    1    3    3    0    0  0.20355626078E+02 -0.16441440170E+02 -0.35077612140E+02  0.43761985120E+02  0.51100000000E-03 0. -1.
        -11    1    3    3    0    0 -0.33658450450E+00  0.83235496161E+01  0.34938931076E+01  0.90333856692E+01  0.51100000000E-03 0.  1.
        -12    1    3    3    0    0 -0.19814002624E+02  0.81639047401E+01  0.30422395087E+02  0.37212446350E+02  0.00000000000E+00 0.  1.
</event>
<event>
 7    1  0.3861961E-015  0.9000690E+02  0.7816164E-02  0.1186341E+00
        -11   -1    0    0    0    0  0.00000000000E+00  0.00000000000E+00  0.45593999997E+02  0.45594000000E+02  0.51100000000E-03 0. -1.
         11   -1    0    0    0    0 -0.00000000000E+00 -0.00000000000E+00 -0.45593999997E+02  0.45594000000E+02  0.51100000000E-03 0.  1.
    9900012    2    1    2    0    0  0.64760493625E-01 -0.11114270778E+01 -0.39438418143E+00  0.90006897569E+02  0.89999147812E+02 0.  0.
        -12    1    1    2    0    0 -0.64760493625E-01  0.11114270778E+01  0.39438418143E+00  0.11811024314E+01  0.00000000000E+00 0.  1.
         11    1    3    3    0    0 -0.42476203087E+01 -0.12139822054E+02 -0.26762994887E+02  0.29693020281E+02  0.51100000000E-03 0.  1.
        -11    1    3    3    0    0 -0.11885228350E+02 -0.17181954150E+02  0.52884243523E+01  0.21551000760E+02  0.51100000000E-03 0. -1.
         12    1    3    3    0    0  0.16197609153E+02  0.28210349126E+02  0.21080186353E+02  0.38762876529E+02  0.00000000000E+00 0. -1.
</event>
<event>
 7    1  0.3861961E-015  0.9000785E+02  0.7816164E-02  0.1186339E+00
        -11   -1    0    0    0    0  0.00000000000E+00  0.00000000000E+00  0.45593999997E+02  0.45594000000E+02  0.51100000000E-03 0.  1.
         11   -1    0    0    0    0 -0.00000000000E+00 -0.00000000000E+00 -0.45593999997E+02  0.45594000000E+02  0.51100000000E-03 0. -1.
    9900012    2    1    2    0    0 -0.61455756352E+00  0.52510832216E+00 -0.85984750627E+00  0.90007848534E+02  0.90000111334E+02 0.  0.
        -12    1    1    2    0    0  0.61455756352E+00 -0.52510832216E+00  0.85984750627E+00  0.11801514661E+01  0.00000000000E+00 0.  1.
         11    1    3    3    0    0  0.87477163493E+01 -0.10336384084E+02  0.47126225125E+01  0.14337788828E+02  0.51100000000E-03 0. -1.
        -11    1    3    3    0    0  0.72479556494E+01 -0.19819351036E+02  0.22530876153E+02  0.30870372804E+02  0.51100000000E-03 0.  1.
         12    1    3    3    0    0 -0.16610229562E+02  0.30680843442E+02 -0.28103346172E+02  0.44799686902E+02  0.00000000000E+00 0. -1.
</event>
<event>
 7    1  0.3861961E-015  0.9000787E+02  0.7816164E-02  0.1186339E+00
        -11   -1    0    0    0    0  0.00000000000E+00  0.00000000000E+00  0.45593999997E+02  0.45594000000E+02  0.51100000000E-03 0. -1.
         11   -1    0    0    0    0 -0.00000000000E+00 -0.00000000000E+00 -0.45593999997E+02  0.45594000000E+02  0.51100000000E-03 0.  1.
    9900012    2    1    2    0    0  0.10129084532E+01  0.32924435723E+00  0.50825768723E+00  0.90007868118E+02  0.90000131177E+02 0.  0.
        -12    1    1    2    0    0 -0.10129084532E+01 -0.32924435723E+00 -0.50825768723E+00  0.11801318816E+01  0.00000000000E+00 0.  1.
         11    1    3    3    0    0  0.33491059245E+02 -0.20822047723E+02  0.15574227608E+02  0.42400062342E+02  0.51100000000E-03 0. -1.
        -11    1    3    3    0    0 -0.23892146317E+01 -0.69122789806E+00 -0.97334256484E+01  0.10046179258E+02  0.51100000000E-03 0.  1.
        -12    1    3    3    0    0 -0.30088936161E+02  0.21842519979E+02 -0.53325442729E+01  0.37561626518E+02  0.00000000000E+00 0.  1.
</event>
<event>
 7    1  0.3861961E-015  0.9000792E+02  0.7816164E-02  0.1186339E+00
        -11   -1    0    0    0    0  0.00000000000E+00  0.00000000000E+00  0.45593999997E+02  0.45594000000E+02  0.51100000000E-03 0.  1.
         11   -1    0    0    0    0 -0.00000000000E+00 -0.00000000000E+00 -0.45593999997E+02  0.45594000000E+02  0.51100000000E-03 0. -1.
    9900012    2    1    2    0    0  0.94760357897E+00 -0.56061583141E+00  0.42468043296E+00  0.90007916900E+02  0.90000180603E+02 0.  0.
        -12    1    1    2    0    0 -0.94760357897E+00  0.56061583141E+00 -0.42468043296E+00  0.11800831002E+01  0.00000000000E+00 0.  1.
         11    1    3    3    0    0 -0.34166802036E+02 -0.74562148547E+01 -0.99978900446E+01  0.36372012688E+02  0.51100000000E-03 0. -1.
        -11    1    3    3    0    0 -0.31313068624E+01 -0.98189167582E+01  0.52853403639E+01  0.11582358654E+02  0.51100000000E-03 0.  1.
        -12    1    3    3    0    0  0.38245712478E+02  0.16714515782E+02  0.51372301137E+01  0.42053545558E+02  0.00000000000E+00 0.  1.
</event>
<event>
 7    1  0.3861961E-015  0.9000776E+02  0.7816164E-02  0.1186339E+00
        -11   -1    0    0    0    0  0.00000000000E+00  0.00000000000E+00  0.45593999997E+02  0.45594000000E+02  0.51100000000E-03 0. -1.
         11   -1    0    0    0    0 -0.00000000000E+00 -0.00000000000E+00 -0.45593999997E+02  0.45594000000E+02  0.51100000000E-03 0.  1.
    9900012    2    1    2    0    0 -0.94635112866E+00 -0.69803110947E+00  0.10071285212E+00  0.90007758090E+02  0.90000019696E+02 0.  0.
        -12    1    1    2    0    0  0.94635112866E+00  0.69803110947E+00 -0.10071285212E+00  0.11802419104E+01  0.00000000000E+00 0.  1.
         11    1    3    3    0    0  0.29700632681E+01  0.16626626810E+02 -0.11596617550E+01  0.16929583886E+02  0.51100000000E-03 0. -1.
        -11    1    3    3    0    0  0.19337384284E+02 -0.29686626497E+02 -0.18673548789E+02  0.40049115450E+02  0.51100000000E-03 0.  1.
         12    1    3    3    0    0 -0.23253798681E+02  0.12361968577E+02  0.19933923396E+02  0.33029058754E+02  0.00000000000E+00 0. -1.
</event>
<event>
 7    1  0.3861961E-015  0.9000753E+02  0.7816164E-02  0.1186339E+00
        -11   -1    0    0    0    0  0.00000000000E+00  0.00000000000E+00  0.45593999997E+02  0.45594000000E+02  0.51100000000E-03 0. -1.
         11   -1    0    0    0    0 -0.00000000000E+00 -0.00000000000E+00 -0.45593999997E+02  0.45594000000E+02  0.51100000000E-03 0.  1.
    9900012    2    1    2    0    0 -0.98568430593E+00 -0.48297003354E+00  0.43436962178E+00  0.90007529512E+02  0.89999788102E+02 0.  0.
        -12    1    1    2    0    0  0.98568430593E+00  0.48297003354E+00 -0.43436962178E+00  0.11804704878E+01  0.00000000000E+00 0.  1.
         11    1    3    3    0    0  0.22621655860E+02  0.26791041619E+02  0.34588996907E+01  0.35234403815E+02  0.51100000000E-03 0. -1.
        -11    1    3    3    0    0  0.10983404642E+02 -0.76738808422E+00  0.71965341522E+00  0.11033674062E+02  0.51100000000E-03 0.  1.
        -12    1    3    3    0    0 -0.34590744808E+02 -0.26506623568E+02 -0.37441834841E+01  0.43739451635E+02  0.00000000000E+00 0.  1.
</event>
<event>
 7    1  0.3861961E-015  0.9000773E+02  0.7816164E-02  0.1186339E+00
        -11   -1    0    0    0    0  0.00000000000E+00  0.00000000000E+00  0.45593999997E+02  0.45594000000E+02  0.51100000000E-03 0.  1.
         11   -1    0    0    0    0 -0.00000000000E+00 -0.00000000000E+00 -0.45593999997E+02  0.45594000000E+02  0.51100000000E-03 0. -1.
    9900012    2    1    2    0    0 -0.10506851160E+01  0.10810624393E+00  0.52669220686E+00  0.90007732719E+02  0.89999993991E+02 0.  0.
        -12    1    1    2    0    0  0.10506851160E+01 -0.10810624393E+00 -0.52669220686E+00  0.11802672807E+01  0.00000000000E+00 0.  1.
         11    1    3    3    0    0  0.34570329882E+02 -0.24531555739E+01  0.26067472153E+02  0.43366332392E+02  0.51100000000E-03 0. -1.
        -11    1    3    3    0    0 -0.93508953488E+01  0.14108336497E+01  0.71301480488E+00  0.94835692534E+01  0.51100000000E-03 0.  1.
        -12    1    3    3    0    0 -0.26270119649E+02  0.11504281682E+01 -0.26253794751E+02  0.37157831074E+02  0.00000000000E+00 0.  1.
</event>
<event>
 7    1  0.3861961E-015  0.9000827E+02  0.7816164E-02  0.1186338E+00
        -11   -1    0    0    0    0  0.00000000000E+00  0.00000000000E+00  0.45593999997E+02  0.45594000000E+02  0.51100000000E-03 0.  1.
         11   -1    0    0    0    0 -0.00000000000E+00 -0.00000000000E+00 -0.45593999997E+02  0.45594000000E+02  0.51100000000E-03 0. -1.
    9900012    2    1    2    0    0 -0.14372557490E+00 -0.25577049085E+00 -0.11426666584E+01  0.90008270083E+02  0.90000538447E+02 0.  0.
        -12    1    1    2    0    0  0.14372557490E+00  0.25577049085E+00  0.11426666584E+01  0.11797299170E+01  0.00000000000E+00 0.  1.
         11    1    3    3    0    0  0.14015769501E+02 -0.33603974647E+02 -0.15945629822E+01  0.36444636617E+02  0.51100000000E-03 0. -1.
        -11    1    3    3    0    0 -0.41827504316E+01 -0.88012315595E+01 -0.27677956394E+01  0.10130042996E+02  0.51100000000E-03 0.  1.
        -12    1    3    3    0    0 -0.99767446443E+01  0.42149435715E+02  0.32196919632E+01  0.43433590470E+02  0.00000000000E+00 0.  1.
</event>
<event>
 7    1  0.3861961E-015  0.9000716E+02  0.7816164E-02  0.1186340E+00
        -11   -1    0    0    0    0  0.00000000000E+00  0.00000000000E+00  0.45593999997E+02  0.45594000000E+02  0.51100000000E-03 0. -1.
         11   -1    0    0    0    0 -0.00000000000E+00 -0.00000000000E+00 -0.45593999997E+02  0.45594000000E+02  0.51100000000E-03 0.  1.
    9900012    2    1    2    0    0  0.11221652681E+01  0.78003011315E-01  0.35922842776E+00  0.90007159443E+02  0.89999413145E+02 0.  0.
        -12    1    1    2    0    0 -0.11221652681E+01 -0.78003011315E-01 -0.35922842776E+00  0.11808405574E+01  0.00000000000E+00 0.  1.
         11    1    3    3    0    0  0.39787973618E+02  0.10820275794E+02 -0.92533221089E+01  0.42258551598E+02  0.51100000000E-03 0. -1.
        -11    1    3    3    0    0 -0.62638348502E+01  0.39556329985E+01 -0.53629804011E+01  0.91457213216E+01  0.51100000000E-03 0.  1.
        -12    1    3    3    0    0 -0.32401973499E+02 -0.14697905781E+02  0.14975530938E+02  0.38602886523E+02  0.00000000000E+00 0.  1.
</event>
<event>
 7    1  0.3861961E-015  0.9000759E+02  0.7816164E-02  0.1186339E+00
        -11   -1    0    0    0    0  0.00000000000E+00  0.00000000000E+00  0.45593999997E+02  0.45594000000E+02  0.51100000000E-03 0.  1.
         11   -1    0    0    0    0 -0.00000000000E+00 -0.00000000000E+00 -0.45593999997E+02  0.45594000000E+02  0.51100000000E-03 0. -1.
    9900012    2    1    2    0    0  0.69654995058E+00 -0.81587446677E-02 -0.95295780965E+00  0.90007586096E+02  0.89999845432E+02 0.  0.
        -12    1    1    2    0    0 -0.69654995058E+00  0.81587446677E-02  0.95295780965E+00  0.11804139044E+01  0.00000000000E+00 0.  1.
         11    1    3    3    0    0 -0.18965539606E+01  0.21207983285E+02  0.13274199144E+02  0.25091429516E+02  0.51100000000E-03 0. -1.
        -11    1    3    3    0    0  0.16694311385E+02 -0.17266018091E+02  0.17670810658E+02  0.29817326555E+02  0.51100000000E-03 0.  1.
         12    1    3    3    0    0 -0.14101207473E+02 -0.39501239384E+01 -0.31897967612E+02  0.35098830025E+02  0.00000000000E+00 0. -1.
</event>
<event>
 7    1  0.3861961E-015  0.9000771E+02  0.7816164E-02  0.1186339E+00
        -11   -1    0    0    0    0  0.00000000000E+00  0.00000000000E+00  0.45593999997E+02  0.45594000000E+02  0.51100000000E-03 0.  1.
         11   -1    0    0    0    0 -0.00000000000E+00 -0.00000000000E+00 -0.45593999997E+02  0.45594000000E+02  0.51100000000E-03 0. -1.
    9900012    2    1    2    0    0 -0.17172562855E+00  0.78435415494E+00 -0.86509052461E+00  0.90007710736E+02  0.89999971717E+02 0.  0.
        -12    1    1    2    0    0  0.17172562855E+00 -0.78435415494E+00  0.86509052461E+00  0.11802892644E+01  0.00000000000E+00 0.  1.
         11    1    3    3    0    0 -0.37870985581E+02  0.11117093277E+02 -0.12720835778E+02  0.41468312902E+02  0.51100000000E-03 0. -1.
        -11    1    3    3    0    0  0.50587862379E+01 -0.75771134084E+01 -0.63104656334E+01  0.11082686614E+02  0.51100000000E-03 0.  1.
        -12    1    3    3    0    0  0.32640473715E+02 -0.27556257133E+01  0.18166210887E+02  0.37456711220E+02  0.00000000000E+00 0.  1.
</event>
<event>
 7    1  0.3861961E-015  0.9000770E+02  0.7816164E-02  0.1186339E+00
        -11   -1    0    0    0    0  0.00000000000E+00  0.00000000000E+00  0.45593999997E+02  0.45594000000E+02  0.51100000000E-03 0. -1.
         11   -1    0    0    0    0 -0.00000000000E+00 -0.00000000000E+00 -0.45593999997E+02  0.45594000000E+02  0.51100000000E-03 0.  1.
    9900012    2    1    2    0    0 -0.40483633860E+00  0.10123007038E+01 -0.45217394002E+00  0.90007700696E+02  0.89999961545E+02 0.  0.
        -12    1    1    2    0    0  0.40483633860E+00 -0.10123007038E+01  0.45217394002E+00  0.11802993044E+01  0.00000000000E+00 0.  1.
         11    1    3    3    0    0  0.26807904248E+02 -0.24085042685E+02  0.13671837900E+02  0.38544418054E+02  0.51100000000E-03 0. -1.
        -11    1    3    3    0    0  0.20692062915E+01 -0.51412629389E+01 -0.67429695860E+01  0.87282208028E+01  0.51100000000E-03 0.  1.
        -12    1    3    3    0    0 -0.29281946878E+02  0.30238606328E+02 -0.73810422536E+01  0.42735061839E+02  0.00000000000E+00 0.  1.
</event>
<event>
 7    1  0.3861961E-015  0.9000769E+02  0.7816164E-02  0.1186339E+00
        -11   -1    0    0    0    0  0.00000000000E+00  0.00000000000E+00  0.45593999997E+02  0.45594000000E+02  0.51100000000E-03 0.  1.
         11   -1    0    0    0    0 -0.00000000000E+00 -0.00000000000E+00 -0.45593999997E+02  0.45594000000E+02  0.51100000000E-03 0. -1.
    9900012    2    1    2    0    0 -0.15006934238E+00  0.83855881442E+00 -0.81696834591E+00  0.90007686918E+02  0.89999947586E+02 0.  0.
        -12    1    1    2    0    0  0.15006934238E+00 -0.83855881442E+00  0.81696834591E+00  0.11803130818E+01  0.00000000000E+00 0.  1.
         11    1    3    3    0    0 -0.16709017664E+02 -0.24245783274E+01 -0.34258322060E+02  0.38192963776E+02  0.51100000000E-03 0. -1.
        -11    1    3    3    0    0 -0.35232193281E+01  0.50441385880E+01 -0.53134232103E+01  0.81295064427E+01  0.51100000000E-03 0.  1.
        -12    1    3    3    0    0  0.20082167650E+02 -0.17810014463E+01  0.38754776924E+02  0.43685216700E+02  0.00000000000E+00 0.  1.
</event>
<event>
 7    1  0.3861961E-015  0.9000836E+02  0.7816164E-02  0.1186338E+00
        -11   -1    0    0    0    0  0.00000000000E+00  0.00000000000E+00  0.45593999997E+02  0.45594000000E+02  0.51100000000E-03 0. -1.
         11   -1    0    0    0    0 -0.00000000000E+00 -0.00000000000E+00 -0.45593999997E+02  0.45594000000E+02  0.51100000000E-03 0.  1.
    9900012    2    1    2    0    0  0.10407738805E+01 -0.53400984352E+00  0.15224053928E+00  0.90008358544E+02  0.90000628074E+02 0.  0.
        -12    1    1    2    0    0 -0.10407738805E+01  0.53400984352E+00 -0.15224053928E+00  0.11796414561E+01  0.00000000000E+00 0.  1.
         11    1    3    3    0    0 -0.60072589001E+01  0.16785710751E+02  0.15756690859E+02  0.23793287962E+02  0.51100000000E-03 0. -1.
        -11    1    3    3    0    0  0.13756655398E+02  0.21350162099E+01  0.20427736356E+02  0.24720361544E+02  0.51100000000E-03 0.  1.
        -12    1    3    3    0    0 -0.67086226175E+01 -0.19454736805E+02 -0.36032186676E+02  0.41494709039E+02  0.00000000000E+00 0.  1.
</event>
<event>
 7    1  0.3861961E-015  0.9000759E+02  0.7816164E-02  0.1186339E+00
        -11   -1    0    0    0    0  0.00000000000E+00  0.00000000000E+00  0.45593999997E+02  0.45594000000E+02  0.51100000000E-03 0. -1.
         11   -1    0    0    0    0 -0.00000000000E+00 -0.00000000000E+00 -0.45593999997E+02  0.45594000000E+02  0.51100000000E-03 0.  1.
    9900012    2    1    2    0    0 -0.10940043575E+01  0.39874419315E+00 -0.19368655256E+00  0.90007594584E+02  0.89999854032E+02 0.  0.
        -12    1    1    2    0    0  0.10940043575E+01 -0.39874419315E+00  0.19368655256E+00  0.11804054161E+01  0.00000000000E+00 0.  1.
         11    1    3    3    0    0  0.46834170432E+01  0.46783028839E+01 -0.30009384646E+01  0.72681871882E+01  0.51100000000E-03 0. -1.
        -11    1    3    3    0    0  0.72359566140E+01 -0.39879752495E+02 -0.11649647531E+02  0.42171886548E+02  0.51100000000E-03 0.  1.
         12    1    3    3    0    0 -0.13013378015E+02  0.35600193804E+02  0.14456899443E+02  0.40567520848E+02  0.00000000000E+00 0. -1.
</event>
<event>
 7    1  0.3861961E-015  0.9000780E+02  0.7816164E-02  0.1186339E+00
        -11   -1    0    0    0    0  0.00000000000E+00  0.00000000000E+00  0.45593999997E+02  0.45594000000E+02  0.51100000000E-03 0. -1.
         11   -1    0    0    0    0 -0.00000000000E+00 -0.00000000000E+00 -0.45593999997E+02  0.45594000000E+02  0.51100000000E-03 0.  1.
    9900012    2    1    2    0    0  0.54787451076E+00 -0.19313196231E+00  0.10273318103E+01  0.90007797864E+02  0.90000059995E+02 0.  0.
        -12    1    1    2    0    0 -0.54787451076E+00  0.19313196231E+00 -0.10273318103E+01  0.11802021365E+01  0.00000000000E+00 0.  1.
         11    1    3    3    0    0 -0.42416853466E+01 -0.12182258582E+02 -0.48073919395E-01  0.12899675581E+02  0.51100000000E-03 0. -1.
        -11    1    3    3    0    0 -0.35288640820E+02  0.43401934043E+00 -0.14495447113E+01  0.35321066290E+02  0.51100000000E-03 0.  1.
         12    1    3    3    0    0  0.40078200678E+02  0.11555107279E+02  0.25249504410E+01  0.41787055992E+02  0.00000000000E+00 0. -1.
</event>
<event>
 7    1  0.3861961E-015  0.9000743E+02  0.7816164E-02  0.1186340E+00
        -11   -1    0    0    0    0  0.00000000000E+00  0.00000000000E+00  0.45593999997E+02  0.45594000000E+02  0.51100000000E-03 0. -1.
         11   -1    0    0    0    0 -0.00000000000E+00 -0.00000000000E+00 -0.45593999997E+02  0.45594000000E+02  0.51100000000E-03 0.  1.
    9900012    2    1    2    0    0  0.86383706695E-01  0.77980728468E+00  0.88214544620E+00  0.90007431436E+02  0.89999688730E+02 0.  0.
        -12    1    1    2    0    0 -0.86383706695E-01 -0.77980728468E+00 -0.88214544620E+00  0.11805685640E+01  0.00000000000E+00 0.  1.
         11    1    3    3    0    0 -0.88676324335E+01  0.44402219735E+01 -0.99858893512E+00  0.99673294453E+01  0.51100000000E-03 0. -1.
        -11    1    3    3    0    0  0.16378504891E+02  0.56022639637E+01 -0.36214090287E+02  0.40138524133E+02  0.51100000000E-03 0.  1.
         12    1    3    3    0    0 -0.74244887509E+01 -0.92626786525E+01  0.38094824668E+02  0.39901577858E+02  0.00000000000E+00 0. -1.
</event>
<event>
 7    1  0.3861961E-015  0.9000792E+02  0.7816164E-02  0.1186339E+00
        -11   -1    0    0    0    0  0.00000000000E+00  0.00000000000E+00  0.45593999997E+02  0.45594000000E+02  0.51100000000E-03 0.  1.
         11   -1    0    0    0    0 -0.00000000000E+00 -0.00000000000E+00 -0.45593999997E+02  0.45594000000E+02  0.51100000000E-03 0. -1.
    9900012    2    1    2    0    0 -0.15190934993E+00  0.59445816950E+00 -0.10080303863E+01  0.90007922788E+02  0.90000186569E+02 0.  0.
        -12    1    1    2    0    0  0.15190934993E+00 -0.59445816950E+00  0.10080303863E+01  0.11800772117E+01  0.00000000000E+00 0.  1.
         11    1    3    3    0    0 -0.35657328448E+02 -0.24032372987E+01 -0.22605770678E+01  0.35809647171E+02  0.51100000000E-03 0. -1.
        -11    1    3    3    0    0 -0.77854161013E+01 -0.52783683725E+01 -0.31129436467E+01  0.99077896099E+01  0.51100000000E-03 0.  1.
        -12    1    3    3    0    0  0.43290835199E+02  0.82760638407E+01  0.43654903282E+01  0.44290486007E+02  0.00000000000E+00 0.  1.
</event>
<event>
 7    1  0.3861961E-015  0.9000775E+02  0.7816164E-02  0.1186339E+00
        -11   -1    0    0    0    0  0.00000000000E+00  0.00000000000E+00  0.45593999997E+02  0.45594000000E+02  0.51100000000E-03 0. -1.
         11   -1    0    0    0    0 -0.00000000000E+00 -0.00000000000E+00 -0.45593999997E+02  0.45594000000E+02  0.51100000000E-03 0.  1.
    9900012    2    1    2    0    0  0.21606842403E+00 -0.35804428109E+00  0.11036788227E+01  0.90007750783E+02  0.90000012293E+02 0.  0.
        -12    1    1    2    0    0 -0.21606842403E+00  0.35804428109E+00 -0.11036788227E+01  0.11802492172E+01  0.00000000000E+00 0.  1.
         11    1    3    3    0    0  0.22501522798E+02 -0.13071226644E+02  0.29837429158E+02  0.39591004953E+02  0.51100000000E-03 0. -1.
        -11    1    3    3    0    0 -0.86973944888E+01 -0.36495209110E+01  0.48948956698E+01  0.10626555305E+02  0.51100000000E-03 0.  1.
        -12    1    3    3    0    0 -0.13588059885E+02  0.16362703273E+02 -0.33628646005E+02  0.39790190525E+02  0.00000000000E+00 0.  1.
</event>
<event>
 7    1  0.3861961E-015  0.9000793E+02  0.7816164E-02  0.1186339E+00
        -11   -1    0    0    0    0  0.00000000000E+00  0.00000000000E+00  0.45593999997E+02  0.45594000000E+02  0.51100000000E-03 0.  1.
         11   -1    0    0    0    0 -0.00000000000E+00 -0.00000000000E+00 -0.45593999997E+02  0.45594000000E+02  0.51100000000E-03 0. -1.
    9900012    2    1    2    0    0  0.34527061100E+00  0.11165649594E+01 -0.16319565917E+00  0.90007931389E+02  0.90000195283E+02 0.  0.
        -12    1    1    2    0    0 -0.34527061100E+00 -0.11165649594E+01  0.16319565917E+00  0.11800686109E+01  0.00000000000E+00 0.  1.
         11    1    3    3    0    0  0.29387792252E+02 -0.17400558870E+02  0.56845744429E+00  0.34157648142E+02  0.51100000000E-03 0. -1.
        -11    1    3    3    0    0  0.73481006268E+01  0.45117966179E+01 -0.12441381044E+02  0.15137333123E+02  0.51100000000E-03 0.  1.
        -12    1    3    3    0    0 -0.36390622268E+02  0.14005327212E+02  0.11709727941E+02  0.40712950124E+02  0.00000000000E+00 0.  1.
</event>
<event>
 7    1  0.3861961E-015  0.9000777E+02  0.7816164E-02  0.1186339E+00
        -11   -1    0    0    0    0  0.00000000000E+00  0.00000000000E+00  0.45593999997E+02  0.45594000000E+02  0.51100000000E-03 0. -1.
         11   -1    0    0    0    0 -0.00000000000E+00 -0.00000000000E+00 -0.45593999997E+02  0.45594000000E+02  0.51100000000E-03 0.  1.
    9900012    2    1    2    0    0  0.21122721568E-01 -0.62976793942E+00  0.99793681337E+00  0.90007774721E+02  0.90000036547E+02 0.  0.
        -12    1    1    2    0    0 -0.21122721568E-01  0.62976793942E+00 -0.99793681337E+00  0.11802252795E+01  0.00000000000E+00 0.  1.
         11    1    3    3    0    0  0.26354072544E+02  0.16571423362E+02  0.24165552456E+02  0.39409683298E+02  0.51100000000E-03 0. -1.
        -11    1    3    3    0    0  0.28137430923E+01  0.66736732592E+01 -0.47444988019E+01  0.86582523700E+01  0.51100000000E-03 0.  1.
        -12    1    3    3    0    0 -0.29146692914E+02 -0.23874864561E+02 -0.18423116840E+02  0.41939839053E+02  0.00000000000E+00 0.  1.
</event>
<event>
 7    1  0.3861961E-015  0.9000756E+02  0.7816164E-02  0.1186339E+00
        -11   -1    0    0    0    0  0.00000000000E+00  0.00000000000E+00  0.45593999997E+02  0.45594000000E+02  0.51100000000E-03 0. -1.
         11   -1    0    0    0    0 -0.00000000000E+00 -0.00000000000E+00 -0.45593999997E+02  0.45594000000E+02  0.51100000000E-03 0.  1.
    9900012    2    1    2    0    0  0.38096590164E+00 -0.74497069677E+00  0.83265664127E+00  0.90007562183E+02  0.89999821204E+02 0.  0.
        -12    1    1    2    0    0 -0.38096590164E+00  0.74497069677E+00 -0.83265664127E+00  0.11804378169E+01  0.00000000000E+00 0.  1.
         11    1    3    3    0    0  0.86077108616E+01  0.27885354024E+01  0.49536894649E+01  0.10315408646E+02  0.51100000000E-03 0. -1.
        -11    1    3    3    0    0 -0.56271029591E+01  0.28258761886E+02 -0.27743650192E+02  0.39999150457E+02  0.51100000000E-03 0.  1.
         12    1    3    3    0    0 -0.25996420009E+01 -0.31792267985E+02  0.23622617369E+02  0.39693003080E+02  0.00000000000E+00 0. -1.
</event>
<event>
 7    1  0.3861961E-015  0.9000777E+02  0.7816164E-02  0.1186339E+00
        -11   -1    0    0    0    0  0.00000000000E+00  0.00000000000E+00  0.45593999997E+02  0.45594000000E+02  0.51100000000E-03 0. -1.
         11   -1    0    0    0    0 -0.00000000000E+00 -0.00000000000E+00 -0.45593999997E+02  0.45594000000E+02  0.51100000000E-03 0.  1.
    9900012    2    1    2    0    0  0.11502012415E+01  0.11181523681E+00  0.23972345089E+00  0.90007774227E+02  0.90000036046E+02 0.  0.
        -12    1    1    2    0    0 -0.11502012415E+01 -0.11181523681E+00 -0.23972345089E+00  0.11802257733E+01  0.00000000000E+00 0.  1.
         11    1    3    3    0    0 -0.38006493161E+01 -0.47888386169E+01  0.59807434298E+01  0.85526137968E+01  0.51100000000E-03 0. -1.
        -11    1    3    3    0    0 -0.28403776291E+02  0.20630644836E+02 -0.21701633767E+02  0.41271769072E+02  0.51100000000E-03 0.  1.
         12    1    3    3    0    0  0.33354626849E+02 -0.15729990982E+02  0.15960613788E+02  0.40183391358E+02  0.00000000000E+00 0. -1.
</event>
<event>
 7    1  0.3861961E-015  0.9000773E+02  0.7816164E-02  0.1186339E+00
        -11   -1    0    0    0    0  0.00000000000E+00  0.00000000000E+00  0.45593999997E+02  0.45594000000E+02  0.51100000000E-03 0.  1.
         11   -1    0    0    0    0 -0.00000000000E+00 -0.00000000000E+00 -0.45593999997E+02  0.45594000000E+02  0.51100000000E-03 0. -1.
    9900012    2    1    2    0    0  0.89807040845E+00 -0.66487702964E+00  0.38006375665E+00  0.90007728683E+02  0.89999989901E+02 0.  0.
        -12    1    1    2    0    0 -0.89807040845E+00  0.66487702964E+00 -0.38006375665E+00  0.11802713172E+01  0.00000000000E+00 0.  1.
         11    1    3    3    0    0  0.18103417262E+02 -0.28494118747E+02 -0.10543072371E+02  0.35366720162E+02  0.51100000000E-03 0. -1.
        -11    1    3    3    0    0  0.23525911343E+01 -0.10245258746E+02  0.41643069996E+01  0.11306699999E+02  0.51100000000E-03 0.  1.
        -12    1    3    3    0    0 -0.19557937988E+02  0.38074500464E+02  0.67588291277E+01  0.43334308522E+02  0.00000000000E+00 0.  1.
</event>
<event>
 7    1  0.3861961E-015  0.9000771E+02  0.7816164E-02  0.1186339E+00
        -11   -1    0    0    0    0  0.00000000000E+00  0.00000000000E+00  0.45593999997E+02  0.45594000000E+02  0.51100000000E-03 0. -1.
         11   -1    0    0    0    0 -0.00000000000E+00 -0.00000000000E+00 -0.45593999997E+02  0.45594000000E+02  0.51100000000E-03 0.  1.
    9900012    2    1    2    0    0  0.32315082005E-01  0.16903452149E+00  0.11676715370E+01  0.90007714546E+02  0.89999975578E+02 0.  0.
        -12    1    1    2    0    0 -0.32315082005E-01 -0.16903452149E+00 -0.11676715370E+01  0.11802854537E+01  0.00000000000E+00 0.  1.
         11    1    3    3    0    0 -0.23186950510E+02 -0.98227485008E+00  0.34504831909E+02  0.41583445783E+02  0.51100000000E-03 0. -1.
        -11    1    3    3    0    0  0.40907844161E+01  0.83875049141E+01 -0.21272080542E-01  0.93319455949E+01  0.51100000000E-03 0.  1.
        -12    1    3    3    0    0  0.19128481176E+02 -0.72361955425E+01 -0.33315888292E+02  0.39092323168E+02  0.00000000000E+00 0.  1.
</event>
<event>
 7    1  0.3861961E-015  0.9000806E+02  0.7816164E-02  0.1186338E+00
        -11   -1    0    0    0    0  0.00000000000E+00  0.00000000000E+00  0.45593999997E+02  0.45594000000E+02  0.51100000000E-03 0.  1.
         11   -1    0    0    0    0 -0.00000000000E+00 -0.00000000000E+00 -0.45593999997E+02  0.45594000000E+02  0.51100000000E-03 0. -1.
    9900012    2    1    2    0    0 -0.29787986008E+00 -0.30639720548E+00 -0.10998434739E+01  0.90008056219E+02  0.90000321761E+02 0.  0.
        -12    1    1    2    0    0  0.29787986008E+00  0.30639720548E+00  0.10998434739E+01  0.11799437807E+01  0.00000000000E+00 0.  1.
         11    1    3    3    0    0  0.19844848987E+02  0.10778955626E+02 -0.33716588180E+02  0.40580934371E+02  0.51100000000E-03 0. -1.
        -11    1    3    3    0    0  0.13600129669E+01  0.79733176382E+01  0.46467259615E+01  0.93282094666E+01  0.51100000000E-03 0.  1.
        -12    1    3    3    0    0 -0.21502741814E+02 -0.19058670470E+02  0.27970018744E+02  0.40098912381E+02  0.00000000000E+00 0.  1.
</event>
<event>
 7    1  0.3861961E-015  0.9000779E+02  0.7816164E-02  0.1186339E+00
        -11   -1    0    0    0    0  0.00000000000E+00  0.00000000000E+00  0.45593999997E+02  0.45594000000E+02  0.51100000000E-03 0. -1.
         11   -1    0    0    0    0 -0.00000000000E+00 -0.00000000000E+00 -0.45593999997E+02  0.45594000000E+02  0.51100000000E-03 0.  1.
    9900012    2    1    2    0    0 -0.25747497181E+00  0.11315155310E+01  0.21513423652E+00  0.90007786673E+02  0.90000048657E+02 0.  0.
        -12    1    1    2    0    0  0.25747497181E+00 -0.11315155310E+01 -0.21513423652E+00  0.11802133272E+01  0.00000000000E+00 0.  1.
         11    1    3    3    0    0  0.32772533071E+02 -0.73852774476E+00  0.18489412649E+02  0.37635657660E+02  0.51100000000E-03 0. -1.
        -11    1    3    3    0    0 -0.34054638033E+01 -0.96542054584E+01  0.64516731155E+01  0.12100617877E+02  0.51100000000E-03 0.  1.
        -12    1    3    3    0    0 -0.29624544239E+02  0.11524248734E+02 -0.24725951528E+02  0.40271511137E+02  0.00000000000E+00 0.  1.
</event>
<event>
 7    1  0.3861961E-015  0.9000776E+02  0.7816164E-02  0.1186339E+00
        -11   -1    0    0    0    0  0.00000000000E+00  0.00000000000E+00  0.45593999997E+02  0.45594000000E+02  0.51100000000E-03 0.  1.
         11   -1    0    0    0    0 -0.00000000000E+00 -0.00000000000E+00 -0.45593999997E+02  0.45594000000E+02  0.51100000000E-03 0. -1.
    9900012    2    1    2    0    0 -0.33437999712E+00 -0.10498939638E+00 -0.11270018995E+01  0.90007760178E+02  0.90000021812E+02 0.  0.
        -12    1    1    2    0    0  0.33437999712E+00  0.10498939638E+00  0.11270018995E+01  0.11802398220E+01  0.00000000000E+00 0.  1.
         11    1    3    3    0    0  0.36433653513E+01  0.46420754477E+01  0.95413973280E+01  0.11218789542E+02  0.51100000000E-03 0. -1.
        -11    1    3    3    0    0 -0.11255163557E+02 -0.22420408571E+02  0.26810896057E+02  0.36717537701E+02  0.51100000000E-03 0.  1.
         12    1    3    3    0    0  0.72774182082E+01  0.17673343727E+02 -0.37479295284E+02  0.42071432936E+02  0.00000000000E+00 0. -1.
</event>
<event>
 7    1  0.3861961E-015  0.9000775E+02  0.7816164E-02  0.1186339E+00
        -11   -1    0    0    0    0  0.00000000000E+00  0.00000000000E+00  0.45593999997E+02  0.45594000000E+02  0.51100000000E-03 0.  1.
         11   -1    0    0    0    0 -0.00000000000E+00 -0.00000000000E+00 -0.45593999997E+02  0.45594000000E+02  0.51100000000E-03 0. -1.
    9900012    2    1    2    0    0  0.39444705201E+00  0.86643884842E-01 -0.11090044762E+01  0.90007751480E+02  0.90000013000E+02 0.  0.
        -12    1    1    2    0    0 -0.39444705201E+00 -0.86643884842E-01  0.11090044762E+01  0.11802485196E+01  0.00000000000E+00 0.  1.
         11    1    3    3    0    0  0.88541533958E+01  0.57434957694E+00  0.60204999781E+01  0.10722515099E+02  0.51100000000E-03 0. -1.
        -11    1    3    3    0    0 -0.82144016114E+01 -0.34300576965E+02  0.15574783727E+02  0.38556190973E+02  0.51100000000E-03 0.  1.
         12    1    3    3    0    0 -0.24530473246E+00  0.33812871273E+02 -0.22704288181E+02  0.40729045409E+02  0.00000000000E+00 0. -1.
</event>
<event>
 7    1  0.3861961E-015  0.9000753E+02  0.7816164E-02  0.1186339E+00
        -11   -1    0    0    0    0  0.00000000000E+00  0.00000000000E+00  0.45593999997E+02  0.45594000000E+02  0.51100000000E-03 0.  1.
         11   -1    0    0    0    0 -0.00000000000E+00 -0.00000000000E+00 -0.45593999997E+02  0.45594000000E+02  0.51100000000E-03 0. -1.
    9900012    2    1    2    0    0 -0.64852869952E+00  0.33803508374E+00 -0.92663717958E+00  0.90007528207E+02  0.89999786779E+02 0.  0.
        -12    1    1    2    0    0  0.64852869952E+00 -0.33803508374E+00  0.92663717958E+00  0.11804717932E+01  0.00000000000E+00 0.  1.
         11    1    3    3    0    0 -0.16123920099E+02 -0.23078693314E+02  0.29213534821E+02  0.40571387719E+02  0.51100000000E-03 0. -1.
        -11    1    3    3    0    0 -0.72849237365E+01  0.41990063520E+01 -0.24315151583E+01  0.87529443285E+01  0.51100000000E-03 0.  1.
        -12    1    3    3    0    0  0.22760315136E+02  0.19217722046E+02 -0.27708656842E+02  0.40683196159E+02  0.00000000000E+00 0.  1.
</event>
<event>
 7    1  0.3861961E-015  0.9000774E+02  0.7816164E-02  0.1186339E+00
        -11   -1    0    0    0    0  0.00000000000E+00  0.00000000000E+00  0.45593999997E+02  0.45594000000E+02  0.51100000000E-03 0.  1.
         11   -1    0    0    0    0 -0.00000000000E+00 -0.00000000000E+00 -0.45593999997E+02  0.45594000000E+02  0.51100000000E-03 0. -1.
    9900012    2    1    2    0    0 -0.25227661522E+00  0.12874216038E-01 -0.11529136281E+01  0.90007737711E+02  0.89999999049E+02 0.  0.
        -12    1    1    2    0    0  0.25227661522E+00 -0.12874216038E-01  0.11529136281E+01  0.11802622886E+01  0.00000000000E+00 0.  1.
         11    1    3    3    0    0  0.35916057515E+02  0.10210146819E+02 -0.11792532784E+02  0.39157044261E+02  0.51100000000E-03 0. -1.
        -11    1    3    3    0    0  0.52209657357E+00  0.41532249002E+01 -0.66251831790E+01  0.78367668283E+01  0.51100000000E-03 0.  1.
        -12    1    3    3    0    0 -0.36690430704E+02 -0.14350497503E+02  0.17264802335E+02  0.43013926623E+02  0.00000000000E+00 0.  1.
</event>
<event>
 7    1  0.3861961E-015  0.9000771E+02  0.7816164E-02  0.1186339E+00
        -11   -1    0    0    0    0  0.00000000000E+00  0.00000000000E+00  0.45593999997E+02  0.45594000000E+02  0.51100000000E-03 0. -1.
         11   -1    0    0    0    0 -0.00000000000E+00 -0.00000000000E+00 -0.45593999997E+02  0.45594000000E+02  0.51100000000E-03 0.  1.
    9900012    2    1    2    0    0  0.10593507398E+01  0.45236654527E+00 -0.25733839827E+00  0.90007710827E+02  0.89999971810E+02 0.  0.
        -12    1    1    2    0    0 -0.10593507398E+01 -0.45236654527E+00  0.25733839827E+00  0.11802891732E+01  0.00000000000E+00 0.  1.
         11    1    3    3    0    0 -0.61675433249E+01 -0.74693698089E+01 -0.21418116228E+01  0.99205560981E+01  0.51100000000E-03 0. -1.
        -11    1    3    3    0    0  0.57465221753E+01 -0.22653172875E+02 -0.28567456593E+02  0.36909190385E+02  0.51100000000E-03 0.  1.
         12    1    3    3    0    0  0.14803718893E+01  0.30574909229E+02  0.30451929817E+02  0.43177964344E+02  0.00000000000E+00 0. -1.
</event>
<event>
 7    1  0.3861961E-015  0.9000776E+02  0.7816164E-02  0.1186339E+00
        -11   -1    0    0    0    0  0.00000000000E+00  0.00000000000E+00  0.45593999997E+02  0.45594000000E+02  0.51100000000E-03 0.  1.
         11   -1    0    0    0    0 -0.00000000000E+00 -0.00000000000E+00 -0.45593999997E+02  0.45594000000E+02  0.51100000000E-03 0. -1.
    9900012    2    1    2    0    0  0.10431695904E+01 -0.55184179517E+00  0.15665059840E-01  0.90007755299E+02  0.90000016869E+02 0.  0.
        -12    1    1    2    0    0 -0.10431695904E+01  0.55184179517E+00 -0.15665059840E-01  0.11802447014E+01  0.00000000000E+00 0.  1.
         11    1    3    3    0    0 -0.79844298185E+01  0.24452487709E+01  0.25822254750E+01  0.87406092318E+01  0.51100000000E-03 0. -1.
        -11    1    3    3    0    0 -0.28577609594E+02 -0.78361801867E+01  0.21274972572E+02  0.36478897300E+02  0.51100000000E-03 0.  1.
         12    1    3    3    0    0  0.37605209002E+02  0.48390896206E+01 -0.23841532987E+02  0.44788248767E+02  0.00000000000E+00 0. -1.
</event>
<event>
 7    1  0.3861961E-015  0.9000779E+02  0.7816164E-02  0.1186339E+00
        -11   -1    0    0    0    0  0.00000000000E+00  0.00000000000E+00  0.45593999997E+02  0.45594000000E+02  0.51100000000E-03 0. -1.
         11   -1    0    0    0    0 -0.00000000000E+00 -0.00000000000E+00 -0.45593999997E+02  0.45594000000E+02  0.51100000000E-03 0.  1.
    9900012    2    1    2    0    0 -0.10901420803E+01  0.25521498971E+00  0.37330487867E+00  0.90007787740E+02  0.90000049738E+02 0.  0.
        -12    1    1    2    0    0  0.10901420803E+01 -0.25521498971E+00 -0.37330487867E+00  0.11802122600E+01  0.00000000000E+00 0.  1.
         11    1    3    3    0    0 -0.25338096115E+01  0.88685257656E+01 -0.24344315236E+01  0.95392556055E+01  0.51100000000E-03 0. -1.
        -11    1    3    3    0    0  0.32426265873E+02 -0.21838199802E+02 -0.15586212903E+02  0.42086811735E+02  0.51100000000E-03 0.  1.
         12    1    3    3    0    0 -0.30982598342E+02  0.13224889026E+02  0.18393949306E+02  0.38381720400E+02  0.00000000000E+00 0. -1.
</event>
<event>
 7    1  0.3861961E-015  0.9000782E+02  0.7816164E-02  0.1186339E+00
        -11   -1    0    0    0    0  0.00000000000E+00  0.00000000000E+00  0.45593999997E+02  0.45594000000E+02  0.51100000000E-03 0.  1.
         11   -1    0    0    0    0 -0.00000000000E+00 -0.00000000000E+00 -0.45593999997E+02  0.45594000000E+02  0.51100000000E-03 0. -1.
    9900012    2    1    2    0    0 -0.63843132213E+00 -0.49422973645E+00 -0.86079028236E+00  0.90007823108E+02  0.90000085573E+02 0.  0.
        -12    1    1    2    0    0  0.63843132213E+00  0.49422973645E+00  0.86079028236E+00  0.11801768917E+01  0.00000000000E+00 0.  1.
         11    1    3    3    0    0  0.20159209256E+02 -0.32346414608E+02 -0.14264294391E+02  0.40695876333E+02  0.51100000000E-03 0. -1.
        -11    1    3    3    0    0 -0.50099877314E+01  0.47850691831E+01 -0.85850180654E+01  0.11031745084E+02  0.51100000000E-03 0.  1.
        -12    1    3    3    0    0 -0.15787652847E+02  0.27067115688E+02  0.21988522174E+02  0.38280201691E+02  0.00000000000E+00 0.  1.
</event>
<event>
 7    1  0.3861961E-015  0.9000772E+02  0.7816164E-02  0.1186339E+00
        -11   -1    0    0    0    0  0.00000000000E+00  0.00000000000E+00  0.45593999997E+02  0.45594000000E+02  0.51100000000E-03 0.  1.
         11   -1    0    0    0    0 -0.00000000000E+00 -0.00000000000E+00 -0.45593999997E+02  0.45594000000E+02  0.51100000000E-03 0. -1.
    9900012    2    1    2    0    0 -0.96073274197E+00  0.62427320759E+00  0.28344226942E+00  0.90007718695E+02  0.89999979782E+02 0.  0.
        -12    1    1    2    0    0  0.96073274197E+00 -0.62427320759E+00 -0.28344226942E+00  0.11802813052E+01  0.00000000000E+00 0.  1.
         11    1    3    3    0    0  0.72799814080E+01  0.43808362346E+01  0.48490393547E+01  0.97827929723E+01  0.51100000000E-03 0. -1.
        -11    1    3    3    0    0  0.20572092887E+02 -0.80666333873E+00  0.29206890242E+02  0.35733795620E+02  0.51100000000E-03 0.  1.
         12    1    3    3    0    0 -0.28812807037E+02 -0.29498996883E+01 -0.33772487328E+02  0.44491130103E+02  0.00000000000E+00 0. -1.
</event>
<event>
 7    1  0.3861961E-015  0.9000766E+02  0.7816164E-02  0.1186339E+00
        -11   -1    0    0    0    0  0.00000000000E+00  0.00000000000E+00  0.45593999997E+02  0.45594000000E+02  0.51100000000E-03 0.  1.
         11   -1    0    0    0    0 -0.00000000000E+00 -0.00000000000E+00 -0.45593999997E+02  0.45594000000E+02  0.51100000000E-03 0. -1.
    9900012    2    1    2    0    0 -0.10765020796E+01 -0.44133960872E+00 -0.19889288316E+00  0.90007662863E+02  0.89999923213E+02 0.  0.
        -12    1    1    2    0    0  0.10765020796E+01  0.44133960872E+00  0.19889288316E+00  0.11803371369E+01  0.00000000000E+00 0.  1.
         11    1    3    3    0    0  0.61504498232E+01  0.78207575689E+01 -0.64546545159E-01  0.99496958997E+01  0.51100000000E-03 0. -1.
        -11    1    3    3    0    0  0.56976752070E+01  0.16977752814E+02  0.32326633130E+02  0.36955632902E+02  0.51100000000E-03 0.  1.
         12    1    3    3    0    0 -0.12924627110E+02 -0.25239849991E+02 -0.32460979468E+02  0.43102334062E+02  0.00000000000E+00 0. -1.
</event>
<event>
 7    1  0.3861961E-015  0.9000778E+02  0.7816164E-02  0.1186339E+00
        -11   -1    0    0    0    0  0.00000000000E+00  0.00000000000E+00  0.45593999997E+02  0.45594000000E+02  0.51100000000E-03 0.  1.
         11   -1    0    0    0    0 -0.00000000000E+00 -0.00000000000E+00 -0.45593999997E+02  0.45594000000E+02  0.51100000000E-03 0. -1.
    9900012    2    1    2    0    0  0.10768941335E+01 -0.24298735643E+00 -0.41735488719E+00  0.90007775898E+02  0.90000037739E+02 0.  0.
        -12    1    1    2    0    0 -0.10768941335E+01  0.24298735643E+00  0.41735488719E+00  0.11802241024E+01  0.00000000000E+00 0.  1.
         11    1    3    3    0    0 -0.25144056029E+02 -0.53652554895E+01 -0.31105597062E+02  0.40355516214E+02  0.51100000000E-03 0. -1.
        -11    1    3    3    0    0 -0.31409203756E+01 -0.61305150232E+01  0.22247820363E+01  0.72386635939E+01  0.51100000000E-03 0.  1.
        -12    1    3    3    0    0  0.29361870538E+02  0.11252783156E+02  0.28463460138E+02  0.42413596090E+02  0.00000000000E+00 0.  1.
</event>
<event>
 7    1  0.3861961E-015  0.9000764E+02  0.7816164E-02  0.1186339E+00
        -11   -1    0    0    0    0  0.00000000000E+00  0.00000000000E+00  0.45593999997E+02  0.45594000000E+02  0.51100000000E-03 0. -1.
         11   -1    0    0    0    0 -0.00000000000E+00 -0.00000000000E+00 -0.45593999997E+02  0.45594000000E+02  0.51100000000E-03 0.  1.
    9900012    2    1    2    0    0  0.41467324143E+00  0.42518855333E+00  0.10200525769E+01  0.90007641384E+02  0.89999901450E+02 0.  0.
        -12    1    1    2    0    0 -0.41467324143E+00 -0.42518855333E+00 -0.10200525769E+01  0.11803586162E+01  0.00000000000E+00 0.  1.
         11    1    3    3    0    0 -0.86934274790E+00  0.57448509145E+01  0.67532189337E+01  0.89087055777E+01  0.51100000000E-03 0. -1.
        -11    1    3    3    0    0 -0.11534960094E+02 -0.39366987020E+02  0.87439789269E+01  0.41943678179E+02  0.51100000000E-03 0.  1.
         12    1    3    3    0    0  0.12818976084E+02  0.34047324659E+02 -0.14477145284E+02  0.39155257627E+02  0.00000000000E+00 0. -1.
</event>
<event>
 7    1  0.3861961E-015  0.9000775E+02  0.7816164E-02  0.1186339E+00
        -11   -1    0    0    0    0  0.00000000000E+00  0.00000000000E+00  0.45593999997E+02  0.45594000000E+02  0.51100000000E-03 0.  1.
         11   -1    0    0    0    0 -0.00000000000E+00 -0.00000000000E+00 -0.45593999997E+02  0.45594000000E+02  0.51100000000E-03 0. -1.
    9900012    2    1    2    0    0  0.37123805286E+00 -0.67272265406E-01 -0.11183275940E+01  0.90007745851E+02  0.90000007296E+02 0.  0.
        -12    1    1    2    0    0 -0.37123805286E+00  0.67272265406E-01  0.11183275940E+01  0.11802541494E+01  0.00000000000E+00 0.  1.
         11    1    3    3    0    0  0.27061375133E+02  0.27220868214E+02  0.55228875819E+01  0.38778808361E+02  0.51100000000E-03 0. -1.
        -11    1    3    3    0    0  0.17783149374E+00  0.57823448482E+01 -0.63890303903E+01  0.86189817016E+01  0.51100000000E-03 0.  1.
        -12    1    3    3    0    0 -0.26867968573E+02 -0.33070485328E+02 -0.25218478568E+00  0.42609955788E+02  0.00000000000E+00 0.  1.
</event>
<event>
 7    1  0.3861961E-015  0.9000767E+02  0.7816164E-02  0.1186339E+00
        -11   -1    0    0    0    0  0.00000000000E+00  0.00000000000E+00  0.45593999997E+02  0.45594000000E+02  0.51100000000E-03 0. -1.
         11   -1    0    0    0    0 -0.00000000000E+00 -0.00000000000E+00 -0.45593999997E+02  0.45594000000E+02  0.51100000000E-03 0.  1.
    9900012    2    1    2    0    0 -0.13806713006E+00  0.10218249339E+01  0.57444835532E+00  0.90007669690E+02  0.89999930130E+02 0.  0.
        -12    1    1    2    0    0  0.13806713006E+00 -0.10218249339E+01 -0.57444835532E+00  0.11803303100E+01  0.00000000000E+00 0.  1.
         11    1    3    3    0    0 -0.15326543666E+01  0.88078394106E+01 -0.86991764472E+00  0.89824173506E+01  0.51100000000E-03 0. -1.
        -11    1    3    3    0    0  0.29414223288E+02 -0.24554940876E+02 -0.18722155815E+02  0.42645759128E+02  0.51100000000E-03 0.  1.
         12    1    3    3    0    0 -0.28019636051E+02  0.16768926399E+02  0.20166521815E+02  0.38379493211E+02  0.00000000000E+00 0. -1.
</event>
<event>
 7    1  0.3861961E-015  0.9000768E+02  0.7816164E-02  0.1186339E+00
        -11   -1    0    0    0    0  0.00000000000E+00  0.00000000000E+00  0.45593999997E+02  0.45594000000E+02  0.51100000000E-03 0.  1.
         11   -1    0    0    0    0 -0.00000000000E+00 -0.00000000000E+00 -0.45593999997E+02  0.45594000000E+02  0.51100000000E-03 0. -1.
    9900012    2    1    2    0    0  0.38395317955E+00  0.10747314489E+01 -0.30112449324E+00  0.90007684918E+02  0.89999945559E+02 0.  0.
        -12    1    1    2    0    0 -0.38395317955E+00 -0.10747314489E+01  0.30112449324E+00  0.11803150816E+01  0.00000000000E+00 0.  1.
         11    1    3    3    0    0  0.17839944313E+02  0.11139113020E+02 -0.20623557800E+02  0.29456316615E+02  0.51100000000E-03 0. -1.
        -11    1    3    3    0    0  0.14082958250E+02  0.51010387081E+01 -0.66297015505E+01  0.16379964954E+02  0.51100000000E-03 0.  1.
        -12    1    3    3    0    0 -0.31538949384E+02 -0.15165420280E+02  0.26952134857E+02  0.44171403349E+02  0.00000000000E+00 0.  1.
</event>
<event>
 7    1  0.3861961E-015  0.9000783E+02  0.7816164E-02  0.1186339E+00
        -11   -1    0    0    0    0  0.00000000000E+00  0.00000000000E+00  0.45593999997E+02  0.45594000000E+02  0.51100000000E-03 0. -1.
         11   -1    0    0    0    0 -0.00000000000E+00 -0.00000000000E+00 -0.45593999997E+02  0.45594000000E+02  0.51100000000E-03 0.  1.
    9900012    2    1    2    0    0  0.47912716161E+00 -0.99379906311E-01  0.10739471870E+01  0.90007829774E+02  0.90000092327E+02 0.  0.
        -12    1    1    2    0    0 -0.47912716161E+00  0.99379906311E-01 -0.10739471870E+01  0.11801702264E+01  0.00000000000E+00 0.  1.
         11    1    3    3    0    0  0.18373883170E+02 -0.25104314095E+02 -0.19676127958E+02  0.36810001095E+02  0.51100000000E-03 0. -1.
        -11    1    3    3    0    0  0.43538732380E+01 -0.68016454086E+01 -0.18460065200E+01  0.82841012047E+01  0.51100000000E-03 0.  1.
        -12    1    3    3    0    0 -0.22248629246E+02  0.31806579597E+02  0.22596081665E+02  0.44913727474E+02  0.00000000000E+00 0.  1.
</event>
<event>
 7    1  0.3861961E-015  0.9000800E+02  0.7816164E-02  0.1186339E+00
        -11   -1    0    0    0    0  0.00000000000E+00  0.00000000000E+00  0.45593999997E+02  0.45594000000E+02  0.51100000000E-03 0.  1.
         11   -1    0    0    0    0 -0.00000000000E+00 -0.00000000000E+00 -0.45593999997E+02  0.45594000000E+02  0.51100000000E-03 0. -1.
    9900012    2    1    2    0    0 -0.34104871288E+00  0.86990305905E+00 -0.72067044162E+00  0.90007995152E+02  0.90000259887E+02 0.  0.
        -12    1    1    2    0    0  0.34104871288E+00 -0.86990305905E+00  0.72067044162E+00  0.11800048483E+01  0.00000000000E+00 0.  1.
         11    1    3    3    0    0  0.58540412230E+01  0.18160355209E+02 -0.16245756790E+02  0.25059786789E+02  0.51100000000E-03 0. -1.
        -11    1    3    3    0    0  0.56881375471E+01  0.20787444798E+02  0.12570773697E+02  0.24949892216E+02  0.51100000000E-03 0.  1.
        -12    1    3    3    0    0 -0.11883227483E+02 -0.38077896948E+02  0.29543126516E+01  0.39998316147E+02  0.00000000000E+00 0.  1.
</event>
<event>
 7    1  0.3861961E-015  0.9000778E+02  0.7816164E-02  0.1186339E+00
        -11   -1    0    0    0    0  0.00000000000E+00  0.00000000000E+00  0.45593999997E+02  0.45594000000E+02  0.51100000000E-03 0. -1.
         11   -1    0    0    0    0 -0.00000000000E+00 -0.00000000000E+00 -0.45593999997E+02  0.45594000000E+02  0.51100000000E-03 0.  1.
    9900012    2    1    2    0    0  0.99449610393E+00 -0.50963691896E-01  0.63347703337E+00  0.90007782668E+02  0.90000044599E+02 0.  0.
        -12    1    1    2    0    0 -0.99449610393E+00  0.50963691896E-01 -0.63347703337E+00  0.11802173319E+01  0.00000000000E+00 0.  1.
         11    1    3    3    0    0  0.27181574896E+01 -0.42121617352E+01 -0.72600717560E+01  0.88226599609E+01  0.51100000000E-03 0. -1.
        -11    1    3    3    0    0  0.10820726169E+02 -0.26185576579E+02 -0.22699659366E+02  0.36304918003E+02  0.51100000000E-03 0.  1.
         12    1    3    3    0    0 -0.12544387554E+02  0.30346774622E+02  0.30593208156E+02  0.44880204705E+02  0.00000000000E+00 0. -1.
</event>
<event>
 7    1  0.3861961E-015  0.9000772E+02  0.7816164E-02  0.1186339E+00
        -11   -1    0    0    0    0  0.00000000000E+00  0.00000000000E+00  0.45593999997E+02  0.45594000000E+02  0.51100000000E-03 0. -1.
         11   -1    0    0    0    0 -0.00000000000E+00 -0.00000000000E+00 -0.45593999997E+02  0.45594000000E+02  0.51100000000E-03 0.  1.
    9900012    2    1    2    0    0 -0.20876886487E-01  0.10938037189E+01  0.44296709277E+00  0.90007719413E+02  0.89999980509E+02 0.  0.
        -12    1    1    2    0    0  0.20876886487E-01 -0.10938037189E+01 -0.44296709277E+00  0.11802805875E+01  0.00000000000E+00 0.  1.
         11    1    3    3    0    0  0.15154332361E+02  0.43026566084E+01  0.77686286313E+01  0.17564687139E+02  0.51100000000E-03 0. -1.
        -11    1    3    3    0    0  0.12232952380E+02  0.20317170146E+02 -0.23028780850E+02  0.33056879380E+02  0.51100000000E-03 0.  1.
         12    1    3    3    0    0 -0.27408161628E+02 -0.23526023035E+02  0.15703119311E+02  0.39386152894E+02  0.00000000000E+00 0. -1.
</event>
<event>
 7    1  0.3861961E-015  0.9000771E+02  0.7816164E-02  0.1186339E+00
        -11   -1    0    0    0    0  0.00000000000E+00  0.00000000000E+00  0.45593999997E+02  0.45594000000E+02  0.51100000000E-03 0. -1.
         11   -1    0    0    0    0 -0.00000000000E+00 -0.00000000000E+00 -0.45593999997E+02  0.45594000000E+02  0.51100000000E-03 0.  1.
    9900012    2    1    2    0    0 -0.78726193331E+00  0.45270276033E+00  0.75389622039E+00  0.90007711623E+02  0.89999972617E+02 0.  0.
        -12    1    1    2    0    0  0.78726193331E+00 -0.45270276033E+00 -0.75389622039E+00  0.11802883766E+01  0.00000000000E+00 0.  1.
         11    1    3    3    0    0  0.30229975766E+02  0.16652621365E+02  0.70689500067E+01  0.35229693266E+02  0.51100000000E-03 0. -1.
        -11    1    3    3    0    0 -0.13581833006E+02  0.13998081969E+02 -0.32570530121E+01  0.19774247930E+02  0.51100000000E-03 0.  1.
        -12    1    3    3    0    0 -0.17435404693E+02 -0.30198000574E+02 -0.30580007742E+01  0.35003770428E+02  0.00000000000E+00 0.  1.
</event>
<event>
 7    1  0.3861961E-015  0.9000798E+02  0.7816164E-02  0.1186339E+00
        -11   -1    0    0    0    0  0.00000000000E+00  0.00000000000E+00  0.45593999997E+02  0.45594000000E+02  0.51100000000E-03 0. -1.
         11   -1    0    0    0    0 -0.00000000000E+00 -0.00000000000E+00 -0.45593999997E+02  0.45594000000E+02  0.51100000000E-03 0.  1.
    9900012    2    1    2    0    0 -0.27709062985E-01 -0.84989861900E+00  0.81813489947E+00  0.90007982980E+02  0.90000247555E+02 0.  0.
        -12    1    1    2    0    0  0.27709062985E-01  0.84989861900E+00 -0.81813489947E+00  0.11800170204E+01  0.00000000000E+00 0.  1.
         11    1    3    3    0    0 -0.62460615275E+01 -0.22188833388E+01 -0.47630367171E+01  0.81623064697E+01  0.51100000000E-03 0. -1.
        -11    1    3    3    0    0 -0.53271498166E+00  0.24502793557E+02 -0.30083041638E+02  0.38802835873E+02  0.51100000000E-03 0.  1.
         12    1    3    3    0    0  0.67510674462E+01 -0.23133808837E+02  0.35664213255E+02  0.43042840636E+02  0.00000000000E+00 0. -1.
</event>
<event>
 7    1  0.3861961E-015  0.9000774E+02  0.7816164E-02  0.1186339E+00
        -11   -1    0    0    0    0  0.00000000000E+00  0.00000000000E+00  0.45593999997E+02  0.45594000000E+02  0.51100000000E-03 0. -1.
         11   -1    0    0    0    0 -0.00000000000E+00 -0.00000000000E+00 -0.45593999997E+02  0.45594000000E+02  0.51100000000E-03 0.  1.
    9900012    2    1    2    0    0 -0.27227083980E+00  0.29948333093E+00  0.11086887728E+01  0.90007740507E+02  0.90000001882E+02 0.  0.
        -12    1    1    2    0    0  0.27227083980E+00 -0.29948333093E+00 -0.11086887728E+01  0.11802594930E+01  0.00000000000E+00 0.  1.
         11    1    3    3    0    0 -0.13335148573E+02  0.82413913062E+01  0.33021985557E+00  0.15679788377E+02  0.51100000000E-03 0. -1.
        -11    1    3    3    0    0 -0.35986353165E+01  0.31342961484E+02 -0.16019898256E+01  0.31589520135E+02  0.51100000000E-03 0.  1.
         12    1    3    3    0    0  0.16661513050E+02 -0.39284869459E+02  0.23804587428E+01  0.42738431995E+02  0.00000000000E+00 0. -1.
</event>
<event>
 7    1  0.3861961E-015  0.9000780E+02  0.7816164E-02  0.1186339E+00
        -11   -1    0    0    0    0  0.00000000000E+00  0.00000000000E+00  0.45593999997E+02  0.45594000000E+02  0.51100000000E-03 0. -1.
         11   -1    0    0    0    0 -0.00000000000E+00 -0.00000000000E+00 -0.45593999997E+02  0.45594000000E+02  0.51100000000E-03 0.  1.
    9900012    2    1    2    0    0  0.11614008973E+01 -0.95629375025E-01  0.18675368949E+00  0.90007799186E+02  0.90000061335E+02 0.  0.
        -12    1    1    2    0    0 -0.11614008973E+01  0.95629375025E-01 -0.18675368949E+00  0.11802008143E+01  0.00000000000E+00 0.  1.
         11    1    3    3    0    0  0.88279482777E+01 -0.28492605244E+01  0.26332714558E+01  0.96428769125E+01  0.51100000000E-03 0. -1.
        -11    1    3    3    0    0  0.14707784397E+02 -0.21796882546E+01 -0.36448168200E+02  0.39364183316E+02  0.51100000000E-03 0.  1.
         12    1    3    3    0    0 -0.22374331777E+02  0.49333194039E+01  0.34001650433E+02  0.41000738957E+02  0.00000000000E+00 0. -1.
</event>
<event>
 7    1  0.3861961E-015  0.9000777E+02  0.7816164E-02  0.1186339E+00
        -11   -1    0    0    0    0  0.00000000000E+00  0.00000000000E+00  0.45593999997E+02  0.45594000000E+02  0.51100000000E-03 0. -1.
         11   -1    0    0    0    0 -0.00000000000E+00 -0.00000000000E+00 -0.45593999997E+02  0.45594000000E+02  0.51100000000E-03 0.  1.
    9900012    2    1    2    0    0 -0.36313044500E+00  0.11156534090E+01  0.12800502260E+00  0.90007774795E+02  0.90000036622E+02 0.  0.
        -12    1    1    2    0    0  0.36313044500E+00 -0.11156534090E+01 -0.12800502260E+00  0.11802252052E+01  0.00000000000E+00 0.  1.
         11    1    3    3    0    0  0.42018385982E+01  0.30393929696E+02 -0.25673188374E+02  0.40006987033E+02  0.51100000000E-03 0. -1.
        -11    1    3    3    0    0 -0.53474870284E+01  0.56457372038E+01  0.32940801016E+01  0.84451719977E+01  0.51100000000E-03 0.  1.
        -12    1    3    3    0    0  0.78251798516E+00 -0.34924013490E+02  0.22507113295E+02  0.41555615764E+02  0.00000000000E+00 0.  1.
</event>
<event>
 7    1  0.3861961E-015  0.9000777E+02  0.7816164E-02  0.1186339E+00
        -11   -1    0    0    0    0  0.00000000000E+00  0.00000000000E+00  0.45593999997E+02  0.45594000000E+02  0.51100000000E-03 0. -1.
         11   -1    0    0    0    0 -0.00000000000E+00 -0.00000000000E+00 -0.45593999997E+02  0.45594000000E+02  0.51100000000E-03 0.  1.
    9900012    2    1    2    0    0  0.43493171945E+00 -0.81702554233E+00  0.73228052269E+00  0.90007774979E+02  0.90000036808E+02 0.  0.
        -12    1    1    2    0    0 -0.43493171945E+00  0.81702554233E+00 -0.73228052269E+00  0.11802250215E+01  0.00000000000E+00 0.  1.
         11    1    3    3    0    0  0.23442553404E+01  0.92245599527E+01 -0.24492689972E+01  0.98278664166E+01  0.51100000000E-03 0. -1.
        -11    1    3    3    0    0 -0.16037292587E+02 -0.24524434530E+02 -0.29604132850E+02  0.41653899273E+02  0.51100000000E-03 0.  1.
         12    1    3    3    0    0  0.14127968966E+02  0.14482849035E+02  0.32785682370E+02  0.38526009289E+02  0.00000000000E+00 0. -1.
</event>
<event>
 7    1  0.4587082E-015  0.9000789E+02  0.7816164E-02  0.1186339E+00
        -11   -1    0    0    0    0  0.00000000000E+00  0.00000000000E+00  0.45593999997E+02  0.45594000000E+02  0.51100000000E-03 0. -1.
         11   -1    0    0    0    0 -0.00000000000E+00 -0.00000000000E+00 -0.45593999997E+02  0.45594000000E+02  0.51100000000E-03 0.  1.
    9900012    2    1    2    0    0  0.28666332603E+00  0.57931735660E+00  0.98735473113E+00  0.90007892451E+02  0.90000155831E+02 0.  0.
        -12    1    1    2    0    0 -0.28666332603E+00 -0.57931735660E+00 -0.98735473113E+00  0.11801075490E+01  0.00000000000E+00 0.  1.
         11    1    3    3    0    0 -0.41396060272E+01 -0.80733887532E+01 -0.17586644084E+01  0.92416905804E+01  0.51100000000E-03 0. -1.
        -11    1    3    3    0    0  0.33785603950E+02 -0.19152352379E+02 -0.62634391707E+01  0.39338407522E+02  0.51100000000E-03 0.  1.
         12    1    3    3    0    0 -0.29359334597E+02  0.27805058488E+02  0.90094583103E+01  0.41427794348E+02  0.00000000000E+00 0. -1.
</event>
<event>
 7    1  0.3861961E-015  0.9000784E+02  0.7816164E-02  0.1186339E+00
        -11   -1    0    0    0    0  0.00000000000E+00  0.00000000000E+00  0.45593999997E+02  0.45594000000E+02  0.51100000000E-03 0. -1.
         11   -1    0    0    0    0 -0.00000000000E+00 -0.00000000000E+00 -0.45593999997E+02  0.45594000000E+02  0.51100000000E-03 0.  1.
    9900012    2    1    2    0    0  0.53600929625E+00  0.34675197916E+00  0.99258406844E+00  0.90007844911E+02  0.90000107664E+02 0.  0.
        -12    1    1    2    0    0 -0.53600929625E+00 -0.34675197916E+00 -0.99258406844E+00  0.11801550888E+01  0.00000000000E+00 0.  1.
         11    1    3    3    0    0  0.20400033543E+02 -0.25019568049E+02  0.19415414357E+02  0.37670923387E+02  0.51100000000E-03 0. -1.
        -11    1    3    3    0    0 -0.29794412865E+01 -0.22157884626E+01  0.91269781316E+01  0.98533506467E+01  0.51100000000E-03 0.  1.
        -12    1    3    3    0    0 -0.16884582960E+02  0.27582108491E+02 -0.27549808420E+02  0.42483570878E+02  0.00000000000E+00 0.  1.
</event>
<event>
 7    1  0.3861961E-015  0.9000773E+02  0.7816164E-02  0.1186339E+00
        -11   -1    0    0    0    0  0.00000000000E+00  0.00000000000E+00  0.45593999997E+02  0.45594000000E+02  0.51100000000E-03 0.  1.
         11   -1    0    0    0    0 -0.00000000000E+00 -0.00000000000E+00 -0.45593999997E+02  0.45594000000E+02  0.51100000000E-03 0. -1.
    9900012    2    1    2    0    0 -0.18106467966E+00 -0.21175713329E+00 -0.11469165739E+01  0.90007727519E+02  0.89999988722E+02 0.  0.
        -12    1    1    2    0    0  0.18106467966E+00  0.21175713329E+00  0.11469165739E+01  0.11802724809E+01  0.00000000000E+00 0.  1.
         11    1    3    3    0    0 -0.67990877225E+01  0.49741659292E+01 -0.35854881791E+02  0.36831270261E+02  0.51100000000E-03 0. -1.
        -11    1    3    3    0    0 -0.46064157234E+01  0.52719089548E+01 -0.62841963147E+01  0.94076146513E+01  0.51100000000E-03 0.  1.
        -12    1    3    3    0    0  0.11224438766E+02 -0.10457832017E+02  0.40992161532E+02  0.43768842607E+02  0.00000000000E+00 0.  1.
</event>
<event>
 7    1  0.4673163E-015  0.9000777E+02  0.7816164E-02  0.1186339E+00
        -11   -1    0    0    0    0  0.00000000000E+00  0.00000000000E+00  0.45593999997E+02  0.45594000000E+02  0.51100000000E-03 0. -1.
         11   -1    0    0    0    0 -0.00000000000E+00 -0.00000000000E+00 -0.45593999997E+02  0.45594000000E+02  0.51100000000E-03 0.  1.
    9900012    2    1    2    0    0 -0.10691520642E+01  0.49891216393E+00  0.30840110231E-01  0.90007766720E+02  0.90000028440E+02 0.  0.
        -12    1    1    2    0    0  0.10691520642E+01 -0.49891216393E+00 -0.30840110231E-01  0.11802332804E+01  0.00000000000E+00 0.  1.
         11    1    3    3    0    0  0.32428590581E+01 -0.82209381144E+01 -0.38351536554E+01  0.96337096786E+01  0.51100000000E-03 0. -1.
        -11    1    3    3    0    0  0.18893734364E+02 -0.53483394823E+01 -0.30691187682E+02  0.36435243035E+02  0.51100000000E-03 0.  1.
         12    1    3    3    0    0 -0.23205745486E+02  0.14068189761E+02  0.34557181447E+02  0.43938814006E+02  0.00000000000E+00 0. -1.
</event>
<event>
 7    1  0.3861961E-015  0.9000750E+02  0.7816164E-02  0.1186340E+00
        -11   -1    0    0    0    0  0.00000000000E+00  0.00000000000E+00  0.45593999997E+02  0.45594000000E+02  0.51100000000E-03 0. -1.
         11   -1    0    0    0    0 -0.00000000000E+00 -0.00000000000E+00 -0.45593999997E+02  0.45594000000E+02  0.51100000000E-03 0.  1.
    9900012    2    1    2    0    0 -0.66885590443E+00  0.95608581539E+00  0.17921210710E+00  0.90007497867E+02  0.89999756038E+02 0.  0.
        -12    1    1    2    0    0  0.66885590443E+00 -0.95608581539E+00 -0.17921210710E+00  0.11805021332E+01  0.00000000000E+00 0.  1.
         11    1    3    3    0    0 -0.59218996024E+01 -0.28142239462E+01 -0.73433160286E+01  0.98444421821E+01  0.51100000000E-03 0. -1.
        -11    1    3    3    0    0 -0.18233284564E+02  0.10910290130E+02 -0.29126034934E+02  0.36052919548E+02  0.51100000000E-03 0.  1.
         12    1    3    3    0    0  0.23486328262E+02 -0.71399803684E+01  0.36648563070E+02  0.44110136136E+02  0.00000000000E+00 0. -1.
</event>
<event>
 7    1  0.3861961E-015  0.9000774E+02  0.7816164E-02  0.1186339E+00
        -11   -1    0    0    0    0  0.00000000000E+00  0.00000000000E+00  0.45593999997E+02  0.45594000000E+02  0.51100000000E-03 0.  1.
         11   -1    0    0    0    0 -0.00000000000E+00 -0.00000000000E+00 -0.45593999997E+02  0.45594000000E+02  0.51100000000E-03 0. -1.
    9900012    2    1    2    0    0 -0.12991257904E+00  0.75022353163E+00 -0.90183157168E+00  0.90007740364E+02  0.90000001736E+02 0.  0.
        -12    1    1    2    0    0  0.12991257904E+00 -0.75022353163E+00  0.90183157168E+00  0.11802596364E+01  0.00000000000E+00 0.  1.
         11    1    3    3    0    0  0.40714817287E+01  0.11754850570E+02 -0.26558808220E+01  0.12720345066E+02  0.51100000000E-03 0. -1.
        -11    1    3    3    0    0  0.27232216011E+02  0.18075499639E+02 -0.73662670189E+01  0.33504912567E+02  0.51100000000E-03 0.  1.
         12    1    3    3    0    0 -0.31433610319E+02 -0.29080126677E+02  0.91203162693E+01  0.43782482731E+02  0.00000000000E+00 0. -1.
</event>
<event>
 7    1  0.3861961E-015  0.9000777E+02  0.7816164E-02  0.1186339E+00
        -11   -1    0    0    0    0  0.00000000000E+00  0.00000000000E+00  0.45593999997E+02  0.45594000000E+02  0.51100000000E-03 0. -1.
         11   -1    0    0    0    0 -0.00000000000E+00 -0.00000000000E+00 -0.45593999997E+02  0.45594000000E+02  0.51100000000E-03 0.  1.
    9900012    2    1    2    0    0  0.69089125972E+00 -0.20492747834E+00  0.93467498955E+00  0.90007769794E+02  0.90000031555E+02 0.  0.
        -12    1    1    2    0    0 -0.69089125972E+00  0.20492747834E+00 -0.93467498955E+00  0.11802302065E+01  0.00000000000E+00 0.  1.
         11    1    3    3    0    0  0.61457851221E+01  0.40766948683E+01 -0.55236623669E+01  0.92141718033E+01  0.51100000000E-03 0. -1.
        -11    1    3    3    0    0 -0.34471056819E+02  0.22244449389E+02  0.48097441671E+00  0.41028046791E+02  0.51100000000E-03 0.  1.
         12    1    3    3    0    0  0.29016162956E+02 -0.26526071736E+02  0.59773629397E+01  0.39765551199E+02  0.00000000000E+00 0. -1.
</event>
<event>
 7    1  0.3861961E-015  0.9000767E+02  0.7816164E-02  0.1186339E+00
        -11   -1    0    0    0    0  0.00000000000E+00  0.00000000000E+00  0.45593999997E+02  0.45594000000E+02  0.51100000000E-03 0.  1.
         11   -1    0    0    0    0 -0.00000000000E+00 -0.00000000000E+00 -0.45593999997E+02  0.45594000000E+02  0.51100000000E-03 0. -1.
    9900012    2    1    2    0    0 -0.10825084905E+01  0.46548869748E+00 -0.68380290456E-01  0.90007669443E+02  0.89999929880E+02 0.  0.
        -12    1    1    2    0    0  0.10825084905E+01 -0.46548869748E+00  0.68380290456E-01  0.11803305569E+01  0.00000000000E+00 0.  1.
         11    1    3    3    0    0 -0.21071662962E+02  0.20033069461E+02 -0.26484103406E+02  0.39328699260E+02  0.51100000000E-03 0. -1.
        -11    1    3    3    0    0  0.87695281900E+00 -0.50615504711E+01 -0.75265062218E+01  0.91124439963E+01  0.51100000000E-03 0.  1.
        -12    1    3    3    0    0  0.19112201652E+02 -0.14506030293E+02  0.33942229337E+02  0.41566526187E+02  0.00000000000E+00 0.  1.
</event>
<event>
 7    1  0.3861961E-015  0.9000774E+02  0.7816164E-02  0.1186339E+00
        -11   -1    0    0    0    0  0.00000000000E+00  0.00000000000E+00  0.45593999997E+02  0.45594000000E+02  0.51100000000E-03 0. -1.
         11   -1    0    0    0    0 -0.00000000000E+00 -0.00000000000E+00 -0.45593999997E+02  0.45594000000E+02  0.51100000000E-03 0.  1.
    9900012    2    1    2    0    0  0.25316664807E+00  0.10138418496E+01  0.54867989732E+00  0.90007738047E+02  0.89999999389E+02 0.  0.
        -12    1    1    2    0    0 -0.25316664807E+00 -0.10138418496E+01 -0.54867989732E+00  0.11802619529E+01  0.00000000000E+00 0.  1.
         11    1    3    3    0    0  0.92092287922E+01  0.86887905785E+00  0.56384659738E+01  0.10833150260E+02  0.51100000000E-03 0. -1.
        -11    1    3    3    0    0  0.31254755695E+02 -0.16481415365E+02 -0.48187543372E+01  0.35661144116E+02  0.51100000000E-03 0.  1.
         12    1    3    3    0    0 -0.40210817840E+02  0.16626378157E+02 -0.27103173925E+00  0.43513443671E+02  0.00000000000E+00 0. -1.
</event>
<event>
 7    1  0.3861961E-015  0.9000777E+02  0.7816164E-02  0.1186339E+00
        -11   -1    0    0    0    0  0.00000000000E+00  0.00000000000E+00  0.45593999997E+02  0.45594000000E+02  0.51100000000E-03 0.  1.
         11   -1    0    0    0    0 -0.00000000000E+00 -0.00000000000E+00 -0.45593999997E+02  0.45594000000E+02  0.51100000000E-03 0. -1.
    9900012    2    1    2    0    0  0.11400986415E+00  0.47277278490E+00 -0.10753785220E+01  0.90007766413E+02  0.90000028129E+02 0.  0.
        -12    1    1    2    0    0 -0.11400986415E+00 -0.47277278490E+00  0.10753785220E+01  0.11802335874E+01  0.00000000000E+00 0.  1.
         11    1    3    3    0    0 -0.71439384735E+01 -0.27772353148E+01 -0.39451062007E+01  0.86204846792E+01  0.51100000000E-03 0. -1.
        -11    1    3    3    0    0 -0.26923969880E+02 -0.15628755961E+02  0.21786704491E+02  0.37997613871E+02  0.51100000000E-03 0.  1.
         12    1    3    3    0    0  0.34181918218E+02  0.18878764061E+02 -0.18916976812E+02  0.43389667863E+02  0.00000000000E+00 0. -1.
</event>
<event>
 7    1  0.3861961E-015  0.9000773E+02  0.7816164E-02  0.1186339E+00
        -11   -1    0    0    0    0  0.00000000000E+00  0.00000000000E+00  0.45593999997E+02  0.45594000000E+02  0.51100000000E-03 0. -1.
         11   -1    0    0    0    0 -0.00000000000E+00 -0.00000000000E+00 -0.45593999997E+02  0.45594000000E+02  0.51100000000E-03 0.  1.
    9900012    2    1    2    0    0 -0.81457919457E+00  0.60135771192E+00  0.60651686874E+00  0.90007731779E+02  0.89999993038E+02 0.  0.
        -12    1    1    2    0    0  0.81457919457E+00 -0.60135771192E+00 -0.60651686874E+00  0.11802682212E+01  0.00000000000E+00 0.  1.
         11    1    3    3    0    0  0.23709716781E+02 -0.14465212118E+02 -0.36405022753E+01  0.28011538489E+02  0.51100000000E-03 0. -1.
        -11    1    3    3    0    0 -0.21239479868E+02 -0.17657097962E+02  0.83454593722E+01  0.28853687909E+02  0.51100000000E-03 0.  1.
        -12    1    3    3    0    0 -0.32848161070E+01  0.32723667792E+02 -0.40984402282E+01  0.33142505381E+02  0.00000000000E+00 0.  1.
</event>
<event>
 7    1  0.3861961E-015  0.9000770E+02  0.7816164E-02  0.1186339E+00
        -11   -1    0    0    0    0  0.00000000000E+00  0.00000000000E+00  0.45593999997E+02  0.45594000000E+02  0.51100000000E-03 0.  1.
         11   -1    0    0    0    0 -0.00000000000E+00 -0.00000000000E+00 -0.45593999997E+02  0.45594000000E+02  0.51100000000E-03 0. -1.
    9900012    2    1    2    0    0  0.45157369782E-02 -0.77190702723E+00 -0.89288422943E+00  0.90007702115E+02  0.89999962983E+02 0.  0.
        -12    1    1    2    0    0 -0.45157369782E-02  0.77190702723E+00  0.89288422943E+00  0.11802978852E+01  0.00000000000E+00 0.  1.
         11    1    3    3    0    0  0.81233663950E+00  0.35304751803E+02 -0.16371365871E+02  0.38924375543E+02  0.51100000000E-03 0. -1.
        -11    1    3    3    0    0  0.18933557096E+01 -0.16454422981E+01 -0.86149888380E+01  0.89727537100E+01  0.51100000000E-03 0.  1.
        -12    1    3    3    0    0 -0.27011766122E+01 -0.34431216532E+02  0.24093470479E+02  0.42110572862E+02  0.00000000000E+00 0.  1.
</event>
<event>
 7    1  0.3861961E-015  0.9000777E+02  0.7816164E-02  0.1186339E+00
        -11   -1    0    0    0    0  0.00000000000E+00  0.00000000000E+00  0.45593999997E+02  0.45594000000E+02  0.51100000000E-03 0.  1.
         11   -1    0    0    0    0 -0.00000000000E+00 -0.00000000000E+00 -0.45593999997E+02  0.45594000000E+02  0.51100000000E-03 0. -1.
    9900012    2    1    2    0    0  0.64957483214E+00 -0.44982846104E+00 -0.87673105711E+00  0.90007766780E+02  0.90000028502E+02 0.  0.
        -12    1    1    2    0    0 -0.64957483214E+00  0.44982846104E+00  0.87673105711E+00  0.11802332199E+01  0.00000000000E+00 0.  1.
         11    1    3    3    0    0  0.88620372214E+01  0.90600714960E+00  0.82161075238E+01  0.12118621034E+02  0.51100000000E-03 0. -1.
        -11    1    3    3    0    0 -0.42229145545E+02 -0.49446870070E+01 -0.86070214530E-01  0.42517738315E+02  0.51100000000E-03 0.  1.
         12    1    3    3    0    0  0.34016683156E+02  0.35888513964E+01 -0.90067683664E+01  0.35371407431E+02  0.00000000000E+00 0. -1.
</event>
<event>
 7    1  0.3861961E-015  0.9000777E+02  0.7816164E-02  0.1186339E+00
        -11   -1    0    0    0    0  0.00000000000E+00  0.00000000000E+00  0.45593999997E+02  0.45594000000E+02  0.51100000000E-03 0.  1.
         11   -1    0    0    0    0 -0.00000000000E+00 -0.00000000000E+00 -0.45593999997E+02  0.45594000000E+02  0.51100000000E-03 0. -1.
    9900012    2    1    2    0    0  0.61811416237E+00  0.87208107417E+00 -0.50036014415E+00  0.90007766637E+02  0.90000028356E+02 0.  0.
        -12    1    1    2    0    0 -0.61811416237E+00 -0.87208107417E+00  0.50036014415E+00  0.11802333632E+01  0.00000000000E+00 0.  1.
         11    1    3    3    0    0  0.31593817486E+02  0.78290279518E+01 -0.18736919564E+02  0.37557091701E+02  0.51100000000E-03 0. -1.
        -11    1    3    3    0    0  0.15155648345E+01  0.61984181755E+01 -0.68375045114E+01  0.93524752259E+01  0.51100000000E-03 0.  1.
        -12    1    3    3    0    0 -0.32491268158E+02 -0.13155365053E+02  0.25074063932E+02  0.43098199710E+02  0.00000000000E+00 0.  1.
</event>
<event>
 7    1  0.3861961E-015  0.9000770E+02  0.7816164E-02  0.1186339E+00
        -11   -1    0    0    0    0  0.00000000000E+00  0.00000000000E+00  0.45593999997E+02  0.45594000000E+02  0.51100000000E-03 0. -1.
         11   -1    0    0    0    0 -0.00000000000E+00 -0.00000000000E+00 -0.45593999997E+02  0.45594000000E+02  0.51100000000E-03 0.  1.
    9900012    2    1    2    0    0 -0.95248595004E+00  0.23022300417E+00  0.65792992257E+00  0.90007701775E+02  0.89999962639E+02 0.  0.
        -12    1    1    2    0    0  0.95248595004E+00 -0.23022300417E+00 -0.65792992257E+00  0.11802982249E+01  0.00000000000E+00 0.  1.
         11    1    3    3    0    0 -0.19855558661E+02  0.45783021914E+01  0.34000189855E+02  0.39638579327E+02  0.51100000000E-03 0. -1.
        -11    1    3    3    0    0 -0.66566542822E+01  0.58037516245E+01 -0.27893921702E+01  0.92614949167E+01  0.51100000000E-03 0.  1.
        -12    1    3    3    0    0  0.25559726993E+02 -0.10151830812E+02 -0.30552867762E+02  0.41107627531E+02  0.00000000000E+00 0.  1.
</event>
<event>
 7    1  0.3861961E-015  0.9000775E+02  0.7816164E-02  0.1186339E+00
        -11   -1    0    0    0    0  0.00000000000E+00  0.00000000000E+00  0.45593999997E+02  0.45594000000E+02  0.51100000000E-03 0. -1.
         11   -1    0    0    0    0 -0.00000000000E+00 -0.00000000000E+00 -0.45593999997E+02  0.45594000000E+02  0.51100000000E-03 0.  1.
    9900012    2    1    2    0    0 -0.23132619134E+00  0.39418257503E+00  0.10881668448E+01  0.90007746302E+02  0.90000007753E+02 0.  0.
        -12    1    1    2    0    0  0.23132619134E+00 -0.39418257503E+00 -0.10881668448E+01  0.11802536979E+01  0.00000000000E+00 0.  1.
         11    1    3    3    0    0 -0.86074352065E+01  0.10539523080E+02  0.33548451345E+02  0.36203150077E+02  0.51100000000E-03 0. -1.
        -11    1    3    3    0    0 -0.21525134967E+01  0.90504119090E+01  0.48905999642E+01  0.10510054155E+02  0.51100000000E-03 0.  1.
        -12    1    3    3    0    0  0.10528622512E+02 -0.19195752414E+02 -0.37350884465E+02  0.43294542070E+02  0.00000000000E+00 0.  1.
</event>
<event>
 7    1  0.3861961E-015  0.9000775E+02  0.7816164E-02  0.1186339E+00
        -11   -1    0    0    0    0  0.00000000000E+00  0.00000000000E+00  0.45593999997E+02  0.45594000000E+02  0.51100000000E-03 0. -1.
         11   -1    0    0    0    0 -0.00000000000E+00 -0.00000000000E+00 -0.45593999997E+02  0.45594000000E+02  0.51100000000E-03 0.  1.
    9900012    2    1    2    0    0  0.24572971262E+00 -0.13246644080E+00  0.11467576299E+01  0.90007752775E+02  0.90000014312E+02 0.  0.
        -12    1    1    2    0    0 -0.24572971262E+00  0.13246644080E+00 -0.11467576299E+01  0.11802472247E+01  0.00000000000E+00 0.  1.
         11    1    3    3    0    0  0.66582758193E+01  0.35517257262E+02 -0.15841636919E+02  0.39455869789E+02  0.51100000000E-03 0. -1.
        -11    1    3    3    0    0 -0.58399183520E+01  0.29566269361E+01 -0.28542656573E+01  0.71409468491E+01  0.51100000000E-03 0.  1.
        -12    1    3    3    0    0 -0.57262775464E+00 -0.38606350639E+02  0.19842660207E+02  0.43410936137E+02  0.00000000000E+00 0.  1.
</event>
<event>
 7    1  0.3861961E-015  0.9000768E+02  0.7816164E-02  0.1186339E+00
        -11   -1    0    0    0    0  0.00000000000E+00  0.00000000000E+00  0.45593999997E+02  0.45594000000E+02  0.51100000000E-03 0. -1.
         11   -1    0    0    0    0 -0.00000000000E+00 -0.00000000000E+00 -0.45593999997E+02  0.45594000000E+02  0.51100000000E-03 0.  1.
    9900012    2    1    2    0    0  0.80041153317E+00 -0.85872726569E+00  0.12279216639E+00  0.90007682646E+02  0.89999943257E+02 0.  0.
        -12    1    1    2    0    0 -0.80041153317E+00  0.85872726569E+00 -0.12279216639E+00  0.11803173537E+01  0.00000000000E+00 0.  1.
         11    1    3    3    0    0 -0.41345050848E+01 -0.12386797078E+02  0.35097161632E+00  0.13063309515E+02  0.51100000000E-03 0. -1.
        -11    1    3    3    0    0  0.40205688168E+02  0.26298988804E+01 -0.33745162696E+01  0.40432673539E+02  0.51100000000E-03 0.  1.
         12    1    3    3    0    0 -0.35270771550E+02  0.88981709323E+01  0.31463368197E+01  0.36511699592E+02  0.00000000000E+00 0. -1.
</event>
<event>
 7    1  0.5785678E-015  0.9000780E+02  0.7816164E-02  0.1186339E+00
        -11   -1    0    0    0    0  0.00000000000E+00  0.00000000000E+00  0.45593999997E+02  0.45594000000E+02  0.51100000000E-03 0. -1.
         11   -1    0    0    0    0 -0.00000000000E+00 -0.00000000000E+00 -0.45593999997E+02  0.45594000000E+02  0.51100000000E-03 0.  1.
    9900012    2    1    2    0    0 -0.56257863537E+00  0.19139797214E+00  0.10196795069E+01  0.90007799084E+02  0.90000061232E+02 0.  0.
        -12    1    1    2    0    0  0.56257863537E+00 -0.19139797214E+00 -0.10196795069E+01  0.11802009157E+01  0.00000000000E+00 0.  1.
         11    1    3    3    0    0  0.91007253655E+01  0.78242550835E+00 -0.34134707566E+01  0.97512652882E+01  0.51100000000E-03 0. -1.
        -11    1    3    3    0    0 -0.37111393238E+01  0.35006455009E+01 -0.37429379596E+02  0.37775462025E+02  0.51100000000E-03 0.  1.
         12    1    3    3    0    0 -0.59521646771E+01 -0.40916730371E+01  0.41862529859E+02  0.42481071771E+02  0.00000000000E+00 0. -1.
</event>
<event>
 7    1  0.3861961E-015  0.9000773E+02  0.7816164E-02  0.1186339E+00
        -11   -1    0    0    0    0  0.00000000000E+00  0.00000000000E+00  0.45593999997E+02  0.45594000000E+02  0.51100000000E-03 0.  1.
         11   -1    0    0    0    0 -0.00000000000E+00 -0.00000000000E+00 -0.45593999997E+02  0.45594000000E+02  0.51100000000E-03 0. -1.
    9900012    2    1    2    0    0 -0.59438420414E+00 -0.76799682424E+00 -0.67076834369E+00  0.90007728050E+02  0.89999989261E+02 0.  0.
        -12    1    1    2    0    0  0.59438420414E+00  0.76799682424E+00  0.67076834369E+00  0.11802719496E+01  0.00000000000E+00 0.  1.
         11    1    3    3    0    0  0.67584594013E+01 -0.55832320187E+01  0.98556092928E+01  0.13190234571E+02  0.51100000000E-03 0. -1.
        -11    1    3    3    0    0 -0.53983393950E+01 -0.34768084538E+02 -0.11954898521E+02  0.37160212184E+02  0.51100000000E-03 0.  1.
         12    1    3    3    0    0 -0.19545042104E+01  0.39583319733E+02  0.14285208850E+01  0.39657281295E+02  0.00000000000E+00 0. -1.
</event>
<event>
 7    1  0.4326989E-015  0.9000777E+02  0.7816164E-02  0.1186339E+00
        -11   -1    0    0    0    0  0.00000000000E+00  0.00000000000E+00  0.45593999997E+02  0.45594000000E+02  0.51100000000E-03 0.  1.
         11   -1    0    0    0    0 -0.00000000000E+00 -0.00000000000E+00 -0.45593999997E+02  0.45594000000E+02  0.51100000000E-03 0. -1.
    9900012    2    1    2    0    0  0.11629950625E+01  0.20091367708E+00 -0.40192092190E-02  0.90007771219E+02  0.90000032999E+02 0.  0.
        -12    1    1    2    0    0 -0.11629950625E+01 -0.20091367708E+00  0.40192092190E-02  0.11802287808E+01  0.00000000000E+00 0.  1.
         11    1    3    3    0    0  0.23955872847E+00 -0.58106951628E+01  0.73806657474E+01  0.93965841557E+01  0.51100000000E-03 0. -1.
        -11    1    3    3    0    0 -0.21294334022E+02 -0.18876510398E+02  0.22144517281E+02  0.36057606023E+02  0.51100000000E-03 0.  1.
         12    1    3    3    0    0  0.22217770356E+02  0.24888119238E+02 -0.29529202237E+02  0.44553581041E+02  0.00000000000E+00 0. -1.
</event>
<event>
 7    1  0.3861961E-015  0.9000782E+02  0.7816164E-02  0.1186339E+00
        -11   -1    0    0    0    0  0.00000000000E+00  0.00000000000E+00  0.45593999997E+02  0.45594000000E+02  0.51100000000E-03 0. -1.
         11   -1    0    0    0    0 -0.00000000000E+00 -0.00000000000E+00 -0.45593999997E+02  0.45594000000E+02  0.51100000000E-03 0.  1.
    9900012    2    1    2    0    0  0.58821046144E+00  0.78267306506E+00  0.65898916498E+00  0.90007815526E+02  0.90000077891E+02 0.  0.
        -12    1    1    2    0    0 -0.58821046144E+00 -0.78267306506E+00 -0.65898916498E+00  0.11801844743E+01  0.00000000000E+00 0.  1.
         11    1    3    3    0    0  0.15944682588E+01  0.78339593391E+01  0.28966915842E+01  0.85031800140E+01  0.51100000000E-03 0. -1.
        -11    1    3    3    0    0 -0.17755752178E+01  0.24516470444E+02 -0.30468664331E+02  0.39147790446E+02  0.51100000000E-03 0.  1.
         12    1    3    3    0    0  0.76931742045E+00 -0.31567756718E+02  0.28230961912E+02  0.42356845066E+02  0.00000000000E+00 0. -1.
</event>
<event>
 7    1  0.3861961E-015  0.9000792E+02  0.7816164E-02  0.1186339E+00
        -11   -1    0    0    0    0  0.00000000000E+00  0.00000000000E+00  0.45593999997E+02  0.45594000000E+02  0.51100000000E-03 0. -1.
         11   -1    0    0    0    0 -0.00000000000E+00 -0.00000000000E+00 -0.45593999997E+02  0.45594000000E+02  0.51100000000E-03 0.  1.
    9900012    2    1    2    0    0 -0.28350825312E+00 -0.11401844609E+01 -0.11037586290E+00  0.90007923576E+02  0.90000187367E+02 0.  0.
        -12    1    1    2    0    0  0.28350825312E+00  0.11401844609E+01  0.11037586290E+00  0.11800764237E+01  0.00000000000E+00 0.  1.
         11    1    3    3    0    0 -0.22427965317E+02 -0.29870506913E+02  0.42997116748E+01  0.37599844843E+02  0.51100000000E-03 0. -1.
        -11    1    3    3    0    0  0.31382287608E+01 -0.87220622491E+01 -0.47328427005E+01  0.10407816770E+02  0.51100000000E-03 0.  1.
        -12    1    3    3    0    0  0.19006228303E+02  0.37452384701E+02  0.32275516283E+00  0.42000261963E+02  0.00000000000E+00 0.  1.
</event>
<event>
 7    1  0.3861961E-015  0.9000773E+02  0.7816164E-02  0.1186339E+00
        -11   -1    0    0    0    0  0.00000000000E+00  0.00000000000E+00  0.45593999997E+02  0.45594000000E+02  0.51100000000E-03 0.  1.
         11   -1    0    0    0    0 -0.00000000000E+00 -0.00000000000E+00 -0.45593999997E+02  0.45594000000E+02  0.51100000000E-03 0. -1.
    9900012    2    1    2    0    0  0.11754540626E+01 -0.77563052996E-01 -0.72985151481E-01  0.90007730915E+02  0.89999992163E+02 0.  0.
        -12    1    1    2    0    0 -0.11754540626E+01  0.77563052996E-01  0.72985151481E-01  0.11802690850E+01  0.00000000000E+00 0.  1.
         11    1    3    3    0    0 -0.87140125707E+01 -0.31156437984E+02 -0.17766275275E+02  0.36909323759E+02  0.51100000000E-03 0. -1.
        -11    1    3    3    0    0  0.21617015356E+01 -0.89949157095E+01  0.33804267867E+01  0.98493018875E+01  0.51100000000E-03 0.  1.
        -12    1    3    3    0    0  0.77277650977E+01  0.40073790640E+02  0.14312863337E+02  0.43249105269E+02  0.00000000000E+00 0.  1.
</event>
<event>
 7    1  0.3861961E-015  0.9000686E+02  0.7816164E-02  0.1186341E+00
        -11   -1    0    0    0    0  0.00000000000E+00  0.00000000000E+00  0.45593999997E+02  0.45594000000E+02  0.51100000000E-03 0.  1.
         11   -1    0    0    0    0 -0.00000000000E+00 -0.00000000000E+00 -0.45593999997E+02  0.45594000000E+02  0.51100000000E-03 0. -1.
    9900012    2    1    2    0    0 -0.43008173386E+00  0.91022096985E+00 -0.61775479828E+00  0.90006859237E+02  0.89999108974E+02 0.  0.
        -12    1    1    2    0    0  0.43008173386E+00 -0.91022096985E+00  0.61775479828E+00  0.11811407632E+01  0.00000000000E+00 0.  1.
         11    1    3    3    0    0  0.21152527997E+01 -0.92564561367E+01  0.29790546191E+01  0.99514341330E+01  0.51100000000E-03 0. -1.
        -11    1    3    3    0    0  0.30293632978E+02 -0.16418365607E+02  0.96390572457E+01  0.35779580113E+02  0.51100000000E-03 0.  1.
         12    1    3    3    0    0 -0.32838967511E+02  0.26585042714E+02 -0.13235866663E+02  0.44275844991E+02  0.00000000000E+00 0. -1.
</event>
<event>
 7    1  0.3861961E-015  0.9000780E+02  0.7816164E-02  0.1186339E+00
        -11   -1    0    0    0    0  0.00000000000E+00  0.00000000000E+00  0.45593999997E+02  0.45594000000E+02  0.51100000000E-03 0.  1.
         11   -1    0    0    0    0 -0.00000000000E+00 -0.00000000000E+00 -0.45593999997E+02  0.45594000000E+02  0.51100000000E-03 0. -1.
    9900012    2    1    2    0    0 -0.66786269177E+00 -0.38657846646E+00  0.89296884433E+00  0.90007797965E+02  0.90000060098E+02 0.  0.
        -12    1    1    2    0    0  0.66786269177E+00  0.38657846646E+00 -0.89296884433E+00  0.11802020347E+01  0.00000000000E+00 0.  1.
         11    1    3    3    0    0 -0.74544033366E+01 -0.28899785258E+02 -0.29849169634E+02  0.42210646111E+02  0.51100000000E-03 0. -1.
        -11    1    3    3    0    0  0.10026337317E+02  0.53022759000E+01  0.17570951632E+02  0.20913629796E+02  0.51100000000E-03 0.  1.
        -12    1    3    3    0    0 -0.32397966724E+01  0.23210930892E+02  0.13171186846E+02  0.26883522058E+02  0.00000000000E+00 0.  1.
</event>
<event>
 7    1  0.3861961E-015  0.9000778E+02  0.7816164E-02  0.1186339E+00
        -11   -1    0    0    0    0  0.00000000000E+00  0.00000000000E+00  0.45593999997E+02  0.45594000000E+02  0.51100000000E-03 0. -1.
         11   -1    0    0    0    0 -0.00000000000E+00 -0.00000000000E+00 -0.45593999997E+02  0.45594000000E+02  0.51100000000E-03 0.  1.
    9900012    2    1    2    0    0  0.60736875679E+00 -0.95896087167E+00  0.32312252992E+00  0.90007783524E+02  0.90000045467E+02 0.  0.
        -12    1    1    2    0    0 -0.60736875679E+00  0.95896087167E+00 -0.32312252992E+00  0.11802164757E+01  0.00000000000E+00 0.  1.
         11    1    3    3    0    0 -0.92939754461E+01  0.68640017999E+00  0.35829167123E+01  0.99843085503E+01  0.51100000000E-03 0. -1.
        -11    1    3    3    0    0 -0.12164148600E+02 -0.18562712636E+02 -0.32705738846E+02  0.39524753829E+02  0.51100000000E-03 0.  1.
         12    1    3    3    0    0  0.22065492803E+02  0.16917351584E+02  0.29445944663E+02  0.40498721145E+02  0.00000000000E+00 0. -1.
</event>
<event>
 7    1  0.3861961E-015  0.9000758E+02  0.7816164E-02  0.1186339E+00
        -11   -1    0    0    0    0  0.00000000000E+00  0.00000000000E+00  0.45593999997E+02  0.45594000000E+02  0.51100000000E-03 0. -1.
         11   -1    0    0    0    0 -0.00000000000E+00 -0.00000000000E+00 -0.45593999997E+02  0.45594000000E+02  0.51100000000E-03 0.  1.
    9900012    2    1    2    0    0  0.26131992936E+00  0.26971502365E+00  0.11190866966E+01  0.90007580865E+02  0.89999840132E+02 0.  0.
        -12    1    1    2    0    0 -0.26131992936E+00 -0.26971502365E+00 -0.11190866966E+01  0.11804191349E+01  0.00000000000E+00 0.  1.
         11    1    3    3    0    0  0.46063319803E+01 -0.30269676741E+01 -0.83291451754E+01  0.99877668788E+01  0.51100000000E-03 0. -1.
        -11    1    3    3    0    0 -0.12488918747E+01  0.15305316511E+02 -0.32677908333E+02  0.36106206360E+02  0.51100000000E-03 0.  1.
         12    1    3    3    0    0 -0.30961201762E+01 -0.12008633813E+02  0.42126140205E+02  0.43913607627E+02  0.00000000000E+00 0. -1.
</event>
<event>
 7    1  0.3861961E-015  0.9000774E+02  0.7816164E-02  0.1186339E+00
        -11   -1    0    0    0    0  0.00000000000E+00  0.00000000000E+00  0.45593999997E+02  0.45594000000E+02  0.51100000000E-03 0. -1.
         11   -1    0    0    0    0 -0.00000000000E+00 -0.00000000000E+00 -0.45593999997E+02  0.45594000000E+02  0.51100000000E-03 0.  1.
    9900012    2    1    2    0    0 -0.47850864658E+00 -0.10787901551E+01 -0.16284517501E-01  0.90007735661E+02  0.89999996972E+02 0.  0.
        -12    1    1    2    0    0  0.47850864658E+00  0.10787901551E+01  0.16284517501E-01  0.11802643386E+01  0.00000000000E+00 0.  1.
         11    1    3    3    0    0  0.71516634487E+01 -0.37965772864E+01 -0.36172636279E+01  0.88681951709E+01  0.51100000000E-03 0. -1.
        -11    1    3    3    0    0 -0.49842908204E+01 -0.24959261143E+02 -0.28806491486E+02  0.38439846823E+02  0.51100000000E-03 0.  1.
         12    1    3    3    0    0 -0.26458812748E+01  0.27677048274E+02  0.32407470596E+02  0.42699693668E+02  0.00000000000E+00 0. -1.
</event>
<event>
 7    1  0.3861961E-015  0.9000780E+02  0.7816164E-02  0.1186339E+00
        -11   -1    0    0    0    0  0.00000000000E+00  0.00000000000E+00  0.45593999997E+02  0.45594000000E+02  0.51100000000E-03 0. -1.
         11   -1    0    0    0    0 -0.00000000000E+00 -0.00000000000E+00 -0.45593999997E+02  0.45594000000E+02  0.51100000000E-03 0.  1.
    9900012    2    1    2    0    0  0.44058608359E+00  0.10316335574E+01  0.36673363908E+00  0.90007797706E+02  0.90000059835E+02 0.  0.
        -12    1    1    2    0    0 -0.44058608359E+00 -0.10316335574E+01 -0.36673363908E+00  0.11802022944E+01  0.00000000000E+00 0.  1.
         11    1    3    3    0    0 -0.25990496287E+02  0.26614923255E+02 -0.33047061763E+01  0.37346768538E+02  0.51100000000E-03 0. -1.
        -11    1    3    3    0    0 -0.64315134077E+01  0.10426276044E+01 -0.64537107297E+01  0.91707044156E+01  0.51100000000E-03 0.  1.
        -12    1    3    3    0    0  0.32862595778E+02 -0.26625917302E+02  0.10125150545E+02  0.43490324752E+02  0.00000000000E+00 0.  1.
</event>
<event>
 7    1  0.3861961E-015  0.9000756E+02  0.7816164E-02  0.1186339E+00
        -11   -1    0    0    0    0  0.00000000000E+00  0.00000000000E+00  0.45593999997E+02  0.45594000000E+02  0.51100000000E-03 0.  1.
         11   -1    0    0    0    0 -0.00000000000E+00 -0.00000000000E+00 -0.45593999997E+02  0.45594000000E+02  0.51100000000E-03 0. -1.
    9900012    2    1    2    0    0 -0.77017658876E+00  0.32068028538E+00 -0.83512299063E+00  0.90007560153E+02  0.89999819147E+02 0.  0.
        -12    1    1    2    0    0  0.77017658876E+00 -0.32068028538E+00  0.83512299063E+00  0.11804398472E+01  0.00000000000E+00 0.  1.
         11    1    3    3    0    0  0.56528723017E+01 -0.30337399073E+02 -0.20428396692E+02  0.37008541439E+02  0.51100000000E-03 0. -1.
        -11    1    3    3    0    0  0.66879816710E+01 -0.23137012049E+01 -0.59764948914E+01  0.92628723162E+01  0.51100000000E-03 0.  1.
        -12    1    3    3    0    0 -0.13111030562E+02  0.32971780563E+02  0.25569768592E+02  0.43736146398E+02  0.00000000000E+00 0.  1.
</event>
<event>
 7    1  0.3861961E-015  0.9000769E+02  0.7816164E-02  0.1186339E+00
        -11   -1    0    0    0    0  0.00000000000E+00  0.00000000000E+00  0.45593999997E+02  0.45594000000E+02  0.51100000000E-03 0.  1.
         11   -1    0    0    0    0 -0.00000000000E+00 -0.00000000000E+00 -0.45593999997E+02  0.45594000000E+02  0.51100000000E-03 0. -1.
    9900012    2    1    2    0    0 -0.17378501583E+00  0.11650010021E+01 -0.75466009914E-01  0.90007693394E+02  0.89999954146E+02 0.  0.
        -12    1    1    2    0    0  0.17378501583E+00 -0.11650010021E+01  0.75466009914E-01  0.11803066064E+01  0.00000000000E+00 0.  1.
         11    1    3    3    0    0  0.29301964171E+02 -0.25671831323E+02 -0.41564022167E+01  0.39178102397E+02  0.51100000000E-03 0. -1.
        -11    1    3    3    0    0 -0.12376563229E+02 -0.55748245995E+01 -0.18754130213E+01  0.13703107711E+02  0.51100000000E-03 0.  1.
        -12    1    3    3    0    0 -0.17099185958E+02  0.32411656925E+02  0.59563492281E+01  0.37126483286E+02  0.00000000000E+00 0.  1.
</event>
<event>
 7    1  0.4394314E-015  0.9000777E+02  0.7816164E-02  0.1186339E+00
        -11   -1    0    0    0    0  0.00000000000E+00  0.00000000000E+00  0.45593999997E+02  0.45594000000E+02  0.51100000000E-03 0.  1.
         11   -1    0    0    0    0 -0.00000000000E+00 -0.00000000000E+00 -0.45593999997E+02  0.45594000000E+02  0.51100000000E-03 0. -1.
    9900012    2    1    2    0    0 -0.95037520772E+00 -0.55681625954E+00 -0.42388630977E+00  0.90007772486E+02  0.90000034282E+02 0.  0.
        -12    1    1    2    0    0  0.95037520772E+00  0.55681625954E+00  0.42388630977E+00  0.11802275145E+01  0.00000000000E+00 0.  1.
         11    1    3    3    0    0 -0.91469706993E+01  0.22519766704E+01 -0.24016104327E+00  0.94231708828E+01  0.51100000000E-03 0. -1.
        -11    1    3    3    0    0 -0.29354992485E+02 -0.23545422864E+02 -0.15914954141E+01  0.37664776377E+02  0.51100000000E-03 0.  1.
         12    1    3    3    0    0  0.37551587976E+02  0.20736629934E+02  0.14077701476E+01  0.42919825225E+02  0.00000000000E+00 0. -1.
</event>
<event>
 7    1  0.3861961E-015  0.9000776E+02  0.7816164E-02  0.1186339E+00
        -11   -1    0    0    0    0  0.00000000000E+00  0.00000000000E+00  0.45593999997E+02  0.45594000000E+02  0.51100000000E-03 0. -1.
         11   -1    0    0    0    0 -0.00000000000E+00 -0.00000000000E+00 -0.45593999997E+02  0.45594000000E+02  0.51100000000E-03 0.  1.
    9900012    2    1    2    0    0  0.26269720110E+00 -0.10102529093E+01  0.55077535904E+00  0.90007756696E+02  0.90000018284E+02 0.  0.
        -12    1    1    2    0    0 -0.26269720110E+00  0.10102529093E+01 -0.55077535904E+00  0.11802433039E+01  0.00000000000E+00 0.  1.
         11    1    3    3    0    0  0.77926672523E-01 -0.21788957800E+01  0.82001465401E+01  0.84850493768E+01  0.51100000000E-03 0. -1.
        -11    1    3    3    0    0 -0.95388515160E+01  0.25376747786E+02 -0.34638389792E+02  0.43986214478E+02  0.51100000000E-03 0.  1.
         12    1    3    3    0    0  0.97236220445E+01 -0.24208104915E+02  0.26989018611E+02  0.37536492841E+02  0.00000000000E+00 0. -1.
</event>
<event>
 7    1  0.3861961E-015  0.9000773E+02  0.7816164E-02  0.1186339E+00
        -11   -1    0    0    0    0  0.00000000000E+00  0.00000000000E+00  0.45593999997E+02  0.45594000000E+02  0.51100000000E-03 0.  1.
         11   -1    0    0    0    0 -0.00000000000E+00 -0.00000000000E+00 -0.45593999997E+02  0.45594000000E+02  0.51100000000E-03 0. -1.
    9900012    2    1    2    0    0  0.12853071535E+00 -0.77547163524E+00 -0.88042830388E+00  0.90007732912E+02  0.89999994186E+02 0.  0.
        -12    1    1    2    0    0 -0.12853071535E+00  0.77547163524E+00  0.88042830388E+00  0.11802670885E+01  0.00000000000E+00 0.  1.
         11    1    3    3    0    0  0.41390739633E+00 -0.42119646188E+01  0.64459502323E+01  0.77111763008E+01  0.51100000000E-03 0. -1.
        -11    1    3    3    0    0 -0.22993497223E+02 -0.14011195717E+02  0.26634311543E+02  0.37873487714E+02  0.51100000000E-03 0.  1.
         12    1    3    3    0    0  0.22708120542E+02  0.17447688701E+02 -0.33960690079E+02  0.44423068897E+02  0.00000000000E+00 0. -1.
</event>
<event>
 7    1  0.3861961E-015  0.9000760E+02  0.7816164E-02  0.1186339E+00
        -11   -1    0    0    0    0  0.00000000000E+00  0.00000000000E+00  0.45593999997E+02  0.45594000000E+02  0.51100000000E-03 0. -1.
         11   -1    0    0    0    0 -0.00000000000E+00 -0.00000000000E+00 -0.45593999997E+02  0.45594000000E+02  0.51100000000E-03 0.  1.
    9900012    2    1    2    0    0  0.38752685680E+00 -0.69828407142E+00  0.86922922940E+00  0.90007602964E+02  0.89999862523E+02 0.  0.
        -12    1    1    2    0    0 -0.38752685680E+00  0.69828407142E+00 -0.86922922940E+00  0.11803970359E+01  0.00000000000E+00 0.  1.
         11    1    3    3    0    0  0.82093923033E+01 -0.58658068209E+00  0.61112996962E+01  0.10251155209E+02  0.51100000000E-03 0. -1.
        -11    1    3    3    0    0  0.13526680800E+02  0.33431642155E+02  0.95926601555E+01  0.37318426008E+02  0.51100000000E-03 0.  1.
         12    1    3    3    0    0 -0.21348546247E+02 -0.33543345544E+02 -0.14834730622E+02  0.42438021747E+02  0.00000000000E+00 0. -1.
</event>
<event>
 7    1  0.3861961E-015  0.9000777E+02  0.7816164E-02  0.1186339E+00
        -11   -1    0    0    0    0  0.00000000000E+00  0.00000000000E+00  0.45593999997E+02  0.45594000000E+02  0.51100000000E-03 0.  1.
         11   -1    0    0    0    0 -0.00000000000E+00 -0.00000000000E+00 -0.45593999997E+02  0.45594000000E+02  0.51100000000E-03 0. -1.
    9900012    2    1    2    0    0 -0.55512116685E+00 -0.31461341078E+00  0.99287015924E+00  0.90007774487E+02  0.90000036310E+02 0.  0.
        -12    1    1    2    0    0  0.55512116685E+00  0.31461341078E+00 -0.99287015924E+00  0.11802255129E+01  0.00000000000E+00 0.  1.
         11    1    3    3    0    0  0.16110776630E+02  0.55734272901E+01 -0.34275751410E+02  0.38281161821E+02  0.51100000000E-03 0. -1.
        -11    1    3    3    0    0  0.64148834386E+01  0.68426423423E+01  0.25668698825E+01  0.97242637259E+01  0.51100000000E-03 0.  1.
        -12    1    3    3    0    0 -0.23080781235E+02 -0.12730683043E+02  0.32701751686E+02  0.42002348941E+02  0.00000000000E+00 0.  1.
</event>
<event>
 7    1  0.3861961E-015  0.9000776E+02  0.7816164E-02  0.1186339E+00
        -11   -1    0    0    0    0  0.00000000000E+00  0.00000000000E+00  0.45593999997E+02  0.45594000000E+02  0.51100000000E-03 0.  1.
         11   -1    0    0    0    0 -0.00000000000E+00 -0.00000000000E+00 -0.45593999997E+02  0.45594000000E+02  0.51100000000E-03 0. -1.
    9900012    2    1    2    0    0  0.10895599072E-01 -0.51126136030E+00 -0.10637020417E+01  0.90007758954E+02  0.90000020572E+02 0.  0.
        -12    1    1    2    0    0 -0.10895599072E-01  0.51126136030E+00  0.10637020417E+01  0.11802410458E+01  0.00000000000E+00 0.  1.
         11    1    3    3    0    0 -0.21859866533E+01  0.10679608330E+02  0.13300934828E+01  0.10981881472E+02  0.51100000000E-03 0. -1.
        -11    1    3    3    0    0  0.14838618504E+02  0.26984425788E+02  0.16115084440E+02  0.34756866674E+02  0.51100000000E-03 0.  1.
         12    1    3    3    0    0 -0.12641736251E+02 -0.38175295479E+02 -0.18508879965E+02  0.44269010808E+02  0.00000000000E+00 0. -1.
</event>
<event>
 7    1  0.3861961E-015  0.9000781E+02  0.7816164E-02  0.1186339E+00
        -11   -1    0    0    0    0  0.00000000000E+00  0.00000000000E+00  0.45593999997E+02  0.45594000000E+02  0.51100000000E-03 0.  1.
         11   -1    0    0    0    0 -0.00000000000E+00 -0.00000000000E+00 -0.45593999997E+02  0.45594000000E+02  0.51100000000E-03 0. -1.
    9900012    2    1    2    0    0 -0.22637428765E+00  0.93055403591E+00 -0.68969482586E+00  0.90007807183E+02  0.90000069438E+02 0.  0.
        -12    1    1    2    0    0  0.22637428765E+00 -0.93055403591E+00  0.68969482586E+00  0.11801928167E+01  0.00000000000E+00 0.  1.
         11    1    3    3    0    0  0.26000365805E+02  0.20070643608E+02 -0.17113868522E+02  0.37036930932E+02  0.51100000000E-03 0. -1.
        -11    1    3    3    0    0 -0.43666199474E+01  0.72853904120E+01 -0.73570291616E+01  0.11236999669E+02  0.51100000000E-03 0.  1.
        -12    1    3    3    0    0 -0.21860120146E+02 -0.26425479984E+02  0.23781202858E+02  0.41733876582E+02  0.00000000000E+00 0.  1.
</event>
<event>
 7    1  0.3861961E-015  0.9000774E+02  0.7816164E-02  0.1186339E+00
        -11   -1    0    0    0    0  0.00000000000E+00  0.00000000000E+00  0.45593999997E+02  0.45594000000E+02  0.51100000000E-03 0.  1.
         11   -1    0    0    0    0 -0.00000000000E+00 -0.00000000000E+00 -0.45593999997E+02  0.45594000000E+02  0.51100000000E-03 0. -1.
    9900012    2    1    2    0    0 -0.50349196905E+00  0.10468089408E+01 -0.20905325256E+00  0.90007738849E+02  0.90000000202E+02 0.  0.
        -12    1    1    2    0    0  0.50349196905E+00 -0.10468089408E+01  0.20905325256E+00  0.11802611507E+01  0.00000000000E+00 0.  1.
         11    1    3    3    0    0  0.52955742473E+01  0.95096354969E+01  0.29584010168E+01  0.11279557205E+02  0.51100000000E-03 0. -1.
        -11    1    3    3    0    0 -0.82067101451E+01 -0.17983583824E+02  0.34521625970E+02  0.39780674183E+02  0.51100000000E-03 0.  1.
         12    1    3    3    0    0  0.24076439288E+01  0.95207572676E+01 -0.37689080239E+02  0.38947507462E+02  0.00000000000E+00 0. -1.
</event>
<event>
 7    1  0.3861961E-015  0.9000773E+02  0.7816164E-02  0.1186339E+00
        -11   -1    0    0    0    0  0.00000000000E+00  0.00000000000E+00  0.45593999997E+02  0.45594000000E+02  0.51100000000E-03 0. -1.
         11   -1    0    0    0    0 -0.00000000000E+00 -0.00000000000E+00 -0.45593999997E+02  0.45594000000E+02  0.51100000000E-03 0.  1.
    9900012    2    1    2    0    0  0.98898919845E+00 -0.15337405517E+00  0.62563321655E+00  0.90007728778E+02  0.89999989998E+02 0.  0.
        -12    1    1    2    0    0 -0.98898919845E+00  0.15337405517E+00 -0.62563321655E+00  0.11802712218E+01  0.00000000000E+00 0.  1.
         11    1    3    3    0    0  0.36387481199E+01  0.22758725480E+02  0.25078098208E+02  0.34060403453E+02  0.51100000000E-03 0. -1.
        -11    1    3    3    0    0  0.77920016410E+01  0.35646587373E+01  0.87288938240E+01  0.12231748409E+02  0.51100000000E-03 0.  1.
        -12    1    3    3    0    0 -0.10441760562E+02 -0.26476758273E+02 -0.33181358816E+02  0.43715576916E+02  0.00000000000E+00 0.  1.
</event>
<event>
 7    1  0.3861961E-015  0.9000696E+02  0.7816164E-02  0.1186341E+00
        -11   -1    0    0    0    0  0.00000000000E+00  0.00000000000E+00  0.45593999997E+02  0.45594000000E+02  0.51100000000E-03 0. -1.
         11   -1    0    0    0    0 -0.00000000000E+00 -0.00000000000E+00 -0.45593999997E+02  0.45594000000E+02  0.51100000000E-03 0.  1.
    9900012    2    1    2    0    0  0.74401842749E+00 -0.74204548496E+00  0.53911985196E+00  0.90006964379E+02  0.89999215506E+02 0.  0.
        -12    1    1    2    0    0 -0.74401842749E+00  0.74204548496E+00 -0.53911985196E+00  0.11810356205E+01  0.00000000000E+00 0.  1.
         11    1    3    3    0    0  0.71223756049E+01 -0.35520342686E+02 -0.11751543075E+02  0.38085715744E+02  0.51100000000E-03 0. -1.
        -11    1    3    3    0    0  0.11418154133E+02  0.88420301706E-01  0.19392838327E+01  0.11582006907E+02  0.51100000000E-03 0.  1.
        -12    1    3    3    0    0 -0.17796511310E+02  0.34689876899E+02  0.10351379094E+02  0.40339241729E+02  0.00000000000E+00 0.  1.
</event>
<event>
 7    1  0.3861961E-015  0.9000782E+02  0.7816164E-02  0.1186339E+00
        -11   -1    0    0    0    0  0.00000000000E+00  0.00000000000E+00  0.45593999997E+02  0.45594000000E+02  0.51100000000E-03 0.  1.
         11   -1    0    0    0    0 -0.00000000000E+00 -0.00000000000E+00 -0.45593999997E+02  0.45594000000E+02  0.51100000000E-03 0. -1.
    9900012    2    1    2    0    0 -0.38442420202E+00  0.10299034217E+01 -0.42935942173E+00  0.90007816735E+02  0.90000079116E+02 0.  0.
        -12    1    1    2    0    0  0.38442420202E+00 -0.10299034217E+01  0.42935942173E+00  0.11801832646E+01  0.00000000000E+00 0.  1.
         11    1    3    3    0    0  0.16216437266E+01 -0.22752754851E+01 -0.30354431082E+02  0.30482750753E+02  0.51100000000E-03 0. -1.
        -11    1    3    3    0    0 -0.88595432416E+01  0.24531480962E+02  0.58985783895E+01  0.26740947850E+02  0.51100000000E-03 0.  1.
        -12    1    3    3    0    0  0.68534753129E+01 -0.21226302055E+02  0.24026493271E+02  0.32784118132E+02  0.00000000000E+00 0.  1.
</event>
<event>
 7    1  0.3861961E-015  0.9000768E+02  0.7816164E-02  0.1186339E+00
        -11   -1    0    0    0    0  0.00000000000E+00  0.00000000000E+00  0.45593999997E+02  0.45594000000E+02  0.51100000000E-03 0. -1.
         11   -1    0    0    0    0 -0.00000000000E+00 -0.00000000000E+00 -0.45593999997E+02  0.45594000000E+02  0.51100000000E-03 0.  1.
    9900012    2    1    2    0    0 -0.42319336097E-01  0.28514788090E+00  0.11445735788E+01  0.90007682705E+02  0.89999943316E+02 0.  0.
        -12    1    1    2    0    0  0.42319336097E-01 -0.28514788090E+00 -0.11445735788E+01  0.11803172953E+01  0.00000000000E+00 0.  1.
         11    1    3    3    0    0  0.34340475396E+01 -0.59404983599E+01 -0.19687482877E+01  0.71384993766E+01  0.51100000000E-03 0. -1.
        -11    1    3    3    0    0  0.57661678856E+01  0.33680478409E+02 -0.25125790475E+02  0.42413779190E+02  0.51100000000E-03 0.  1.
         12    1    3    3    0    0 -0.92425347612E+01 -0.27454832168E+02  0.28239112341E+02  0.40455404138E+02  0.00000000000E+00 0. -1.
</event>
<event>
 7    1  0.3861961E-015  0.9000774E+02  0.7816164E-02  0.1186339E+00
        -11   -1    0    0    0    0  0.00000000000E+00  0.00000000000E+00  0.45593999997E+02  0.45594000000E+02  0.51100000000E-03 0.  1.
         11   -1    0    0    0    0 -0.00000000000E+00 -0.00000000000E+00 -0.45593999997E+02  0.45594000000E+02  0.51100000000E-03 0. -1.
    9900012    2    1    2    0    0  0.90066844335E+00  0.71692839897E+00 -0.26045173900E+00  0.90007735164E+02  0.89999996468E+02 0.  0.
        -12    1    1    2    0    0 -0.90066844335E+00 -0.71692839897E+00  0.26045173900E+00  0.11802648357E+01  0.00000000000E+00 0.  1.
         11    1    3    3    0    0  0.15474694125E+02 -0.31840848989E+02  0.45255369637E+00  0.35404952022E+02  0.51100000000E-03 0. -1.
        -11    1    3    3    0    0  0.80382013443E+01 -0.54702080390E+01  0.30758416148E+01  0.10197875207E+02  0.51100000000E-03 0.  1.
        -12    1    3    3    0    0 -0.22612227026E+02  0.38027985427E+02 -0.37888470501E+01  0.44404907935E+02  0.00000000000E+00 0.  1.
</event>
<event>
 7    1  0.3861961E-015  0.9000774E+02  0.7816164E-02  0.1186339E+00
        -11   -1    0    0    0    0  0.00000000000E+00  0.00000000000E+00  0.45593999997E+02  0.45594000000E+02  0.51100000000E-03 0. -1.
         11   -1    0    0    0    0 -0.00000000000E+00 -0.00000000000E+00 -0.45593999997E+02  0.45594000000E+02  0.51100000000E-03 0.  1.
    9900012    2    1    2    0    0  0.10948009238E+01 -0.16084540754E+00  0.41054755536E+00  0.90007741722E+02  0.90000003113E+02 0.  0.
        -12    1    1    2    0    0 -0.10948009238E+01  0.16084540754E+00 -0.41054755536E+00  0.11802582782E+01  0.00000000000E+00 0.  1.
         11    1    3    3    0    0 -0.14167085773E+02 -0.82761506377E+00 -0.66846241984E+01  0.15686792755E+02  0.51100000000E-03 0. -1.
        -11    1    3    3    0    0 -0.23149566243E+02  0.15985772480E+02 -0.95985650864E+01  0.29725070075E+02  0.51100000000E-03 0.  1.
         12    1    3    3    0    0  0.38411452940E+02 -0.15319002823E+02  0.16693736840E+02  0.44595878892E+02  0.00000000000E+00 0. -1.
</event>
<event>
 7    1  0.3861961E-015  0.9000769E+02  0.7816164E-02  0.1186339E+00
        -11   -1    0    0    0    0  0.00000000000E+00  0.00000000000E+00  0.45593999997E+02  0.45594000000E+02  0.51100000000E-03 0.  1.
         11   -1    0    0    0    0 -0.00000000000E+00 -0.00000000000E+00 -0.45593999997E+02  0.45594000000E+02  0.51100000000E-03 0. -1.
    9900012    2    1    2    0    0  0.32326814969E+00  0.10993108922E+01 -0.28311101555E+00  0.90007687083E+02  0.89999947753E+02 0.  0.
        -12    1    1    2    0    0 -0.32326814969E+00 -0.10993108922E+01  0.28311101555E+00  0.11803129167E+01  0.00000000000E+00 0.  1.
         11    1    3    3    0    0 -0.43795193687E+01 -0.50481811920E+01  0.56293418670E+01  0.87380669124E+01  0.51100000000E-03 0. -1.
        -11    1    3    3    0    0  0.22801657799E+02 -0.10211984397E+02  0.29252998533E+02  0.38469964221E+02  0.51100000000E-03 0.  1.
         12    1    3    3    0    0 -0.18098870280E+02  0.16359476481E+02 -0.35165451416E+02  0.42799655950E+02  0.00000000000E+00 0. -1.
</event>
<event>
 7    1  0.3861961E-015  0.9000762E+02  0.7816164E-02  0.1186339E+00
        -11   -1    0    0    0    0  0.00000000000E+00  0.00000000000E+00  0.45593999997E+02  0.45594000000E+02  0.51100000000E-03 0. -1.
         11   -1    0    0    0    0 -0.00000000000E+00 -0.00000000000E+00 -0.45593999997E+02  0.45594000000E+02  0.51100000000E-03 0.  1.
    9900012    2    1    2    0    0  0.54088244071E+00  0.82713656801E+00  0.64543575953E+00  0.90007620385E+02  0.89999880174E+02 0.  0.
        -12    1    1    2    0    0 -0.54088244071E+00 -0.82713656801E+00 -0.64543575953E+00  0.11803796154E+01  0.00000000000E+00 0.  1.
         11    1    3    3    0    0  0.30564481971E+02 -0.57263884485E+01  0.63430358773E+01  0.31736622177E+02  0.51100000000E-03 0. -1.
        -11    1    3    3    0    0  0.10971735325E+02  0.19732262501E+01  0.91580103285E+01  0.14427118607E+02  0.51100000000E-03 0.  1.
        -12    1    3    3    0    0 -0.40995334855E+02  0.45802987664E+01 -0.14855610446E+02  0.43843879600E+02  0.00000000000E+00 0.  1.
</event>
<event>
 7    1  0.3861961E-015  0.9000770E+02  0.7816164E-02  0.1186339E+00
        -11   -1    0    0    0    0  0.00000000000E+00  0.00000000000E+00  0.45593999997E+02  0.45594000000E+02  0.51100000000E-03 0. -1.
         11   -1    0    0    0    0 -0.00000000000E+00 -0.00000000000E+00 -0.45593999997E+02  0.45594000000E+02  0.51100000000E-03 0.  1.
    9900012    2    1    2    0    0  0.22291283084E-01 -0.79332623238E+00  0.87364281665E+00  0.90007696995E+02  0.89999957795E+02 0.  0.
        -12    1    1    2    0    0 -0.22291283084E-01  0.79332623238E+00 -0.87364281665E+00  0.11803030049E+01  0.00000000000E+00 0.  1.
         11    1    3    3    0    0 -0.59651401877E+01  0.79304055063E+00  0.12836029456E+02  0.14176581507E+02  0.51100000000E-03 0. -1.
        -11    1    3    3    0    0 -0.78520672823E+01 -0.18039526812E+02 -0.37560958550E+02  0.42401710999E+02  0.51100000000E-03 0.  1.
         12    1    3    3    0    0  0.13839498753E+02  0.16453160029E+02  0.25598571910E+02  0.33429404489E+02  0.00000000000E+00 0. -1.
</event>
<event>
 7    1  0.3861961E-015  0.9000796E+02  0.7816164E-02  0.1186339E+00
        -11   -1    0    0    0    0  0.00000000000E+00  0.00000000000E+00  0.45593999997E+02  0.45594000000E+02  0.51100000000E-03 0.  1.
         11   -1    0    0    0    0 -0.00000000000E+00 -0.00000000000E+00 -0.45593999997E+02  0.45594000000E+02  0.51100000000E-03 0. -1.
    9900012    2    1    2    0    0  0.87378872254E+00 -0.23567851041E+00 -0.75725795838E+00  0.90007961565E+02  0.90000225858E+02 0.  0.
        -12    1    1    2    0    0 -0.87378872254E+00  0.23567851041E+00  0.75725795838E+00  0.11800384347E+01  0.00000000000E+00 0.  1.
         11    1    3    3    0    0 -0.13528493802E+02 -0.12360539235E+02 -0.37718549007E+02  0.41934377475E+02  0.51100000000E-03 0. -1.
        -11    1    3    3    0    0  0.86020869575E+00  0.88688723094E+01  0.36664551809E+00  0.89180314104E+01  0.51100000000E-03 0.  1.
        -12    1    3    3    0    0  0.13542073829E+02  0.32559884151E+01  0.36594645531E+02  0.39155552680E+02  0.00000000000E+00 0.  1.
</event>
<event>
 7    1  0.3861961E-015  0.9000778E+02  0.7816164E-02  0.1186339E+00
        -11   -1    0    0    0    0  0.00000000000E+00  0.00000000000E+00  0.45593999997E+02  0.45594000000E+02  0.51100000000E-03 0.  1.
         11   -1    0    0    0    0 -0.00000000000E+00 -0.00000000000E+00 -0.45593999997E+02  0.45594000000E+02  0.51100000000E-03 0. -1.
    9900012    2    1    2    0    0 -0.28879014433E+00 -0.60395186616E+00 -0.97198297805E+00  0.90007784548E+02  0.90000046504E+02 0.  0.
        -12    1    1    2    0    0  0.28879014433E+00  0.60395186616E+00  0.97198297805E+00  0.11802154523E+01  0.00000000000E+00 0.  1.
         11    1    3    3    0    0  0.25865798294E+02 -0.16034960410E+02 -0.21559127804E+02  0.37295515397E+02  0.51100000000E-03 0. -1.
        -11    1    3    3    0    0  0.92452311425E+00 -0.28571069606E+01 -0.84691772307E+01  0.89858091678E+01  0.51100000000E-03 0.  1.
        -12    1    3    3    0    0 -0.27079111553E+02  0.18288115505E+02  0.29056322057E+02  0.43726459983E+02  0.00000000000E+00 0.  1.
</event>
<event>
 7    1  0.3861961E-015  0.9000778E+02  0.7816164E-02  0.1186339E+00
        -11   -1    0    0    0    0  0.00000000000E+00  0.00000000000E+00  0.45593999997E+02  0.45594000000E+02  0.51100000000E-03 0.  1.
         11   -1    0    0    0    0 -0.00000000000E+00 -0.00000000000E+00 -0.45593999997E+02  0.45594000000E+02  0.51100000000E-03 0. -1.
    9900012    2    1    2    0    0 -0.46693860064E+00  0.10324251332E+01  0.33014090474E+00  0.90007777000E+02  0.90000038857E+02 0.  0.
        -12    1    1    2    0    0  0.46693860064E+00 -0.10324251332E+01 -0.33014090474E+00  0.11802229998E+01  0.00000000000E+00 0.  1.
         11    1    3    3    0    0 -0.13896961777E+02 -0.13810451678E+02 -0.13239242019E+01  0.19636875967E+02  0.51100000000E-03 0. -1.
        -11    1    3    3    0    0 -0.30615010570E+01 -0.25880872956E+02  0.40270314725E+01  0.26370615397E+02  0.51100000000E-03 0.  1.
        -12    1    3    3    0    0  0.16491524233E+02  0.40723749768E+02 -0.23729663658E+01  0.44000285636E+02  0.00000000000E+00 0.  1.
</event>
<event>
 7    1  0.3861961E-015  0.9000775E+02  0.7816164E-02  0.1186339E+00
        -11   -1    0    0    0    0  0.00000000000E+00  0.00000000000E+00  0.45593999997E+02  0.45594000000E+02  0.51100000000E-03 0.  1.
         11   -1    0    0    0    0 -0.00000000000E+00 -0.00000000000E+00 -0.45593999997E+02  0.45594000000E+02  0.51100000000E-03 0. -1.
    9900012    2    1    2    0    0  0.82003984522E-01 -0.11716185954E+01  0.11654838190E+00  0.90007746505E+02  0.90000007959E+02 0.  0.
        -12    1    1    2    0    0 -0.82003984522E-01  0.11716185954E+01 -0.11654838190E+00  0.11802534947E+01  0.00000000000E+00 0.  1.
         11    1    3    3    0    0  0.26590623865E+02  0.63996883014E+01 -0.32441300740E+02  0.42431772080E+02  0.51100000000E-03 0. -1.
        -11    1    3    3    0    0 -0.24407885471E+00 -0.80652823989E+01  0.49445547698E+01  0.94634548022E+01  0.51100000000E-03 0.  1.
        -12    1    3    3    0    0 -0.26264541026E+02  0.49397550215E+00  0.27613294352E+02  0.38112519623E+02  0.00000000000E+00 0.  1.
</event>
<event>
 7    1  0.3861961E-015  0.9000770E+02  0.7816164E-02  0.1186339E+00
        -11   -1    0    0    0    0  0.00000000000E+00  0.00000000000E+00  0.45593999997E+02  0.45594000000E+02  0.51100000000E-03 0. -1.
         11   -1    0    0    0    0 -0.00000000000E+00 -0.00000000000E+00 -0.45593999997E+02  0.45594000000E+02  0.51100000000E-03 0.  1.
    9900012    2    1    2    0    0  0.40914287392E+00  0.96870388397E+00  0.53602930609E+00  0.90007698122E+02  0.89999958937E+02 0.  0.
        -12    1    1    2    0    0 -0.40914287392E+00 -0.96870388397E+00 -0.53602930609E+00  0.11803018779E+01  0.00000000000E+00 0.  1.
         11    1    3    3    0    0  0.14059699537E+02  0.23456555582E+02  0.25933593160E+02  0.37688677415E+02  0.51100000000E-03 0. -1.
        -11    1    3    3    0    0 -0.59537866684E+01 -0.55454127239E+01  0.96592795191E+01  0.12629364951E+02  0.51100000000E-03 0.  1.
        -12    1    3    3    0    0 -0.76967699947E+01 -0.16942438974E+02 -0.35056843373E+02  0.39689655756E+02  0.00000000000E+00 0.  1.
</event>
<event>
 7    1  0.6190585E-015  0.9000776E+02  0.7816164E-02  0.1186339E+00
        -11   -1    0    0    0    0  0.00000000000E+00  0.00000000000E+00  0.45593999997E+02  0.45594000000E+02  0.51100000000E-03 0.  1.
         11   -1    0    0    0    0 -0.00000000000E+00 -0.00000000000E+00 -0.45593999997E+02  0.45594000000E+02  0.51100000000E-03 0. -1.
    9900012    2    1    2    0    0  0.60268807379E+00 -0.83222418144E+00 -0.58062909652E+00  0.90007762672E+02  0.90000024339E+02 0.  0.
        -12    1    1    2    0    0 -0.60268807379E+00  0.83222418144E+00  0.58062909652E+00  0.11802373279E+01  0.00000000000E+00 0.  1.
         11    1    3    3    0    0 -0.85881070264E+01  0.26010321835E+01 -0.34071393137E+01  0.95984138940E+01  0.51100000000E-03 0. -1.
        -11    1    3    3    0    0 -0.21021852420E+02  0.15956701855E+02  0.26505236432E+02  0.37404039512E+02  0.51100000000E-03 0.  1.
         12    1    3    3    0    0  0.30212647520E+02 -0.19389958220E+02 -0.23678726215E+02  0.43005309266E+02  0.00000000000E+00 0. -1.
</event>
<event>
 7    1  0.3861961E-015  0.9000779E+02  0.7816164E-02  0.1186339E+00
        -11   -1    0    0    0    0  0.00000000000E+00  0.00000000000E+00  0.45593999997E+02  0.45594000000E+02  0.51100000000E-03 0.  1.
         11   -1    0    0    0    0 -0.00000000000E+00 -0.00000000000E+00 -0.45593999997E+02  0.45594000000E+02  0.51100000000E-03 0. -1.
    9900012    2    1    2    0    0 -0.12198663222E+00  0.11737225996E+01  0.19622029869E-01  0.90007792178E+02  0.90000054235E+02 0.  0.
        -12    1    1    2    0    0  0.12198663222E+00 -0.11737225996E+01 -0.19622029869E-01  0.11802078221E+01  0.00000000000E+00 0.  1.
         11    1    3    3    0    0 -0.33143726345E+01  0.55097264774E+01  0.80729465453E+01  0.10320591940E+02  0.51100000000E-03 0. -1.
        -11    1    3    3    0    0 -0.26175716214E+01 -0.11594814372E+02  0.34312536853E+02  0.36313104894E+02  0.51100000000E-03 0.  1.
         12    1    3    3    0    0  0.58099576237E+01  0.72588104945E+01 -0.42365861368E+02  0.43374095343E+02  0.00000000000E+00 0. -1.
</event>
<event>
 7    1  0.3861961E-015  0.9000771E+02  0.7816164E-02  0.1186339E+00
        -11   -1    0    0    0    0  0.00000000000E+00  0.00000000000E+00  0.45593999997E+02  0.45594000000E+02  0.51100000000E-03 0.  1.
         11   -1    0    0    0    0 -0.00000000000E+00 -0.00000000000E+00 -0.45593999997E+02  0.45594000000E+02  0.51100000000E-03 0. -1.
    9900012    2    1    2    0    0 -0.59467994856E+00  0.25516729016E+00 -0.98708571968E+00  0.90007706475E+02  0.89999967400E+02 0.  0.
        -12    1    1    2    0    0  0.59467994856E+00 -0.25516729016E+00  0.98708571968E+00  0.11802935250E+01  0.00000000000E+00 0.  1.
         11    1    3    3    0    0  0.52377544874E+00 -0.65504268116E+01 -0.51878012988E+01  0.83723183594E+01  0.51100000000E-03 0. -1.
        -11    1    3    3    0    0 -0.27093238363E+02  0.18290165391E+02  0.29175817890E+02  0.43815545926E+02  0.51100000000E-03 0.  1.
         12    1    3    3    0    0  0.25974782966E+02 -0.11484571289E+02 -0.24975102310E+02  0.37819842189E+02  0.00000000000E+00 0. -1.
</event>
<event>
 7    1  0.3861961E-015  0.9000751E+02  0.7816164E-02  0.1186340E+00
        -11   -1    0    0    0    0  0.00000000000E+00  0.00000000000E+00  0.45593999997E+02  0.45594000000E+02  0.51100000000E-03 0.  1.
         11   -1    0    0    0    0 -0.00000000000E+00 -0.00000000000E+00 -0.45593999997E+02  0.45594000000E+02  0.51100000000E-03 0. -1.
    9900012    2    1    2    0    0 -0.25149498272E+00 -0.66475609715E+00 -0.94255579775E+00  0.90007507803E+02  0.89999766106E+02 0.  0.
        -12    1    1    2    0    0  0.25149498272E+00  0.66475609715E+00  0.94255579775E+00  0.11804921969E+01  0.00000000000E+00 0.  1.
         11    1    3    3    0    0  0.22299299487E+02  0.11474364178E+02 -0.13729665728E+02  0.28590619303E+02  0.51100000000E-03 0. -1.
        -11    1    3    3    0    0  0.40773587429E+01  0.13902077937E+02 -0.10137285283E+02  0.17682114649E+02  0.51100000000E-03 0.  1.
        -12    1    3    3    0    0 -0.26628153213E+02 -0.26041198213E+02  0.22924395213E+02  0.43734773850E+02  0.00000000000E+00 0.  1.
</event>
<event>
 7    1  0.3861961E-015  0.9000774E+02  0.7816164E-02  0.1186339E+00
        -11   -1    0    0    0    0  0.00000000000E+00  0.00000000000E+00  0.45593999997E+02  0.45594000000E+02  0.51100000000E-03 0.  1.
         11   -1    0    0    0    0 -0.00000000000E+00 -0.00000000000E+00 -0.45593999997E+02  0.45594000000E+02  0.51100000000E-03 0. -1.
    9900012    2    1    2    0    0  0.53987154473E+00  0.99782401863E+00  0.32543324878E+00  0.90007736955E+02  0.89999998282E+02 0.  0.
        -12    1    1    2    0    0 -0.53987154473E+00 -0.99782401863E+00 -0.32543324878E+00  0.11802630454E+01  0.00000000000E+00 0.  1.
         11    1    3    3    0    0 -0.11944341548E+02  0.14044437448E+01 -0.44986071280E+01  0.12840452625E+02  0.51100000000E-03 0. -1.
        -11    1    3    3    0    0 -0.52277517689E+01 -0.35258394474E+02  0.11613015837E+02  0.37487943482E+02  0.51100000000E-03 0.  1.
         12    1    3    3    0    0  0.17711964862E+02  0.34851774748E+02 -0.67889754601E+01  0.39679340848E+02  0.00000000000E+00 0. -1.
</event>
<event>
 7    1  0.3861961E-015  0.9000774E+02  0.7816164E-02  0.1186339E+00
        -11   -1    0    0    0    0  0.00000000000E+00  0.00000000000E+00  0.45593999997E+02  0.45594000000E+02  0.51100000000E-03 0.  1.
         11   -1    0    0    0    0 -0.00000000000E+00 -0.00000000000E+00 -0.45593999997E+02  0.45594000000E+02  0.51100000000E-03 0. -1.
    9900012    2    1    2    0    0 -0.83891032793E+00  0.56936746473E+00 -0.60419568650E+00  0.90007744826E+02  0.90000006258E+02 0.  0.
        -12    1    1    2    0    0  0.83891032793E+00 -0.56936746473E+00  0.60419568650E+00  0.11802551740E+01  0.00000000000E+00 0.  1.
         11    1    3    3    0    0 -0.25311861948E+02  0.87286407493E+01 -0.29727689737E+02  0.40007687536E+02  0.51100000000E-03 0. -1.
        -11    1    3    3    0    0  0.41622885463E+01  0.10169091597E+02  0.14445418568E+01  0.11082498422E+02  0.51100000000E-03 0.  1.
        -12    1    3    3    0    0  0.20310663074E+02 -0.18328364881E+02  0.27678952194E+02  0.38917558868E+02  0.00000000000E+00 0.  1.
</event>
<event>
 7    1  0.3861961E-015  0.9000791E+02  0.7816164E-02  0.1186339E+00
        -11   -1    0    0    0    0  0.00000000000E+00  0.00000000000E+00  0.45593999997E+02  0.45594000000E+02  0.51100000000E-03 0. -1.
         11   -1    0    0    0    0 -0.00000000000E+00 -0.00000000000E+00 -0.45593999997E+02  0.45594000000E+02  0.51100000000E-03 0.  1.
    9900012    2    1    2    0    0  0.11126080546E+01  0.20927184702E+00  0.33303533406E+00  0.90007913595E+02  0.90000177254E+02 0.  0.
        -12    1    1    2    0    0 -0.11126080546E+01 -0.20927184702E+00 -0.33303533406E+00  0.11800864049E+01  0.00000000000E+00 0.  1.
         11    1    3    3    0    0  0.45787099889E+01 -0.55930753549E+01 -0.58554476201E+01  0.93023300405E+01  0.51100000000E-03 0. -1.
        -11    1    3    3    0    0 -0.24749725054E+02  0.31463052417E+02 -0.13185261605E+02  0.42146455148E+02  0.51100000000E-03 0.  1.
         12    1    3    3    0    0  0.21283623120E+02 -0.25660705215E+02  0.19373744559E+02  0.38559128407E+02  0.00000000000E+00 0. -1.
</event>
<event>
 7    1  0.3861961E-015  0.9000772E+02  0.7816164E-02  0.1186339E+00
        -11   -1    0    0    0    0  0.00000000000E+00  0.00000000000E+00  0.45593999997E+02  0.45594000000E+02  0.51100000000E-03 0. -1.
         11   -1    0    0    0    0 -0.00000000000E+00 -0.00000000000E+00 -0.45593999997E+02  0.45594000000E+02  0.51100000000E-03 0.  1.
    9900012    2    1    2    0    0 -0.47782814415E+00  0.89300134949E+00 -0.60603670453E+00  0.90007723917E+02  0.89999985072E+02 0.  0.
        -12    1    1    2    0    0  0.47782814415E+00 -0.89300134949E+00  0.60603670453E+00  0.11802760833E+01  0.00000000000E+00 0.  1.
         11    1    3    3    0    0  0.38313531760E+01  0.92080391780E+01  0.34118561094E+01  0.10540778673E+02  0.51100000000E-03 0. -1.
        -11    1    3    3    0    0 -0.67952007285E+01  0.33919019032E+02 -0.11599291713E+02  0.36485862653E+02  0.51100000000E-03 0.  1.
         12    1    3    3    0    0  0.24860194084E+01 -0.42234056860E+02  0.75813988995E+01  0.42981082591E+02  0.00000000000E+00 0. -1.
</event>
<event>
 7    1  0.3861961E-015  0.9000674E+02  0.7816164E-02  0.1186341E+00
        -11   -1    0    0    0    0  0.00000000000E+00  0.00000000000E+00  0.45593999997E+02  0.45594000000E+02  0.51100000000E-03 0.  1.
         11   -1    0    0    0    0 -0.00000000000E+00 -0.00000000000E+00 -0.45593999997E+02  0.45594000000E+02  0.51100000000E-03 0. -1.
    9900012    2    1    2    0    0  0.38945186932E+00  0.33280007125E+00 -0.10643954699E+01  0.90006743736E+02  0.89998991947E+02 0.  0.
        -12    1    1    2    0    0 -0.38945186932E+00 -0.33280007125E+00  0.10643954699E+01  0.11812562645E+01  0.00000000000E+00 0.  1.
         11    1    3    3    0    0  0.40000768612E+01  0.89731419969E+01  0.10012659896E+02  0.14027517622E+02  0.51100000000E-03 0. -1.
        -11    1    3    3    0    0 -0.90130455638E+01  0.23296050094E+02  0.19305420369E+02  0.31569608743E+02  0.51100000000E-03 0.  1.
         12    1    3    3    0    0  0.54024205719E+01 -0.31936392020E+02 -0.30382475734E+02  0.44409617371E+02  0.00000000000E+00 0. -1.
</event>
<event>
 7    1  0.3861961E-015  0.9000740E+02  0.7816164E-02  0.1186340E+00
        -11   -1    0    0    0    0  0.00000000000E+00  0.00000000000E+00  0.45593999997E+02  0.45594000000E+02  0.51100000000E-03 0. -1.
         11   -1    0    0    0    0 -0.00000000000E+00 -0.00000000000E+00 -0.45593999997E+02  0.45594000000E+02  0.51100000000E-03 0.  1.
    9900012    2    1    2    0    0 -0.11743509578E+01 -0.99269574206E-01 -0.69658200133E-01  0.90007404013E+02  0.89999660945E+02 0.  0.
        -12    1    1    2    0    0  0.11743509578E+01  0.99269574206E-01  0.69658200133E-01  0.11805959873E+01  0.00000000000E+00 0.  1.
         11    1    3    3    0    0  0.44349139418E+01 -0.53657581681E+01 -0.81350826089E+01  0.10706978645E+02  0.51100000000E-03 0. -1.
        -11    1    3    3    0    0  0.36083589727E+02  0.49463130306E+01 -0.17626880227E+01  0.36463660396E+02  0.51100000000E-03 0.  1.
         12    1    3    3    0    0 -0.41692854626E+02  0.32017556328E+00  0.98281124315E+01  0.42836764972E+02  0.00000000000E+00 0. -1.
</event>
<event>
 7    1  0.3861961E-015  0.9000768E+02  0.7816164E-02  0.1186339E+00
        -11   -1    0    0    0    0  0.00000000000E+00  0.00000000000E+00  0.45593999997E+02  0.45594000000E+02  0.51100000000E-03 0.  1.
         11   -1    0    0    0    0 -0.00000000000E+00 -0.00000000000E+00 -0.45593999997E+02  0.45594000000E+02  0.51100000000E-03 0. -1.
    9900012    2    1    2    0    0  0.56605412411E+00  0.52060144262E+00 -0.89537950542E+00  0.90007683266E+02  0.89999943885E+02 0.  0.
        -12    1    1    2    0    0 -0.56605412411E+00 -0.52060144262E+00  0.89537950542E+00  0.11803167338E+01  0.00000000000E+00 0.  1.
         11    1    3    3    0    0 -0.36525523966E+01  0.65863629350E+01  0.71597052319E+01  0.10391472224E+02  0.51100000000E-03 0. -1.
        -11    1    3    3    0    0  0.73062470437E+01  0.11925714361E+02  0.32369177555E+02  0.35261417509E+02  0.51100000000E-03 0.  1.
         12    1    3    3    0    0 -0.30876405230E+01 -0.17991475854E+02 -0.40424262293E+02  0.44354793532E+02  0.00000000000E+00 0. -1.
</event>
<event>
 7    1  0.3861961E-015  0.9000798E+02  0.7816164E-02  0.1186339E+00
        -11   -1    0    0    0    0  0.00000000000E+00  0.00000000000E+00  0.45593999997E+02  0.45594000000E+02  0.51100000000E-03 0.  1.
         11   -1    0    0    0    0 -0.00000000000E+00 -0.00000000000E+00 -0.45593999997E+02  0.45594000000E+02  0.51100000000E-03 0. -1.
    9900012    2    1    2    0    0  0.86648544019E+00 -0.59141056894E+00  0.54027255254E+00  0.90007975462E+02  0.90000239938E+02 0.  0.
        -12    1    1    2    0    0 -0.86648544019E+00  0.59141056894E+00 -0.54027255254E+00  0.11800245379E+01  0.00000000000E+00 0.  1.
         11    1    3    3    0    0 -0.12305109537E+02 -0.28340682490E+02 -0.18703390892E+02  0.36116849750E+02  0.51100000000E-03 0. -1.
        -11    1    3    3    0    0  0.30077237551E+01 -0.63674685882E+01 -0.67950536795E+01  0.97858986903E+01  0.51100000000E-03 0.  1.
        -12    1    3    3    0    0  0.10163871222E+02  0.34116740509E+02  0.26038717124E+02  0.44105227022E+02  0.00000000000E+00 0.  1.
</event>
<event>
 7    1  0.3861961E-015  0.9000778E+02  0.7816164E-02  0.1186339E+00
        -11   -1    0    0    0    0  0.00000000000E+00  0.00000000000E+00  0.45593999997E+02  0.45594000000E+02  0.51100000000E-03 0.  1.
         11   -1    0    0    0    0 -0.00000000000E+00 -0.00000000000E+00 -0.45593999997E+02  0.45594000000E+02  0.51100000000E-03 0. -1.
    9900012    2    1    2    0    0  0.21031160811E+00  0.73227326549E+00 -0.90136493290E+00  0.90007782287E+02  0.90000044213E+02 0.  0.
        -12    1    1    2    0    0 -0.21031160811E+00 -0.73227326549E+00  0.90136493290E+00  0.11802177130E+01  0.00000000000E+00 0.  1.
         11    1    3    3    0    0  0.23428340998E+02 -0.21577110205E+02  0.20952555716E+02  0.38124381149E+02  0.51100000000E-03 0. -1.
        -11    1    3    3    0    0 -0.78341031764E+01 -0.89690356102E+01 -0.81444789128E+01  0.14427380545E+02  0.51100000000E-03 0.  1.
        -12    1    3    3    0    0 -0.15383926214E+02  0.31278419081E+02 -0.13709441736E+02  0.37456020593E+02  0.00000000000E+00 0.  1.
</event>
<event>
 7    1  0.5132907E-015  0.9000766E+02  0.7816164E-02  0.1186339E+00
        -11   -1    0    0    0    0  0.00000000000E+00  0.00000000000E+00  0.45593999997E+02  0.45594000000E+02  0.51100000000E-03 0.  1.
         11   -1    0    0    0    0 -0.00000000000E+00 -0.00000000000E+00 -0.45593999997E+02  0.45594000000E+02  0.51100000000E-03 0. -1.
    9900012    2    1    2    0    0  0.64210647292E+00 -0.97927320890E+00  0.14805998812E+00  0.90007661701E+02  0.89999922035E+02 0.  0.
        -12    1    1    2    0    0 -0.64210647292E+00  0.97927320890E+00 -0.14805998812E+00  0.11803382991E+01  0.00000000000E+00 0.  1.
         11    1    3    3    0    0 -0.95345767527E+01 -0.14734531581E+01 -0.67709971990E+00  0.96714881148E+01  0.51100000000E-03 0. -1.
        -11    1    3    3    0    0 -0.32144686776E+02  0.10040230865E+02  0.11627317817E+02  0.35626979154E+02  0.51100000000E-03 0.  1.
         12    1    3    3    0    0  0.42321370002E+02 -0.95460509161E+01 -0.10802158109E+02  0.44709194432E+02  0.00000000000E+00 0. -1.
</event>
<event>
 7    1  0.3861961E-015  0.9000770E+02  0.7816164E-02  0.1186339E+00
        -11   -1    0    0    0    0  0.00000000000E+00  0.00000000000E+00  0.45593999997E+02  0.45594000000E+02  0.51100000000E-03 0.  1.
         11   -1    0    0    0    0 -0.00000000000E+00 -0.00000000000E+00 -0.45593999997E+02  0.45594000000E+02  0.51100000000E-03 0. -1.
    9900012    2    1    2    0    0 -0.10179513599E+01  0.97175011576E-01 -0.58944091368E+00  0.90007699807E+02  0.89999960645E+02 0.  0.
        -12    1    1    2    0    0  0.10179513599E+01 -0.97175011576E-01  0.58944091368E+00  0.11803001927E+01  0.00000000000E+00 0.  1.
         11    1    3    3    0    0 -0.45749700802E+01  0.79182625937E+01  0.60017455311E+01  0.10938472627E+02  0.51100000000E-03 0. -1.
        -11    1    3    3    0    0 -0.25757466466E+02  0.22594963198E+02 -0.12380057812E+02  0.36431377580E+02  0.51100000000E-03 0.  1.
         12    1    3    3    0    0  0.29314485186E+02 -0.30416050780E+02  0.57888713675E+01  0.42637849600E+02  0.00000000000E+00 0. -1.
</event>
<event>
 7    1  0.3861961E-015  0.9000769E+02  0.7816164E-02  0.1186339E+00
        -11   -1    0    0    0    0  0.00000000000E+00  0.00000000000E+00  0.45593999997E+02  0.45594000000E+02  0.51100000000E-03 0.  1.
         11   -1    0    0    0    0 -0.00000000000E+00 -0.00000000000E+00 -0.45593999997E+02  0.45594000000E+02  0.51100000000E-03 0. -1.
    9900012    2    1    2    0    0 -0.92000179365E+00  0.74262210687E-01 -0.73567545892E+00  0.90007687941E+02  0.89999948622E+02 0.  0.
        -12    1    1    2    0    0  0.92000179365E+00 -0.74262210687E-01  0.73567545892E+00  0.11803120592E+01  0.00000000000E+00 0.  1.
         11    1    3    3    0    0  0.67966481630E+01 -0.26255218359E+02 -0.24649243129E+02  0.36648548463E+02  0.51100000000E-03 0. -1.
        -11    1    3    3    0    0 -0.47725198088E+01 -0.67727649434E+01 -0.46822252429E+01  0.95168547215E+01  0.51100000000E-03 0.  1.
        -12    1    3    3    0    0 -0.29441301479E+01  0.33102245513E+02  0.28595792913E+02  0.43842284756E+02  0.00000000000E+00 0.  1.
</event>
<event>
 7    1  0.3861961E-015  0.9000737E+02  0.7816164E-02  0.1186340E+00
        -11   -1    0    0    0    0  0.00000000000E+00  0.00000000000E+00  0.45593999997E+02  0.45594000000E+02  0.51100000000E-03 0.  1.
         11   -1    0    0    0    0 -0.00000000000E+00 -0.00000000000E+00 -0.45593999997E+02  0.45594000000E+02  0.51100000000E-03 0. -1.
    9900012    2    1    2    0    0 -0.80432115276E+00 -0.62090592973E+00 -0.60118616518E+00  0.90007372415E+02  0.89999628930E+02 0.  0.
        -12    1    1    2    0    0  0.80432115276E+00  0.62090592973E+00  0.60118616518E+00  0.11806275855E+01  0.00000000000E+00 0.  1.
         11    1    3    3    0    0  0.11875886616E+01 -0.84144065934E+01  0.56292937471E+01  0.10193211148E+02  0.51100000000E-03 0. -1.
        -11    1    3    3    0    0  0.11076070695E+02 -0.88604105332E+01  0.32620183544E+02  0.35570529818E+02  0.51100000000E-03 0.  1.
         12    1    3    3    0    0 -0.13067980509E+02  0.16653911197E+02 -0.38850663456E+02  0.44243631448E+02  0.00000000000E+00 0. -1.
</event>
<event>
 7    1  0.3861961E-015  0.9000778E+02  0.7816164E-02  0.1186339E+00
        -11   -1    0    0    0    0  0.00000000000E+00  0.00000000000E+00  0.45593999997E+02  0.45594000000E+02  0.51100000000E-03 0. -1.
         11   -1    0    0    0    0 -0.00000000000E+00 -0.00000000000E+00 -0.45593999997E+02  0.45594000000E+02  0.51100000000E-03 0.  1.
    9900012    2    1    2    0    0 -0.55171938261E+00  0.22592552120E+00  0.10185720543E+01  0.90007777289E+02  0.90000039149E+02 0.  0.
        -12    1    1    2    0    0  0.55171938261E+00 -0.22592552120E+00 -0.10185720543E+01  0.11802227112E+01  0.00000000000E+00 0.  1.
         11    1    3    3    0    0 -0.58256830432E+01 -0.81230134255E+01  0.35249431946E+02  0.36639382948E+02  0.51100000000E-03 0. -1.
        -11    1    3    3    0    0 -0.26388945410E+01 -0.11318944852E+02  0.16035061427E+01  0.11732583227E+02  0.51100000000E-03 0.  1.
        -12    1    3    3    0    0  0.79128582016E+01  0.19667883798E+02 -0.35834366035E+02  0.41635811114E+02  0.00000000000E+00 0.  1.
</event>
<event>
 7    1  0.3861961E-015  0.9000767E+02  0.7816164E-02  0.1186339E+00
        -11   -1    0    0    0    0  0.00000000000E+00  0.00000000000E+00  0.45593999997E+02  0.45594000000E+02  0.51100000000E-03 0.  1.
         11   -1    0    0    0    0 -0.00000000000E+00 -0.00000000000E+00 -0.45593999997E+02  0.45594000000E+02  0.51100000000E-03 0. -1.
    9900012    2    1    2    0    0 -0.14523666690E+00 -0.39695966355E+00 -0.11020456410E+01  0.90007671546E+02  0.89999932011E+02 0.  0.
        -12    1    1    2    0    0  0.14523666690E+00  0.39695966355E+00  0.11020456410E+01  0.11803284538E+01  0.00000000000E+00 0.  1.
         11    1    3    3    0    0 -0.47174501879E+01  0.25559639878E+01 -0.31766468318E+01  0.62352524839E+01  0.51100000000E-03 0. -1.
        -11    1    3    3    0    0 -0.16422184748E+02 -0.32872708912E+02  0.21300392703E+02  0.42473637385E+02  0.51100000000E-03 0.  1.
         12    1    3    3    0    0  0.20994398269E+02  0.29919785261E+02 -0.19225791513E+02  0.41298781677E+02  0.00000000000E+00 0. -1.
</event>
<event>
 7    1  0.3861961E-015  0.9000817E+02  0.7816164E-02  0.1186338E+00
        -11   -1    0    0    0    0  0.00000000000E+00  0.00000000000E+00  0.45593999997E+02  0.45594000000E+02  0.51100000000E-03 0.  1.
         11   -1    0    0    0    0 -0.00000000000E+00 -0.00000000000E+00 -0.45593999997E+02  0.45594000000E+02  0.51100000000E-03 0. -1.
    9900012    2    1    2    0    0  0.10037103934E+01  0.26011122958E-01 -0.61959506767E+00  0.90008165613E+02  0.90000432598E+02 0.  0.
        -12    1    1    2    0    0 -0.10037103934E+01 -0.26011122958E-01  0.61959506767E+00  0.11798343867E+01  0.00000000000E+00 0.  1.
         11    1    3    3    0    0  0.27836775754E+02  0.26119463805E+02 -0.18660740036E+02  0.42489242083E+02  0.51100000000E-03 0. -1.
        -11    1    3    3    0    0 -0.85072671496E+01  0.11461059680E+01 -0.23138593072E+01  0.88905060822E+01  0.51100000000E-03 0.  1.
        -12    1    3    3    0    0 -0.18325798211E+02 -0.27239558650E+02  0.20355004275E+02  0.38628417448E+02  0.00000000000E+00 0.  1.
</event>
<event>
 7    1  0.3861961E-015  0.9000773E+02  0.7816164E-02  0.1186339E+00
        -11   -1    0    0    0    0  0.00000000000E+00  0.00000000000E+00  0.45593999997E+02  0.45594000000E+02  0.51100000000E-03 0.  1.
         11   -1    0    0    0    0 -0.00000000000E+00 -0.00000000000E+00 -0.45593999997E+02  0.45594000000E+02  0.51100000000E-03 0. -1.
    9900012    2    1    2    0    0  0.12851189562E+00  0.10055334499E+00 -0.11689317963E+01  0.90007734002E+02  0.89999995291E+02 0.  0.
        -12    1    1    2    0    0 -0.12851189562E+00 -0.10055334499E+00  0.11689317963E+01  0.11802659983E+01  0.00000000000E+00 0.  1.
         11    1    3    3    0    0  0.19721620755E+02  0.21888082059E+02 -0.25991974373E+02  0.39288843117E+02  0.51100000000E-03 0. -1.
        -11    1    3    3    0    0  0.79333718117E+01 -0.58998367671E+01 -0.76470472732E+00  0.99162107562E+01  0.51100000000E-03 0.  1.
        -12    1    3    3    0    0 -0.27526480671E+02 -0.15887691947E+02  0.25587747304E+02  0.40802680128E+02  0.00000000000E+00 0.  1.
</event>
<event>
 7    1  0.3861961E-015  0.9000787E+02  0.7816164E-02  0.1186339E+00
        -11   -1    0    0    0    0  0.00000000000E+00  0.00000000000E+00  0.45593999997E+02  0.45594000000E+02  0.51100000000E-03 0. -1.
         11   -1    0    0    0    0 -0.00000000000E+00 -0.00000000000E+00 -0.45593999997E+02  0.45594000000E+02  0.51100000000E-03 0.  1.
    9900012    2    1    2    0    0  0.14282049780E+00  0.71083808982E+00  0.93113983600E+00  0.90007868703E+02  0.90000131770E+02 0.  0.
        -12    1    1    2    0    0 -0.14282049780E+00 -0.71083808982E+00 -0.93113983600E+00  0.11801312972E+01  0.00000000000E+00 0.  1.
         11    1    3    3    0    0 -0.18115475532E+01 -0.75637337537E+01 -0.37017776135E+01  0.86136479261E+01  0.51100000000E-03 0. -1.
        -11    1    3    3    0    0  0.33178298817E+02 -0.19171876499E+02 -0.52127199649E+01  0.38672119293E+02  0.51100000000E-03 0.  1.
         12    1    3    3    0    0 -0.31223930766E+02  0.27446448343E+02  0.98456374143E+01  0.42722101484E+02  0.00000000000E+00 0. -1.
</event>
<event>
 7    1  0.3861961E-015  0.9000782E+02  0.7816164E-02  0.1186339E+00
        -11   -1    0    0    0    0  0.00000000000E+00  0.00000000000E+00  0.45593999997E+02  0.45594000000E+02  0.51100000000E-03 0.  1.
         11   -1    0    0    0    0 -0.00000000000E+00 -0.00000000000E+00 -0.45593999997E+02  0.45594000000E+02  0.51100000000E-03 0. -1.
    9900012    2    1    2    0    0  0.38595368554E+00  0.36158738513E+00 -0.10550481829E+01  0.90007816814E+02  0.90000079196E+02 0.  0.
        -12    1    1    2    0    0 -0.38595368554E+00 -0.36158738513E+00  0.10550481829E+01  0.11801831861E+01  0.00000000000E+00 0.  1.
         11    1    3    3    0    0 -0.79362973783E+01 -0.84199795063E+01 -0.61446107671E+01  0.13101034795E+02  0.51100000000E-03 0. -1.
        -11    1    3    3    0    0 -0.32635722211E+02 -0.18356076705E+01 -0.58431992505E+01  0.33205463368E+02  0.51100000000E-03 0.  1.
         12    1    3    3    0    0  0.40957973275E+02  0.10617174562E+02  0.10932761835E+02  0.43701318651E+02  0.00000000000E+00 0. -1.
</event>
<event>
 7    1  0.3861961E-015  0.9000767E+02  0.7816164E-02  0.1186339E+00
        -11   -1    0    0    0    0  0.00000000000E+00  0.00000000000E+00  0.45593999997E+02  0.45594000000E+02  0.51100000000E-03 0.  1.
         11   -1    0    0    0    0 -0.00000000000E+00 -0.00000000000E+00 -0.45593999997E+02  0.45594000000E+02  0.51100000000E-03 0. -1.
    9900012    2    1    2    0    0 -0.10967602336E+01  0.35741906127E+00  0.25011554085E+00  0.90007665649E+02  0.89999926036E+02 0.  0.
        -12    1    1    2    0    0  0.10967602336E+01 -0.35741906127E+00 -0.25011554085E+00  0.11803343506E+01  0.00000000000E+00 0.  1.
         11    1    3    3    0    0  0.20584753088E+02  0.16839758159E+02 -0.22044591062E+02  0.34543791192E+02  0.51100000000E-03 0. -1.
        -11    1    3    3    0    0  0.31297493694E+01  0.10134815491E+02 -0.31468871478E+01  0.11064027979E+02  0.51100000000E-03 0.  1.
        -12    1    3    3    0    0 -0.24811262691E+02 -0.26617154589E+02  0.25441593751E+02  0.44399846478E+02  0.00000000000E+00 0.  1.
</event>
<event>
 7    1  0.3861961E-015  0.9000775E+02  0.7816164E-02  0.1186339E+00
        -11   -1    0    0    0    0  0.00000000000E+00  0.00000000000E+00  0.45593999997E+02  0.45594000000E+02  0.51100000000E-03 0.  1.
         11   -1    0    0    0    0 -0.00000000000E+00 -0.00000000000E+00 -0.45593999997E+02  0.45594000000E+02  0.51100000000E-03 0. -1.
    9900012    2    1    2    0    0 -0.31927996405E+00 -0.92582275508E+00 -0.65870956435E+00  0.90007751823E+02  0.90000013347E+02 0.  0.
        -12    1    1    2    0    0  0.31927996405E+00  0.92582275508E+00  0.65870956435E+00  0.11802481770E+01  0.00000000000E+00 0.  1.
         11    1    3    3    0    0 -0.88474672443E+01  0.64796256045E+01 -0.16163682929E+01  0.11084938941E+02  0.51100000000E-03 0. -1.
        -11    1    3    3    0    0  0.19604164460E+02 -0.24082699248E+02  0.30309669824E+02  0.43393268514E+02  0.51100000000E-03 0.  1.
         12    1    3    3    0    0 -0.11075977179E+02  0.16677250888E+02 -0.29352011095E+02  0.35529544368E+02  0.00000000000E+00 0. -1.
</event>
<event>
 7    1  0.3861961E-015  0.9000782E+02  0.7816164E-02  0.1186339E+00
        -11   -1    0    0    0    0  0.00000000000E+00  0.00000000000E+00  0.45593999997E+02  0.45594000000E+02  0.51100000000E-03 0. -1.
         11   -1    0    0    0    0 -0.00000000000E+00 -0.00000000000E+00 -0.45593999997E+02  0.45594000000E+02  0.51100000000E-03 0.  1.
    9900012    2    1    2    0    0 -0.30029289397E-01 -0.52392422326E+00  0.10570821078E+01  0.90007821652E+02  0.90000084098E+02 0.  0.
        -12    1    1    2    0    0  0.30029289397E-01  0.52392422326E+00 -0.10570821078E+01  0.11801783478E+01  0.00000000000E+00 0.  1.
         11    1    3    3    0    0 -0.73471119845E+01 -0.29218295112E+02  0.28925145671E+02  0.41765450747E+02  0.51100000000E-03 0. -1.
        -11    1    3    3    0    0  0.25349953732E+01  0.86235061468E+01  0.43486062777E+01  0.99850606721E+01  0.51100000000E-03 0.  1.
        -12    1    3    3    0    0  0.47820873219E+01  0.20070864742E+02 -0.32216669841E+02  0.38257310233E+02  0.00000000000E+00 0.  1.
</event>
<event>
 7    1  0.3861961E-015  0.9000774E+02  0.7816164E-02  0.1186339E+00
        -11   -1    0    0    0    0  0.00000000000E+00  0.00000000000E+00  0.45593999997E+02  0.45594000000E+02  0.51100000000E-03 0.  1.
         11   -1    0    0    0    0 -0.00000000000E+00 -0.00000000000E+00 -0.45593999997E+02  0.45594000000E+02  0.51100000000E-03 0. -1.
    9900012    2    1    2    0    0  0.93015624226E+00  0.91646537240E-01 -0.72071021118E+00  0.90007740312E+02  0.90000001684E+02 0.  0.
        -12    1    1    2    0    0 -0.93015624226E+00 -0.91646537240E-01  0.72071021118E+00  0.11802596881E+01  0.00000000000E+00 0.  1.
         11    1    3    3    0    0  0.16681249806E+02 -0.32784728408E+02 -0.12575909439E+02  0.38874876339E+02  0.51100000000E-03 0. -1.
        -11    1    3    3    0    0  0.86995831985E+01  0.51238514876E-01  0.33839401086E+01  0.93346892896E+01  0.51100000000E-03 0.  1.
        -12    1    3    3    0    0 -0.24450676762E+02  0.32825136430E+02  0.84712591193E+01  0.41798174683E+02  0.00000000000E+00 0.  1.
</event>
<event>
 7    1  0.3861961E-015  0.9000775E+02  0.7816164E-02  0.1186339E+00
        -11   -1    0    0    0    0  0.00000000000E+00  0.00000000000E+00  0.45593999997E+02  0.45594000000E+02  0.51100000000E-03 0. -1.
         11   -1    0    0    0    0 -0.00000000000E+00 -0.00000000000E+00 -0.45593999997E+02  0.45594000000E+02  0.51100000000E-03 0.  1.
    9900012    2    1    2    0    0  0.98951656849E-01 -0.14077693172E+00  0.11676380416E+01  0.90007750801E+02  0.90000012312E+02 0.  0.
        -12    1    1    2    0    0 -0.98951656849E-01  0.14077693172E+00 -0.11676380416E+01  0.11802491987E+01  0.00000000000E+00 0.  1.
         11    1    3    3    0    0  0.22612561266E+02 -0.21805544731E+02 -0.19488039652E+02  0.36967464043E+02  0.51100000000E-03 0. -1.
        -11    1    3    3    0    0  0.93000961049E+01 -0.15717065141E+01  0.33262889706E+01  0.10001312289E+02  0.51100000000E-03 0.  1.
        -12    1    3    3    0    0 -0.31813705714E+02  0.23236474314E+02  0.17329388723E+02  0.43038974469E+02  0.00000000000E+00 0.  1.
</event>
<event>
 7    1  0.3861961E-015  0.9000779E+02  0.7816164E-02  0.1186339E+00
        -11   -1    0    0    0    0  0.00000000000E+00  0.00000000000E+00  0.45593999997E+02  0.45594000000E+02  0.51100000000E-03 0. -1.
         11   -1    0    0    0    0 -0.00000000000E+00 -0.00000000000E+00 -0.45593999997E+02  0.45594000000E+02  0.51100000000E-03 0.  1.
    9900012    2    1    2    0    0  0.68703603745E+00 -0.55128892631E+00  0.78547020318E+00  0.90007787546E+02  0.90000049541E+02 0.  0.
        -12    1    1    2    0    0 -0.68703603745E+00  0.55128892631E+00 -0.78547020318E+00  0.11802124542E+01  0.00000000000E+00 0.  1.
         11    1    3    3    0    0  0.26859294436E+02 -0.24519743245E+02 -0.22701747339E+02  0.42872005306E+02  0.51100000000E-03 0. -1.
        -11    1    3    3    0    0 -0.75514487213E+00  0.88672023771E+00  0.10285962538E+02  0.10351692719E+02  0.51100000000E-03 0.  1.
        -12    1    3    3    0    0 -0.25417113526E+02  0.23081734081E+02  0.13201255005E+02  0.36784089521E+02  0.00000000000E+00 0.  1.
</event>
<event>
 7    1  0.3861961E-015  0.9000774E+02  0.7816164E-02  0.1186339E+00
        -11   -1    0    0    0    0  0.00000000000E+00  0.00000000000E+00  0.45593999997E+02  0.45594000000E+02  0.51100000000E-03 0. -1.
         11   -1    0    0    0    0 -0.00000000000E+00 -0.00000000000E+00 -0.45593999997E+02  0.45594000000E+02  0.51100000000E-03 0.  1.
    9900012    2    1    2    0    0 -0.69102314974E+00  0.78770005954E+00  0.54316681140E+00  0.90007739621E+02  0.90000000984E+02 0.  0.
        -12    1    1    2    0    0  0.69102314974E+00 -0.78770005954E+00 -0.54316681140E+00  0.11802603790E+01  0.00000000000E+00 0.  1.
         11    1    3    3    0    0  0.86270003432E+01  0.28935364300E+01 -0.22129508844E+01  0.93645523049E+01  0.51100000000E-03 0. -1.
        -11    1    3    3    0    0  0.16788027799E+02  0.32724456052E+02  0.46612706404E+01  0.37073647589E+02  0.51100000000E-03 0.  1.
         12    1    3    3    0    0 -0.26106051292E+02 -0.34830292423E+02 -0.19051529446E+01  0.43569539727E+02  0.00000000000E+00 0. -1.
</event>
<event>
 7    1  0.3861961E-015  0.9000774E+02  0.7816164E-02  0.1186339E+00
        -11   -1    0    0    0    0  0.00000000000E+00  0.00000000000E+00  0.45593999997E+02  0.45594000000E+02  0.51100000000E-03 0.  1.
         11   -1    0    0    0    0 -0.00000000000E+00 -0.00000000000E+00 -0.45593999997E+02  0.45594000000E+02  0.51100000000E-03 0. -1.
    9900012    2    1    2    0    0 -0.37330327530E-01 -0.69937698993E+00 -0.95000159004E+00  0.90007735306E+02  0.89999996612E+02 0.  0.
        -12    1    1    2    0    0  0.37330327530E-01  0.69937698993E+00  0.95000159004E+00  0.11802646942E+01  0.00000000000E+00 0.  1.
         11    1    3    3    0    0 -0.37753806763E+02  0.13739383764E+02 -0.16149115464E+02  0.43300283162E+02  0.51100000000E-03 0. -1.
        -11    1    3    3    0    0  0.71696614676E+01  0.39920687721E+01  0.49690470300E+01  0.95933355664E+01  0.51100000000E-03 0.  1.
        -12    1    3    3    0    0  0.30546814968E+02 -0.18430829526E+02  0.10230066844E+02  0.37114116578E+02  0.00000000000E+00 0.  1.
</event>
<event>
 7    1  0.3861961E-015  0.9000775E+02  0.7816164E-02  0.1186339E+00
        -11   -1    0    0    0    0  0.00000000000E+00  0.00000000000E+00  0.45593999997E+02  0.45594000000E+02  0.51100000000E-03 0. -1.
         11   -1    0    0    0    0 -0.00000000000E+00 -0.00000000000E+00 -0.45593999997E+02  0.45594000000E+02  0.51100000000E-03 0.  1.
    9900012    2    1    2    0    0  0.26477806533E+00  0.96415337279E+00  0.62712932572E+00  0.90007749882E+02  0.90000011380E+02 0.  0.
        -12    1    1    2    0    0 -0.26477806533E+00 -0.96415337279E+00 -0.62712932572E+00  0.11802501181E+01  0.00000000000E+00 0.  1.
         11    1    3    3    0    0  0.11609758310E+02 -0.76585821767E+00 -0.63796812359E+01  0.13269263724E+02  0.51100000000E-03 0. -1.
        -11    1    3    3    0    0 -0.83784736844E+01 -0.34168929477E+02 -0.10463447873E+02  0.36704200094E+02  0.51100000000E-03 0.  1.
         12    1    3    3    0    0 -0.29665065606E+01  0.35898941067E+02  0.17470258435E+02  0.40034286064E+02  0.00000000000E+00 0. -1.
</event>
<event>
 7    1  0.3861961E-015  0.9000770E+02  0.7816164E-02  0.1186339E+00
        -11   -1    0    0    0    0  0.00000000000E+00  0.00000000000E+00  0.45593999997E+02  0.45594000000E+02  0.51100000000E-03 0. -1.
         11   -1    0    0    0    0 -0.00000000000E+00 -0.00000000000E+00 -0.45593999997E+02  0.45594000000E+02  0.51100000000E-03 0.  1.
    9900012    2    1    2    0    0  0.76448671048E+00 -0.84926783187E+00  0.29567152568E+00  0.90007696043E+02  0.89999956830E+02 0.  0.
        -12    1    1    2    0    0 -0.76448671048E+00  0.84926783187E+00 -0.29567152568E+00  0.11803039574E+01  0.00000000000E+00 0.  1.
         11    1    3    3    0    0 -0.20079297590E+00 -0.91044825964E+01 -0.42053521278E+01  0.10030797972E+02  0.51100000000E-03 0. -1.
        -11    1    3    3    0    0 -0.37676835636E+02 -0.50667580802E+01 -0.40075388996E+01  0.38226644494E+02  0.51100000000E-03 0.  1.
         12    1    3    3    0    0  0.38642115322E+02  0.13321972845E+02  0.85085625530E+01  0.41750253577E+02  0.00000000000E+00 0. -1.
</event>
<event>
 7    1  0.3861961E-015  0.9000785E+02  0.7816164E-02  0.1186339E+00
        -11   -1    0    0    0    0  0.00000000000E+00  0.00000000000E+00  0.45593999997E+02  0.45594000000E+02  0.51100000000E-03 0.  1.
         11   -1    0    0    0    0 -0.00000000000E+00 -0.00000000000E+00 -0.45593999997E+02  0.45594000000E+02  0.51100000000E-03 0. -1.
    9900012    2    1    2    0    0 -0.46546522636E+00  0.89819740825E+00 -0.60773894800E+00  0.90007846158E+02  0.90000108928E+02 0.  0.
        -12    1    1    2    0    0  0.46546522636E+00 -0.89819740825E+00  0.60773894800E+00  0.11801538417E+01  0.00000000000E+00 0.  1.
         11    1    3    3    0    0 -0.18361044024E+02 -0.12176225020E+02 -0.28986290053E+02  0.36408699575E+02  0.51100000000E-03 0. -1.
        -11    1    3    3    0    0 -0.41971630726E+01 -0.10657194131E+02  0.16361605815E+01  0.11570176589E+02  0.51100000000E-03 0.  1.
        -12    1    3    3    0    0  0.22092741870E+02  0.23731616559E+02  0.26742390524E+02  0.42028969994E+02  0.00000000000E+00 0.  1.
</event>
<event>
 7    1  0.3861961E-015  0.9000776E+02  0.7816164E-02  0.1186339E+00
        -11   -1    0    0    0    0  0.00000000000E+00  0.00000000000E+00  0.45593999997E+02  0.45594000000E+02  0.51100000000E-03 0.  1.
         11   -1    0    0    0    0 -0.00000000000E+00 -0.00000000000E+00 -0.45593999997E+02  0.45594000000E+02  0.51100000000E-03 0. -1.
    9900012    2    1    2    0    0  0.28886244057E-01  0.65034765933E+00 -0.98447133770E+00  0.90007758369E+02  0.90000019979E+02 0.  0.
        -12    1    1    2    0    0 -0.28886244057E-01 -0.65034765933E+00  0.98447133770E+00  0.11802416311E+01  0.00000000000E+00 0.  1.
         11    1    3    3    0    0  0.36113929875E+02  0.87492717744E+01 -0.56854355833E+01  0.37591087582E+02  0.51100000000E-03 0. -1.
        -11    1    3    3    0    0  0.69122164273E+01 -0.60064354943E+01  0.83319326199E+00  0.91951190617E+01  0.51100000000E-03 0.  1.
        -12    1    3    3    0    0 -0.42997260058E+02 -0.20924886207E+01  0.38677709837E+01  0.43221551725E+02  0.00000000000E+00 0.  1.
</event>
<event>
 7    1  0.3861961E-015  0.9000768E+02  0.7816164E-02  0.1186339E+00
        -11   -1    0    0    0    0  0.00000000000E+00  0.00000000000E+00  0.45593999997E+02  0.45594000000E+02  0.51100000000E-03 0.  1.
         11   -1    0    0    0    0 -0.00000000000E+00 -0.00000000000E+00 -0.45593999997E+02  0.45594000000E+02  0.51100000000E-03 0. -1.
    9900012    2    1    2    0    0 -0.56106418096E+00 -0.27399402799E+00 -0.10016375687E+01  0.90007684974E+02  0.89999945615E+02 0.  0.
        -12    1    1    2    0    0  0.56106418096E+00  0.27399402799E+00  0.10016375687E+01  0.11803150264E+01  0.00000000000E+00 0.  1.
         11    1    3    3    0    0 -0.47644002506E+01 -0.11435628884E+02 -0.36531000978E+00  0.12393811738E+02  0.51100000000E-03 0. -1.
        -11    1    3    3    0    0  0.36493021735E+01 -0.70676286823E+01  0.35904284510E+02  0.36774806974E+02  0.51100000000E-03 0.  1.
         12    1    3    3    0    0  0.55403389606E+00  0.18229263538E+02 -0.36540612069E+02  0.40839066262E+02  0.00000000000E+00 0. -1.
</event>
<event>
 7    1  0.3861961E-015  0.9000791E+02  0.7816164E-02  0.1186339E+00
        -11   -1    0    0    0    0  0.00000000000E+00  0.00000000000E+00  0.45593999997E+02  0.45594000000E+02  0.51100000000E-03 0.  1.
         11   -1    0    0    0    0 -0.00000000000E+00 -0.00000000000E+00 -0.45593999997E+02  0.45594000000E+02  0.51100000000E-03 0. -1.
    9900012    2    1    2    0    0 -0.79728744089E+00  0.31814199100E-01 -0.86943846639E+00  0.90007914133E+02  0.90000177799E+02 0.  0.
        -12    1    1    2    0    0  0.79728744089E+00 -0.31814199100E-01  0.86943846639E+00  0.11800858670E+01  0.00000000000E+00 0.  1.
         11    1    3    3    0    0  0.62961466244E+01 -0.58485476963E+01 -0.52139196243E+00  0.86092289034E+01  0.51100000000E-03 0. -1.
        -11    1    3    3    0    0  0.33974770833E+02  0.55248411212E+01  0.15009838351E+02  0.37551353773E+02  0.51100000000E-03 0.  1.
         12    1    3    3    0    0 -0.41068204899E+02  0.35552077421E+00 -0.15357884855E+02  0.43847331456E+02  0.00000000000E+00 0. -1.
</event>
<event>
 7    1  0.3861961E-015  0.9000786E+02  0.7816164E-02  0.1186339E+00
        -11   -1    0    0    0    0  0.00000000000E+00  0.00000000000E+00  0.45593999997E+02  0.45594000000E+02  0.51100000000E-03 0. -1.
         11   -1    0    0    0    0 -0.00000000000E+00 -0.00000000000E+00 -0.45593999997E+02  0.45594000000E+02  0.51100000000E-03 0.  1.
    9900012    2    1    2    0    0 -0.11101375831E+01  0.63322486730E-01 -0.39538124862E+00  0.90007855296E+02  0.90000118186E+02 0.  0.
        -12    1    1    2    0    0  0.11101375831E+01 -0.63322486730E-01  0.39538124862E+00  0.11801447040E+01  0.00000000000E+00 0.  1.
         11    1    3    3    0    0 -0.64842040650E+01 -0.72163722227E+01  0.13841790793E+02  0.16903138852E+02  0.51100000000E-03 0. -1.
        -11    1    3    3    0    0  0.21375780738E+02 -0.25735994429E+02 -0.14380913609E+02  0.36415327650E+02  0.51100000000E-03 0.  1.
        -12    1    3    3    0    0 -0.16001714256E+02  0.33015689139E+02  0.14374156664E+00  0.36689388794E+02  0.00000000000E+00 0.  1.
</event>
<event>
 7    1  0.3861961E-015  0.9000776E+02  0.7816164E-02  0.1186339E+00
        -11   -1    0    0    0    0  0.00000000000E+00  0.00000000000E+00  0.45593999997E+02  0.45594000000E+02  0.51100000000E-03 0.  1.
         11   -1    0    0    0    0 -0.00000000000E+00 -0.00000000000E+00 -0.45593999997E+02  0.45594000000E+02  0.51100000000E-03 0. -1.
    9900012    2    1    2    0    0 -0.69891191437E+00  0.35656779848E+00 -0.88167619609E+00  0.90007757917E+02  0.90000019522E+02 0.  0.
        -12    1    1    2    0    0  0.69891191437E+00 -0.35656779848E+00  0.88167619609E+00  0.11802420827E+01  0.00000000000E+00 0.  1.
         11    1    3    3    0    0  0.66511508839E+01 -0.31204042705E+01 -0.42169341142E+02  0.42804533212E+02  0.51100000000E-03 0. -1.
        -11    1    3    3    0    0 -0.26403886385E+01  0.91917370003E+01  0.63271738092E+01  0.11467031434E+02  0.51100000000E-03 0.  1.
        -12    1    3    3    0    0 -0.47096741598E+01 -0.57147649313E+01  0.34960491137E+02  0.35736193270E+02  0.00000000000E+00 0.  1.
</event>
<event>
 7    1  0.3861961E-015  0.9000775E+02  0.7816164E-02  0.1186339E+00
        -11   -1    0    0    0    0  0.00000000000E+00  0.00000000000E+00  0.45593999997E+02  0.45594000000E+02  0.51100000000E-03 0.  1.
         11   -1    0    0    0    0 -0.00000000000E+00 -0.00000000000E+00 -0.45593999997E+02  0.45594000000E+02  0.51100000000E-03 0. -1.
    9900012    2    1    2    0    0 -0.10510704028E+01 -0.52343037461E+00 -0.11938627726E+00  0.90007753656E+02  0.90000015205E+02 0.  0.
        -12    1    1    2    0    0  0.10510704028E+01  0.52343037461E+00  0.11938627726E+00  0.11802463437E+01  0.00000000000E+00 0.  1.
         11    1    3    3    0    0 -0.11229967657E+02 -0.68797288726E+00 -0.60435901809E+01  0.12771470659E+02  0.51100000000E-03 0. -1.
        -11    1    3    3    0    0  0.30246603548E+01  0.36693584593E+02 -0.76701748095E+01  0.37608500401E+02  0.51100000000E-03 0.  1.
         12    1    3    3    0    0  0.71542368991E+01 -0.36529042080E+02  0.13594378713E+02  0.39627782596E+02  0.00000000000E+00 0. -1.
</event>
<event>
 7    1  0.3861961E-015  0.9000776E+02  0.7816164E-02  0.1186339E+00
        -11   -1    0    0    0    0  0.00000000000E+00  0.00000000000E+00  0.45593999997E+02  0.45594000000E+02  0.51100000000E-03 0. -1.
         11   -1    0    0    0    0 -0.00000000000E+00 -0.00000000000E+00 -0.45593999997E+02  0.45594000000E+02  0.51100000000E-03 0.  1.
    9900012    2    1    2    0    0  0.38359669421E-01  0.10700759528E+01 -0.49642729162E+00  0.90007756777E+02  0.90000018367E+02 0.  0.
        -12    1    1    2    0    0 -0.38359669421E-01 -0.10700759528E+01  0.49642729162E+00  0.11802432228E+01  0.00000000000E+00 0.  1.
         11    1    3    3    0    0  0.36530394195E+02  0.18256922905E+02  0.10458945184E+02  0.42156547162E+02  0.51100000000E-03 0. -1.
        -11    1    3    3    0    0  0.14394054728E+00 -0.48304245519E+01 -0.76473764106E+01  0.90463299995E+01  0.51100000000E-03 0.  1.
        -12    1    3    3    0    0 -0.36635975073E+02 -0.12356422400E+02 -0.33079960649E+01  0.38804879616E+02  0.00000000000E+00 0.  1.
</event>
<event>
 7    1  0.3861961E-015  0.9000794E+02  0.7816164E-02  0.1186339E+00
        -11   -1    0    0    0    0  0.00000000000E+00  0.00000000000E+00  0.45593999997E+02  0.45594000000E+02  0.51100000000E-03 0. -1.
         11   -1    0    0    0    0 -0.00000000000E+00 -0.00000000000E+00 -0.45593999997E+02  0.45594000000E+02  0.51100000000E-03 0.  1.
    9900012    2    1    2    0    0 -0.46022117613E+00 -0.91527128308E+00  0.58566614522E+00  0.90007944965E+02  0.90000209038E+02 0.  0.
        -12    1    1    2    0    0  0.46022117613E+00  0.91527128308E+00 -0.58566614522E+00  0.11800550353E+01  0.00000000000E+00 0.  1.
         11    1    3    3    0    0  0.33025953221E+02  0.14198906019E+02  0.23992097618E+02  0.43219709238E+02  0.51100000000E-03 0. -1.
        -11    1    3    3    0    0 -0.21571861155E+01 -0.81321208370E+01 -0.46859346910E+01  0.96303076501E+01  0.51100000000E-03 0.  1.
        -12    1    3    3    0    0 -0.31328988281E+02 -0.69820564650E+01 -0.18720496781E+02  0.37157928077E+02  0.00000000000E+00 0.  1.
</event>
<event>
 7    1  0.3861961E-015  0.9000775E+02  0.7816164E-02  0.1186339E+00
        -11   -1    0    0    0    0  0.00000000000E+00  0.00000000000E+00  0.45593999997E+02  0.45594000000E+02  0.51100000000E-03 0.  1.
         11   -1    0    0    0    0 -0.00000000000E+00 -0.00000000000E+00 -0.45593999997E+02  0.45594000000E+02  0.51100000000E-03 0. -1.
    9900012    2    1    2    0    0  0.59914380154E+00  0.62738354023E+00 -0.80025465324E+00  0.90007749640E+02  0.90000011136E+02 0.  0.
        -12    1    1    2    0    0 -0.59914380154E+00 -0.62738354023E+00  0.80025465324E+00  0.11802503597E+01  0.00000000000E+00 0.  1.
         11    1    3    3    0    0 -0.85002635912E+01 -0.25686557055E+01 -0.69035394332E+00  0.89066863694E+01  0.51100000000E-03 0. -1.
        -11    1    3    3    0    0  0.26129915323E+02 -0.15177429791E+02  0.29557993629E+02  0.42270578864E+02  0.51100000000E-03 0.  1.
         12    1    3    3    0    0 -0.17030507930E+02  0.18373469037E+02 -0.29667894339E+02  0.38830484407E+02  0.00000000000E+00 0. -1.
</event>
<event>
 7    1  0.3861961E-015  0.9000782E+02  0.7816164E-02  0.1186339E+00
        -11   -1    0    0    0    0  0.00000000000E+00  0.00000000000E+00  0.45593999997E+02  0.45594000000E+02  0.51100000000E-03 0. -1.
         11   -1    0    0    0    0 -0.00000000000E+00 -0.00000000000E+00 -0.45593999997E+02  0.45594000000E+02  0.51100000000E-03 0.  1.
    9900012    2    1    2    0    0  0.58792931641E-02 -0.29445112256E+00  0.11428413886E+01  0.90007821001E+02  0.90000083438E+02 0.  0.
        -12    1    1    2    0    0 -0.58792931641E-02  0.29445112256E+00 -0.11428413886E+01  0.11801789988E+01  0.00000000000E+00 0.  1.
         11    1    3    3    0    0  0.90363082593E+00 -0.13614885031E+02  0.12410181628E+02  0.18444355542E+02  0.51100000000E-03 0. -1.
        -11    1    3    3    0    0 -0.46710957191E+01 -0.23122118143E+02 -0.23146247608E+02  0.33048453235E+02  0.51100000000E-03 0.  1.
         12    1    3    3    0    0  0.37733441863E+01  0.36442552051E+02  0.11878907369E+02  0.38515012224E+02  0.00000000000E+00 0. -1.
</event>
<event>
 7    1  0.3861961E-015  0.9000767E+02  0.7816164E-02  0.1186339E+00
        -11   -1    0    0    0    0  0.00000000000E+00  0.00000000000E+00  0.45593999997E+02  0.45594000000E+02  0.51100000000E-03 0. -1.
         11   -1    0    0    0    0 -0.00000000000E+00 -0.00000000000E+00 -0.45593999997E+02  0.45594000000E+02  0.51100000000E-03 0.  1.
    9900012    2    1    2    0    0  0.10501059536E+00  0.11496905326E+01 -0.24567258952E+00  0.90007673534E+02  0.89999934024E+02 0.  0.
        -12    1    1    2    0    0 -0.10501059536E+00 -0.11496905326E+01  0.24567258952E+00  0.11803264664E+01  0.00000000000E+00 0.  1.
         11    1    3    3    0    0  0.20831940988E+02 -0.64446677907E+01  0.32745769532E+02  0.39341948741E+02  0.51100000000E-03 0. -1.
        -11    1    3    3    0    0 -0.65426643458E+01 -0.27794934096E+01  0.50780571529E+01  0.87360577531E+01  0.51100000000E-03 0.  1.
        -12    1    3    3    0    0 -0.14184266046E+02  0.10373851733E+02 -0.38069499274E+02  0.41929667040E+02  0.00000000000E+00 0.  1.
</event>
<event>
 7    1  0.3861961E-015  0.9000774E+02  0.7816164E-02  0.1186339E+00
        -11   -1    0    0    0    0  0.00000000000E+00  0.00000000000E+00  0.45593999997E+02  0.45594000000E+02  0.51100000000E-03 0.  1.
         11   -1    0    0    0    0 -0.00000000000E+00 -0.00000000000E+00 -0.45593999997E+02  0.45594000000E+02  0.51100000000E-03 0. -1.
    9900012    2    1    2    0    0 -0.75966714612E+00 -0.61045528619E+00 -0.66578847523E+00  0.90007735571E+02  0.89999996880E+02 0.  0.
        -12    1    1    2    0    0  0.75966714612E+00  0.61045528619E+00  0.66578847523E+00  0.11802644293E+01  0.00000000000E+00 0.  1.
         11    1    3    3    0    0 -0.12363961749E+02  0.54416276998E+01 -0.17759301779E+02  0.22313037940E+02  0.51100000000E-03 0. -1.
        -11    1    3    3    0    0 -0.22311067399E+02  0.12731388665E+02  0.12763704266E+02  0.28684213998E+02  0.51100000000E-03 0.  1.
         12    1    3    3    0    0  0.33915362002E+02 -0.18783471651E+02  0.43298090378E+01  0.39010483633E+02  0.00000000000E+00 0. -1.
</event>
<event>
 7    1  0.3861961E-015  0.9000774E+02  0.7816164E-02  0.1186339E+00
        -11   -1    0    0    0    0  0.00000000000E+00  0.00000000000E+00  0.45593999997E+02  0.45594000000E+02  0.51100000000E-03 0. -1.
         11   -1    0    0    0    0 -0.00000000000E+00 -0.00000000000E+00 -0.45593999997E+02  0.45594000000E+02  0.51100000000E-03 0.  1.
    9900012    2    1    2    0    0  0.60696997943E+00  0.76289704059E+00  0.66527652985E+00  0.90007738456E+02  0.89999999804E+02 0.  0.
        -12    1    1    2    0    0 -0.60696997943E+00 -0.76289704059E+00 -0.66527652985E+00  0.11802615437E+01  0.00000000000E+00 0.  1.
         11    1    3    3    0    0  0.18578409470E+02 -0.41297041337E+01  0.79583470187E+00  0.19048493583E+02  0.51100000000E-03 0. -1.
        -11    1    3    3    0    0  0.32611558476E+01  0.36968390486E+01 -0.32147401088E+02  0.32523178710E+02  0.51100000000E-03 0.  1.
         12    1    3    3    0    0 -0.21232595338E+02  0.11957621256E+01  0.32016842916E+02  0.38436066164E+02  0.00000000000E+00 0. -1.
</event>
<event>
 7    1  0.3861961E-015  0.9000769E+02  0.7816164E-02  0.1186339E+00
        -11   -1    0    0    0    0  0.00000000000E+00  0.00000000000E+00  0.45593999997E+02  0.45594000000E+02  0.51100000000E-03 0.  1.
         11   -1    0    0    0    0 -0.00000000000E+00 -0.00000000000E+00 -0.45593999997E+02  0.45594000000E+02  0.51100000000E-03 0. -1.
    9900012    2    1    2    0    0 -0.10557985796E+01  0.20454780382E+00 -0.48638422127E+00  0.90007694931E+02  0.89999955704E+02 0.  0.
        -12    1    1    2    0    0  0.10557985796E+01 -0.20454780382E+00  0.48638422127E+00  0.11803050688E+01  0.00000000000E+00 0.  1.
         11    1    3    3    0    0  0.23114654299E+02  0.53520330406E+01  0.31033122758E+02  0.39063873456E+02  0.51100000000E-03 0. -1.
        -11    1    3    3    0    0 -0.66953286453E+01 -0.81826392725E+01  0.39502389748E+01  0.11286602649E+02  0.51100000000E-03 0.  1.
        -12    1    3    3    0    0 -0.17475124233E+02  0.30351540357E+01 -0.35469745954E+02  0.39657218826E+02  0.00000000000E+00 0.  1.
</event>
<event>
 7    1  0.3861961E-015  0.9000773E+02  0.7816164E-02  0.1186339E+00
        -11   -1    0    0    0    0  0.00000000000E+00  0.00000000000E+00  0.45593999997E+02  0.45594000000E+02  0.51100000000E-03 0. -1.
         11   -1    0    0    0    0 -0.00000000000E+00 -0.00000000000E+00 -0.45593999997E+02  0.45594000000E+02  0.51100000000E-03 0.  1.
    9900012    2    1    2    0    0  0.48459000677E+00  0.98812169359E+00  0.42641064652E+00  0.90007729694E+02  0.89999990926E+02 0.  0.
        -12    1    1    2    0    0 -0.48459000677E+00 -0.98812169359E+00 -0.42641064652E+00  0.11802703061E+01  0.00000000000E+00 0.  1.
         11    1    3    3    0    0  0.24814168581E+02  0.28292680697E+02  0.17315782363E+02  0.41425294960E+02  0.51100000000E-03 0. -1.
        -11    1    3    3    0    0 -0.63833512542E+01 -0.11513526552E+02  0.68951858132E+01  0.14861091971E+02  0.51100000000E-03 0.  1.
        -12    1    3    3    0    0 -0.17946227320E+02 -0.15791032451E+02 -0.23784557529E+02  0.33721342763E+02  0.00000000000E+00 0.  1.
</event>
<event>
 7    1  0.3861961E-015  0.9000773E+02  0.7816164E-02  0.1186339E+00
        -11   -1    0    0    0    0  0.00000000000E+00  0.00000000000E+00  0.45593999997E+02  0.45594000000E+02  0.51100000000E-03 0.  1.
         11   -1    0    0    0    0 -0.00000000000E+00 -0.00000000000E+00 -0.45593999997E+02  0.45594000000E+02  0.51100000000E-03 0. -1.
    9900012    2    1    2    0    0 -0.82341818748E+00 -0.11506012594E-01 -0.84550615826E+00  0.90007732842E+02  0.89999994116E+02 0.  0.
        -12    1    1    2    0    0  0.82341818748E+00  0.11506012594E-01  0.84550615826E+00  0.11802671577E+01  0.00000000000E+00 0.  1.
         11    1    3    3    0    0 -0.39298111418E+02 -0.83423762171E+01 -0.83132725267E+01  0.41024959504E+02  0.51100000000E-03 0. -1.
        -11    1    3    3    0    0  0.19714194159E+01 -0.43966892105E+01  0.90922977087E+01  0.10290152983E+02  0.51100000000E-03 0.  1.
        -12    1    3    3    0    0  0.36503273815E+02  0.12727559415E+02 -0.16245313402E+01  0.38692620355E+02  0.00000000000E+00 0.  1.
</event>
<event>
 7    1  0.3861961E-015  0.9000778E+02  0.7816164E-02  0.1186339E+00
        -11   -1    0    0    0    0  0.00000000000E+00  0.00000000000E+00  0.45593999997E+02  0.45594000000E+02  0.51100000000E-03 0.  1.
         11   -1    0    0    0    0 -0.00000000000E+00 -0.00000000000E+00 -0.45593999997E+02  0.45594000000E+02  0.51100000000E-03 0. -1.
    9900012    2    1    2    0    0 -0.18417644823E+00 -0.53832190943E+00 -0.10340197324E+01  0.90007784660E+02  0.90000046617E+02 0.  0.
        -12    1    1    2    0    0  0.18417644823E+00  0.53832190943E+00  0.10340197324E+01  0.11802153402E+01  0.00000000000E+00 0.  1.
         11    1    3    3    0    0 -0.30026833776E+02 -0.18763761255E+02 -0.88882004917E+01  0.36506021302E+02  0.51100000000E-03 0. -1.
        -11    1    3    3    0    0 -0.71500112087E+01 -0.32431136519E+01  0.73099297967E+01  0.10727325871E+02  0.51100000000E-03 0.  1.
        -12    1    3    3    0    0  0.36992668536E+02  0.21468552998E+02  0.54425096258E+00  0.42774437487E+02  0.00000000000E+00 0.  1.
</event>
<event>
 7    1  0.3861961E-015  0.9000775E+02  0.7816164E-02  0.1186339E+00
        -11   -1    0    0    0    0  0.00000000000E+00  0.00000000000E+00  0.45593999997E+02  0.45594000000E+02  0.51100000000E-03 0. -1.
         11   -1    0    0    0    0 -0.00000000000E+00 -0.00000000000E+00 -0.45593999997E+02  0.45594000000E+02  0.51100000000E-03 0.  1.
    9900012    2    1    2    0    0 -0.40740214639E+00 -0.68264735017E+00  0.87235632045E+00  0.90007750254E+02  0.90000011757E+02 0.  0.
        -12    1    1    2    0    0  0.40740214639E+00  0.68264735017E+00 -0.87235632045E+00  0.11802497462E+01  0.00000000000E+00 0.  1.
         11    1    3    3    0    0 -0.21097370844E+02  0.15647566919E+02 -0.40313924354E+01  0.26574377363E+02  0.51100000000E-03 0. -1.
        -11    1    3    3    0    0  0.16050721619E+02  0.19819421251E+02  0.83226567090E+01  0.26827257373E+02  0.51100000000E-03 0.  1.
         12    1    3    3    0    0  0.46392470780E+01 -0.36149635520E+02 -0.34189079532E+01  0.36606115518E+02  0.00000000000E+00 0. -1.
</event>
<event>
 7    1  0.3861961E-015  0.9000765E+02  0.7816164E-02  0.1186339E+00
        -11   -1    0    0    0    0  0.00000000000E+00  0.00000000000E+00  0.45593999997E+02  0.45594000000E+02  0.51100000000E-03 0. -1.
         11   -1    0    0    0    0 -0.00000000000E+00 -0.00000000000E+00 -0.45593999997E+02  0.45594000000E+02  0.51100000000E-03 0.  1.
    9900012    2    1    2    0    0  0.45605815508E+00  0.48924366683E+00  0.97256248236E+00  0.90007649972E+02  0.89999910152E+02 0.  0.
        -12    1    1    2    0    0 -0.45605815508E+00 -0.48924366683E+00 -0.97256248236E+00  0.11803500279E+01  0.00000000000E+00 0.  1.
         11    1    3    3    0    0 -0.30633555745E+02  0.22479545289E+02 -0.51069285206E+01  0.38338302169E+02  0.51100000000E-03 0. -1.
        -11    1    3    3    0    0  0.35802795173E+01  0.51437237103E+01 -0.83353303760E+01  0.10428519922E+02  0.51100000000E-03 0.  1.
        -12    1    3    3    0    0  0.27509334383E+02 -0.27134025333E+02  0.14414821379E+02  0.41240827881E+02  0.00000000000E+00 0.  1.
</event>
<event>
 7    1  0.3861961E-015  0.9000778E+02  0.7816164E-02  0.1186339E+00
        -11   -1    0    0    0    0  0.00000000000E+00  0.00000000000E+00  0.45593999997E+02  0.45594000000E+02  0.51100000000E-03 0. -1.
         11   -1    0    0    0    0 -0.00000000000E+00 -0.00000000000E+00 -0.45593999997E+02  0.45594000000E+02  0.51100000000E-03 0.  1.
    9900012    2    1    2    0    0  0.21020832206E+00 -0.92411911706E+00  0.70336958834E+00  0.90007782876E+02  0.90000044810E+02 0.  0.
        -12    1    1    2    0    0 -0.21020832206E+00  0.92411911706E+00 -0.70336958834E+00  0.11802171237E+01  0.00000000000E+00 0.  1.
         11    1    3    3    0    0 -0.54857712467E+01 -0.41436256441E+01 -0.73032948899E+01  0.10030026728E+02  0.51100000000E-03 0. -1.
        -11    1    3    3    0    0 -0.14532341509E+02 -0.32784059036E+02 -0.60226017833E+01  0.36362827298E+02  0.51100000000E-03 0.  1.
         12    1    3    3    0    0  0.20228321078E+02  0.36003565563E+02  0.14029266262E+02  0.43614928851E+02  0.00000000000E+00 0. -1.
</event>
<event>
 7    1  0.3861961E-015  0.9000769E+02  0.7816164E-02  0.1186339E+00
        -11   -1    0    0    0    0  0.00000000000E+00  0.00000000000E+00  0.45593999997E+02  0.45594000000E+02  0.51100000000E-03 0.  1.
         11   -1    0    0    0    0 -0.00000000000E+00 -0.00000000000E+00 -0.45593999997E+02  0.45594000000E+02  0.51100000000E-03 0. -1.
    9900012    2    1    2    0    0 -0.10487686332E+01  0.42976355088E+00  0.32941237170E+00  0.90007692893E+02  0.89999953639E+02 0.  0.
        -12    1    1    2    0    0  0.10487686332E+01 -0.42976355088E+00 -0.32941237170E+00  0.11803071068E+01  0.00000000000E+00 0.  1.
         11    1    3    3    0    0  0.83801205345E+01 -0.13152369186E+02 -0.32144454439E+02  0.35727820908E+02  0.51100000000E-03 0. -1.
        -11    1    3    3    0    0  0.45971784021E+00  0.50767553211E+01 -0.92517540817E+01  0.10563131114E+02  0.51100000000E-03 0.  1.
        -12    1    3    3    0    0 -0.98886070079E+01  0.85053774153E+01  0.41725620893E+02  0.43716740871E+02  0.00000000000E+00 0.  1.
</event>
<event>
 7    1  0.3861961E-015  0.9000776E+02  0.7816164E-02  0.1186339E+00
        -11   -1    0    0    0    0  0.00000000000E+00  0.00000000000E+00  0.45593999997E+02  0.45594000000E+02  0.51100000000E-03 0.  1.
         11   -1    0    0    0    0 -0.00000000000E+00 -0.00000000000E+00 -0.45593999997E+02  0.45594000000E+02  0.51100000000E-03 0. -1.
    9900012    2    1    2    0    0 -0.18106292363E+00 -0.10575859639E+01  0.49163376283E+00  0.90007756123E+02  0.90000017703E+02 0.  0.
        -12    1    1    2    0    0  0.18106292363E+00  0.10575859639E+01 -0.49163376283E+00  0.11802438774E+01  0.00000000000E+00 0.  1.
         11    1    3    3    0    0  0.13110691490E+02 -0.15392523124E+02 -0.84926129894E+01  0.21930446304E+02  0.51100000000E-03 0. -1.
        -11    1    3    3    0    0  0.32650535132E+01 -0.24092826869E+02  0.98322546346E+01  0.26225905369E+02  0.51100000000E-03 0.  1.
         12    1    3    3    0    0 -0.16556807927E+02  0.38427764029E+02 -0.84800788232E+00  0.41851404449E+02  0.00000000000E+00 0. -1.
</event>
<event>
 7    1  0.3861961E-015  0.9000773E+02  0.7816164E-02  0.1186339E+00
        -11   -1    0    0    0    0  0.00000000000E+00  0.00000000000E+00  0.45593999997E+02  0.45594000000E+02  0.51100000000E-03 0. -1.
         11   -1    0    0    0    0 -0.00000000000E+00 -0.00000000000E+00 -0.45593999997E+02  0.45594000000E+02  0.51100000000E-03 0.  1.
    9900012    2    1    2    0    0 -0.92949033117E-01 -0.64037366062E+00  0.98707279021E+00  0.90007732809E+02  0.89999994083E+02 0.  0.
        -12    1    1    2    0    0  0.92949033117E-01  0.64037366062E+00 -0.98707279021E+00  0.11802671906E+01  0.00000000000E+00 0.  1.
         11    1    3    3    0    0  0.32375719711E+01  0.25667969945E+01  0.41288875810E+02  0.41495079046E+02  0.51100000000E-03 0. -1.
        -11    1    3    3    0    0 -0.36137753012E+01 -0.67225507708E+01  0.41482727115E+00  0.76435687162E+01  0.51100000000E-03 0.  1.
        -12    1    3    3    0    0  0.28325429704E+00  0.35153801156E+01 -0.40716630291E+02  0.40869085048E+02  0.00000000000E+00 0.  1.
</event>
<event>
 7    1  0.3861961E-015  0.9000768E+02  0.7816164E-02  0.1186339E+00
        -11   -1    0    0    0    0  0.00000000000E+00  0.00000000000E+00  0.45593999997E+02  0.45594000000E+02  0.51100000000E-03 0.  1.
         11   -1    0    0    0    0 -0.00000000000E+00 -0.00000000000E+00 -0.45593999997E+02  0.45594000000E+02  0.51100000000E-03 0. -1.
    9900012    2    1    2    0    0 -0.28423235117E+00 -0.78132105779E+00 -0.83780225701E+00  0.90007676635E+02  0.89999937166E+02 0.  0.
        -12    1    1    2    0    0  0.28423235117E+00  0.78132105779E+00  0.83780225701E+00  0.11803233653E+01  0.00000000000E+00 0.  1.
         11    1    3    3    0    0  0.28326612576E+01  0.16695980066E+01  0.15081736507E+02  0.15436006725E+02  0.51100000000E-03 0. -1.
        -11    1    3    3    0    0 -0.37053118928E+02 -0.86986324575E+01 -0.50522343482E+01  0.38394334231E+02  0.51100000000E-03 0.  1.
         12    1    3    3    0    0  0.33936225319E+02  0.62477133931E+01 -0.10867304415E+02  0.36177335678E+02  0.00000000000E+00 0. -1.
</event>
<event>
 7    1  0.3861961E-015  0.9000784E+02  0.7816164E-02  0.1186339E+00
        -11   -1    0    0    0    0  0.00000000000E+00  0.00000000000E+00  0.45593999997E+02  0.45594000000E+02  0.51100000000E-03 0.  1.
         11   -1    0    0    0    0 -0.00000000000E+00 -0.00000000000E+00 -0.45593999997E+02  0.45594000000E+02  0.51100000000E-03 0. -1.
    9900012    2    1    2    0    0 -0.55982318015E+00 -0.98634453829E+00 -0.32635215702E+00  0.90007837608E+02  0.90000100264E+02 0.  0.
        -12    1    1    2    0    0  0.55982318015E+00  0.98634453829E+00  0.32635215702E+00  0.11801623921E+01  0.00000000000E+00 0.  1.
         11    1    3    3    0    0 -0.10754071938E+02 -0.20968603815E+02 -0.23221102605E+02  0.33084014503E+02  0.51100000000E-03 0. -1.
        -11    1    3    3    0    0  0.24831235789E+01 -0.64016575131E+01 -0.11194680709E+02  0.13132707187E+02  0.51100000000E-03 0.  1.
        -12    1    3    3    0    0  0.77111251785E+01  0.26383916790E+02  0.34089431157E+02  0.43791115918E+02  0.00000000000E+00 0.  1.
</event>
<event>
 7    1  0.3861961E-015  0.9000778E+02  0.7816164E-02  0.1186339E+00
        -11   -1    0    0    0    0  0.00000000000E+00  0.00000000000E+00  0.45593999997E+02  0.45594000000E+02  0.51100000000E-03 0.  1.
         11   -1    0    0    0    0 -0.00000000000E+00 -0.00000000000E+00 -0.45593999997E+02  0.45594000000E+02  0.51100000000E-03 0. -1.
    9900012    2    1    2    0    0  0.60822690270E-01  0.29116679015E+00 -0.11421236183E+01  0.90007778047E+02  0.90000039917E+02 0.  0.
        -12    1    1    2    0    0 -0.60822690270E-01 -0.29116679015E+00  0.11421236183E+01  0.11802219532E+01  0.00000000000E+00 0.  1.
         11    1    3    3    0    0  0.24286566635E+02  0.92120419800E+01  0.68084691746E+01  0.26852454062E+02  0.51100000000E-03 0. -1.
        -11    1    3    3    0    0  0.13989995204E+02  0.11150435582E+02 -0.88943858472E+01  0.19979046006E+02  0.51100000000E-03 0.  1.
        -12    1    3    3    0    0 -0.38215739149E+02 -0.20071310772E+02  0.94379305426E+00  0.43176277979E+02  0.00000000000E+00 0.  1.
</event>
<event>
 7    1  0.3861961E-015  0.9000777E+02  0.7816164E-02  0.1186339E+00
        -11   -1    0    0    0    0  0.00000000000E+00  0.00000000000E+00  0.45593999997E+02  0.45594000000E+02  0.51100000000E-03 0. -1.
         11   -1    0    0    0    0 -0.00000000000E+00 -0.00000000000E+00 -0.45593999997E+02  0.45594000000E+02  0.51100000000E-03 0.  1.
    9900012    2    1    2    0    0  0.92404437526E+00  0.53850626554E+00  0.49909122264E+00  0.90007771609E+02  0.90000033395E+02 0.  0.
        -12    1    1    2    0    0 -0.92404437526E+00 -0.53850626554E+00 -0.49909122264E+00  0.11802283906E+01  0.00000000000E+00 0.  1.
         11    1    3    3    0    0 -0.23838235658E+02 -0.20071369025E+02  0.21593466388E+02  0.37913046893E+02  0.51100000000E-03 0. -1.
        -11    1    3    3    0    0 -0.90361051996E+01  0.56557832848E+01 -0.42021388584E+01  0.11458492614E+02  0.51100000000E-03 0.  1.
        -12    1    3    3    0    0  0.33798385233E+02  0.14954092005E+02 -0.16892236307E+02  0.40636232102E+02  0.00000000000E+00 0.  1.
</event>
<event>
 7    1  0.3861961E-015  0.9000815E+02  0.7816164E-02  0.1186338E+00
        -11   -1    0    0    0    0  0.00000000000E+00  0.00000000000E+00  0.45593999997E+02  0.45594000000E+02  0.51100000000E-03 0.  1.
         11   -1    0    0    0    0 -0.00000000000E+00 -0.00000000000E+00 -0.45593999997E+02  0.45594000000E+02  0.51100000000E-03 0. -1.
    9900012    2    1    2    0    0  0.36857426065E+00 -0.39040100628E+00 -0.10506081788E+01  0.90008153622E+02  0.90000420448E+02 0.  0.
        -12    1    1    2    0    0 -0.36857426065E+00  0.39040100628E+00  0.10506081788E+01  0.11798463784E+01  0.00000000000E+00 0.  1.
         11    1    3    3    0    0 -0.29055510942E+00  0.37498415842E+01 -0.10309285412E+02  0.10973928200E+02  0.51100000000E-03 0. -1.
        -11    1    3    3    0    0 -0.20650898784E+02  0.12467638011E+02  0.34475680972E+02  0.42077003183E+02  0.51100000000E-03 0.  1.
         12    1    3    3    0    0  0.21310028154E+02 -0.16607880601E+02 -0.25217003739E+02  0.36957222238E+02  0.00000000000E+00 0. -1.
</event>
<event>
 7    1  0.3861961E-015  0.9000771E+02  0.7816164E-02  0.1186339E+00
        -11   -1    0    0    0    0  0.00000000000E+00  0.00000000000E+00  0.45593999997E+02  0.45594000000E+02  0.51100000000E-03 0. -1.
         11   -1    0    0    0    0 -0.00000000000E+00 -0.00000000000E+00 -0.45593999997E+02  0.45594000000E+02  0.51100000000E-03 0.  1.
    9900012    2    1    2    0    0 -0.55950712012E+00 -0.31124905193E+00  0.99153945232E+00  0.90007714155E+02  0.89999975182E+02 0.  0.
        -12    1    1    2    0    0  0.55950712012E+00  0.31124905193E+00 -0.99153945232E+00  0.11802858447E+01  0.00000000000E+00 0.  1.
         11    1    3    3    0    0 -0.23895464749E+01 -0.33403927317E+01 -0.83947600373E+01  0.93455953423E+01  0.51100000000E-03 0. -1.
        -11    1    3    3    0    0 -0.92875363776E+01  0.36583096984E+02 -0.11684175176E+02  0.39510774058E+02  0.51100000000E-03 0.  1.
         12    1    3    3    0    0  0.11117575732E+02 -0.33553953304E+02  0.21070474665E+02  0.41151344755E+02  0.00000000000E+00 0. -1.
</event>
<event>
 7    1  0.3861961E-015  0.9000761E+02  0.7816164E-02  0.1186339E+00
        -11   -1    0    0    0    0  0.00000000000E+00  0.00000000000E+00  0.45593999997E+02  0.45594000000E+02  0.51100000000E-03 0. -1.
         11   -1    0    0    0    0 -0.00000000000E+00 -0.00000000000E+00 -0.45593999997E+02  0.45594000000E+02  0.51100000000E-03 0.  1.
    9900012    2    1    2    0    0 -0.46548417612E+00  0.98359477263E+00 -0.45738180643E+00  0.90007605019E+02  0.89999864605E+02 0.  0.
        -12    1    1    2    0    0  0.46548417612E+00 -0.98359477263E+00  0.45738180643E+00  0.11803949813E+01  0.00000000000E+00 0.  1.
         11    1    3    3    0    0 -0.81223080166E+01 -0.27344880596E+02  0.28813918135E+00  0.28527134570E+02  0.51100000000E-03 0. -1.
        -11    1    3    3    0    0  0.42286911631E+01 -0.13884132231E+02  0.10197354436E+02  0.17738009881E+02  0.51100000000E-03 0.  1.
        -12    1    3    3    0    0  0.34281326774E+01  0.42212607600E+02 -0.10942875424E+02  0.43742460568E+02  0.00000000000E+00 0.  1.
</event>
<event>
 7    1  0.3861961E-015  0.9000773E+02  0.7816164E-02  0.1186339E+00
        -11   -1    0    0    0    0  0.00000000000E+00  0.00000000000E+00  0.45593999997E+02  0.45594000000E+02  0.51100000000E-03 0. -1.
         11   -1    0    0    0    0 -0.00000000000E+00 -0.00000000000E+00 -0.45593999997E+02  0.45594000000E+02  0.51100000000E-03 0.  1.
    9900012    2    1    2    0    0 -0.33353383348E+00  0.10124706870E+01  0.50664256272E+00  0.90007733760E+02  0.89999995046E+02 0.  0.
        -12    1    1    2    0    0  0.33353383348E+00 -0.10124706870E+01 -0.50664256272E+00  0.11802662397E+01  0.00000000000E+00 0.  1.
         11    1    3    3    0    0 -0.11072326461E+02  0.86576938640E+01 -0.39222619336E+01  0.14592334126E+02  0.51100000000E-03 0. -1.
        -11    1    3    3    0    0 -0.22548978541E+02 -0.20723138645E+02 -0.15658104644E+02  0.34395946707E+02  0.51100000000E-03 0.  1.
         12    1    3    3    0    0  0.33287771168E+02  0.13077915468E+02  0.20087009140E+02  0.41019452928E+02  0.00000000000E+00 0. -1.
</event>
<event>
 7    1  0.3861961E-015  0.9000773E+02  0.7816164E-02  0.1186339E+00
        -11   -1    0    0    0    0  0.00000000000E+00  0.00000000000E+00  0.45593999997E+02  0.45594000000E+02  0.51100000000E-03 0.  1.
         11   -1    0    0    0    0 -0.00000000000E+00 -0.00000000000E+00 -0.45593999997E+02  0.45594000000E+02  0.51100000000E-03 0. -1.
    9900012    2    1    2    0    0  0.88766994641E+00  0.69604138647E+00 -0.34728004658E+00  0.90007730973E+02  0.89999992222E+02 0.  0.
        -12    1    1    2    0    0 -0.88766994641E+00 -0.69604138647E+00  0.34728004658E+00  0.11802690270E+01  0.00000000000E+00 0.  1.
         11    1    3    3    0    0  0.21532663202E+02 -0.28283675878E+02  0.21269405346E+00  0.35548096218E+02  0.51100000000E-03 0. -1.
        -11    1    3    3    0    0  0.15264021674E+01 -0.92632765423E+01  0.36097148241E+01  0.10058242254E+02  0.51100000000E-03 0.  1.
        -12    1    3    3    0    0 -0.22171395423E+02  0.38242993806E+02 -0.41696889241E+01  0.44401392501E+02  0.00000000000E+00 0.  1.
</event>
<event>
 7    1  0.3861961E-015  0.9000751E+02  0.7816164E-02  0.1186340E+00
        -11   -1    0    0    0    0  0.00000000000E+00  0.00000000000E+00  0.45593999997E+02  0.45594000000E+02  0.51100000000E-03 0.  1.
         11   -1    0    0    0    0 -0.00000000000E+00 -0.00000000000E+00 -0.45593999997E+02  0.45594000000E+02  0.51100000000E-03 0. -1.
    9900012    2    1    2    0    0  0.54866760429E+00 -0.72805311677E+00 -0.74998040016E+00  0.90007505154E+02  0.89999763422E+02 0.  0.
        -12    1    1    2    0    0 -0.54866760429E+00  0.72805311677E+00  0.74998040016E+00  0.11804948460E+01  0.00000000000E+00 0.  1.
         11    1    3    3    0    0  0.77860273936E+01 -0.14538595144E+02  0.31515111158E+02  0.35569582552E+02  0.51100000000E-03 0. -1.
        -11    1    3    3    0    0  0.71826782132E+01 -0.65593270160E+01  0.39146130813E+01  0.10485219743E+02  0.51100000000E-03 0.  1.
        -12    1    3    3    0    0 -0.14420038003E+02  0.20369869043E+02 -0.36179704640E+02  0.43952702859E+02  0.00000000000E+00 0.  1.
</event>
<event>
 7    1  0.3861961E-015  0.9000740E+02  0.7816164E-02  0.1186340E+00
        -11   -1    0    0    0    0  0.00000000000E+00  0.00000000000E+00  0.45593999997E+02  0.45594000000E+02  0.51100000000E-03 0. -1.
         11   -1    0    0    0    0 -0.00000000000E+00 -0.00000000000E+00 -0.45593999997E+02  0.45594000000E+02  0.51100000000E-03 0.  1.
    9900012    2    1    2    0    0 -0.26723746823E+00  0.33173054953E+00  0.11010657846E+01  0.90007404013E+02  0.89999660946E+02 0.  0.
        -12    1    1    2    0    0  0.26723746823E+00 -0.33173054953E+00 -0.11010657846E+01  0.11805959867E+01  0.00000000000E+00 0.  1.
         11    1    3    3    0    0  0.25782877735E+01  0.11786060322E+01  0.87990714846E+01  0.92444761492E+01  0.51100000000E-03 0. -1.
        -11    1    3    3    0    0  0.27315278198E+02  0.22584091415E+02  0.12470152220E+02  0.37572201223E+02  0.51100000000E-03 0.  1.
         12    1    3    3    0    0 -0.30160803440E+02 -0.23430966898E+02 -0.20168157920E+02  0.43190726641E+02  0.00000000000E+00 0. -1.
</event>
<event>
 7    1  0.3861961E-015  0.9000779E+02  0.7816164E-02  0.1186339E+00
        -11   -1    0    0    0    0  0.00000000000E+00  0.00000000000E+00  0.45593999997E+02  0.45594000000E+02  0.51100000000E-03 0. -1.
         11   -1    0    0    0    0 -0.00000000000E+00 -0.00000000000E+00 -0.45593999997E+02  0.45594000000E+02  0.51100000000E-03 0.  1.
    9900012    2    1    2    0    0 -0.53613183316E+00 -0.86145188758E+00  0.60278467125E+00  0.90007794062E+02  0.90000056143E+02 0.  0.
        -12    1    1    2    0    0  0.53613183316E+00  0.86145188758E+00 -0.60278467125E+00  0.11802059384E+01  0.00000000000E+00 0.  1.
         11    1    3    3    0    0  0.11100305907E+01 -0.91015929456E+01  0.39072655921E+01  0.99668393550E+01  0.51100000000E-03 0. -1.
        -11    1    3    3    0    0  0.31893474715E+02 -0.18677399608E+02 -0.20696757971E+01  0.37017867897E+02  0.51100000000E-03 0.  1.
         12    1    3    3    0    0 -0.33539637138E+02  0.26917540666E+02 -0.12348051238E+01  0.43023086809E+02  0.00000000000E+00 0. -1.
</event>
<event>
 7    1  0.3861961E-015  0.9000774E+02  0.7816164E-02  0.1186339E+00
        -11   -1    0    0    0    0  0.00000000000E+00  0.00000000000E+00  0.45593999997E+02  0.45594000000E+02  0.51100000000E-03 0. -1.
         11   -1    0    0    0    0 -0.00000000000E+00 -0.00000000000E+00 -0.45593999997E+02  0.45594000000E+02  0.51100000000E-03 0.  1.
    9900012    2    1    2    0    0 -0.14712946995E+00 -0.91689365802E+00  0.72847223583E+00  0.90007740342E+02  0.90000001715E+02 0.  0.
        -12    1    1    2    0    0  0.14712946995E+00  0.91689365802E+00 -0.72847223583E+00  0.11802596576E+01  0.00000000000E+00 0.  1.
         11    1    3    3    0    0  0.10196745221E+02  0.31239033121E+02  0.19996984417E+02  0.38467261268E+02  0.51100000000E-03 0. -1.
        -11    1    3    3    0    0  0.93650324862E+01  0.66204676412E+00 -0.22943968401E+01  0.96646984695E+01  0.51100000000E-03 0.  1.
        -12    1    3    3    0    0 -0.19708907177E+02 -0.32817973543E+02 -0.16974115341E+02  0.41875780604E+02  0.00000000000E+00 0.  1.
</event>
<event>
 7    1  0.5124877E-015  0.9000777E+02  0.7816164E-02  0.1186339E+00
        -11   -1    0    0    0    0  0.00000000000E+00  0.00000000000E+00  0.45593999997E+02  0.45594000000E+02  0.51100000000E-03 0. -1.
         11   -1    0    0    0    0 -0.00000000000E+00 -0.00000000000E+00 -0.45593999997E+02  0.45594000000E+02  0.51100000000E-03 0.  1.
    9900012    2    1    2    0    0 -0.12787029380E-01  0.19798124653E+00  0.11634361735E+01  0.90007769594E+02  0.90000031352E+02 0.  0.
        -12    1    1    2    0    0  0.12787029380E-01 -0.19798124653E+00 -0.11634361735E+01  0.11802304063E+01  0.00000000000E+00 0.  1.
         11    1    3    3    0    0  0.35430119369E+01 -0.33681408471E+01  0.83238305464E+01  0.96531581142E+01  0.51100000000E-03 0. -1.
        -11    1    3    3    0    0 -0.29241454928E+01 -0.35265238598E+02  0.11580180010E+02  0.37232892039E+02  0.51100000000E-03 0.  1.
         12    1    3    3    0    0 -0.63165347347E+00  0.38831360692E+02 -0.18740574383E+02  0.43121719440E+02  0.00000000000E+00 0. -1.
</event>
<event>
 7    1  0.3861961E-015  0.9000775E+02  0.7816164E-02  0.1186339E+00
        -11   -1    0    0    0    0  0.00000000000E+00  0.00000000000E+00  0.45593999997E+02  0.45594000000E+02  0.51100000000E-03 0. -1.
         11   -1    0    0    0    0 -0.00000000000E+00 -0.00000000000E+00 -0.45593999997E+02  0.45594000000E+02  0.51100000000E-03 0.  1.
    9900012    2    1    2    0    0 -0.18828444719E+00  0.10795152104E+01  0.43838451974E+00  0.90007752098E+02  0.90000013626E+02 0.  0.
        -12    1    1    2    0    0  0.18828444719E+00 -0.10795152104E+01 -0.43838451974E+00  0.11802479018E+01  0.00000000000E+00 0.  1.
         11    1    3    3    0    0 -0.35493001217E+02  0.19918690450E+01  0.56709104365E+01  0.35998331949E+02  0.51100000000E-03 0. -1.
        -11    1    3    3    0    0 -0.80943059227E+01 -0.59687303533E+01 -0.12876066467E+01  0.10139105559E+02  0.51100000000E-03 0.  1.
        -12    1    3    3    0    0  0.43399022693E+02  0.50563765187E+01 -0.39449192701E+01  0.43870314590E+02  0.00000000000E+00 0.  1.
</event>
<event>
 7    1  0.3861961E-015  0.9000771E+02  0.7816164E-02  0.1186339E+00
        -11   -1    0    0    0    0  0.00000000000E+00  0.00000000000E+00  0.45593999997E+02  0.45594000000E+02  0.51100000000E-03 0.  1.
         11   -1    0    0    0    0 -0.00000000000E+00 -0.00000000000E+00 -0.45593999997E+02  0.45594000000E+02  0.51100000000E-03 0. -1.
    9900012    2    1    2    0    0  0.21380868381E+00 -0.66790511765E+00 -0.94935477073E+00  0.90007709409E+02  0.89999970373E+02 0.  0.
        -12    1    1    2    0    0 -0.21380868381E+00  0.66790511765E+00  0.94935477073E+00  0.11802905914E+01  0.00000000000E+00 0.  1.
         11    1    3    3    0    0  0.10268460845E+02  0.75778556046E+00 -0.12569141201E+02  0.16248041047E+02  0.51100000000E-03 0. -1.
        -11    1    3    3    0    0 -0.16388814020E+01 -0.14792336799E+02 -0.27667302233E+02  0.31416218317E+02  0.51100000000E-03 0.  1.
         12    1    3    3    0    0 -0.84157707591E+01  0.13366646121E+02  0.39287088663E+02  0.42343450044E+02  0.00000000000E+00 0. -1.
</event>
<event>
 7    1  0.3861961E-015  0.9000777E+02  0.7816164E-02  0.1186339E+00
        -11   -1    0    0    0    0  0.00000000000E+00  0.00000000000E+00  0.45593999997E+02  0.45594000000E+02  0.51100000000E-03 0.  1.
         11   -1    0    0    0    0 -0.00000000000E+00 -0.00000000000E+00 -0.45593999997E+02  0.45594000000E+02  0.51100000000E-03 0. -1.
    9900012    2    1    2    0    0  0.45642418313E+00  0.10857421743E+01 -0.75998085241E-01  0.90007773406E+02  0.90000035215E+02 0.  0.
        -12    1    1    2    0    0 -0.45642418313E+00 -0.10857421743E+01  0.75998085241E-01  0.11802265939E+01  0.00000000000E+00 0.  1.
         11    1    3    3    0    0 -0.62542669285E+01  0.63632378043E+01 -0.44785683555E+01  0.99831971304E+01  0.51100000000E-03 0. -1.
        -11    1    3    3    0    0 -0.16480668159E+02  0.11598102115E+02  0.33546643081E+02  0.39134456147E+02  0.51100000000E-03 0.  1.
         12    1    3    3    0    0  0.23191359271E+02 -0.16875597745E+02 -0.29144072811E+02  0.40890120128E+02  0.00000000000E+00 0. -1.
</event>
<event>
 7    1  0.3861961E-015  0.9000775E+02  0.7816164E-02  0.1186339E+00
        -11   -1    0    0    0    0  0.00000000000E+00  0.00000000000E+00  0.45593999997E+02  0.45594000000E+02  0.51100000000E-03 0.  1.
         11   -1    0    0    0    0 -0.00000000000E+00 -0.00000000000E+00 -0.45593999997E+02  0.45594000000E+02  0.51100000000E-03 0. -1.
    9900012    2    1    2    0    0  0.10025268278E+01 -0.26221815842E+00 -0.56496020454E+00  0.90007746453E+02  0.90000007906E+02 0.  0.
        -12    1    1    2    0    0 -0.10025268278E+01  0.26221815842E+00  0.56496020454E+00  0.11802535473E+01  0.00000000000E+00 0.  1.
         11    1    3    3    0    0 -0.39063790333E+02  0.64678768529E+01 -0.11355220797E+01  0.39611899182E+02  0.51100000000E-03 0. -1.
        -11    1    3    3    0    0  0.39083215054E+01  0.96615572799E+01  0.22426773349E+01  0.10660687968E+02  0.51100000000E-03 0.  1.
        -12    1    3    3    0    0  0.36157995656E+02 -0.16391652291E+02 -0.16721154597E+01  0.39735159302E+02  0.00000000000E+00 0.  1.
</event>
<event>
 7    1  0.3861961E-015  0.9000770E+02  0.7816164E-02  0.1186339E+00
        -11   -1    0    0    0    0  0.00000000000E+00  0.00000000000E+00  0.45593999997E+02  0.45594000000E+02  0.51100000000E-03 0.  1.
         11   -1    0    0    0    0 -0.00000000000E+00 -0.00000000000E+00 -0.45593999997E+02  0.45594000000E+02  0.51100000000E-03 0. -1.
    9900012    2    1    2    0    0  0.51102555441E+00 -0.58126513883E+00  0.89112424339E+00  0.90007695507E+02  0.89999956288E+02 0.  0.
        -12    1    1    2    0    0 -0.51102555441E+00  0.58126513883E+00 -0.89112424339E+00  0.11803044929E+01  0.00000000000E+00 0.  1.
         11    1    3    3    0    0  0.84266301718E+01 -0.33610424208E+01 -0.34048918606E+01  0.96900975769E+01  0.51100000000E-03 0. -1.
        -11    1    3    3    0    0 -0.56039556757E+01 -0.38459741518E+02  0.94022247958E+00  0.38877243413E+02  0.51100000000E-03 0.  1.
         12    1    3    3    0    0 -0.23116489417E+01  0.41239518800E+02  0.33557936244E+01  0.41440354517E+02  0.00000000000E+00 0. -1.
</event>
<event>
 7    1  0.3861961E-015  0.9000774E+02  0.7816164E-02  0.1186339E+00
        -11   -1    0    0    0    0  0.00000000000E+00  0.00000000000E+00  0.45593999997E+02  0.45594000000E+02  0.51100000000E-03 0.  1.
         11   -1    0    0    0    0 -0.00000000000E+00 -0.00000000000E+00 -0.45593999997E+02  0.45594000000E+02  0.51100000000E-03 0. -1.
    9900012    2    1    2    0    0  0.11512048752E+01 -0.25946357207E+00 -0.20514236602E-01  0.90007739502E+02  0.90000000863E+02 0.  0.
        -12    1    1    2    0    0 -0.11512048752E+01  0.25946357207E+00  0.20514236602E-01  0.11802604983E+01  0.00000000000E+00 0.  1.
         11    1    3    3    0    0 -0.20175173492E+02 -0.31484362559E+02  0.14610820603E+02  0.40146964893E+02  0.51100000000E-03 0. -1.
        -11    1    3    3    0    0  0.22279840416E+01 -0.32874671040E+01 -0.92303657697E+01  0.10048432980E+02  0.51100000000E-03 0.  1.
        -12    1    3    3    0    0  0.19098394326E+02  0.34512366091E+02 -0.54009690697E+01  0.39812341628E+02  0.00000000000E+00 0.  1.
</event>
<event>
 7    1  0.3861961E-015  0.9000775E+02  0.7816164E-02  0.1186339E+00
        -11   -1    0    0    0    0  0.00000000000E+00  0.00000000000E+00  0.45593999997E+02  0.45594000000E+02  0.51100000000E-03 0. -1.
         11   -1    0    0    0    0 -0.00000000000E+00 -0.00000000000E+00 -0.45593999997E+02  0.45594000000E+02  0.51100000000E-03 0.  1.
    9900012    2    1    2    0    0  0.41945319839E+00  0.83045367563E+00  0.72621801942E+00  0.90007751338E+02  0.90000012855E+02 0.  0.
        -12    1    1    2    0    0 -0.41945319839E+00 -0.83045367563E+00 -0.72621801942E+00  0.11802486623E+01  0.00000000000E+00 0.  1.
         11    1    3    3    0    0 -0.47298649240E+01 -0.42214731625E+02  0.67130300801E+01  0.43006045639E+02  0.51100000000E-03 0. -1.
        -11    1    3    3    0    0 -0.23249295026E+01  0.77745893177E+01  0.47250996484E+01  0.93902131605E+01  0.51100000000E-03 0.  1.
        -12    1    3    3    0    0  0.74742476251E+01  0.35270595983E+02 -0.10711911709E+02  0.37611492539E+02  0.00000000000E+00 0.  1.
</event>
<event>
 7    1  0.3861961E-015  0.9000753E+02  0.7816164E-02  0.1186339E+00
        -11   -1    0    0    0    0  0.00000000000E+00  0.00000000000E+00  0.45593999997E+02  0.45594000000E+02  0.51100000000E-03 0. -1.
         11   -1    0    0    0    0 -0.00000000000E+00 -0.00000000000E+00 -0.45593999997E+02  0.45594000000E+02  0.51100000000E-03 0.  1.
    9900012    2    1    2    0    0  0.10172287301E+01 -0.34598651290E+00 -0.48893301435E+00  0.90007527023E+02  0.89999785580E+02 0.  0.
        -12    1    1    2    0    0 -0.10172287301E+01  0.34598651290E+00  0.48893301435E+00  0.11804729768E+01  0.00000000000E+00 0.  1.
         11    1    3    3    0    0 -0.91057888946E+01 -0.57102531809E+01  0.15060721169E+00  0.10749189066E+02  0.51100000000E-03 0. -1.
        -11    1    3    3    0    0 -0.26118951879E+02  0.25800788332E+02 -0.63592161434E+01  0.37260165808E+02  0.51100000000E-03 0.  1.
         12    1    3    3    0    0  0.36241969504E+02 -0.20436521664E+02  0.57196759173E+01  0.41998172149E+02  0.00000000000E+00 0. -1.
</event>
<event>
 7    1  0.3861961E-015  0.9000773E+02  0.7816164E-02  0.1186339E+00
        -11   -1    0    0    0    0  0.00000000000E+00  0.00000000000E+00  0.45593999997E+02  0.45594000000E+02  0.51100000000E-03 0.  1.
         11   -1    0    0    0    0 -0.00000000000E+00 -0.00000000000E+00 -0.45593999997E+02  0.45594000000E+02  0.51100000000E-03 0. -1.
    9900012    2    1    2    0    0  0.10306713525E+01  0.41705759726E+00 -0.39599569820E+00  0.90007731781E+02  0.89999993040E+02 0.  0.
        -12    1    1    2    0    0 -0.10306713525E+01 -0.41705759726E+00  0.39599569820E+00  0.11802682192E+01  0.00000000000E+00 0.  1.
         11    1    3    3    0    0  0.50089385808E+01  0.29162275421E+01 -0.73514842466E+01  0.93615260333E+01  0.51100000000E-03 0. -1.
        -11    1    3    3    0    0  0.18866220034E+01 -0.24753016797E+02  0.35912701369E+02  0.43657683207E+02  0.51100000000E-03 0.  1.
         12    1    3    3    0    0 -0.58648892317E+01  0.22253846852E+02 -0.28957212820E+02  0.36988522541E+02  0.00000000000E+00 0. -1.
</event>
<event>
 7    1  0.3861961E-015  0.9000771E+02  0.7816164E-02  0.1186339E+00
        -11   -1    0    0    0    0  0.00000000000E+00  0.00000000000E+00  0.45593999997E+02  0.45594000000E+02  0.51100000000E-03 0.  1.
         11   -1    0    0    0    0 -0.00000000000E+00 -0.00000000000E+00 -0.45593999997E+02  0.45594000000E+02  0.51100000000E-03 0. -1.
    9900012    2    1    2    0    0  0.57494279008E-01 -0.11676270753E+01 -0.16256342090E+00  0.90007709593E+02  0.89999970560E+02 0.  0.
        -12    1    1    2    0    0 -0.57494279008E-01  0.11676270753E+01  0.16256342090E+00  0.11802904071E+01  0.00000000000E+00 0.  1.
         11    1    3    3    0    0 -0.21030083204E+02  0.29961051107E+02  0.18810862849E+01  0.36653341851E+02  0.51100000000E-03 0. -1.
        -11    1    3    3    0    0 -0.45823635010E+01  0.46692007177E+01  0.56415167108E+01  0.86386458231E+01  0.51100000000E-03 0.  1.
        -12    1    3    3    0    0  0.25669940984E+02 -0.35797878900E+02 -0.76851664166E+01  0.44715721919E+02  0.00000000000E+00 0.  1.
</event>
<event>
 7    1  0.3861961E-015  0.9000849E+02  0.7816164E-02  0.1186338E+00
        -11   -1    0    0    0    0  0.00000000000E+00  0.00000000000E+00  0.45593999997E+02  0.45594000000E+02  0.51100000000E-03 0. -1.
         11   -1    0    0    0    0 -0.00000000000E+00 -0.00000000000E+00 -0.45593999997E+02  0.45594000000E+02  0.51100000000E-03 0.  1.
    9900012    2    1    2    0    0  0.25684840332E+00 -0.11107387178E+01 -0.30256022408E+00  0.90008485570E+02  0.90000756776E+02 0.  0.
        -12    1    1    2    0    0 -0.25684840332E+00  0.11107387178E+01  0.30256022408E+00  0.11795144300E+01  0.00000000000E+00 0.  1.
         11    1    3    3    0    0 -0.76566312773E+01  0.40850027909E+01 -0.57248001025E+01  0.10396373733E+02  0.51100000000E-03 0. -1.
        -11    1    3    3    0    0  0.19954427008E+02 -0.24278982665E+02 -0.26096148847E+02  0.40849200009E+02  0.51100000000E-03 0.  1.
         12    1    3    3    0    0 -0.12040947328E+02  0.19083241156E+02  0.31518388725E+02  0.38762911828E+02  0.00000000000E+00 0. -1.
</event>
<event>
 7    1  0.3861961E-015  0.9000771E+02  0.7816164E-02  0.1186339E+00
        -11   -1    0    0    0    0  0.00000000000E+00  0.00000000000E+00  0.45593999997E+02  0.45594000000E+02  0.51100000000E-03 0.  1.
         11   -1    0    0    0    0 -0.00000000000E+00 -0.00000000000E+00 -0.45593999997E+02  0.45594000000E+02  0.51100000000E-03 0. -1.
    9900012    2    1    2    0    0  0.22679828158E+00 -0.42134529492E+00 -0.10789445926E+01  0.90007707345E+02  0.89999968282E+02 0.  0.
        -12    1    1    2    0    0 -0.22679828158E+00  0.42134529492E+00  0.10789445926E+01  0.11802926552E+01  0.00000000000E+00 0.  1.
         11    1    3    3    0    0 -0.11106866487E+01 -0.26361959268E+02 -0.29332453828E+02  0.39453508958E+02  0.51100000000E-03 0. -1.
        -11    1    3    3    0    0 -0.12969312097E+01  0.36436160277E+01 -0.74406949176E+01  0.83858159673E+01  0.51100000000E-03 0.  1.
        -12    1    3    3    0    0  0.26344161400E+01  0.22296997945E+02  0.35694204153E+02  0.42168382419E+02  0.00000000000E+00 0.  1.
</event>
<event>
 7    1  0.3861961E-015  0.9000773E+02  0.7816164E-02  0.1186339E+00
        -11   -1    0    0    0    0  0.00000000000E+00  0.00000000000E+00  0.45593999997E+02  0.45594000000E+02  0.51100000000E-03 0. -1.
         11   -1    0    0    0    0 -0.00000000000E+00 -0.00000000000E+00 -0.45593999997E+02  0.45594000000E+02  0.51100000000E-03 0.  1.
    9900012    2    1    2    0    0  0.76315466266E+00 -0.39079544538E+00  0.81112164666E+00  0.90007726962E+02  0.89999988158E+02 0.  0.
        -12    1    1    2    0    0 -0.76315466266E+00  0.39079544538E+00 -0.81112164666E+00  0.11802730383E+01  0.00000000000E+00 0.  1.
         11    1    3    3    0    0 -0.56355250049E+01  0.24891348106E+01 -0.79395569290E+01  0.10049452656E+02  0.51100000000E-03 0. -1.
        -11    1    3    3    0    0 -0.26153652237E+01 -0.14178086244E+02 -0.32873545330E+02  0.35896075657E+02  0.51100000000E-03 0.  1.
         12    1    3    3    0    0  0.90140448912E+01  0.11298155988E+02  0.41624223905E+02  0.44062198649E+02  0.00000000000E+00 0. -1.
</event>
<event>
 7    1  0.3861961E-015  0.9000772E+02  0.7816164E-02  0.1186339E+00
        -11   -1    0    0    0    0  0.00000000000E+00  0.00000000000E+00  0.45593999997E+02  0.45594000000E+02  0.51100000000E-03 0.  1.
         11   -1    0    0    0    0 -0.00000000000E+00 -0.00000000000E+00 -0.45593999997E+02  0.45594000000E+02  0.51100000000E-03 0. -1.
    9900012    2    1    2    0    0  0.58226248517E+00  0.75800500149E+00 -0.69243102079E+00  0.90007719566E+02  0.89999980664E+02 0.  0.
        -12    1    1    2    0    0 -0.58226248517E+00 -0.75800500149E+00  0.69243102079E+00  0.11802804338E+01  0.00000000000E+00 0.  1.
         11    1    3    3    0    0  0.47257033189E+01  0.33975374326E+01  0.76328593864E+01  0.95987538325E+01  0.51100000000E-03 0. -1.
        -11    1    3    3    0    0 -0.37529127210E+02 -0.15447889064E+02  0.75577739732E+01  0.41281867853E+02  0.51100000000E-03 0.  1.
         12    1    3    3    0    0  0.33385686377E+02  0.12808356633E+02 -0.15883064380E+02  0.39127097881E+02  0.00000000000E+00 0. -1.
</event>
<event>
 7    1  0.3861961E-015  0.9000786E+02  0.7816164E-02  0.1186339E+00
        -11   -1    0    0    0    0  0.00000000000E+00  0.00000000000E+00  0.45593999997E+02  0.45594000000E+02  0.51100000000E-03 0.  1.
         11   -1    0    0    0    0 -0.00000000000E+00 -0.00000000000E+00 -0.45593999997E+02  0.45594000000E+02  0.51100000000E-03 0. -1.
    9900012    2    1    2    0    0  0.69512676882E+00  0.95299560186E+00 -0.36422271786E-01  0.90007860846E+02  0.90000123809E+02 0.  0.
        -12    1    1    2    0    0 -0.69512676882E+00 -0.95299560186E+00  0.36422271786E-01  0.11801391544E+01  0.00000000000E+00 0.  1.
         11    1    3    3    0    0 -0.70446787712E+01  0.50161727430E+01 -0.30704922292E+02  0.31899557069E+02  0.51100000000E-03 0. -1.
        -11    1    3    3    0    0 -0.90397627707E+01  0.58470722421E+01 -0.89214117523E+01  0.13982029633E+02  0.51100000000E-03 0.  1.
        -12    1    3    3    0    0  0.16779568311E+02 -0.99102493833E+01  0.39589911773E+02  0.44126274143E+02  0.00000000000E+00 0.  1.
</event>
<event>
 7    1  0.3861961E-015  0.9000773E+02  0.7816164E-02  0.1186339E+00
        -11   -1    0    0    0    0  0.00000000000E+00  0.00000000000E+00  0.45593999997E+02  0.45594000000E+02  0.51100000000E-03 0. -1.
         11   -1    0    0    0    0 -0.00000000000E+00 -0.00000000000E+00 -0.45593999997E+02  0.45594000000E+02  0.51100000000E-03 0.  1.
    9900012    2    1    2    0    0 -0.53809798344E+00 -0.70321259724E+00  0.78037079330E+00  0.90007730551E+02  0.89999991794E+02 0.  0.
        -12    1    1    2    0    0  0.53809798344E+00  0.70321259724E+00 -0.78037079330E+00  0.11802694488E+01  0.00000000000E+00 0.  1.
         11    1    3    3    0    0 -0.36123124371E+01  0.11825081427E+02  0.37818896375E+02  0.39788820983E+02  0.51100000000E-03 0. -1.
        -11    1    3    3    0    0 -0.17616615797E+01  0.47196554380E+01  0.33406844446E+01  0.60447309117E+01  0.51100000000E-03 0.  1.
        -12    1    3    3    0    0  0.48358760333E+01 -0.17247949462E+02 -0.40379210026E+02  0.44174178657E+02  0.00000000000E+00 0.  1.
</event>
<event>
 7    1  0.3861961E-015  0.9000755E+02  0.7816164E-02  0.1186339E+00
        -11   -1    0    0    0    0  0.00000000000E+00  0.00000000000E+00  0.45593999997E+02  0.45594000000E+02  0.51100000000E-03 0. -1.
         11   -1    0    0    0    0 -0.00000000000E+00 -0.00000000000E+00 -0.45593999997E+02  0.45594000000E+02  0.51100000000E-03 0.  1.
    9900012    2    1    2    0    0 -0.91524532166E-01 -0.21110448282E+00  0.11578058305E+01  0.90007552549E+02  0.89999811443E+02 0.  0.
        -12    1    1    2    0    0  0.91524532166E-01  0.21110448282E+00 -0.11578058305E+01  0.11804474507E+01  0.00000000000E+00 0.  1.
         11    1    3    3    0    0 -0.80407679548E+01  0.33187694512E+02  0.20907400309E+02  0.40039935119E+02  0.51100000000E-03 0. -1.
        -11    1    3    3    0    0  0.31629312454E+00  0.40559316823E+01 -0.95880350782E+01  0.10415423183E+02  0.51100000000E-03 0.  1.
        -12    1    3    3    0    0  0.76329502981E+01 -0.37454730678E+02 -0.10161559401E+02  0.39552194248E+02  0.00000000000E+00 0.  1.
</event>
<event>
 7    1  0.3861961E-015  0.9000771E+02  0.7816164E-02  0.1186339E+00
        -11   -1    0    0    0    0  0.00000000000E+00  0.00000000000E+00  0.45593999997E+02  0.45594000000E+02  0.51100000000E-03 0. -1.
         11   -1    0    0    0    0 -0.00000000000E+00 -0.00000000000E+00 -0.45593999997E+02  0.45594000000E+02  0.51100000000E-03 0.  1.
    9900012    2    1    2    0    0 -0.11434674150E+00 -0.11455960581E+01  0.26004610672E+00  0.90007707882E+02  0.89999968826E+02 0.  0.
        -12    1    1    2    0    0  0.11434674150E+00  0.11455960581E+01 -0.26004610672E+00  0.11802921177E+01  0.00000000000E+00 0.  1.
         11    1    3    3    0    0 -0.94077597181E+01  0.17086820890E+01 -0.22265772006E+01  0.98174937579E+01  0.51100000000E-03 0. -1.
        -11    1    3    3    0    0  0.68899129820E+01  0.24278757630E+02 -0.29074381239E+02  0.38499982047E+02  0.51100000000E-03 0.  1.
         12    1    3    3    0    0  0.24034999946E+01 -0.27133035777E+02  0.31561004546E+02  0.41690232077E+02  0.00000000000E+00 0. -1.
</event>
<event>
 7    1  0.3861961E-015  0.9000778E+02  0.7816164E-02  0.1186339E+00
        -11   -1    0    0    0    0  0.00000000000E+00  0.00000000000E+00  0.45593999997E+02  0.45594000000E+02  0.51100000000E-03 0.  1.
         11   -1    0    0    0    0 -0.00000000000E+00 -0.00000000000E+00 -0.45593999997E+02  0.45594000000E+02  0.51100000000E-03 0. -1.
    9900012    2    1    2    0    0  0.49518705506E+00 -0.10704960777E+01 -0.41838633012E-01  0.90007778604E+02  0.90000040482E+02 0.  0.
        -12    1    1    2    0    0 -0.49518705506E+00  0.10704960777E+01  0.41838633012E-01  0.11802213958E+01  0.00000000000E+00 0.  1.
         11    1    3    3    0    0  0.27185309814E+01  0.56308717176E+01  0.57977933085E+01  0.85271058693E+01  0.51100000000E-03 0. -1.
        -11    1    3    3    0    0  0.99778011821E+01  0.35726175983E+02 -0.37823665263E+01  0.37285687114E+02  0.51100000000E-03 0.  1.
         12    1    3    3    0    0 -0.12201145109E+02 -0.42427543778E+02 -0.20572654153E+01  0.44194985621E+02  0.00000000000E+00 0. -1.
</event>
<event>
 7    1  0.3861961E-015  0.9000769E+02  0.7816164E-02  0.1186339E+00
        -11   -1    0    0    0    0  0.00000000000E+00  0.00000000000E+00  0.45593999997E+02  0.45594000000E+02  0.51100000000E-03 0.  1.
         11   -1    0    0    0    0 -0.00000000000E+00 -0.00000000000E+00 -0.45593999997E+02  0.45594000000E+02  0.51100000000E-03 0. -1.
    9900012    2    1    2    0    0  0.97983318076E+00 -0.50937364300E+00  0.41666373748E+00  0.90007685110E+02  0.89999945753E+02 0.  0.
        -12    1    1    2    0    0 -0.97983318076E+00  0.50937364300E+00 -0.41666373748E+00  0.11803148904E+01  0.00000000000E+00 0.  1.
         11    1    3    3    0    0 -0.87518870604E+01 -0.57848426844E+01 -0.16665909034E+01  0.10622497705E+02  0.51100000000E-03 0. -1.
        -11    1    3    3    0    0  0.47137018529E+01 -0.36122244440E+02  0.79155747795E+01  0.37278570961E+02  0.51100000000E-03 0.  1.
         12    1    3    3    0    0  0.50180183883E+01  0.41397713482E+02 -0.58323201386E+01  0.42106616443E+02  0.00000000000E+00 0. -1.
</event>
<event>
 7    1  0.3861961E-015  0.9000775E+02  0.7816164E-02  0.1186339E+00
        -11   -1    0    0    0    0  0.00000000000E+00  0.00000000000E+00  0.45593999997E+02  0.45594000000E+02  0.51100000000E-03 0. -1.
         11   -1    0    0    0    0 -0.00000000000E+00 -0.00000000000E+00 -0.45593999997E+02  0.45594000000E+02  0.51100000000E-03 0.  1.
    9900012    2    1    2    0    0 -0.55352586173E+00 -0.10405129100E+01 -0.62670269242E-01  0.90007751908E+02  0.90000013433E+02 0.  0.
        -12    1    1    2    0    0  0.55352586173E+00  0.10405129100E+01  0.62670269242E-01  0.11802480917E+01  0.00000000000E+00 0.  1.
         11    1    3    3    0    0  0.29410652135E+02  0.23342089553E+02 -0.25238089161E+01  0.37632555260E+02  0.51100000000E-03 0. -1.
        -11    1    3    3    0    0  0.65540651867E+01  0.11616719509E+01 -0.33164192190E+01  0.74366584492E+01  0.51100000000E-03 0.  1.
        -12    1    3    3    0    0 -0.36518243183E+02 -0.25544274414E+02  0.57775578659E+01  0.44938538199E+02  0.00000000000E+00 0.  1.
</event>
<event>
 7    1  0.3861961E-015  0.9000779E+02  0.7816164E-02  0.1186339E+00
        -11   -1    0    0    0    0  0.00000000000E+00  0.00000000000E+00  0.45593999997E+02  0.45594000000E+02  0.51100000000E-03 0. -1.
         11   -1    0    0    0    0 -0.00000000000E+00 -0.00000000000E+00 -0.45593999997E+02  0.45594000000E+02  0.51100000000E-03 0.  1.
    9900012    2    1    2    0    0  0.92809722153E+00  0.36100609835E+00  0.63341576435E+00  0.90007785873E+02  0.90000047846E+02 0.  0.
        -12    1    1    2    0    0 -0.92809722153E+00 -0.36100609835E+00 -0.63341576435E+00  0.11802141273E+01  0.00000000000E+00 0.  1.
         11    1    3    3    0    0  0.10702191215E+00 -0.36878251469E+01  0.11350448119E+01  0.38600304390E+01  0.51100000000E-03 0. -1.
        -11    1    3    3    0    0 -0.29610688535E+02 -0.28841859581E+02 -0.28877068876E-01  0.41335778373E+02  0.51100000000E-03 0.  1.
         12    1    3    3    0    0  0.30431763844E+02  0.32890690826E+02 -0.47275197871E+00  0.44811977061E+02  0.00000000000E+00 0. -1.
</event>
<event>
 7    1  0.3861961E-015  0.9000757E+02  0.7816164E-02  0.1186339E+00
        -11   -1    0    0    0    0  0.00000000000E+00  0.00000000000E+00  0.45593999997E+02  0.45594000000E+02  0.51100000000E-03 0.  1.
         11   -1    0    0    0    0 -0.00000000000E+00 -0.00000000000E+00 -0.45593999997E+02  0.45594000000E+02  0.51100000000E-03 0. -1.
    9900012    2    1    2    0    0  0.17921239331E+00  0.54150958465E+00 -0.10334670517E+01  0.90007574713E+02  0.89999833899E+02 0.  0.
        -12    1    1    2    0    0 -0.17921239331E+00 -0.54150958465E+00  0.10334670517E+01  0.11804252874E+01  0.00000000000E+00 0.  1.
         11    1    3    3    0    0  0.83065370264E+01 -0.33502962418E+02 -0.13535521028E+02  0.37076372232E+02  0.51100000000E-03 0. -1.
        -11    1    3    3    0    0 -0.53861901796E+01 -0.48583074544E+01 -0.63262978491E+01  0.96247722419E+01  0.51100000000E-03 0.  1.
        -12    1    3    3    0    0 -0.27411344535E+01  0.38902779457E+02  0.18828351825E+02  0.43306430239E+02  0.00000000000E+00 0.  1.
</event>
<event>
 7    1  0.3861961E-015  0.9000773E+02  0.7816164E-02  0.1186339E+00
        -11   -1    0    0    0    0  0.00000000000E+00  0.00000000000E+00  0.45593999997E+02  0.45594000000E+02  0.51100000000E-03 0. -1.
         11   -1    0    0    0    0 -0.00000000000E+00 -0.00000000000E+00 -0.45593999997E+02  0.45594000000E+02  0.51100000000E-03 0.  1.
    9900012    2    1    2    0    0  0.64095479695E+00  0.37556189693E+00  0.91715479799E+00  0.90007727695E+02  0.89999988901E+02 0.  0.
        -12    1    1    2    0    0 -0.64095479695E+00 -0.37556189693E+00 -0.91715479799E+00  0.11802723049E+01  0.00000000000E+00 0.  1.
         11    1    3    3    0    0  0.78658655904E+01  0.33477413426E+01  0.19741900238E+01  0.87736332322E+01  0.51100000000E-03 0. -1.
        -11    1    3    3    0    0  0.35231035189E+02 -0.11574382300E-01 -0.12125522143E+02  0.37259284239E+02  0.51100000000E-03 0.  1.
         12    1    3    3    0    0 -0.42455945983E+02 -0.29606050634E+01  0.11068486917E+02  0.43974810224E+02  0.00000000000E+00 0. -1.
</event>
<event>
 7    1  0.3861961E-015  0.9000772E+02  0.7816164E-02  0.1186339E+00
        -11   -1    0    0    0    0  0.00000000000E+00  0.00000000000E+00  0.45593999997E+02  0.45594000000E+02  0.51100000000E-03 0. -1.
         11   -1    0    0    0    0 -0.00000000000E+00 -0.00000000000E+00 -0.45593999997E+02  0.45594000000E+02  0.51100000000E-03 0.  1.
    9900012    2    1    2    0    0  0.15581781558E+00 -0.93284353207E-01  0.11662232918E+01  0.90007721250E+02  0.89999982370E+02 0.  0.
        -12    1    1    2    0    0 -0.15581781558E+00  0.93284353207E-01 -0.11662232918E+01  0.11802787504E+01  0.00000000000E+00 0.  1.
         11    1    3    3    0    0  0.10357791849E+02 -0.33652230704E+01 -0.42226396838E+01  0.11680721915E+02  0.51100000000E-03 0. -1.
        -11    1    3    3    0    0 -0.42984179622E+02 -0.67724899876E+01  0.66376264919E+01  0.44017773730E+02  0.51100000000E-03 0.  1.
         12    1    3    3    0    0  0.32782205589E+02  0.10044428705E+02 -0.12487635163E+01  0.34309225605E+02  0.00000000000E+00 0. -1.
</event>
<event>
 7    1  0.3861961E-015  0.9000773E+02  0.7816164E-02  0.1186339E+00
        -11   -1    0    0    0    0  0.00000000000E+00  0.00000000000E+00  0.45593999997E+02  0.45594000000E+02  0.51100000000E-03 0.  1.
         11   -1    0    0    0    0 -0.00000000000E+00 -0.00000000000E+00 -0.45593999997E+02  0.45594000000E+02  0.51100000000E-03 0. -1.
    9900012    2    1    2    0    0  0.34885931680E+00  0.73601250788E+00 -0.85418156108E+00  0.90007727415E+02  0.89999988617E+02 0.  0.
        -12    1    1    2    0    0 -0.34885931680E+00 -0.73601250788E+00  0.85418156108E+00  0.11802725846E+01  0.00000000000E+00 0.  1.
         11    1    3    3    0    0 -0.15054045731E+02  0.82556053290E+01 -0.31299109104E+02  0.35698929160E+02  0.51100000000E-03 0. -1.
        -11    1    3    3    0    0 -0.61390230365E+01 -0.75203955489E+01 -0.64005866303E+01  0.11628046376E+02  0.51100000000E-03 0.  1.
        -12    1    3    3    0    0  0.21541928084E+02  0.80272780309E-03  0.36845514174E+02  0.42680751879E+02  0.00000000000E+00 0.  1.
</event>
<event>
 7    1  0.3861961E-015  0.9000766E+02  0.7816164E-02  0.1186339E+00
        -11   -1    0    0    0    0  0.00000000000E+00  0.00000000000E+00  0.45593999997E+02  0.45594000000E+02  0.51100000000E-03 0. -1.
         11   -1    0    0    0    0 -0.00000000000E+00 -0.00000000000E+00 -0.45593999997E+02  0.45594000000E+02  0.51100000000E-03 0.  1.
    9900012    2    1    2    0    0 -0.89118387752E+00 -0.64833634362E+00 -0.42266405357E+00  0.90007663768E+02  0.89999924130E+02 0.  0.
        -12    1    1    2    0    0  0.89118387752E+00  0.64833634362E+00  0.42266405357E+00  0.11803362318E+01  0.00000000000E+00 0.  1.
         11    1    3    3    0    0 -0.74856031386E+01  0.20185829380E+01 -0.68871279510E+01  0.10370220012E+02  0.51100000000E-03 0. -1.
        -11    1    3    3    0    0 -0.28061423772E+01 -0.40192660337E+02 -0.68865569395E+00  0.40296384787E+02  0.51100000000E-03 0.  1.
         12    1    3    3    0    0  0.94005616383E+01  0.37525741055E+02  0.71531195914E+01  0.39341058969E+02  0.00000000000E+00 0. -1.
</event>
<event>
 7    1  0.3861961E-015  0.9000765E+02  0.7816164E-02  0.1186339E+00
        -11   -1    0    0    0    0  0.00000000000E+00  0.00000000000E+00  0.45593999997E+02  0.45594000000E+02  0.51100000000E-03 0. -1.
         11   -1    0    0    0    0 -0.00000000000E+00 -0.00000000000E+00 -0.45593999997E+02  0.45594000000E+02  0.51100000000E-03 0.  1.
    9900012    2    1    2    0    0 -0.33730758283E+00 -0.84448539160E+00  0.75251871098E+00  0.90007654122E+02  0.89999914356E+02 0.  0.
        -12    1    1    2    0    0  0.33730758283E+00  0.84448539160E+00 -0.75251871098E+00  0.11803458783E+01  0.00000000000E+00 0.  1.
         11    1    3    3    0    0  0.41720474871E+01  0.10977719692E+02 -0.12374408493E+01  0.11808792063E+02  0.51100000000E-03 0. -1.
        -11    1    3    3    0    0  0.16706368874E+01 -0.79393819980E+01 -0.37332946659E+02  0.38204367822E+02  0.51100000000E-03 0.  1.
         12    1    3    3    0    0 -0.61799919574E+01 -0.38828230854E+01  0.39322906220E+02  0.39994494237E+02  0.00000000000E+00 0. -1.
</event>
<event>
 7    1  0.3861961E-015  0.9000647E+02  0.7816164E-02  0.1186342E+00
        -11   -1    0    0    0    0  0.00000000000E+00  0.00000000000E+00  0.45593999997E+02  0.45594000000E+02  0.51100000000E-03 0.  1.
         11   -1    0    0    0    0 -0.00000000000E+00 -0.00000000000E+00 -0.45593999997E+02  0.45594000000E+02  0.51100000000E-03 0. -1.
    9900012    2    1    2    0    0  0.74174037213E+00 -0.80829906401E+00  0.43873283622E+00  0.90006470204E+02  0.89998714802E+02 0.  0.
        -12    1    1    2    0    0 -0.74174037213E+00  0.80829906401E+00 -0.43873283622E+00  0.11815297957E+01  0.00000000000E+00 0.  1.
         11    1    3    3    0    0  0.10664695189E+01 -0.36063151475E+00 -0.99034476956E+01  0.99672307511E+01  0.51100000000E-03 0. -1.
        -11    1    3    3    0    0  0.37195691358E+02 -0.93652254904E+01  0.15016746960E+02  0.41191377661E+02  0.51100000000E-03 0.  1.
         12    1    3    3    0    0 -0.37520420505E+02  0.89175579411E+01 -0.46745664279E+01  0.38847861792E+02  0.00000000000E+00 0. -1.
</event>
<event>
 7    1  0.3861961E-015  0.9000772E+02  0.7816164E-02  0.1186339E+00
        -11   -1    0    0    0    0  0.00000000000E+00  0.00000000000E+00  0.45593999997E+02  0.45594000000E+02  0.51100000000E-03 0.  1.
         11   -1    0    0    0    0 -0.00000000000E+00 -0.00000000000E+00 -0.45593999997E+02  0.45594000000E+02  0.51100000000E-03 0. -1.
    9900012    2    1    2    0    0 -0.36331256377E+00 -0.77228200427E-01 -0.11203162049E+01  0.90007716723E+02  0.89999977784E+02 0.  0.
        -12    1    1    2    0    0  0.36331256377E+00  0.77228200427E-01  0.11203162049E+01  0.11802832765E+01  0.00000000000E+00 0.  1.
         11    1    3    3    0    0  0.38562454055E+02 -0.19382499899E+02 -0.95312008709E+01  0.44199411256E+02  0.51100000000E-03 0. -1.
        -11    1    3    3    0    0 -0.53124947659E+01  0.49773927834E+01 -0.24626565469E+01  0.76851621379E+01  0.51100000000E-03 0.  1.
        -12    1    3    3    0    0 -0.33613271853E+02  0.14327878915E+02  0.10873541213E+02  0.38123143330E+02  0.00000000000E+00 0.  1.
</event>
<event>
 7    1  0.3861961E-015  0.9000765E+02  0.7816164E-02  0.1186339E+00
        -11   -1    0    0    0    0  0.00000000000E+00  0.00000000000E+00  0.45593999997E+02  0.45594000000E+02  0.51100000000E-03 0.  1.
         11   -1    0    0    0    0 -0.00000000000E+00 -0.00000000000E+00 -0.45593999997E+02  0.45594000000E+02  0.51100000000E-03 0. -1.
    9900012    2    1    2    0    0  0.21563920778E+00 -0.81640448893E+00  0.82474848471E+00  0.90007649789E+02  0.89999909966E+02 0.  0.
        -12    1    1    2    0    0 -0.21563920778E+00  0.81640448893E+00 -0.82474848471E+00  0.11803502110E+01  0.00000000000E+00 0.  1.
         11    1    3    3    0    0 -0.14248743031E+01 -0.95789364540E+01  0.19696723494E+01  0.98826059213E+01  0.51100000000E-03 0. -1.
        -11    1    3    3    0    0 -0.37615961508E+02  0.46413013564E+01  0.98305235223E+01  0.39155349972E+02  0.51100000000E-03 0.  1.
         12    1    3    3    0    0  0.39256475018E+02  0.41212306087E+01 -0.10975447387E+02  0.40969693896E+02  0.00000000000E+00 0. -1.
</event>
<event>
 7    1  0.5153441E-015  0.9000774E+02  0.7816164E-02  0.1186339E+00
        -11   -1    0    0    0    0  0.00000000000E+00  0.00000000000E+00  0.45593999997E+02  0.45594000000E+02  0.51100000000E-03 0. -1.
         11   -1    0    0    0    0 -0.00000000000E+00 -0.00000000000E+00 -0.45593999997E+02  0.45594000000E+02  0.51100000000E-03 0.  1.
    9900012    2    1    2    0    0 -0.53831165979E-01  0.13519114194E+00  0.11712591147E+01  0.90007736321E+02  0.89999997640E+02 0.  0.
        -12    1    1    2    0    0  0.53831165979E-01 -0.13519114194E+00 -0.11712591147E+01  0.11802636794E+01  0.00000000000E+00 0.  1.
         11    1    3    3    0    0 -0.15659294560E+00 -0.96088789372E+01 -0.15087796212E+01  0.97278719146E+01  0.51100000000E-03 0. -1.
        -11    1    3    3    0    0  0.36359609044E+02  0.19062767603E+02 -0.69209853492E+01  0.41633043571E+02  0.51100000000E-03 0.  1.
         12    1    3    3    0    0 -0.36256847265E+02 -0.93186975243E+01  0.96010240851E+01  0.38646820834E+02  0.00000000000E+00 0. -1.
</event>
<event>
 7    1  0.3861961E-015  0.9000896E+02  0.7816164E-02  0.1186337E+00
        -11   -1    0    0    0    0  0.00000000000E+00  0.00000000000E+00  0.45593999997E+02  0.45594000000E+02  0.51100000000E-03 0. -1.
         11   -1    0    0    0    0 -0.00000000000E+00 -0.00000000000E+00 -0.45593999997E+02  0.45594000000E+02  0.51100000000E-03 0.  1.
    9900012    2    1    2    0    0 -0.11599851744E+01  0.44944417044E-01  0.20629044352E+00  0.90008957442E+02  0.90001234872E+02 0.  0.
        -12    1    1    2    0    0  0.11599851744E+01 -0.44944417044E-01 -0.20629044352E+00  0.11790425576E+01  0.00000000000E+00 0.  1.
         11    1    3    3    0    0  0.81631140138E+01 -0.15734273858E+01  0.35588971330E+02  0.36547051656E+02  0.51100000000E-03 0. -1.
        -11    1    3    3    0    0  0.46721374812E+01 -0.42777387202E+01  0.64000251170E+01  0.90049008302E+01  0.51100000000E-03 0.  1.
        -12    1    3    3    0    0 -0.13995236669E+02  0.58961105231E+01 -0.41782706003E+02  0.44457004957E+02  0.00000000000E+00 0.  1.
</event>
<event>
 7    1  0.3861961E-015  0.9000774E+02  0.7816164E-02  0.1186339E+00
        -11   -1    0    0    0    0  0.00000000000E+00  0.00000000000E+00  0.45593999997E+02  0.45594000000E+02  0.51100000000E-03 0.  1.
         11   -1    0    0    0    0 -0.00000000000E+00 -0.00000000000E+00 -0.45593999997E+02  0.45594000000E+02  0.51100000000E-03 0. -1.
    9900012    2    1    2    0    0  0.11034271100E+01  0.11364793022E+00 -0.40318219948E+00  0.90007735994E+02  0.89999997309E+02 0.  0.
        -12    1    1    2    0    0 -0.11034271100E+01 -0.11364793022E+00  0.40318219948E+00  0.11802640065E+01  0.00000000000E+00 0.  1.
         11    1    3    3    0    0  0.23002010052E+01 -0.34664964287E+02 -0.87572166093E+01  0.35827915327E+02  0.51100000000E-03 0. -1.
        -11    1    3    3    0    0 -0.63993345794E+01 -0.70011685059E+01  0.74609820655E+01  0.12067895307E+02  0.51100000000E-03 0.  1.
        -12    1    3    3    0    0  0.52025606841E+01  0.41779780723E+02  0.89305234431E+00  0.42111925359E+02  0.00000000000E+00 0.  1.
</event>
<event>
 7    1  0.3861961E-015  0.9000773E+02  0.7816164E-02  0.1186339E+00
        -11   -1    0    0    0    0  0.00000000000E+00  0.00000000000E+00  0.45593999997E+02  0.45594000000E+02  0.51100000000E-03 0. -1.
         11   -1    0    0    0    0 -0.00000000000E+00 -0.00000000000E+00 -0.45593999997E+02  0.45594000000E+02  0.51100000000E-03 0.  1.
    9900012    2    1    2    0    0 -0.17547457761E+00 -0.51811684176E+00  0.10458501046E+01  0.90007729340E+02  0.89999990567E+02 0.  0.
        -12    1    1    2    0    0  0.17547457761E+00  0.51811684176E+00 -0.10458501046E+01  0.11802706598E+01  0.00000000000E+00 0.  1.
         11    1    3    3    0    0 -0.15562299278E+02  0.86316893910E+01 -0.10886657767E+02  0.20861700270E+02  0.51100000000E-03 0. -1.
        -11    1    3    3    0    0  0.19882478689E+02 -0.17591636662E+02 -0.21632253170E+02  0.34245189688E+02  0.51100000000E-03 0.  1.
         12    1    3    3    0    0 -0.44956539889E+01  0.84418304295E+01  0.33564761042E+02  0.34900839382E+02  0.00000000000E+00 0. -1.
</event>
<event>
 7    1  0.3926656E-015  0.9000743E+02  0.7816164E-02  0.1186340E+00
        -11   -1    0    0    0    0  0.00000000000E+00  0.00000000000E+00  0.45593999997E+02  0.45594000000E+02  0.51100000000E-03 0. -1.
         11   -1    0    0    0    0 -0.00000000000E+00 -0.00000000000E+00 -0.45593999997E+02  0.45594000000E+02  0.51100000000E-03 0.  1.
    9900012    2    1    2    0    0 -0.80005884430E+00 -0.85582890661E+00 -0.14562450982E+00  0.90007430743E+02  0.89999688029E+02 0.  0.
        -12    1    1    2    0    0  0.80005884430E+00  0.85582890661E+00  0.14562450982E+00  0.11805692566E+01  0.00000000000E+00 0.  1.
         11    1    3    3    0    0 -0.88561181289E+00  0.86047798718E+01  0.40166957809E+01  0.95373156697E+01  0.51100000000E-03 0. -1.
        -11    1    3    3    0    0  0.19615853315E+02  0.16927210091E+02 -0.29306988731E+02  0.39117920848E+02  0.51100000000E-03 0.  1.
         12    1    3    3    0    0 -0.19530300346E+02 -0.26387818869E+02  0.25144668440E+02  0.41352194226E+02  0.00000000000E+00 0. -1.
</event>
<event>
 7    1  0.3861961E-015  0.9000774E+02  0.7816164E-02  0.1186339E+00
        -11   -1    0    0    0    0  0.00000000000E+00  0.00000000000E+00  0.45593999997E+02  0.45594000000E+02  0.51100000000E-03 0. -1.
         11   -1    0    0    0    0 -0.00000000000E+00 -0.00000000000E+00 -0.45593999997E+02  0.45594000000E+02  0.51100000000E-03 0.  1.
    9900012    2    1    2    0    0 -0.28941573379E+00 -0.91694926898E+00  0.68443980657E+00  0.90007739318E+02  0.90000000677E+02 0.  0.
        -12    1    1    2    0    0  0.28941573379E+00  0.91694926898E+00 -0.68443980657E+00  0.11802606821E+01  0.00000000000E+00 0.  1.
         11    1    3    3    0    0 -0.47792320067E+01 -0.41690396951E+02  0.64041029449E+01  0.42449296711E+02  0.51100000000E-03 0. -1.
        -11    1    3    3    0    0 -0.21036998178E+01  0.54111537615E+01  0.72784733670E+01  0.93103336551E+01  0.51100000000E-03 0.  1.
        -12    1    3    3    0    0  0.65935160907E+01  0.35362293920E+02 -0.12998136505E+02  0.38248108951E+02  0.00000000000E+00 0.  1.
</event>
<event>
 7    1  0.3861961E-015  0.9000821E+02  0.7816164E-02  0.1186338E+00
        -11   -1    0    0    0    0  0.00000000000E+00  0.00000000000E+00  0.45593999997E+02  0.45594000000E+02  0.51100000000E-03 0.  1.
         11   -1    0    0    0    0 -0.00000000000E+00 -0.00000000000E+00 -0.45593999997E+02  0.45594000000E+02  0.51100000000E-03 0. -1.
    9900012    2    1    2    0    0  0.75127649086E+00 -0.20841595154E+00 -0.88546950738E+00  0.90008207720E+02  0.90000475261E+02 0.  0.
        -12    1    1    2    0    0 -0.75127649086E+00  0.20841595154E+00  0.88546950738E+00  0.11797922796E+01  0.00000000000E+00 0.  1.
         11    1    3    3    0    0  0.10322990388E+02  0.16934743525E+02 -0.37252413912E+02  0.42202985810E+02  0.51100000000E-03 0. -1.
        -11    1    3    3    0    0  0.49119295199E+01  0.32995987260E+01  0.58413830927E+01  0.83148156959E+01  0.51100000000E-03 0.  1.
        -12    1    3    3    0    0 -0.14483643417E+02 -0.20442758202E+02  0.30525561312E+02  0.39490406214E+02  0.00000000000E+00 0.  1.
</event>
<event>
 7    1  0.3861961E-015  0.9000775E+02  0.7816164E-02  0.1186339E+00
        -11   -1    0    0    0    0  0.00000000000E+00  0.00000000000E+00  0.45593999997E+02  0.45594000000E+02  0.51100000000E-03 0.  1.
         11   -1    0    0    0    0 -0.00000000000E+00 -0.00000000000E+00 -0.45593999997E+02  0.45594000000E+02  0.51100000000E-03 0. -1.
    9900012    2    1    2    0    0 -0.60828262102E+00  0.73610022532E+00  0.69363488259E+00  0.90007753992E+02  0.90000015545E+02 0.  0.
        -12    1    1    2    0    0  0.60828262102E+00 -0.73610022532E+00 -0.69363488259E+00  0.11802460079E+01  0.00000000000E+00 0.  1.
         11    1    3    3    0    0 -0.25120423033E+01 -0.97780521643E+00  0.84974649004E+01  0.89147837646E+01  0.51100000000E-03 0. -1.
        -11    1    3    3    0    0  0.10676761826E+02  0.38582779835E+02  0.65547137528E+01  0.40565852826E+02  0.51100000000E-03 0.  1.
         12    1    3    3    0    0 -0.87730021433E+01 -0.36868874393E+02 -0.14358543771E+02  0.40527117401E+02  0.00000000000E+00 0. -1.
</event>
<event>
 7    1  0.3861961E-015  0.9000773E+02  0.7816164E-02  0.1186339E+00
        -11   -1    0    0    0    0  0.00000000000E+00  0.00000000000E+00  0.45593999997E+02  0.45594000000E+02  0.51100000000E-03 0. -1.
         11   -1    0    0    0    0 -0.00000000000E+00 -0.00000000000E+00 -0.45593999997E+02  0.45594000000E+02  0.51100000000E-03 0.  1.
    9900012    2    1    2    0    0  0.24786660828E-01 -0.62209514372E+00  0.10027008410E+01  0.90007734893E+02  0.89999996194E+02 0.  0.
        -12    1    1    2    0    0 -0.24786660828E-01  0.62209514372E+00 -0.10027008410E+01  0.11802651071E+01  0.00000000000E+00 0.  1.
         11    1    3    3    0    0 -0.91471098949E+01  0.12102966370E+01  0.42597335835E+01  0.10162665391E+02  0.51100000000E-03 0. -1.
        -11    1    3    3    0    0 -0.28115115733E+02 -0.20911251602E+02  0.90514301320E+01  0.36189343237E+02  0.51100000000E-03 0.  1.
         12    1    3    3    0    0  0.37287012288E+02  0.19078859821E+02 -0.12308462874E+02  0.43655726266E+02  0.00000000000E+00 0. -1.
</event>
<event>
 7    1  0.3861961E-015  0.9000774E+02  0.7816164E-02  0.1186339E+00
        -11   -1    0    0    0    0  0.00000000000E+00  0.00000000000E+00  0.45593999997E+02  0.45594000000E+02  0.51100000000E-03 0. -1.
         11   -1    0    0    0    0 -0.00000000000E+00 -0.00000000000E+00 -0.45593999997E+02  0.45594000000E+02  0.51100000000E-03 0.  1.
    9900012    2    1    2    0    0  0.39282220452E+00 -0.64187225644E+00  0.90922686080E+00  0.90007744620E+02  0.90000006049E+02 0.  0.
        -12    1    1    2    0    0 -0.39282220452E+00  0.64187225644E+00 -0.90922686080E+00  0.11802553801E+01  0.00000000000E+00 0.  1.
         11    1    3    3    0    0 -0.35908549308E+01 -0.60664258944E+01 -0.81082912799E+01  0.10744307796E+02  0.51100000000E-03 0. -1.
        -11    1    3    3    0    0 -0.47558779061E+01 -0.33284252477E+02 -0.10250105246E+02  0.35150028385E+02  0.51100000000E-03 0.  1.
         12    1    3    3    0    0  0.87395550414E+01  0.38708806115E+02  0.19267623386E+02  0.44113408440E+02  0.00000000000E+00 0. -1.
</event>
<event>
 7    1  0.3861961E-015  0.9000775E+02  0.7816164E-02  0.1186339E+00
        -11   -1    0    0    0    0  0.00000000000E+00  0.00000000000E+00  0.45593999997E+02  0.45594000000E+02  0.51100000000E-03 0. -1.
         11   -1    0    0    0    0 -0.00000000000E+00 -0.00000000000E+00 -0.45593999997E+02  0.45594000000E+02  0.51100000000E-03 0.  1.
    9900012    2    1    2    0    0  0.10145563250E+01 -0.22067461713E+00  0.56121435029E+00  0.90007752835E+02  0.90000014373E+02 0.  0.
        -12    1    1    2    0    0 -0.10145563250E+01  0.22067461713E+00 -0.56121435029E+00  0.11802471649E+01  0.00000000000E+00 0.  1.
         11    1    3    3    0    0  0.27061763791E+02  0.28317381971E+02 -0.37017581031E+01  0.39343566114E+02  0.51100000000E-03 0. -1.
        -11    1    3    3    0    0 -0.10955791931E+01  0.34355314003E+01  0.91296087209E+01  0.98159525991E+01  0.51100000000E-03 0.  1.
        -12    1    3    3    0    0 -0.24951628273E+02 -0.31973587989E+02 -0.48666362675E+01  0.40848234122E+02  0.00000000000E+00 0.  1.
</event>
<event>
 7    1  0.3861961E-015  0.9000771E+02  0.7816164E-02  0.1186339E+00
        -11   -1    0    0    0    0  0.00000000000E+00  0.00000000000E+00  0.45593999997E+02  0.45594000000E+02  0.51100000000E-03 0.  1.
         11   -1    0    0    0    0 -0.00000000000E+00 -0.00000000000E+00 -0.45593999997E+02  0.45594000000E+02  0.51100000000E-03 0. -1.
    9900012    2    1    2    0    0  0.19569292002E+00  0.81361118938E+00 -0.83236399954E+00  0.90007708208E+02  0.89999969156E+02 0.  0.
        -12    1    1    2    0    0 -0.19569292002E+00 -0.81361118938E+00  0.83236399954E+00  0.11802917920E+01  0.00000000000E+00 0.  1.
         11    1    3    3    0    0 -0.81610683651E+00  0.37773311757E+01 -0.10729959529E+02  0.11404661018E+02  0.51100000000E-03 0. -1.
        -11    1    3    3    0    0 -0.13676756227E+02 -0.36464264665E+02  0.14870639333E+02  0.41687314293E+02  0.51100000000E-03 0.  1.
         12    1    3    3    0    0  0.14688555984E+02  0.33500544679E+02 -0.49730438044E+01  0.36915732898E+02  0.00000000000E+00 0. -1.
</event>
<event>
 7    1  0.3861961E-015  0.9000858E+02  0.7816164E-02  0.1186337E+00
        -11   -1    0    0    0    0  0.00000000000E+00  0.00000000000E+00  0.45593999997E+02  0.45594000000E+02  0.51100000000E-03 0.  1.
         11   -1    0    0    0    0 -0.00000000000E+00 -0.00000000000E+00 -0.45593999997E+02  0.45594000000E+02  0.51100000000E-03 0. -1.
    9900012    2    1    2    0    0 -0.94760164707E+00 -0.41613315773E+00 -0.56560687708E+00  0.90008581997E+02  0.90000854475E+02 0.  0.
        -12    1    1    2    0    0  0.94760164707E+00  0.41613315773E+00  0.56560687708E+00  0.11794180030E+01  0.00000000000E+00 0.  1.
         11    1    3    3    0    0  0.72550965597E+01  0.43008218224E+01 -0.41535952967E+01  0.94013748244E+01  0.51100000000E-03 0. -1.
        -11    1    3    3    0    0 -0.33391766357E+02  0.24406988012E+02  0.70065274609E+01  0.41950000615E+02  0.51100000000E-03 0.  1.
         12    1    3    3    0    0  0.25189068150E+02 -0.29123942992E+02 -0.34185390413E+01  0.38657206558E+02  0.00000000000E+00 0. -1.
</event>
<event>
 7    1  0.3861961E-015  0.9000776E+02  0.7816164E-02  0.1186339E+00
        -11   -1    0    0    0    0  0.00000000000E+00  0.00000000000E+00  0.45593999997E+02  0.45594000000E+02  0.51100000000E-03 0. -1.
         11   -1    0    0    0    0 -0.00000000000E+00 -0.00000000000E+00 -0.45593999997E+02  0.45594000000E+02  0.51100000000E-03 0.  1.
    9900012    2    1    2    0    0 -0.90283563594E+00  0.25274217920E+00  0.71692450609E+00  0.90007757846E+02  0.90000019450E+02 0.  0.
        -12    1    1    2    0    0  0.90283563594E+00 -0.25274217920E+00 -0.71692450609E+00  0.11802421540E+01  0.00000000000E+00 0.  1.
         11    1    3    3    0    0 -0.10846938177E+02 -0.33081734019E+02  0.17019530592E+02  0.38752053047E+02  0.51100000000E-03 0. -1.
        -11    1    3    3    0    0 -0.41750117073E+01  0.16970915826E+01  0.78298798136E+01  0.90342603876E+01  0.51100000000E-03 0.  1.
        -12    1    3    3    0    0  0.14119114248E+02  0.31637384616E+02 -0.24132485900E+02  0.42221444411E+02  0.00000000000E+00 0.  1.
</event>
<event>
 7    1  0.3861961E-015  0.9000776E+02  0.7816164E-02  0.1186339E+00
        -11   -1    0    0    0    0  0.00000000000E+00  0.00000000000E+00  0.45593999997E+02  0.45594000000E+02  0.51100000000E-03 0. -1.
         11   -1    0    0    0    0 -0.00000000000E+00 -0.00000000000E+00 -0.45593999997E+02  0.45594000000E+02  0.51100000000E-03 0.  1.
    9900012    2    1    2    0    0 -0.11484590258E+00  0.59573666239E+00  0.10123571305E+01  0.90007763281E+02  0.90000024957E+02 0.  0.
        -12    1    1    2    0    0  0.11484590258E+00 -0.59573666239E+00 -0.10123571305E+01  0.11802367186E+01  0.00000000000E+00 0.  1.
         11    1    3    3    0    0  0.88840936942E+01 -0.17109909945E+02  0.30244647469E+02  0.35866625711E+02  0.51100000000E-03 0. -1.
        -11    1    3    3    0    0  0.80493733062E+01 -0.37203201057E+01  0.50982790298E+01  0.10228667637E+02  0.51100000000E-03 0.  1.
        -12    1    3    3    0    0 -0.17048312903E+02  0.21425966713E+02 -0.34330569369E+02  0.43912469933E+02  0.00000000000E+00 0.  1.
</event>
<event>
 7    1  0.3861961E-015  0.9000788E+02  0.7816164E-02  0.1186339E+00
        -11   -1    0    0    0    0  0.00000000000E+00  0.00000000000E+00  0.45593999997E+02  0.45594000000E+02  0.51100000000E-03 0.  1.
         11   -1    0    0    0    0 -0.00000000000E+00 -0.00000000000E+00 -0.45593999997E+02  0.45594000000E+02  0.51100000000E-03 0. -1.
    9900012    2    1    2    0    0 -0.10977912083E+00 -0.87132224145E+00 -0.78830836350E+00  0.90007879676E+02  0.90000142887E+02 0.  0.
        -12    1    1    2    0    0  0.10977912083E+00  0.87132224145E+00  0.78830836350E+00  0.11801203243E+01  0.00000000000E+00 0.  1.
         11    1    3    3    0    0  0.25148127304E+02 -0.20275678764E+02 -0.18014657786E+02  0.36987286352E+02  0.51100000000E-03 0. -1.
        -11    1    3    3    0    0  0.90794505873E+01  0.30280824906E+01 -0.28753774792E+01  0.99936731208E+01  0.51100000000E-03 0.  1.
        -12    1    3    3    0    0 -0.34337357012E+02  0.16376274032E+02  0.20101726902E+02  0.43026920203E+02  0.00000000000E+00 0.  1.
</event>
<event>
 7    1  0.3861961E-015  0.9000766E+02  0.7816164E-02  0.1186339E+00
        -11   -1    0    0    0    0  0.00000000000E+00  0.00000000000E+00  0.45593999997E+02  0.45594000000E+02  0.51100000000E-03 0.  1.
         11   -1    0    0    0    0 -0.00000000000E+00 -0.00000000000E+00 -0.45593999997E+02  0.45594000000E+02  0.51100000000E-03 0. -1.
    9900012    2    1    2    0    0  0.69649138361E+00 -0.42193939101E+00 -0.85443562285E+00  0.90007663891E+02  0.89999924254E+02 0.  0.
        -12    1    1    2    0    0 -0.69649138361E+00  0.42193939101E+00  0.85443562285E+00  0.11803361092E+01  0.00000000000E+00 0.  1.
         11    1    3    3    0    0 -0.13472522648E+01 -0.13547880034E+02  0.99802075701E+01  0.16880897058E+02  0.51100000000E-03 0. -1.
        -11    1    3    3    0    0 -0.84489070407E+01  0.39686973351E+02  0.43040063902E+01  0.40803974747E+02  0.51100000000E-03 0.  1.
         12    1    3    3    0    0  0.10492650689E+02 -0.26561032708E+02 -0.15138649583E+02  0.32322792086E+02  0.00000000000E+00 0. -1.
</event>
<event>
 7    1  0.3861961E-015  0.9000776E+02  0.7816164E-02  0.1186339E+00
        -11   -1    0    0    0    0  0.00000000000E+00  0.00000000000E+00  0.45593999997E+02  0.45594000000E+02  0.51100000000E-03 0. -1.
         11   -1    0    0    0    0 -0.00000000000E+00 -0.00000000000E+00 -0.45593999997E+02  0.45594000000E+02  0.51100000000E-03 0.  1.
    9900012    2    1    2    0    0  0.27456717981E+00 -0.79401754822E+00  0.82892778427E+00  0.90007757536E+02  0.90000019135E+02 0.  0.
        -12    1    1    2    0    0 -0.27456717981E+00  0.79401754822E+00 -0.82892778427E+00  0.11802424643E+01  0.00000000000E+00 0.  1.
         11    1    3    3    0    0 -0.10084518034E+02  0.16761826895E+01 -0.12166129365E+01  0.10295010427E+02  0.51100000000E-03 0. -1.
        -11    1    3    3    0    0 -0.30624168475E+02 -0.12209742563E+02 -0.12336022969E+02  0.35200780832E+02  0.51100000000E-03 0.  1.
         12    1    3    3    0    0  0.40983253689E+02  0.97395423248E+01  0.14381563690E+02  0.44511966277E+02  0.00000000000E+00 0. -1.
</event>
<event>
 7    1  0.3861961E-015  0.9000775E+02  0.7816164E-02  0.1186339E+00
        -11   -1    0    0    0    0  0.00000000000E+00  0.00000000000E+00  0.45593999997E+02  0.45594000000E+02  0.51100000000E-03 0. -1.
         11   -1    0    0    0    0 -0.00000000000E+00 -0.00000000000E+00 -0.45593999997E+02  0.45594000000E+02  0.51100000000E-03 0.  1.
    9900012    2    1    2    0    0 -0.89808231824E-01  0.11768253063E+01  0.29165659457E-02  0.90007749253E+02  0.90000010743E+02 0.  0.
        -12    1    1    2    0    0  0.89808231824E-01 -0.11768253063E+01 -0.29165659457E-02  0.11802507472E+01  0.00000000000E+00 0.  1.
         11    1    3    3    0    0  0.26667095741E+02  0.30890956384E+02 -0.58337850616E+01  0.41224000655E+02  0.51100000000E-03 0. -1.
        -11    1    3    3    0    0 -0.19879799726E+02 -0.31431046482E+01  0.70087759603E+01  0.21312167527E+02  0.51100000000E-03 0.  1.
        -12    1    3    3    0    0 -0.68771042471E+01 -0.26571026429E+02 -0.11720743328E+01  0.27471581072E+02  0.00000000000E+00 0.  1.
</event>
<event>
 7    1  0.3861961E-015  0.9000778E+02  0.7816164E-02  0.1186339E+00
        -11   -1    0    0    0    0  0.00000000000E+00  0.00000000000E+00  0.45593999997E+02  0.45594000000E+02  0.51100000000E-03 0.  1.
         11   -1    0    0    0    0 -0.00000000000E+00 -0.00000000000E+00 -0.45593999997E+02  0.45594000000E+02  0.51100000000E-03 0. -1.
    9900012    2    1    2    0    0  0.20532027369E+00  0.92573517568E+00 -0.70269687225E+00  0.90007777595E+02  0.90000039460E+02 0.  0.
        -12    1    1    2    0    0 -0.20532027369E+00 -0.92573517568E+00  0.70269687225E+00  0.11802224047E+01  0.00000000000E+00 0.  1.
         11    1    3    3    0    0 -0.36795495631E+02  0.17885025275E+02 -0.47321762182E+01  0.41184658792E+02  0.51100000000E-03 0. -1.
        -11    1    3    3    0    0  0.54222334220E+01  0.71158648783E+01  0.86632623412E+00  0.89881405003E+01  0.51100000000E-03 0.  1.
        -12    1    3    3    0    0  0.31578582482E+02 -0.24075154978E+02  0.31631531118E+01  0.39834978303E+02  0.00000000000E+00 0.  1.
</event>
<event>
 7    1  0.3861961E-015  0.9000779E+02  0.7816164E-02  0.1186339E+00
        -11   -1    0    0    0    0  0.00000000000E+00  0.00000000000E+00  0.45593999997E+02  0.45594000000E+02  0.51100000000E-03 0. -1.
         11   -1    0    0    0    0 -0.00000000000E+00 -0.00000000000E+00 -0.45593999997E+02  0.45594000000E+02  0.51100000000E-03 0.  1.
    9900012    2    1    2    0    0 -0.25416501019E+00 -0.69978045297E+00  0.91574911590E+00  0.90007792824E+02  0.90000054889E+02 0.  0.
        -12    1    1    2    0    0  0.25416501019E+00  0.69978045297E+00 -0.91574911590E+00  0.11802071759E+01  0.00000000000E+00 0.  1.
         11    1    3    3    0    0  0.27589614738E+02  0.14462136706E+02  0.15569904727E+02  0.34824735073E+02  0.51100000000E-03 0. -1.
        -11    1    3    3    0    0 -0.18173123425E+01  0.11109380408E+02  0.60722412753E+01  0.12790350721E+02  0.51100000000E-03 0.  1.
        -12    1    3    3    0    0 -0.26026467405E+02 -0.26271297567E+02 -0.20726396886E+02  0.42392707030E+02  0.00000000000E+00 0.  1.
</event>
<event>
 7    1  0.3861961E-015  0.9000769E+02  0.7816164E-02  0.1186339E+00
        -11   -1    0    0    0    0  0.00000000000E+00  0.00000000000E+00  0.45593999997E+02  0.45594000000E+02  0.51100000000E-03 0. -1.
         11   -1    0    0    0    0 -0.00000000000E+00 -0.00000000000E+00 -0.45593999997E+02  0.45594000000E+02  0.51100000000E-03 0.  1.
    9900012    2    1    2    0    0 -0.10473798343E+01 -0.42306452815E-01  0.54253645846E+00  0.90007686414E+02  0.89999947074E+02 0.  0.
        -12    1    1    2    0    0  0.10473798343E+01  0.42306452815E-01 -0.54253645846E+00  0.11803135863E+01  0.00000000000E+00 0.  1.
         11    1    3    3    0    0  0.24381350593E+02 -0.37466850898E+01  0.24719066724E+02  0.34921628912E+02  0.51100000000E-03 0. -1.
        -11    1    3    3    0    0  0.10024521536E+02  0.19419405155E+01  0.27002621907E+01  0.10561892877E+02  0.51100000000E-03 0.  1.
        -12    1    3    3    0    0 -0.35453251963E+02  0.17624381215E+01 -0.26876792456E+02  0.44524164625E+02  0.00000000000E+00 0.  1.
</event>
<event>
 7    1  0.3861961E-015  0.9000786E+02  0.7816164E-02  0.1186339E+00
        -11   -1    0    0    0    0  0.00000000000E+00  0.00000000000E+00  0.45593999997E+02  0.45594000000E+02  0.51100000000E-03 0. -1.
         11   -1    0    0    0    0 -0.00000000000E+00 -0.00000000000E+00 -0.45593999997E+02  0.45594000000E+02  0.51100000000E-03 0.  1.
    9900012    2    1    2    0    0  0.64565283594E+00 -0.65341564172E+00 -0.74088864655E+00  0.90007857817E+02  0.90000120740E+02 0.  0.
        -12    1    1    2    0    0 -0.64565283594E+00  0.65341564172E+00  0.74088864655E+00  0.11801421830E+01  0.00000000000E+00 0.  1.
         11    1    3    3    0    0  0.10395636924E+02  0.35796629509E+02 -0.24470026609E+02  0.44589798764E+02  0.51100000000E-03 0. -1.
        -11    1    3    3    0    0  0.86074639526E+00 -0.55146678643E+01  0.60868594255E+01  0.82584686193E+01  0.51100000000E-03 0.  1.
        -12    1    3    3    0    0 -0.10610730483E+02 -0.30935377287E+02  0.17642278537E+02  0.37159590434E+02  0.00000000000E+00 0.  1.
</event>
<event>
 7    1  0.6069127E-015  0.9000765E+02  0.7816164E-02  0.1186339E+00
        -11   -1    0    0    0    0  0.00000000000E+00  0.00000000000E+00  0.45593999997E+02  0.45594000000E+02  0.51100000000E-03 0.  1.
         11   -1    0    0    0    0 -0.00000000000E+00 -0.00000000000E+00 -0.45593999997E+02  0.45594000000E+02  0.51100000000E-03 0. -1.
    9900012    2    1    2    0    0 -0.38525131633E+00  0.92490982747E+00 -0.62397058362E+00  0.90007654265E+02  0.89999914501E+02 0.  0.
        -12    1    1    2    0    0  0.38525131633E+00 -0.92490982747E+00  0.62397058362E+00  0.11803457353E+01  0.00000000000E+00 0.  1.
         11    1    3    3    0    0  0.54570998505E+01  0.75524940527E+01 -0.18668266225E+01  0.95029020354E+01  0.51100000000E-03 0. -1.
        -11    1    3    3    0    0  0.92045772790E+00 -0.48260340502E+01  0.40414891617E+02  0.40712422082E+02  0.51100000000E-03 0.  1.
         12    1    3    3    0    0 -0.67628088948E+01 -0.18015501751E+01 -0.39172035578E+02  0.39792330147E+02  0.00000000000E+00 0. -1.
</event>
<event>
 7    1  0.3861961E-015  0.9000772E+02  0.7816164E-02  0.1186339E+00
        -11   -1    0    0    0    0  0.00000000000E+00  0.00000000000E+00  0.45593999997E+02  0.45594000000E+02  0.51100000000E-03 0. -1.
         11   -1    0    0    0    0 -0.00000000000E+00 -0.00000000000E+00 -0.45593999997E+02  0.45594000000E+02  0.51100000000E-03 0.  1.
    9900012    2    1    2    0    0  0.11515153272E+01  0.15769575299E+00  0.20543561832E+00  0.90007720672E+02  0.89999981785E+02 0.  0.
        -12    1    1    2    0    0 -0.11515153272E+01 -0.15769575299E+00 -0.20543561832E+00  0.11802793282E+01  0.00000000000E+00 0.  1.
         11    1    3    3    0    0 -0.45642091040E+01  0.79241847944E+01  0.52893355089E+01  0.10564174354E+02  0.51100000000E-03 0. -1.
        -11    1    3    3    0    0  0.15246460478E+02  0.33418916733E+02  0.92902843652E+00  0.36744273660E+02  0.51100000000E-03 0.  1.
         12    1    3    3    0    0 -0.95307360470E+01 -0.41185405774E+02 -0.60129283271E+01  0.42699272657E+02  0.00000000000E+00 0. -1.
</event>
<event>
 7    1  0.3861961E-015  0.9000774E+02  0.7816164E-02  0.1186339E+00
        -11   -1    0    0    0    0  0.00000000000E+00  0.00000000000E+00  0.45593999997E+02  0.45594000000E+02  0.51100000000E-03 0.  1.
         11   -1    0    0    0    0 -0.00000000000E+00 -0.00000000000E+00 -0.45593999997E+02  0.45594000000E+02  0.51100000000E-03 0. -1.
    9900012    2    1    2    0    0  0.69553407495E+00  0.92937947046E+00  0.21330901392E+00  0.90007739611E+02  0.90000000974E+02 0.  0.
        -12    1    1    2    0    0 -0.69553407495E+00 -0.92937947046E+00 -0.21330901392E+00  0.11802603886E+01  0.00000000000E+00 0.  1.
         11    1    3    3    0    0 -0.60156859481E+01 -0.25550947003E+02 -0.24571517338E+02  0.35955511882E+02  0.51100000000E-03 0. -1.
        -11    1    3    3    0    0  0.93370927774E+00 -0.84996435679E+01  0.15011355097E+02  0.17275894648E+02  0.51100000000E-03 0.  1.
        -12    1    3    3    0    0  0.57775107453E+01  0.34979970041E+02  0.97734712549E+01  0.36776333081E+02  0.00000000000E+00 0.  1.
</event>
<event>
 7    1  0.3861961E-015  0.9000773E+02  0.7816164E-02  0.1186339E+00
        -11   -1    0    0    0    0  0.00000000000E+00  0.00000000000E+00  0.45593999997E+02  0.45594000000E+02  0.51100000000E-03 0.  1.
         11   -1    0    0    0    0 -0.00000000000E+00 -0.00000000000E+00 -0.45593999997E+02  0.45594000000E+02  0.51100000000E-03 0. -1.
    9900012    2    1    2    0    0  0.12656519616E+00  0.62040924666E+00 -0.99604179285E+00  0.90007734930E+02  0.89999996231E+02 0.  0.
        -12    1    1    2    0    0 -0.12656519616E+00 -0.62040924666E+00  0.99604179285E+00  0.11802650699E+01  0.00000000000E+00 0.  1.
         11    1    3    3    0    0  0.71216405525E+01 -0.34606747658E+01  0.33752594394E+01  0.86073463122E+01  0.51100000000E-03 0. -1.
        -11    1    3    3    0    0  0.31088701815E+02  0.93264610097E+01  0.17803955313E+02  0.37019874129E+02  0.51100000000E-03 0.  1.
         12    1    3    3    0    0 -0.38083777171E+02 -0.52453769973E+01 -0.22175256545E+02  0.44380514489E+02  0.00000000000E+00 0. -1.
</event>
<event>
 7    1  0.3861961E-015  0.9000771E+02  0.7816164E-02  0.1186339E+00
        -11   -1    0    0    0    0  0.00000000000E+00  0.00000000000E+00  0.45593999997E+02  0.45594000000E+02  0.51100000000E-03 0.  1.
         11   -1    0    0    0    0 -0.00000000000E+00 -0.00000000000E+00 -0.45593999997E+02  0.45594000000E+02  0.51100000000E-03 0. -1.
    9900012    2    1    2    0    0  0.40662875454E+00 -0.48675832076E+00 -0.99539663371E+00  0.90007705518E+02  0.89999966430E+02 0.  0.
        -12    1    1    2    0    0 -0.40662875454E+00  0.48675832076E+00  0.99539663371E+00  0.11802944824E+01  0.00000000000E+00 0.  1.
         11    1    3    3    0    0  0.48485219859E+01 -0.97806622229E+01 -0.35311658205E+02  0.36960556332E+02  0.51100000000E-03 0. -1.
        -11    1    3    3    0    0  0.42705568260E+01  0.19513930272E+01 -0.79714009293E+01  0.92514227764E+01  0.51100000000E-03 0.  1.
        -12    1    3    3    0    0 -0.87124500573E+01  0.73425108749E+01  0.42287662500E+02  0.43795726409E+02  0.00000000000E+00 0.  1.
</event>
<event>
 7    1  0.3861961E-015  0.9000769E+02  0.7816164E-02  0.1186339E+00
        -11   -1    0    0    0    0  0.00000000000E+00  0.00000000000E+00  0.45593999997E+02  0.45594000000E+02  0.51100000000E-03 0. -1.
         11   -1    0    0    0    0 -0.00000000000E+00 -0.00000000000E+00 -0.45593999997E+02  0.45594000000E+02  0.51100000000E-03 0.  1.
    9900012    2    1    2    0    0 -0.56501575692E+00  0.67307866515E+00 -0.78794341343E+00  0.90007689652E+02  0.89999950355E+02 0.  0.
        -12    1    1    2    0    0  0.56501575692E+00 -0.67307866515E+00  0.78794341343E+00  0.11803103481E+01  0.00000000000E+00 0.  1.
         11    1    3    3    0    0  0.33552535917E+02  0.70906201182E+01  0.95498521503E+01  0.35598444298E+02  0.51100000000E-03 0. -1.
        -11    1    3    3    0    0  0.46552946275E+01  0.16228886587E+01  0.90607655573E+01  0.10315183392E+02  0.51100000000E-03 0.  1.
        -12    1    3    3    0    0 -0.38772846301E+02 -0.80404301117E+01 -0.19398561121E+02  0.44094061961E+02  0.00000000000E+00 0.  1.
</event>
<event>
 7    1  0.3861961E-015  0.9000773E+02  0.7816164E-02  0.1186339E+00
        -11   -1    0    0    0    0  0.00000000000E+00  0.00000000000E+00  0.45593999997E+02  0.45594000000E+02  0.51100000000E-03 0. -1.
         11   -1    0    0    0    0 -0.00000000000E+00 -0.00000000000E+00 -0.45593999997E+02  0.45594000000E+02  0.51100000000E-03 0.  1.
    9900012    2    1    2    0    0 -0.50785976577E+00  0.77271967142E+00 -0.73349187829E+00  0.90007734111E+02  0.89999995402E+02 0.  0.
        -12    1    1    2    0    0  0.50785976577E+00 -0.77271967142E+00  0.73349187829E+00  0.11802658886E+01  0.00000000000E+00 0.  1.
         11    1    3    3    0    0  0.20890181269E+02  0.19468704759E+02  0.21664271338E+02  0.35843699465E+02  0.51100000000E-03 0. -1.
        -11    1    3    3    0    0  0.10762194066E+01  0.85627652412E+01  0.45263681233E+01  0.97451118739E+01  0.51100000000E-03 0.  1.
        -12    1    3    3    0    0 -0.22474260442E+02 -0.27258750328E+02 -0.26924131340E+02  0.44418922773E+02  0.00000000000E+00 0.  1.
</event>
<event>
 7    1  0.3861961E-015  0.9000774E+02  0.7816164E-02  0.1186339E+00
        -11   -1    0    0    0    0  0.00000000000E+00  0.00000000000E+00  0.45593999997E+02  0.45594000000E+02  0.51100000000E-03 0.  1.
         11   -1    0    0    0    0 -0.00000000000E+00 -0.00000000000E+00 -0.45593999997E+02  0.45594000000E+02  0.51100000000E-03 0. -1.
    9900012    2    1    2    0    0 -0.92590067862E+00 -0.38064179177E+00 -0.62516216963E+00  0.90007742410E+02  0.90000003810E+02 0.  0.
        -12    1    1    2    0    0  0.92590067862E+00  0.38064179177E+00  0.62516216963E+00  0.11802575900E+01  0.00000000000E+00 0.  1.
         11    1    3    3    0    0 -0.30148483431E+02 -0.24692174515E+02 -0.10610446764E+02  0.40388316581E+02  0.51100000000E-03 0. -1.
        -11    1    3    3    0    0 -0.41609688907E+01  0.11047043900E+02  0.66342750239E+01  0.13541212885E+02  0.51100000000E-03 0.  1.
        -12    1    3    3    0    0  0.33383551643E+02  0.13264488823E+02  0.33510095705E+01  0.36078212944E+02  0.00000000000E+00 0.  1.
</event>
<event>
 7    1  0.3861961E-015  0.9000763E+02  0.7816164E-02  0.1186339E+00
        -11   -1    0    0    0    0  0.00000000000E+00  0.00000000000E+00  0.45593999997E+02  0.45594000000E+02  0.51100000000E-03 0. -1.
         11   -1    0    0    0    0 -0.00000000000E+00 -0.00000000000E+00 -0.45593999997E+02  0.45594000000E+02  0.51100000000E-03 0.  1.
    9900012    2    1    2    0    0 -0.91527778090E-01 -0.11128484492E+01 -0.38271483665E+00  0.90007627325E+02  0.89999887206E+02 0.  0.
        -12    1    1    2    0    0  0.91527778090E-01  0.11128484492E+01  0.38271483665E+00  0.11803726747E+01  0.00000000000E+00 0.  1.
         11    1    3    3    0    0 -0.20387150306E+02 -0.28841023720E+02 -0.30003185055E+01  0.35446332084E+02  0.51100000000E-03 0. -1.
        -11    1    3    3    0    0 -0.92420941716E+01 -0.47747860352E+01  0.22357052909E+01  0.10640172215E+02  0.51100000000E-03 0.  1.
        -12    1    3    3    0    0  0.29537716699E+02  0.32502961306E+02  0.38189837786E+00  0.43921123026E+02  0.00000000000E+00 0.  1.
</event>
<event>
 7    1  0.3861961E-015  0.9000778E+02  0.7816164E-02  0.1186339E+00
        -11   -1    0    0    0    0  0.00000000000E+00  0.00000000000E+00  0.45593999997E+02  0.45594000000E+02  0.51100000000E-03 0. -1.
         11   -1    0    0    0    0 -0.00000000000E+00 -0.00000000000E+00 -0.45593999997E+02  0.45594000000E+02  0.51100000000E-03 0.  1.
    9900012    2    1    2    0    0  0.10216925515E+01  0.24989637927E+00  0.53537563679E+00  0.90007775046E+02  0.90000036876E+02 0.  0.
        -12    1    1    2    0    0 -0.10216925515E+01 -0.24989637927E+00 -0.53537563679E+00  0.11802249543E+01  0.00000000000E+00 0.  1.
         11    1    3    3    0    0  0.41904023090E+02 -0.30586384287E+01 -0.11996336411E+02  0.43694559246E+02  0.51100000000E-03 0. -1.
        -11    1    3    3    0    0 -0.42114382197E+01  0.59951570735E+01  0.47441296794E+01  0.87283954362E+01  0.51100000000E-03 0.  1.
        -12    1    3    3    0    0 -0.36670892319E+02 -0.26866222655E+01  0.77875823681E+01  0.37584820364E+02  0.00000000000E+00 0.  1.
</event>
<event>
 7    1  0.3861961E-015  0.9000776E+02  0.7816164E-02  0.1186339E+00
        -11   -1    0    0    0    0  0.00000000000E+00  0.00000000000E+00  0.45593999997E+02  0.45594000000E+02  0.51100000000E-03 0. -1.
         11   -1    0    0    0    0 -0.00000000000E+00 -0.00000000000E+00 -0.45593999997E+02  0.45594000000E+02  0.51100000000E-03 0.  1.
    9900012    2    1    2    0    0  0.11364458112E+00 -0.93422185727E+00 -0.71224210289E+00  0.90007756643E+02  0.90000018230E+02 0.  0.
        -12    1    1    2    0    0 -0.11364458112E+00  0.93422185727E+00  0.71224210289E+00  0.11802433573E+01  0.00000000000E+00 0.  1.
         11    1    3    3    0    0  0.51076471919E+01  0.69808334099E+01 -0.10773649069E+02  0.13816352972E+02  0.51100000000E-03 0. -1.
        -11    1    3    3    0    0 -0.29482269592E+01  0.25160937878E+02 -0.19354151208E+02  0.31880213399E+02  0.51100000000E-03 0.  1.
         12    1    3    3    0    0 -0.20457756515E+01 -0.33075993145E+02  0.29415558174E+02  0.44311190271E+02  0.00000000000E+00 0. -1.
</event>
<event>
 7    1  0.3861961E-015  0.9000779E+02  0.7816164E-02  0.1186339E+00
        -11   -1    0    0    0    0  0.00000000000E+00  0.00000000000E+00  0.45593999997E+02  0.45594000000E+02  0.51100000000E-03 0.  1.
         11   -1    0    0    0    0 -0.00000000000E+00 -0.00000000000E+00 -0.45593999997E+02  0.45594000000E+02  0.51100000000E-03 0. -1.
    9900012    2    1    2    0    0 -0.84728463167E+00  0.74685124728E+00 -0.34236395400E+00  0.90007791921E+02  0.90000053974E+02 0.  0.
        -12    1    1    2    0    0  0.84728463167E+00 -0.74685124728E+00  0.34236395400E+00  0.11802080790E+01  0.00000000000E+00 0.  1.
         11    1    3    3    0    0  0.35648049226E+02  0.25358893451E+01  0.13588692238E+02  0.38234365503E+02  0.51100000000E-03 0. -1.
        -11    1    3    3    0    0  0.70155515329E+00  0.66842505835E+01 -0.11780761111E+02  0.13563101346E+02  0.51100000000E-03 0.  1.
        -12    1    3    3    0    0 -0.37196889011E+02 -0.84732886814E+01 -0.21502950813E+01  0.38210325072E+02  0.00000000000E+00 0.  1.
</event>
<event>
 7    1  0.3861961E-015  0.9000752E+02  0.7816164E-02  0.1186339E+00
        -11   -1    0    0    0    0  0.00000000000E+00  0.00000000000E+00  0.45593999997E+02  0.45594000000E+02  0.51100000000E-03 0.  1.
         11   -1    0    0    0    0 -0.00000000000E+00 -0.00000000000E+00 -0.45593999997E+02  0.45594000000E+02  0.51100000000E-03 0. -1.
    9900012    2    1    2    0    0 -0.10693261802E+01  0.12726653365E+00  0.48361998618E+00  0.90007515548E+02  0.89999773953E+02 0.  0.
        -12    1    1    2    0    0  0.10693261802E+01 -0.12726653365E+00 -0.48361998618E+00  0.11804844519E+01  0.00000000000E+00 0.  1.
         11    1    3    3    0    0 -0.23147672009E+01 -0.44699928095E+01  0.85233139210E+01  0.98987809031E+01  0.51100000000E-03 0. -1.
        -11    1    3    3    0    0  0.20908960330E+02  0.15293276887E+02  0.27707690584E+02  0.37931320275E+02  0.51100000000E-03 0.  1.
         12    1    3    3    0    0 -0.19663519310E+02 -0.10696017544E+02 -0.35747384519E+02  0.42177414370E+02  0.00000000000E+00 0. -1.
</event>
<event>
 7    1  0.3861961E-015  0.9000880E+02  0.7816164E-02  0.1186337E+00
        -11   -1    0    0    0    0  0.00000000000E+00  0.00000000000E+00  0.45593999997E+02  0.45594000000E+02  0.51100000000E-03 0. -1.
         11   -1    0    0    0    0 -0.00000000000E+00 -0.00000000000E+00 -0.45593999997E+02  0.45594000000E+02  0.51100000000E-03 0.  1.
    9900012    2    1    2    0    0 -0.16830691830E+00 -0.11571167572E+01  0.15256871862E+00  0.90008795343E+02  0.90001070635E+02 0.  0.
        -12    1    1    2    0    0  0.16830691830E+00  0.11571167572E+01 -0.15256871862E+00  0.11792046567E+01  0.00000000000E+00 0.  1.
         11    1    3    3    0    0 -0.28183953994E+02  0.28688414381E+01  0.25569433300E+02  0.38162303828E+02  0.51100000000E-03 0. -1.
        -11    1    3    3    0    0 -0.36534846185E+01 -0.63171433241E+01  0.42051583801E+01  0.84224466100E+01  0.51100000000E-03 0.  1.
        -12    1    3    3    0    0  0.31669131694E+02  0.22911851288E+01 -0.29622022962E+02  0.43424044905E+02  0.00000000000E+00 0.  1.
</event>
<event>
 7    1  0.3861961E-015  0.9000776E+02  0.7816164E-02  0.1186339E+00
        -11   -1    0    0    0    0  0.00000000000E+00  0.00000000000E+00  0.45593999997E+02  0.45594000000E+02  0.51100000000E-03 0.  1.
         11   -1    0    0    0    0 -0.00000000000E+00 -0.00000000000E+00 -0.45593999997E+02  0.45594000000E+02  0.51100000000E-03 0. -1.
    9900012    2    1    2    0    0  0.92158034742E+00 -0.70595853541E+00 -0.21281419452E+00  0.90007755249E+02  0.90000016818E+02 0.  0.
        -12    1    1    2    0    0 -0.92158034742E+00  0.70595853541E+00  0.21281419452E+00  0.11802447508E+01  0.00000000000E+00 0.  1.
         11    1    3    3    0    0 -0.10040374345E+02  0.64927507838E+01  0.16278802633E+01  0.12067100900E+02  0.51100000000E-03 0. -1.
        -11    1    3    3    0    0 -0.23010288773E+02  0.20269653824E+02  0.10717379149E+02  0.32483757044E+02  0.51100000000E-03 0.  1.
         12    1    3    3    0    0  0.33972243466E+02 -0.27468363144E+02 -0.12558073607E+02  0.45456897305E+02  0.00000000000E+00 0. -1.
</event>
<event>
 7    1  0.3861961E-015  0.9000776E+02  0.7816164E-02  0.1186339E+00
        -11   -1    0    0    0    0  0.00000000000E+00  0.00000000000E+00  0.45593999997E+02  0.45594000000E+02  0.51100000000E-03 0. -1.
         11   -1    0    0    0    0 -0.00000000000E+00 -0.00000000000E+00 -0.45593999997E+02  0.45594000000E+02  0.51100000000E-03 0.  1.
    9900012    2    1    2    0    0  0.88391081974E+00 -0.63136567537E+00  0.46156510173E+00  0.90007761339E+02  0.90000022989E+02 0.  0.
        -12    1    1    2    0    0 -0.88391081974E+00  0.63136567537E+00 -0.46156510173E+00  0.11802386608E+01  0.00000000000E+00 0.  1.
         11    1    3    3    0    0 -0.87513025548E+00 -0.14229106683E+01 -0.77429170082E+01  0.79210663292E+01  0.51100000000E-03 0. -1.
        -11    1    3    3    0    0  0.18963761871E+02  0.75676620837E+01 -0.31928442794E+02  0.37898802530E+02  0.51100000000E-03 0.  1.
         12    1    3    3    0    0 -0.17204720796E+02 -0.67761170907E+01  0.40132924904E+02  0.44187892480E+02  0.00000000000E+00 0. -1.
</event>
<event>
 7    1  0.3861961E-015  0.9000774E+02  0.7816164E-02  0.1186339E+00
        -11   -1    0    0    0    0  0.00000000000E+00  0.00000000000E+00  0.45593999997E+02  0.45594000000E+02  0.51100000000E-03 0. -1.
         11   -1    0    0    0    0 -0.00000000000E+00 -0.00000000000E+00 -0.45593999997E+02  0.45594000000E+02  0.51100000000E-03 0.  1.
    9900012    2    1    2    0    0 -0.29627886740E+00 -0.11373502309E+01  0.10806358275E+00  0.90007735431E+02  0.89999996739E+02 0.  0.
        -12    1    1    2    0    0  0.29627886740E+00  0.11373502309E+01 -0.10806358275E+00  0.11802645690E+01  0.00000000000E+00 0.  1.
         11    1    3    3    0    0 -0.86738831542E+01 -0.20168516708E+02  0.33906828602E+02  0.40394038437E+02  0.51100000000E-03 0. -1.
        -11    1    3    3    0    0  0.46916429446E+01  0.31954204955E+01  0.49882117190E+01  0.75567507619E+01  0.51100000000E-03 0.  1.
        -12    1    3    3    0    0  0.36859613422E+01  0.15835745981E+02 -0.38786976739E+02  0.42056946232E+02  0.00000000000E+00 0.  1.
</event>
<event>
 7    1  0.3861961E-015  0.9000783E+02  0.7816164E-02  0.1186339E+00
        -11   -1    0    0    0    0  0.00000000000E+00  0.00000000000E+00  0.45593999997E+02  0.45594000000E+02  0.51100000000E-03 0.  1.
         11   -1    0    0    0    0 -0.00000000000E+00 -0.00000000000E+00 -0.45593999997E+02  0.45594000000E+02  0.51100000000E-03 0. -1.
    9900012    2    1    2    0    0  0.49245379154E+00 -0.55445428147E+00 -0.91807865181E+00  0.90007831072E+02  0.90000093642E+02 0.  0.
        -12    1    1    2    0    0 -0.49245379154E+00  0.55445428147E+00  0.91807865181E+00  0.11801689277E+01  0.00000000000E+00 0.  1.
         11    1    3    3    0    0 -0.12928911909E+02 -0.51135397193E+01 -0.13184039050E+02  0.19160478531E+02  0.51100000000E-03 0. -1.
        -11    1    3    3    0    0 -0.15095430472E+02 -0.21483640556E+02  0.17958801612E+02  0.31810963335E+02  0.51100000000E-03 0.  1.
        -12    1    3    3    0    0  0.28516796173E+02  0.26042725994E+02 -0.56928412135E+01  0.39036389206E+02  0.00000000000E+00 0.  1.
</event>
<event>
 7    1  0.3861961E-015  0.9000773E+02  0.7816164E-02  0.1186339E+00
        -11   -1    0    0    0    0  0.00000000000E+00  0.00000000000E+00  0.45593999997E+02  0.45594000000E+02  0.51100000000E-03 0.  1.
         11   -1    0    0    0    0 -0.00000000000E+00 -0.00000000000E+00 -0.45593999997E+02  0.45594000000E+02  0.51100000000E-03 0. -1.
    9900012    2    1    2    0    0  0.32595856547E+00  0.77871719386E+00 -0.82485513675E+00  0.90007730772E+02  0.89999992018E+02 0.  0.
        -12    1    1    2    0    0 -0.32595856547E+00 -0.77871719386E+00  0.82485513675E+00  0.11802692282E+01  0.00000000000E+00 0.  1.
         11    1    3    3    0    0  0.25956002787E+02  0.19347795202E+02 -0.16816709605E+02  0.36480857749E+02  0.51100000000E-03 0. -1.
        -11    1    3    3    0    0  0.88983775350E+00  0.81857472320E+01 -0.57394768854E+01  0.10036925035E+02  0.51100000000E-03 0.  1.
        -12    1    3    3    0    0 -0.26519881976E+02 -0.26754825240E+02  0.21731331353E+02  0.43489947988E+02  0.00000000000E+00 0.  1.
</event>
<event>
 7    1  0.3861961E-015  0.9000773E+02  0.7816164E-02  0.1186339E+00
        -11   -1    0    0    0    0  0.00000000000E+00  0.00000000000E+00  0.45593999997E+02  0.45594000000E+02  0.51100000000E-03 0.  1.
         11   -1    0    0    0    0 -0.00000000000E+00 -0.00000000000E+00 -0.45593999997E+02  0.45594000000E+02  0.51100000000E-03 0. -1.
    9900012    2    1    2    0    0 -0.11666116665E+01 -0.13040187883E+00 -0.12266413143E+00  0.90007731421E+02  0.89999992675E+02 0.  0.
        -12    1    1    2    0    0  0.11666116665E+01  0.13040187883E+00  0.12266413143E+00  0.11802685794E+01  0.00000000000E+00 0.  1.
         11    1    3    3    0    0 -0.67588596595E+01 -0.91204055223E+01 -0.14261724487E+02  0.18228021461E+02  0.51100000000E-03 0. -1.
        -11    1    3    3    0    0  0.33840122459E+02 -0.84062668353E+01 -0.19218643636E+01  0.34921523063E+02  0.51100000000E-03 0.  1.
         12    1    3    3    0    0 -0.28247874466E+02  0.17396270479E+02  0.16060924719E+02  0.36858186896E+02  0.00000000000E+00 0. -1.
</event>
<event>
 7    1  0.3861961E-015  0.9000771E+02  0.7816164E-02  0.1186339E+00
        -11   -1    0    0    0    0  0.00000000000E+00  0.00000000000E+00  0.45593999997E+02  0.45594000000E+02  0.51100000000E-03 0.  1.
         11   -1    0    0    0    0 -0.00000000000E+00 -0.00000000000E+00 -0.45593999997E+02  0.45594000000E+02  0.51100000000E-03 0. -1.
    9900012    2    1    2    0    0  0.62108964848E+00  0.19012234867E+00 -0.98549259162E+00  0.90007705754E+02  0.89999966670E+02 0.  0.
        -12    1    1    2    0    0 -0.62108964848E+00 -0.19012234867E+00  0.98549259162E+00  0.11802942460E+01  0.00000000000E+00 0.  1.
         11    1    3    3    0    0  0.30971142124E+01 -0.65972821838E+01 -0.55649454670E+01  0.91697800938E+01  0.51100000000E-03 0. -1.
        -11    1    3    3    0    0  0.96178718571E+01 -0.35282933807E+02 -0.17309630314E+01  0.36611270264E+02  0.51100000000E-03 0.  1.
         12    1    3    3    0    0 -0.12093896421E+02  0.42070338339E+02  0.63104159067E+01  0.44226655396E+02  0.00000000000E+00 0. -1.
</event>
<event>
 7    1  0.3861961E-015  0.9000773E+02  0.7816164E-02  0.1186339E+00
        -11   -1    0    0    0    0  0.00000000000E+00  0.00000000000E+00  0.45593999997E+02  0.45594000000E+02  0.51100000000E-03 0.  1.
         11   -1    0    0    0    0 -0.00000000000E+00 -0.00000000000E+00 -0.45593999997E+02  0.45594000000E+02  0.51100000000E-03 0. -1.
    9900012    2    1    2    0    0 -0.60399676220E+00 -0.25715454949E-01  0.10136894684E+01  0.90007728967E+02  0.89999990189E+02 0.  0.
        -12    1    1    2    0    0  0.60399676220E+00  0.25715454949E-01 -0.10136894684E+01  0.11802710332E+01  0.00000000000E+00 0.  1.
         11    1    3    3    0    0 -0.15823805538E+02  0.17183595944E+02 -0.30721485828E+02  0.38593762229E+02  0.51100000000E-03 0. -1.
        -11    1    3    3    0    0  0.47994447399E+01  0.53323481496E+01 -0.37555219976E+01  0.80976880858E+01  0.51100000000E-03 0.  1.
        -12    1    3    3    0    0  0.10420364036E+02 -0.22541659549E+02  0.35490697294E+02  0.43316278652E+02  0.00000000000E+00 0.  1.
</event>
<event>
 7    1  0.3861961E-015  0.9000778E+02  0.7816164E-02  0.1186339E+00
        -11   -1    0    0    0    0  0.00000000000E+00  0.00000000000E+00  0.45593999997E+02  0.45594000000E+02  0.51100000000E-03 0.  1.
         11   -1    0    0    0    0 -0.00000000000E+00 -0.00000000000E+00 -0.45593999997E+02  0.45594000000E+02  0.51100000000E-03 0. -1.
    9900012    2    1    2    0    0 -0.89736513526E+00 -0.33298800166E+00  0.69049038093E+00  0.90007778766E+02  0.90000040646E+02 0.  0.
        -12    1    1    2    0    0  0.89736513526E+00  0.33298800166E+00 -0.69049038093E+00  0.11802212341E+01  0.00000000000E+00 0.  1.
         11    1    3    3    0    0 -0.88042312827E-01  0.36150827411E+02 -0.25528232724E+02  0.44255855434E+02  0.51100000000E-03 0. -1.
        -11    1    3    3    0    0 -0.29697978731E+01 -0.63905661703E+01  0.72673784584E+01  0.10122935607E+02  0.51100000000E-03 0.  1.
        -12    1    3    3    0    0  0.21604750506E+01 -0.30093249242E+02  0.18951344646E+02  0.35628987725E+02  0.00000000000E+00 0.  1.
</event>
<event>
 7    1  0.3861961E-015  0.9000775E+02  0.7816164E-02  0.1186339E+00
        -11   -1    0    0    0    0  0.00000000000E+00  0.00000000000E+00  0.45593999997E+02  0.45594000000E+02  0.51100000000E-03 0. -1.
         11   -1    0    0    0    0 -0.00000000000E+00 -0.00000000000E+00 -0.45593999997E+02  0.45594000000E+02  0.51100000000E-03 0.  1.
    9900012    2    1    2    0    0  0.44139210065E+00 -0.96898620267E+00  0.50914556379E+00  0.90007749835E+02  0.90000011333E+02 0.  0.
        -12    1    1    2    0    0 -0.44139210065E+00  0.96898620267E+00 -0.50914556379E+00  0.11802501653E+01  0.00000000000E+00 0.  1.
         11    1    3    3    0    0  0.33605829687E+00 -0.33104782728E+00  0.38116708295E+02  0.38119627219E+02  0.51100000000E-03 0. -1.
        -11    1    3    3    0    0  0.29987905811E+01  0.78761926529E+01  0.39936599058E+01  0.93261179147E+01  0.51100000000E-03 0.  1.
        -12    1    3    3    0    0 -0.28934567774E+01 -0.85141310283E+01 -0.41601222637E+02  0.42562004701E+02  0.00000000000E+00 0.  1.
</event>
<event>
 7    1  0.3861961E-015  0.9000706E+02  0.7816164E-02  0.1186340E+00
        -11   -1    0    0    0    0  0.00000000000E+00  0.00000000000E+00  0.45593999997E+02  0.45594000000E+02  0.51100000000E-03 0.  1.
         11   -1    0    0    0    0 -0.00000000000E+00 -0.00000000000E+00 -0.45593999997E+02  0.45594000000E+02  0.51100000000E-03 0. -1.
    9900012    2    1    2    0    0  0.51457206525E+00 -0.36425357463E+00 -0.99857585448E+00  0.90007060199E+02  0.89999312591E+02 0.  0.
        -12    1    1    2    0    0 -0.51457206525E+00  0.36425357463E+00  0.99857585448E+00  0.11809398012E+01  0.00000000000E+00 0.  1.
         11    1    3    3    0    0 -0.31658396663E+02 -0.18153081836E+02  0.84719748866E+01  0.37464153776E+02  0.51100000000E-03 0. -1.
        -11    1    3    3    0    0 -0.98800982382E+00  0.70825067132E+00  0.10268833411E+02  0.10340537815E+02  0.51100000000E-03 0.  1.
        -12    1    3    3    0    0  0.33160978552E+02  0.17080577590E+02 -0.19739384152E+02  0.42202368607E+02  0.00000000000E+00 0.  1.
</event>
<event>
 7    1  0.4599625E-015  0.9000771E+02  0.7816164E-02  0.1186339E+00
        -11   -1    0    0    0    0  0.00000000000E+00  0.00000000000E+00  0.45593999997E+02  0.45594000000E+02  0.51100000000E-03 0. -1.
         11   -1    0    0    0    0 -0.00000000000E+00 -0.00000000000E+00 -0.45593999997E+02  0.45594000000E+02  0.51100000000E-03 0.  1.
    9900012    2    1    2    0    0  0.81464326462E+00  0.40478245806E+00  0.75206545759E+00  0.90007705571E+02  0.89999966484E+02 0.  0.
        -12    1    1    2    0    0 -0.81464326462E+00 -0.40478245806E+00 -0.75206545759E+00  0.11802944291E+01  0.00000000000E+00 0.  1.
         11    1    3    3    0    0  0.31773914932E+01  0.97095275646E+01 -0.81109662938E+00  0.10248347195E+02  0.51100000000E-03 0. -1.
        -11    1    3    3    0    0  0.12983217834E+02  0.15507073910E+02 -0.30381502567E+02  0.36497520260E+02  0.51100000000E-03 0.  1.
         12    1    3    3    0    0 -0.15345966063E+02 -0.24811819017E+02  0.31944664654E+02  0.43261838116E+02  0.00000000000E+00 0. -1.
</event>
<event>
 7    1  0.3861961E-015  0.9000769E+02  0.7816164E-02  0.1186339E+00
        -11   -1    0    0    0    0  0.00000000000E+00  0.00000000000E+00  0.45593999997E+02  0.45594000000E+02  0.51100000000E-03 0. -1.
         11   -1    0    0    0    0 -0.00000000000E+00 -0.00000000000E+00 -0.45593999997E+02  0.45594000000E+02  0.51100000000E-03 0.  1.
    9900012    2    1    2    0    0  0.73296399928E+00 -0.58652847558E+00  0.71546116074E+00  0.90007687944E+02  0.89999948625E+02 0.  0.
        -12    1    1    2    0    0 -0.73296399928E+00  0.58652847558E+00 -0.71546116074E+00  0.11803120560E+01  0.00000000000E+00 0.  1.
         11    1    3    3    0    0 -0.14828116749E+02 -0.38274111990E+01  0.28450750952E+02  0.32310483636E+02  0.51100000000E-03 0. -1.
        -11    1    3    3    0    0 -0.10375390821E+02 -0.48841418060E+01  0.71196166020E+01  0.13497870820E+02  0.51100000000E-03 0.  1.
        -12    1    3    3    0    0  0.25936471569E+02  0.81250245294E+01 -0.34854906393E+02  0.44199333487E+02  0.00000000000E+00 0.  1.
</event>
<event>
 7    1  0.3861961E-015  0.9000771E+02  0.7816164E-02  0.1186339E+00
        -11   -1    0    0    0    0  0.00000000000E+00  0.00000000000E+00  0.45593999997E+02  0.45594000000E+02  0.51100000000E-03 0. -1.
         11   -1    0    0    0    0 -0.00000000000E+00 -0.00000000000E+00 -0.45593999997E+02  0.45594000000E+02  0.51100000000E-03 0.  1.
    9900012    2    1    2    0    0 -0.11031608405E+01  0.30552563924E+00  0.28770468833E+00  0.90007710314E+02  0.89999971290E+02 0.  0.
        -12    1    1    2    0    0  0.11031608405E+01 -0.30552563924E+00 -0.28770468833E+00  0.11802896865E+01  0.00000000000E+00 0.  1.
         11    1    3    3    0    0 -0.25744020565E+01 -0.39313643778E+01  0.76215417408E+01  0.89538299396E+01  0.51100000000E-03 0. -1.
        -11    1    3    3    0    0 -0.23492331738E+02 -0.30063726690E+02 -0.58940504257E+01  0.38606439148E+02  0.51100000000E-03 0.  1.
         12    1    3    3    0    0  0.24963572954E+02  0.34300616707E+02 -0.14397866268E+01  0.42447441226E+02  0.00000000000E+00 0. -1.
</event>
<event>
 7    1  0.3861961E-015  0.9000777E+02  0.7816164E-02  0.1186339E+00
        -11   -1    0    0    0    0  0.00000000000E+00  0.00000000000E+00  0.45593999997E+02  0.45594000000E+02  0.51100000000E-03 0. -1.
         11   -1    0    0    0    0 -0.00000000000E+00 -0.00000000000E+00 -0.45593999997E+02  0.45594000000E+02  0.51100000000E-03 0.  1.
    9900012    2    1    2    0    0  0.15570644219E+00 -0.11037165036E+01  0.38795837110E+00  0.90007768534E+02  0.90000030278E+02 0.  0.
        -12    1    1    2    0    0 -0.15570644219E+00  0.11037165036E+01 -0.38795837110E+00  0.11802314664E+01  0.00000000000E+00 0.  1.
         11    1    3    3    0    0 -0.84207306918E+01  0.85223740840E+01 -0.36928476185E+02  0.38823342450E+02  0.51100000000E-03 0. -1.
        -11    1    3    3    0    0  0.46240943828E+01  0.70677216350E+01 -0.16527965747E+01  0.86061997856E+01  0.51100000000E-03 0.  1.
        -12    1    3    3    0    0  0.39523427512E+01 -0.16693812223E+02  0.38969231131E+02  0.42578226298E+02  0.00000000000E+00 0.  1.
</event>
<event>
 7    1  0.3861961E-015  0.9000782E+02  0.7816164E-02  0.1186339E+00
        -11   -1    0    0    0    0  0.00000000000E+00  0.00000000000E+00  0.45593999997E+02  0.45594000000E+02  0.51100000000E-03 0.  1.
         11   -1    0    0    0    0 -0.00000000000E+00 -0.00000000000E+00 -0.45593999997E+02  0.45594000000E+02  0.51100000000E-03 0. -1.
    9900012    2    1    2    0    0 -0.94948275518E+00  0.20349933339E+00  0.67074313688E+00  0.90007819574E+02  0.90000081993E+02 0.  0.
        -12    1    1    2    0    0  0.94948275518E+00 -0.20349933339E+00 -0.67074313688E+00  0.11801804255E+01  0.00000000000E+00 0.  1.
         11    1    3    3    0    0 -0.13619710380E+02  0.11755855124E+02 -0.37818824826E+02  0.41880307449E+02  0.51100000000E-03 0. -1.
        -11    1    3    3    0    0  0.14768719262E+00 -0.89725727991E+01  0.16393705803E+01  0.91223029056E+01  0.51100000000E-03 0.  1.
        -12    1    3    3    0    0  0.12522540432E+02 -0.25797829913E+01  0.36850197383E+02  0.39005209220E+02  0.00000000000E+00 0.  1.
</event>
<event>
 7    1  0.3861961E-015  0.9000781E+02  0.7816164E-02  0.1186339E+00
        -11   -1    0    0    0    0  0.00000000000E+00  0.00000000000E+00  0.45593999997E+02  0.45594000000E+02  0.51100000000E-03 0.  1.
         11   -1    0    0    0    0 -0.00000000000E+00 -0.00000000000E+00 -0.45593999997E+02  0.45594000000E+02  0.51100000000E-03 0. -1.
    9900012    2    1    2    0    0  0.16145045018E+00  0.11546514689E+01 -0.18318010087E+00  0.90007813061E+02  0.90000075393E+02 0.  0.
        -12    1    1    2    0    0 -0.16145045018E+00 -0.11546514689E+01  0.18318010087E+00  0.11801869394E+01  0.00000000000E+00 0.  1.
         11    1    3    3    0    0  0.68085354154E+01 -0.78155924925E+01 -0.37759111061E+00  0.10372184718E+02  0.51100000000E-03 0. -1.
        -11    1    3    3    0    0  0.17032054066E+02  0.11984752839E+02  0.33025776279E+02  0.39043912015E+02  0.51100000000E-03 0.  1.
         12    1    3    3    0    0 -0.23679139032E+02 -0.30145088777E+01 -0.32831365269E+02  0.40591716328E+02  0.00000000000E+00 0. -1.
</event>
<event>
 7    1  0.3861961E-015  0.9000782E+02  0.7816164E-02  0.1186339E+00
        -11   -1    0    0    0    0  0.00000000000E+00  0.00000000000E+00  0.45593999997E+02  0.45594000000E+02  0.51100000000E-03 0. -1.
         11   -1    0    0    0    0 -0.00000000000E+00 -0.00000000000E+00 -0.45593999997E+02  0.45594000000E+02  0.51100000000E-03 0.  1.
    9900012    2    1    2    0    0 -0.60245494885E+00  0.95861417866E+00  0.33305435111E+00  0.90007822763E+02  0.90000085224E+02 0.  0.
        -12    1    1    2    0    0  0.60245494885E+00 -0.95861417866E+00 -0.33305435111E+00  0.11801772366E+01  0.00000000000E+00 0.  1.
         11    1    3    3    0    0 -0.19403258050E+02 -0.18053189081E+02  0.27219838304E+02  0.37991099702E+02  0.51100000000E-03 0. -1.
        -11    1    3    3    0    0 -0.77042232999E+01  0.54113654093E+01  0.29376310903E+01  0.98624342295E+01  0.51100000000E-03 0.  1.
        -12    1    3    3    0    0  0.26505026401E+02  0.13600437851E+02 -0.29824415043E+02  0.42154288832E+02  0.00000000000E+00 0.  1.
</event>
<event>
 7    1  0.3861961E-015  0.9000775E+02  0.7816164E-02  0.1186339E+00
        -11   -1    0    0    0    0  0.00000000000E+00  0.00000000000E+00  0.45593999997E+02  0.45594000000E+02  0.51100000000E-03 0.  1.
         11   -1    0    0    0    0 -0.00000000000E+00 -0.00000000000E+00 -0.45593999997E+02  0.45594000000E+02  0.51100000000E-03 0. -1.
    9900012    2    1    2    0    0  0.86062851753E+00 -0.80680027440E+00  0.37256509007E-01  0.90007747410E+02  0.90000008876E+02 0.  0.
        -12    1    1    2    0    0 -0.86062851753E+00  0.80680027440E+00 -0.37256509007E-01  0.11802525897E+01  0.00000000000E+00 0.  1.
         11    1    3    3    0    0 -0.59302076574E+00  0.28353185444E+02 -0.26781461054E+02  0.39006428379E+02  0.51100000000E-03 0. -1.
        -11    1    3    3    0    0  0.60100450761E+01  0.44233317751E+00 -0.46095451420E+01  0.75871079559E+01  0.51100000000E-03 0.  1.
        -12    1    3    3    0    0 -0.45563957929E+01 -0.29602318896E+02  0.31428262705E+02  0.43414211075E+02  0.00000000000E+00 0.  1.
</event>
<event>
 7    1  0.3861961E-015  0.9000783E+02  0.7816164E-02  0.1186339E+00
        -11   -1    0    0    0    0  0.00000000000E+00  0.00000000000E+00  0.45593999997E+02  0.45594000000E+02  0.51100000000E-03 0.  1.
         11   -1    0    0    0    0 -0.00000000000E+00 -0.00000000000E+00 -0.45593999997E+02  0.45594000000E+02  0.51100000000E-03 0. -1.
    9900012    2    1    2    0    0 -0.22065166595E+00 -0.74831492930E+00 -0.88552088820E+00  0.90007826439E+02  0.90000088948E+02 0.  0.
        -12    1    1    2    0    0  0.22065166595E+00  0.74831492930E+00  0.88552088820E+00  0.11801735612E+01  0.00000000000E+00 0.  1.
         11    1    3    3    0    0 -0.22351850615E+02  0.26092649037E+02  0.18214888106E+02  0.38887192090E+02  0.51100000000E-03 0. -1.
        -11    1    3    3    0    0  0.88609887319E+01  0.66773082797E+01 -0.22223375833E+01  0.11315580045E+02  0.51100000000E-03 0.  1.
        -12    1    3    3    0    0  0.13270210217E+02 -0.33518272246E+02 -0.16878071411E+02  0.39805054303E+02  0.00000000000E+00 0.  1.
</event>
<event>
 7    1  0.3861961E-015  0.9000774E+02  0.7816164E-02  0.1186339E+00
        -11   -1    0    0    0    0  0.00000000000E+00  0.00000000000E+00  0.45593999997E+02  0.45594000000E+02  0.51100000000E-03 0.  1.
         11   -1    0    0    0    0 -0.00000000000E+00 -0.00000000000E+00 -0.45593999997E+02  0.45594000000E+02  0.51100000000E-03 0. -1.
    9900012    2    1    2    0    0  0.72136342399E+00  0.89930653719E+00  0.25275579547E+00  0.90007744549E+02  0.90000005977E+02 0.  0.
        -12    1    1    2    0    0 -0.72136342399E+00 -0.89930653719E+00 -0.25275579547E+00  0.11802554509E+01  0.00000000000E+00 0.  1.
         11    1    3    3    0    0  0.10194413547E+02  0.13966730673E+02 -0.32211451557E+02  0.36559174566E+02  0.51100000000E-03 0. -1.
        -11    1    3    3    0    0  0.29495909152E+01 -0.31504630406E+01 -0.84866114770E+01  0.95209284505E+01  0.51100000000E-03 0.  1.
        -12    1    3    3    0    0 -0.12422641039E+02 -0.99169610954E+01  0.40950818830E+02  0.43927641532E+02  0.00000000000E+00 0.  1.
</event>
<event>
 7    1  0.3861961E-015  0.9000774E+02  0.7816164E-02  0.1186339E+00
        -11   -1    0    0    0    0  0.00000000000E+00  0.00000000000E+00  0.45593999997E+02  0.45594000000E+02  0.51100000000E-03 0. -1.
         11   -1    0    0    0    0 -0.00000000000E+00 -0.00000000000E+00 -0.45593999997E+02  0.45594000000E+02  0.51100000000E-03 0.  1.
    9900012    2    1    2    0    0 -0.70393048477E+00  0.80130545419E+00  0.50537296581E+00  0.90007741387E+02  0.90000002774E+02 0.  0.
        -12    1    1    2    0    0  0.70393048477E+00 -0.80130545419E+00 -0.50537296581E+00  0.11802586127E+01  0.00000000000E+00 0.  1.
         11    1    3    3    0    0 -0.22166022330E+01 -0.18190007998E+02  0.40266938336E+02  0.44240434442E+02  0.51100000000E-03 0. -1.
        -11    1    3    3    0    0  0.46617743540E+01  0.17638103256E+01 -0.11281762737E+02  0.12333747918E+02  0.51100000000E-03 0.  1.
        -12    1    3    3    0    0 -0.31491026057E+01  0.17227503126E+02 -0.28479802633E+02  0.33433559027E+02  0.00000000000E+00 0.  1.
</event>
<event>
 7    1  0.3861961E-015  0.9000783E+02  0.7816164E-02  0.1186339E+00
        -11   -1    0    0    0    0  0.00000000000E+00  0.00000000000E+00  0.45593999997E+02  0.45594000000E+02  0.51100000000E-03 0.  1.
         11   -1    0    0    0    0 -0.00000000000E+00 -0.00000000000E+00 -0.45593999997E+02  0.45594000000E+02  0.51100000000E-03 0. -1.
    9900012    2    1    2    0    0  0.78161945708E+00 -0.40429558466E+00 -0.78639158579E+00  0.90007832376E+02  0.90000094963E+02 0.  0.
        -12    1    1    2    0    0 -0.78161945708E+00  0.40429558466E+00  0.78639158579E+00  0.11801676244E+01  0.00000000000E+00 0.  1.
         11    1    3    3    0    0 -0.84852539251E+01 -0.95047482970E+00 -0.26806626260E+01  0.89492395739E+01  0.51100000000E-03 0. -1.
        -11    1    3    3    0    0  0.12299488001E+02 -0.38148198685E+02  0.10216198314E+02  0.41363428004E+02  0.51100000000E-03 0.  1.
         12    1    3    3    0    0 -0.30326146187E+01  0.38694377930E+02 -0.83219272739E+01  0.39695164798E+02  0.00000000000E+00 0. -1.
</event>
<event>
 7    1  0.3861961E-015  0.9000777E+02  0.7816164E-02  0.1186339E+00
        -11   -1    0    0    0    0  0.00000000000E+00  0.00000000000E+00  0.45593999997E+02  0.45594000000E+02  0.51100000000E-03 0.  1.
         11   -1    0    0    0    0 -0.00000000000E+00 -0.00000000000E+00 -0.45593999997E+02  0.45594000000E+02  0.51100000000E-03 0. -1.
    9900012    2    1    2    0    0 -0.52304432154E+00 -0.56035607406E+00 -0.89742486701E+00  0.90007768801E+02  0.90000030549E+02 0.  0.
        -12    1    1    2    0    0  0.52304432154E+00  0.56035607406E+00  0.89742486701E+00  0.11802311994E+01  0.00000000000E+00 0.  1.
         11    1    3    3    0    0 -0.19873433645E+02  0.27430512759E+02 -0.21664743722E+02  0.40208798986E+02  0.51100000000E-03 0. -1.
        -11    1    3    3    0    0  0.58456656352E+01  0.57100982476E+01  0.42594160249E+00  0.81828146273E+01  0.51100000000E-03 0.  1.
        -12    1    3    3    0    0  0.13504723689E+02 -0.33700967081E+02  0.20341377252E+02  0.41616155188E+02  0.00000000000E+00 0.  1.
</event>
<event>
 7    1  0.3861961E-015  0.9000773E+02  0.7816164E-02  0.1186339E+00
        -11   -1    0    0    0    0  0.00000000000E+00  0.00000000000E+00  0.45593999997E+02  0.45594000000E+02  0.51100000000E-03 0. -1.
         11   -1    0    0    0    0 -0.00000000000E+00 -0.00000000000E+00 -0.45593999997E+02  0.45594000000E+02  0.51100000000E-03 0.  1.
    9900012    2    1    2    0    0  0.93838250330E+00  0.60046162837E+00 -0.38975883037E+00  0.90007733998E+02  0.89999995287E+02 0.  0.
        -12    1    1    2    0    0 -0.93838250330E+00 -0.60046162837E+00  0.38975883037E+00  0.11802660020E+01  0.00000000000E+00 0.  1.
         11    1    3    3    0    0  0.15652378176E+02 -0.32106994984E+02  0.89931343169E+01  0.36833850390E+02  0.51100000000E-03 0. -1.
        -11    1    3    3    0    0  0.44585755265E+01 -0.35837121621E+01  0.69481410538E+01  0.89999196080E+01  0.51100000000E-03 0.  1.
        -12    1    3    3    0    0 -0.19172571199E+02  0.36291168774E+02 -0.16331034201E+02  0.44173964000E+02  0.00000000000E+00 0.  1.
</event>
<event>
 7    1  0.3861961E-015  0.9000779E+02  0.7816164E-02  0.1186339E+00
        -11   -1    0    0    0    0  0.00000000000E+00  0.00000000000E+00  0.45593999997E+02  0.45594000000E+02  0.51100000000E-03 0. -1.
         11   -1    0    0    0    0 -0.00000000000E+00 -0.00000000000E+00 -0.45593999997E+02  0.45594000000E+02  0.51100000000E-03 0.  1.
    9900012    2    1    2    0    0 -0.66932047628E-01 -0.85700474592E+00  0.80867714519E+00  0.90007789951E+02  0.90000051979E+02 0.  0.
        -12    1    1    2    0    0  0.66932047628E-01  0.85700474592E+00 -0.80867714519E+00  0.11802100485E+01  0.00000000000E+00 0.  1.
         11    1    3    3    0    0  0.48192744573E+01 -0.21759766297E+02  0.31986234371E+02  0.38985023087E+02  0.51100000000E-03 0. -1.
        -11    1    3    3    0    0 -0.15753660905E+01  0.50869894345E+01  0.74465826900E+01  0.91548257136E+01  0.51100000000E-03 0.  1.
        -12    1    3    3    0    0 -0.33108404143E+01  0.15815772117E+02 -0.38624139916E+02  0.41867941150E+02  0.00000000000E+00 0.  1.
</event>
<event>
 7    1  0.3861961E-015  0.9000775E+02  0.7816164E-02  0.1186339E+00
        -11   -1    0    0    0    0  0.00000000000E+00  0.00000000000E+00  0.45593999997E+02  0.45594000000E+02  0.51100000000E-03 0.  1.
         11   -1    0    0    0    0 -0.00000000000E+00 -0.00000000000E+00 -0.45593999997E+02  0.45594000000E+02  0.51100000000E-03 0. -1.
    9900012    2    1    2    0    0 -0.72690392284E+00 -0.90359390722E+00 -0.21937548400E+00  0.90007747118E+02  0.90000008580E+02 0.  0.
        -12    1    1    2    0    0  0.72690392284E+00  0.90359390722E+00  0.21937548400E+00  0.11802528819E+01  0.00000000000E+00 0.  1.
         11    1    3    3    0    0 -0.19663695049E+02 -0.29366735717E+02 -0.95429242638E+01  0.36607833498E+02  0.51100000000E-03 0. -1.
        -11    1    3    3    0    0  0.22814370703E+01 -0.10091944676E+02  0.38784793353E+01  0.11049656314E+02  0.51100000000E-03 0.  1.
        -12    1    3    3    0    0  0.16655354056E+02  0.38555086485E+02  0.54450694446E+01  0.42350257306E+02  0.00000000000E+00 0.  1.
</event>
<event>
 7    1  0.3861961E-015  0.9000776E+02  0.7816164E-02  0.1186339E+00
        -11   -1    0    0    0    0  0.00000000000E+00  0.00000000000E+00  0.45593999997E+02  0.45594000000E+02  0.51100000000E-03 0.  1.
         11   -1    0    0    0    0 -0.00000000000E+00 -0.00000000000E+00 -0.45593999997E+02  0.45594000000E+02  0.51100000000E-03 0. -1.
    9900012    2    1    2    0    0 -0.10942781213E+01  0.38227428953E-01 -0.44053562199E+00  0.90007755289E+02  0.90000016859E+02 0.  0.
        -12    1    1    2    0    0  0.10942781213E+01 -0.38227428953E-01  0.44053562199E+00  0.11802447108E+01  0.00000000000E+00 0.  1.
         11    1    3    3    0    0 -0.28230123378E+02 -0.17194285819E+02 -0.60744427719E+01  0.33607769727E+02  0.51100000000E-03 0. -1.
        -11    1    3    3    0    0 -0.11615127171E+02  0.31053675933E+01 -0.61488941898E+01  0.13504198870E+02  0.51100000000E-03 0.  1.
        -12    1    3    3    0    0  0.38750972428E+02  0.14127145655E+02  0.11782801340E+02  0.42895786692E+02  0.00000000000E+00 0.  1.
</event>
<event>
 7    1  0.3861961E-015  0.9000777E+02  0.7816164E-02  0.1186339E+00
        -11   -1    0    0    0    0  0.00000000000E+00  0.00000000000E+00  0.45593999997E+02  0.45594000000E+02  0.51100000000E-03 0. -1.
         11   -1    0    0    0    0 -0.00000000000E+00 -0.00000000000E+00 -0.45593999997E+02  0.45594000000E+02  0.51100000000E-03 0.  1.
    9900012    2    1    2    0    0 -0.86002185034E+00 -0.41109680873E+00 -0.69592807904E+00  0.90007765252E+02  0.90000026953E+02 0.  0.
        -12    1    1    2    0    0  0.86002185034E+00  0.41109680873E+00  0.69592807904E+00  0.11802347480E+01  0.00000000000E+00 0.  1.
         11    1    3    3    0    0  0.12104239678E+02  0.28997674058E+02  0.28145297141E+02  0.42184540656E+02  0.51100000000E-03 0. -1.
        -11    1    3    3    0    0 -0.92495762705E+01 -0.11134464394E+01 -0.46543955462E+01  0.10414308538E+02  0.51100000000E-03 0.  1.
        -12    1    3    3    0    0 -0.37146852576E+01 -0.28295324427E+02 -0.24186829673E+02  0.37408916058E+02  0.00000000000E+00 0.  1.
</event>
<event>
 7    1  0.3861961E-015  0.9000778E+02  0.7816164E-02  0.1186339E+00
        -11   -1    0    0    0    0  0.00000000000E+00  0.00000000000E+00  0.45593999997E+02  0.45594000000E+02  0.51100000000E-03 0. -1.
         11   -1    0    0    0    0 -0.00000000000E+00 -0.00000000000E+00 -0.45593999997E+02  0.45594000000E+02  0.51100000000E-03 0.  1.
    9900012    2    1    2    0    0 -0.19994564214E+00  0.11602606896E+01 -0.82014061777E-01  0.90007784158E+02  0.90000046109E+02 0.  0.
        -12    1    1    2    0    0  0.19994564214E+00 -0.11602606896E+01  0.82014061777E-01  0.11802158421E+01  0.00000000000E+00 0.  1.
         11    1    3    3    0    0 -0.57676615722E+01 -0.46267832035E+01 -0.61450836439E+01  0.96143172443E+01  0.51100000000E-03 0. -1.
        -11    1    3    3    0    0  0.17449085268E+02 -0.33208702510E+02  0.11570116933E+02  0.39257561121E+02  0.51100000000E-03 0.  1.
         12    1    3    3    0    0 -0.11881369338E+02  0.38995746403E+02 -0.55070473510E+01  0.41135905793E+02  0.00000000000E+00 0. -1.
</event>
<event>
 7    1  0.3861961E-015  0.9000764E+02  0.7816164E-02  0.1186339E+00
        -11   -1    0    0    0    0  0.00000000000E+00  0.00000000000E+00  0.45593999997E+02  0.45594000000E+02  0.51100000000E-03 0. -1.
         11   -1    0    0    0    0 -0.00000000000E+00 -0.00000000000E+00 -0.45593999997E+02  0.45594000000E+02  0.51100000000E-03 0.  1.
    9900012    2    1    2    0    0 -0.82864259435E+00  0.16926504101E+00  0.82338439934E+00  0.90007635195E+02  0.89999895180E+02 0.  0.
        -12    1    1    2    0    0  0.82864259435E+00 -0.16926504101E+00 -0.82338439934E+00  0.11803648048E+01  0.00000000000E+00 0.  1.
         11    1    3    3    0    0 -0.38198757640E+01 -0.30614071014E+01 -0.88680330831E+01  0.10129445953E+02  0.51100000000E-03 0. -1.
        -11    1    3    3    0    0  0.14687548434E+02  0.26042712938E+02 -0.23436453344E+02  0.37989660722E+02  0.51100000000E-03 0.  1.
         12    1    3    3    0    0 -0.11696315265E+02 -0.22812040796E+02  0.33127870827E+02  0.41888528520E+02  0.00000000000E+00 0. -1.
</event>
<event>
 7    1  0.3861961E-015  0.9000775E+02  0.7816164E-02  0.1186339E+00
        -11   -1    0    0    0    0  0.00000000000E+00  0.00000000000E+00  0.45593999997E+02  0.45594000000E+02  0.51100000000E-03 0. -1.
         11   -1    0    0    0    0 -0.00000000000E+00 -0.00000000000E+00 -0.45593999997E+02  0.45594000000E+02  0.51100000000E-03 0.  1.
    9900012    2    1    2    0    0  0.72619161942E-01  0.11565479746E+01 -0.22383823213E+00  0.90007754130E+02  0.90000015684E+02 0.  0.
        -12    1    1    2    0    0 -0.72619161942E-01 -0.11565479746E+01  0.22383823213E+00  0.11802458703E+01  0.00000000000E+00 0.  1.
         11    1    3    3    0    0 -0.41114742976E+02 -0.56094228969E+01  0.71226435596E+01  0.42102491218E+02  0.51100000000E-03 0. -1.
        -11    1    3    3    0    0  0.15865235501E+01  0.74620893547E+01 -0.34182330024E-01  0.76289581992E+01  0.51100000000E-03 0.  1.
        -12    1    3    3    0    0  0.39600838588E+02 -0.69611848314E+00 -0.73122994617E+01  0.40276304712E+02  0.00000000000E+00 0.  1.
</event>
<event>
 7    1  0.3861961E-015  0.9000782E+02  0.7816164E-02  0.1186339E+00
        -11   -1    0    0    0    0  0.00000000000E+00  0.00000000000E+00  0.45593999997E+02  0.45594000000E+02  0.51100000000E-03 0. -1.
         11   -1    0    0    0    0 -0.00000000000E+00 -0.00000000000E+00 -0.45593999997E+02  0.45594000000E+02  0.51100000000E-03 0.  1.
    9900012    2    1    2    0    0 -0.30538431431E+00 -0.11308185857E+01 -0.14423488027E+00  0.90007824609E+02  0.90000087094E+02 0.  0.
        -12    1    1    2    0    0  0.30538431431E+00  0.11308185857E+01  0.14423488027E+00  0.11801753911E+01  0.00000000000E+00 0.  1.
         11    1    3    3    0    0 -0.25500896649E+02 -0.24629666740E+02  0.20871948842E+02  0.41140666771E+02  0.51100000000E-03 0. -1.
        -11    1    3    3    0    0  0.51559563780E+01  0.46597317874E+01  0.68183630526E+01  0.97358647013E+01  0.51100000000E-03 0.  1.
        -12    1    3    3    0    0  0.20039555956E+02  0.18839116367E+02 -0.27834546775E+02  0.39131293137E+02  0.00000000000E+00 0.  1.
</event>
<event>
 7    1  0.3861961E-015  0.9000809E+02  0.7816164E-02  0.1186338E+00
        -11   -1    0    0    0    0  0.00000000000E+00  0.00000000000E+00  0.45593999997E+02  0.45594000000E+02  0.51100000000E-03 0. -1.
         11   -1    0    0    0    0 -0.00000000000E+00 -0.00000000000E+00 -0.45593999997E+02  0.45594000000E+02  0.51100000000E-03 0.  1.
    9900012    2    1    2    0    0 -0.83338711823E+00 -0.37223701426E+00 -0.74772856920E+00  0.90008087928E+02  0.90000353888E+02 0.  0.
        -12    1    1    2    0    0  0.83338711823E+00  0.37223701426E+00  0.74772856920E+00  0.11799120716E+01  0.00000000000E+00 0.  1.
         11    1    3    3    0    0  0.39839592791E+01 -0.27963143922E+01 -0.90119008835E+01  0.10242346582E+02  0.51100000000E-03 0. -1.
        -11    1    3    3    0    0  0.23613047278E+02  0.26358767571E+02 -0.12085139456E+02  0.37395336950E+02  0.51100000000E-03 0.  1.
         12    1    3    3    0    0 -0.28430393675E+02 -0.23934690193E+02  0.20349311770E+02  0.42370404396E+02  0.00000000000E+00 0. -1.
</event>
<event>
 7    1  0.3861961E-015  0.9000772E+02  0.7816164E-02  0.1186339E+00
        -11   -1    0    0    0    0  0.00000000000E+00  0.00000000000E+00  0.45593999997E+02  0.45594000000E+02  0.51100000000E-03 0.  1.
         11   -1    0    0    0    0 -0.00000000000E+00 -0.00000000000E+00 -0.45593999997E+02  0.45594000000E+02  0.51100000000E-03 0. -1.
    9900012    2    1    2    0    0 -0.46818554914E+00  0.31958798299E+00 -0.10352368417E+01  0.90007724818E+02  0.89999985985E+02 0.  0.
        -12    1    1    2    0    0  0.46818554914E+00 -0.31958798299E+00  0.10352368417E+01  0.11802751822E+01  0.00000000000E+00 0.  1.
         11    1    3    3    0    0 -0.35664312053E+02 -0.62468527557E+00  0.41244288348E+01  0.35907440725E+02  0.51100000000E-03 0. -1.
        -11    1    3    3    0    0 -0.72435286293E+01  0.39246432226E+01  0.59106638488E+01  0.10139402291E+02  0.51100000000E-03 0.  1.
        -12    1    3    3    0    0  0.42439655134E+02 -0.29803699641E+01 -0.11070329525E+02  0.43960881802E+02  0.00000000000E+00 0.  1.
</event>
<event>
 7    1  0.3861961E-015  0.9000785E+02  0.7816164E-02  0.1186339E+00
        -11   -1    0    0    0    0  0.00000000000E+00  0.00000000000E+00  0.45593999997E+02  0.45594000000E+02  0.51100000000E-03 0.  1.
         11   -1    0    0    0    0 -0.00000000000E+00 -0.00000000000E+00 -0.45593999997E+02  0.45594000000E+02  0.51100000000E-03 0. -1.
    9900012    2    1    2    0    0 -0.41592473157E+00  0.56414515541E+00 -0.94946822960E+00  0.90007854646E+02  0.90000117527E+02 0.  0.
        -12    1    1    2    0    0  0.41592473157E+00 -0.56414515541E+00  0.94946822960E+00  0.11801453545E+01  0.00000000000E+00 0.  1.
         11    1    3    3    0    0 -0.36767317149E+01  0.18572033925E+02 -0.29708489832E+02  0.35228300676E+02  0.51100000000E-03 0. -1.
        -11    1    3    3    0    0  0.54264296299E+00  0.98786132901E+01 -0.48540802273E+01  0.11020143240E+02  0.51100000000E-03 0.  1.
        -12    1    3    3    0    0  0.27181640204E+01 -0.27886502059E+02  0.33613101829E+02  0.43759410729E+02  0.00000000000E+00 0.  1.
</event>
<event>
 7    1  0.3861961E-015  0.9000783E+02  0.7816164E-02  0.1186339E+00
        -11   -1    0    0    0    0  0.00000000000E+00  0.00000000000E+00  0.45593999997E+02  0.45594000000E+02  0.51100000000E-03 0.  1.
         11   -1    0    0    0    0 -0.00000000000E+00 -0.00000000000E+00 -0.45593999997E+02  0.45594000000E+02  0.51100000000E-03 0. -1.
    9900012    2    1    2    0    0  0.89114656485E+00 -0.27614770833E+00 -0.72277235359E+00  0.90007830677E+02  0.90000093241E+02 0.  0.
        -12    1    1    2    0    0 -0.89114656485E+00  0.27614770833E+00  0.72277235359E+00  0.11801693234E+01  0.00000000000E+00 0.  1.
         11    1    3    3    0    0  0.61744602321E+01  0.33527859714E+02 -0.21611947209E+02  0.40364806436E+02  0.51100000000E-03 0. -1.
        -11    1    3    3    0    0  0.77535619093E+01 -0.35588824468E+01 -0.29044781232E+01  0.90121784259E+01  0.51100000000E-03 0.  1.
        -12    1    3    3    0    0 -0.13036875577E+02 -0.30245124975E+02  0.23793652979E+02  0.40630845815E+02  0.00000000000E+00 0.  1.
</event>
<event>
 7    1  0.3861961E-015  0.9000775E+02  0.7816164E-02  0.1186339E+00
        -11   -1    0    0    0    0  0.00000000000E+00  0.00000000000E+00  0.45593999997E+02  0.45594000000E+02  0.51100000000E-03 0. -1.
         11   -1    0    0    0    0 -0.00000000000E+00 -0.00000000000E+00 -0.45593999997E+02  0.45594000000E+02  0.51100000000E-03 0.  1.
    9900012    2    1    2    0    0  0.11518992117E+01  0.25614670472E+00  0.22598915772E-01  0.90007748485E+02  0.90000009965E+02 0.  0.
        -12    1    1    2    0    0 -0.11518992117E+01 -0.25614670472E+00 -0.22598915772E-01  0.11802515153E+01  0.00000000000E+00 0.  1.
         11    1    3    3    0    0 -0.10239213451E+02  0.23018675033E+01 -0.85751676702E+00  0.10529739853E+02  0.51100000000E-03 0. -1.
        -11    1    3    3    0    0  0.25169035751E+02  0.31701743241E+02 -0.94984407363E+01  0.41577653395E+02  0.51100000000E-03 0.  1.
         12    1    3    3    0    0 -0.13777923088E+02 -0.33747464040E+02  0.10378556419E+02  0.37900355237E+02  0.00000000000E+00 0. -1.
</event>
<event>
 7    1  0.3861961E-015  0.9000774E+02  0.7816164E-02  0.1186339E+00
        -11   -1    0    0    0    0  0.00000000000E+00  0.00000000000E+00  0.45593999997E+02  0.45594000000E+02  0.51100000000E-03 0. -1.
         11   -1    0    0    0    0 -0.00000000000E+00 -0.00000000000E+00 -0.45593999997E+02  0.45594000000E+02  0.51100000000E-03 0.  1.
    9900012    2    1    2    0    0 -0.94236005229E+00 -0.50884897123E+00 -0.49601706881E+00  0.90007744656E+02  0.90000006086E+02 0.  0.
        -12    1    1    2    0    0  0.94236005229E+00  0.50884897123E+00  0.49601706881E+00  0.11802553437E+01  0.00000000000E+00 0.  1.
         11    1    3    3    0    0  0.31336140397E+02 -0.21469087206E+02  0.12740848328E+02  0.40065004890E+02  0.51100000000E-03 0. -1.
        -11    1    3    3    0    0  0.14599576839E+01  0.12256318564E+02  0.82182488898E+00  0.12370295776E+02  0.51100000000E-03 0.  1.
        -12    1    3    3    0    0 -0.33738458133E+02  0.87039196707E+01 -0.14058690286E+02  0.37572443990E+02  0.00000000000E+00 0.  1.
</event>
<event>
 7    1  0.3861961E-015  0.9000784E+02  0.7816164E-02  0.1186339E+00
        -11   -1    0    0    0    0  0.00000000000E+00  0.00000000000E+00  0.45593999997E+02  0.45594000000E+02  0.51100000000E-03 0.  1.
         11   -1    0    0    0    0 -0.00000000000E+00 -0.00000000000E+00 -0.45593999997E+02  0.45594000000E+02  0.51100000000E-03 0. -1.
    9900012    2    1    2    0    0  0.26829611798E+00  0.79188670540E+00 -0.83289553812E+00  0.90007838003E+02  0.90000100665E+02 0.  0.
        -12    1    1    2    0    0 -0.26829611798E+00 -0.79188670540E+00  0.83289553812E+00  0.11801619967E+01  0.00000000000E+00 0.  1.
         11    1    3    3    0    0 -0.21108723286E+01 -0.55744714297E+01 -0.71766458890E+01  0.93292422085E+01  0.51100000000E-03 0. -1.
        -11    1    3    3    0    0 -0.24487779905E+02  0.33922237991E+02  0.53680750579E+01  0.42180396218E+02  0.51100000000E-03 0.  1.
         12    1    3    3    0    0  0.26866948351E+02 -0.27555879856E+02  0.97567529297E+00  0.38498199577E+02  0.00000000000E+00 0. -1.
</event>
<event>
 7    1  0.3861961E-015  0.9000792E+02  0.7816164E-02  0.1186339E+00
        -11   -1    0    0    0    0  0.00000000000E+00  0.00000000000E+00  0.45593999997E+02  0.45594000000E+02  0.51100000000E-03 0. -1.
         11   -1    0    0    0    0 -0.00000000000E+00 -0.00000000000E+00 -0.45593999997E+02  0.45594000000E+02  0.51100000000E-03 0.  1.
    9900012    2    1    2    0    0 -0.34969358471E+00  0.64150962345E-01  0.11252475165E+01  0.90007922493E+02  0.90000186270E+02 0.  0.
        -12    1    1    2    0    0  0.34969358471E+00 -0.64150962345E-01 -0.11252475165E+01  0.11800775070E+01  0.00000000000E+00 0.  1.
         11    1    3    3    0    0  0.83961085642E+00  0.68149249089E+01 -0.55137634804E+01  0.88062327861E+01  0.51100000000E-03 0. -1.
        -11    1    3    3    0    0  0.27967478519E+02  0.25118038297E+02  0.55091182028E+01  0.37992710962E+02  0.51100000000E-03 0.  1.
         12    1    3    3    0    0 -0.29156782961E+02 -0.31868812244E+02  0.11298927941E+01  0.43208978745E+02  0.00000000000E+00 0. -1.
</event>
<event>
 7    1  0.3861961E-015  0.9000777E+02  0.7816164E-02  0.1186339E+00
        -11   -1    0    0    0    0  0.00000000000E+00  0.00000000000E+00  0.45593999997E+02  0.45594000000E+02  0.51100000000E-03 0.  1.
         11   -1    0    0    0    0 -0.00000000000E+00 -0.00000000000E+00 -0.45593999997E+02  0.45594000000E+02  0.51100000000E-03 0. -1.
    9900012    2    1    2    0    0  0.94681361512E+00  0.16332849304E-01 -0.70442280618E+00  0.90007773635E+02  0.90000035447E+02 0.  0.
        -12    1    1    2    0    0 -0.94681361512E+00 -0.16332849304E-01  0.70442280618E+00  0.11802263654E+01  0.00000000000E+00 0.  1.
         11    1    3    3    0    0  0.15263312782E+02  0.10869591445E+02  0.31681534510E+02  0.36808101886E+02  0.51100000000E-03 0. -1.
        -11    1    3    3    0    0  0.89785789938E+01 -0.44391246729E+00  0.30859393391E+01  0.95044705740E+01  0.51100000000E-03 0.  1.
        -12    1    3    3    0    0 -0.23295078161E+02 -0.10409346128E+02 -0.35471896656E+02  0.43695201175E+02  0.00000000000E+00 0.  1.
</event>
<event>
 7    1  0.3861961E-015  0.9000770E+02  0.7816164E-02  0.1186339E+00
        -11   -1    0    0    0    0  0.00000000000E+00  0.00000000000E+00  0.45593999997E+02  0.45594000000E+02  0.51100000000E-03 0.  1.
         11   -1    0    0    0    0 -0.00000000000E+00 -0.00000000000E+00 -0.45593999997E+02  0.45594000000E+02  0.51100000000E-03 0. -1.
    9900012    2    1    2    0    0  0.44844560867E+00  0.47886919775E+00 -0.98116523556E+00  0.90007701567E+02  0.89999962427E+02 0.  0.
        -12    1    1    2    0    0 -0.44844560867E+00 -0.47886919775E+00  0.98116523556E+00  0.11802984334E+01  0.00000000000E+00 0.  1.
         11    1    3    3    0    0 -0.55520698421E+01 -0.43340572254E+01  0.81051530718E+01  0.10737925225E+02  0.51100000000E-03 0. -1.
        -11    1    3    3    0    0  0.12204896176E+02 -0.35331539807E+02  0.10802588797E+01  0.37395777239E+02  0.51100000000E-03 0.  1.
         12    1    3    3    0    0 -0.62043807247E+01  0.40144466230E+02 -0.10166577187E+02  0.41873999102E+02  0.00000000000E+00 0. -1.
</event>
<event>
 7    1  0.3861961E-015  0.9000772E+02  0.7816164E-02  0.1186339E+00
        -11   -1    0    0    0    0  0.00000000000E+00  0.00000000000E+00  0.45593999997E+02  0.45594000000E+02  0.51100000000E-03 0.  1.
         11   -1    0    0    0    0 -0.00000000000E+00 -0.00000000000E+00 -0.45593999997E+02  0.45594000000E+02  0.51100000000E-03 0. -1.
    9900012    2    1    2    0    0  0.42836490694E+00 -0.49924803713E+00 -0.97996030496E+00  0.90007717282E+02  0.89999978350E+02 0.  0.
        -12    1    1    2    0    0 -0.42836490694E+00  0.49924803713E+00  0.97996030496E+00  0.11802827184E+01  0.00000000000E+00 0.  1.
         11    1    3    3    0    0 -0.89501143802E+01 -0.33037536154E+00  0.29065106814E+01  0.94160235716E+01  0.51100000000E-03 0. -1.
        -11    1    3    3    0    0 -0.26002351211E+02 -0.25681563470E+02  0.18643864284E+01  0.36594274248E+02  0.51100000000E-03 0.  1.
         12    1    3    3    0    0  0.35380830498E+02  0.25512690794E+02 -0.57508574147E+01  0.43997419462E+02  0.00000000000E+00 0. -1.
</event>
<event>
 7    1  0.3861961E-015  0.9000763E+02  0.7816164E-02  0.1186339E+00
        -11   -1    0    0    0    0  0.00000000000E+00  0.00000000000E+00  0.45593999997E+02  0.45594000000E+02  0.51100000000E-03 0. -1.
         11   -1    0    0    0    0 -0.00000000000E+00 -0.00000000000E+00 -0.45593999997E+02  0.45594000000E+02  0.51100000000E-03 0.  1.
    9900012    2    1    2    0    0  0.95893336209E-01  0.86114023775E+00  0.80157525384E+00  0.90007626784E+02  0.89999886658E+02 0.  0.
        -12    1    1    2    0    0 -0.95893336209E-01 -0.86114023775E+00 -0.80157525384E+00  0.11803732158E+01  0.00000000000E+00 0.  1.
         11    1    3    3    0    0  0.32289460349E+02 -0.15289253812E+02 -0.40845900577E+01  0.35959065727E+02  0.51100000000E-03 0. -1.
        -11    1    3    3    0    0  0.86007901312E+01  0.23322781099E+01 -0.44750165079E+01  0.99719047865E+01  0.51100000000E-03 0.  1.
        -12    1    3    3    0    0 -0.40794357144E+02  0.13818115940E+02  0.93611818195E+01  0.44076656271E+02  0.00000000000E+00 0.  1.
</event>
<event>
 7    1  0.3861961E-015  0.9000766E+02  0.7816164E-02  0.1186339E+00
        -11   -1    0    0    0    0  0.00000000000E+00  0.00000000000E+00  0.45593999997E+02  0.45594000000E+02  0.51100000000E-03 0.  1.
         11   -1    0    0    0    0 -0.00000000000E+00 -0.00000000000E+00 -0.45593999997E+02  0.45594000000E+02  0.51100000000E-03 0. -1.
    9900012    2    1    2    0    0  0.35112847818E+00 -0.35627436494E+00 -0.10691068266E+01  0.90007655966E+02  0.89999916225E+02 0.  0.
        -12    1    1    2    0    0 -0.35112847818E+00  0.35627436494E+00  0.10691068266E+01  0.11803440338E+01  0.00000000000E+00 0.  1.
         11    1    3    3    0    0  0.16666857515E+02 -0.21771116706E+02  0.20227544482E+02  0.34072264646E+02  0.51100000000E-03 0. -1.
        -11    1    3    3    0    0  0.16406221264E+01  0.78910404695E+01  0.12781707112E+02  0.15110665029E+02  0.51100000000E-03 0.  1.
        -12    1    3    3    0    0 -0.17956351164E+02  0.13523801871E+02 -0.34078358421E+02  0.40824726292E+02  0.00000000000E+00 0.  1.
</event>
<event>
 7    1  0.3861961E-015  0.9000767E+02  0.7816164E-02  0.1186339E+00
        -11   -1    0    0    0    0  0.00000000000E+00  0.00000000000E+00  0.45593999997E+02  0.45594000000E+02  0.51100000000E-03 0.  1.
         11   -1    0    0    0    0 -0.00000000000E+00 -0.00000000000E+00 -0.45593999997E+02  0.45594000000E+02  0.51100000000E-03 0. -1.
    9900012    2    1    2    0    0 -0.95340644251E+00  0.78554675029E-01 -0.69139145699E+00  0.90007670881E+02  0.89999931337E+02 0.  0.
        -12    1    1    2    0    0  0.95340644251E+00 -0.78554675029E-01  0.69139145699E+00  0.11803291187E+01  0.00000000000E+00 0.  1.
         11    1    3    3    0    0 -0.40593266760E+01 -0.12182421704E+02 -0.37352361969E+02  0.39497955346E+02  0.51100000000E-03 0. -1.
        -11    1    3    3    0    0  0.73629746524E+01  0.26633611119E+01 -0.38038495687E+01  0.87049503127E+01  0.51100000000E-03 0.  1.
        -12    1    3    3    0    0 -0.42570544189E+01  0.95976152676E+01  0.40464820080E+02  0.41804765222E+02  0.00000000000E+00 0.  1.
</event>
<event>
 7    1  0.3861961E-015  0.9000771E+02  0.7816164E-02  0.1186339E+00
        -11   -1    0    0    0    0  0.00000000000E+00  0.00000000000E+00  0.45593999997E+02  0.45594000000E+02  0.51100000000E-03 0.  1.
         11   -1    0    0    0    0 -0.00000000000E+00 -0.00000000000E+00 -0.45593999997E+02  0.45594000000E+02  0.51100000000E-03 0. -1.
    9900012    2    1    2    0    0  0.64516924571E+00 -0.62896627487E-01 -0.98635073081E+00  0.90007708890E+02  0.89999969847E+02 0.  0.
        -12    1    1    2    0    0 -0.64516924571E+00  0.62896627487E-01  0.98635073081E+00  0.11802911105E+01  0.00000000000E+00 0.  1.
         11    1    3    3    0    0  0.10041618693E+02  0.18820881598E+02 -0.29769105940E+02  0.36623207926E+02  0.51100000000E-03 0. -1.
        -11    1    3    3    0    0  0.26163038193E+01  0.88035408087E+01 -0.28963484481E+01  0.96299642283E+01  0.51100000000E-03 0.  1.
        -12    1    3    3    0    0 -0.12012753267E+02 -0.27687319034E+02  0.31679103657E+02  0.43754536735E+02  0.00000000000E+00 0.  1.
</event>
<event>
 7    1  0.3861961E-015  0.9000780E+02  0.7816164E-02  0.1186339E+00
        -11   -1    0    0    0    0  0.00000000000E+00  0.00000000000E+00  0.45593999997E+02  0.45594000000E+02  0.51100000000E-03 0.  1.
         11   -1    0    0    0    0 -0.00000000000E+00 -0.00000000000E+00 -0.45593999997E+02  0.45594000000E+02  0.51100000000E-03 0. -1.
    9900012    2    1    2    0    0  0.17948961405E+00 -0.10500028216E+01 -0.50809448991E+00  0.90007795587E+02  0.90000057688E+02 0.  0.
        -12    1    1    2    0    0 -0.17948961405E+00  0.10500028216E+01  0.50809448991E+00  0.11802044135E+01  0.00000000000E+00 0.  1.
         11    1    3    3    0    0  0.16006953402E+02  0.23854105570E+02 -0.27347740915E+02  0.39662826969E+02  0.51100000000E-03 0. -1.
        -11    1    3    3    0    0 -0.23451443878E+01 -0.48813628042E+01 -0.69549960852E+01  0.88147249437E+01  0.51100000000E-03 0.  1.
        -12    1    3    3    0    0 -0.13482319400E+02 -0.20022745588E+02  0.33794642510E+02  0.41530243674E+02  0.00000000000E+00 0.  1.
</event>
<event>
 7    1  0.4112418E-015  0.9000782E+02  0.7816164E-02  0.1186339E+00
        -11   -1    0    0    0    0  0.00000000000E+00  0.00000000000E+00  0.45593999997E+02  0.45594000000E+02  0.51100000000E-03 0.  1.
         11   -1    0    0    0    0 -0.00000000000E+00 -0.00000000000E+00 -0.45593999997E+02  0.45594000000E+02  0.51100000000E-03 0. -1.
    9900012    2    1    2    0    0  0.65547204808E+00 -0.24605660936E+00 -0.95006639433E+00  0.90007824753E+02  0.90000087239E+02 0.  0.
        -12    1    1    2    0    0 -0.65547204808E+00  0.24605660936E+00  0.95006639433E+00  0.11801752473E+01  0.00000000000E+00 0.  1.
         11    1    3    3    0    0 -0.61734521858E-01 -0.74013057589E+01 -0.73836869415E+01  0.10454758304E+02  0.51100000000E-03 0. -1.
        -11    1    3    3    0    0 -0.22511675062E+02 -0.52420138033E+01  0.34206022193E+02  0.41283243300E+02  0.51100000000E-03 0.  1.
         12    1    3    3    0    0  0.23228881632E+02  0.12397262953E+02 -0.27772401646E+02  0.38269823148E+02  0.00000000000E+00 0. -1.
</event>
<event>
 7    1  0.3861961E-015  0.9000786E+02  0.7816164E-02  0.1186339E+00
        -11   -1    0    0    0    0  0.00000000000E+00  0.00000000000E+00  0.45593999997E+02  0.45594000000E+02  0.51100000000E-03 0.  1.
         11   -1    0    0    0    0 -0.00000000000E+00 -0.00000000000E+00 -0.45593999997E+02  0.45594000000E+02  0.51100000000E-03 0. -1.
    9900012    2    1    2    0    0 -0.71691970142E+00 -0.92764224761E+00  0.13506548863E+00  0.90007857346E+02  0.90000120263E+02 0.  0.
        -12    1    1    2    0    0  0.71691970142E+00  0.92764224761E+00 -0.13506548863E+00  0.11801426541E+01  0.00000000000E+00 0.  1.
         11    1    3    3    0    0  0.13532718628E+02 -0.28685410849E+02 -0.25545214279E+02  0.40725240844E+02  0.51100000000E-03 0. -1.
        -11    1    3    3    0    0 -0.63857873842E+01  0.77255954333E+01 -0.54722021266E+01  0.11419636671E+02  0.51100000000E-03 0.  1.
        -12    1    3    3    0    0 -0.78638509450E+01  0.20032173168E+02  0.31152481894E+02  0.37862979831E+02  0.00000000000E+00 0.  1.
</event>
<event>
 7    1  0.3861961E-015  0.9000785E+02  0.7816164E-02  0.1186339E+00
        -11   -1    0    0    0    0  0.00000000000E+00  0.00000000000E+00  0.45593999997E+02  0.45594000000E+02  0.51100000000E-03 0.  1.
         11   -1    0    0    0    0 -0.00000000000E+00 -0.00000000000E+00 -0.45593999997E+02  0.45594000000E+02  0.51100000000E-03 0. -1.
    9900012    2    1    2    0    0  0.89480341305E+00  0.31940711151E+00 -0.70004055079E+00  0.90007851355E+02  0.90000114193E+02 0.  0.
        -12    1    1    2    0    0 -0.89480341305E+00 -0.31940711151E+00  0.70004055079E+00  0.11801486447E+01  0.00000000000E+00 0.  1.
         11    1    3    3    0    0  0.26446185541E+01 -0.43299249237E+01  0.44752856738E+01  0.67653853745E+01  0.51100000000E-03 0. -1.
        -11    1    3    3    0    0 -0.42421367013E+01 -0.11931435877E+02  0.36332499834E+02  0.38476037092E+02  0.51100000000E-03 0.  1.
         12    1    3    3    0    0  0.24923215603E+01  0.16580767913E+02 -0.41507826058E+02  0.44766428889E+02  0.00000000000E+00 0. -1.
</event>
<event>
 7    1  0.3861961E-015  0.9000777E+02  0.7816164E-02  0.1186339E+00
        -11   -1    0    0    0    0  0.00000000000E+00  0.00000000000E+00  0.45593999997E+02  0.45594000000E+02  0.51100000000E-03 0.  1.
         11   -1    0    0    0    0 -0.00000000000E+00 -0.00000000000E+00 -0.45593999997E+02  0.45594000000E+02  0.51100000000E-03 0. -1.
    9900012    2    1    2    0    0  0.11442659465E+01 -0.27987966123E+00  0.72486429115E-01  0.90007774825E+02  0.90000036653E+02 0.  0.
        -12    1    1    2    0    0 -0.11442659465E+01  0.27987966123E+00 -0.72486429115E-01  0.11802251749E+01  0.00000000000E+00 0.  1.
         11    1    3    3    0    0  0.42982411997E+01  0.37388190228E+02 -0.12323600881E+02  0.39600792730E+02  0.51100000000E-03 0. -1.
        -11    1    3    3    0    0 -0.18048742739E+01  0.54385265549E+01  0.13456559396E+01  0.58860795443E+01  0.51100000000E-03 0.  1.
        -12    1    3    3    0    0 -0.13491009793E+01 -0.43106596444E+02  0.11050431371E+02  0.44520902551E+02  0.00000000000E+00 0.  1.
</event>
<event>
 7    1  0.3861961E-015  0.9000773E+02  0.7816164E-02  0.1186339E+00
        -11   -1    0    0    0    0  0.00000000000E+00  0.00000000000E+00  0.45593999997E+02  0.45594000000E+02  0.51100000000E-03 0.  1.
         11   -1    0    0    0    0 -0.00000000000E+00 -0.00000000000E+00 -0.45593999997E+02  0.45594000000E+02  0.51100000000E-03 0. -1.
    9900012    2    1    2    0    0 -0.11034132630E+01  0.26477880927E+00  0.32465888266E+00  0.90007732218E+02  0.89999993483E+02 0.  0.
        -12    1    1    2    0    0  0.11034132630E+01 -0.26477880927E+00 -0.32465888266E+00  0.11802677819E+01  0.00000000000E+00 0.  1.
         11    1    3    3    0    0 -0.26647281955E+02  0.10202304394E+02 -0.27341052410E+02  0.39518322304E+02  0.51100000000E-03 0. -1.
        -11    1    3    3    0    0 -0.73233456767E+01 -0.43785579767E+01  0.30875299163E+01  0.90739188392E+01  0.51100000000E-03 0.  1.
        -12    1    3    3    0    0  0.32867214369E+02 -0.55589676081E+01  0.24578181377E+02  0.41415491075E+02  0.00000000000E+00 0.  1.
</event>
<event>
 7    1  0.3861961E-015  0.9000792E+02  0.7816164E-02  0.1186339E+00
        -11   -1    0    0    0    0  0.00000000000E+00  0.00000000000E+00  0.45593999997E+02  0.45594000000E+02  0.51100000000E-03 0.  1.
         11   -1    0    0    0    0 -0.00000000000E+00 -0.00000000000E+00 -0.45593999997E+02  0.45594000000E+02  0.51100000000E-03 0. -1.
    9900012    2    1    2    0    0 -0.13110052908E+00 -0.11559261425E+01 -0.19809730088E+00  0.90007917318E+02  0.90000181026E+02 0.  0.
        -12    1    1    2    0    0  0.13110052908E+00  0.11559261425E+01  0.19809730088E+00  0.11800826820E+01  0.00000000000E+00 0.  1.
         11    1    3    3    0    0  0.21691834022E+02 -0.29070922056E+02 -0.13884803023E+02  0.38838665369E+02  0.51100000000E-03 0. -1.
        -11    1    3    3    0    0  0.36640417644E+00  0.48617814400E+01 -0.10156026121E+02  0.11265701826E+02  0.51100000000E-03 0.  1.
        -12    1    3    3    0    0 -0.22189338727E+02  0.23053214473E+02  0.23842731843E+02  0.39903550123E+02  0.00000000000E+00 0.  1.
</event>
<event>
 7    1  0.3861961E-015  0.9000777E+02  0.7816164E-02  0.1186339E+00
        -11   -1    0    0    0    0  0.00000000000E+00  0.00000000000E+00  0.45593999997E+02  0.45594000000E+02  0.51100000000E-03 0.  1.
         11   -1    0    0    0    0 -0.00000000000E+00 -0.00000000000E+00 -0.45593999997E+02  0.45594000000E+02  0.51100000000E-03 0. -1.
    9900012    2    1    2    0    0  0.41327371763E+00  0.71932592446E+00 -0.83947608706E+00  0.90007769068E+02  0.90000030820E+02 0.  0.
        -12    1    1    2    0    0 -0.41327371763E+00 -0.71932592446E+00  0.83947608706E+00  0.11802309317E+01  0.00000000000E+00 0.  1.
         11    1    3    3    0    0 -0.48351283307E+01 -0.79432119098E+01 -0.42668489608E+01  0.10231279575E+02  0.51100000000E-03 0. -1.
        -11    1    3    3    0    0 -0.34656312673E+02  0.57813503774E+01  0.14887137149E+02  0.38159020861E+02  0.51100000000E-03 0.  1.
         12    1    3    3    0    0  0.39904714722E+02  0.28811874569E+01 -0.11459764275E+02  0.41617468633E+02  0.00000000000E+00 0. -1.
</event>
<event>
 7    1  0.3861961E-015  0.9000779E+02  0.7816164E-02  0.1186339E+00
        -11   -1    0    0    0    0  0.00000000000E+00  0.00000000000E+00  0.45593999997E+02  0.45594000000E+02  0.51100000000E-03 0. -1.
         11   -1    0    0    0    0 -0.00000000000E+00 -0.00000000000E+00 -0.45593999997E+02  0.45594000000E+02  0.51100000000E-03 0.  1.
    9900012    2    1    2    0    0  0.76839254209E+00  0.89053225044E+00 -0.97041680749E-01  0.90007791597E+02  0.90000053646E+02 0.  0.
        -12    1    1    2    0    0 -0.76839254209E+00 -0.89053225044E+00  0.97041680749E-01  0.11802084035E+01  0.00000000000E+00 0.  1.
         11    1    3    3    0    0 -0.12216682821E+02 -0.52794951342E+01  0.13150075495E+02  0.18709486733E+02  0.51100000000E-03 0. -1.
        -11    1    3    3    0    0  0.28701371541E+01 -0.30520947339E+02 -0.12841185943E+02  0.33236455443E+02  0.51100000000E-03 0.  1.
        -12    1    3    3    0    0  0.10114938209E+02  0.36690974723E+02 -0.40593123305E+00  0.38061849420E+02  0.00000000000E+00 0.  1.
</event>
<event>
 7    1  0.3861961E-015  0.9000754E+02  0.7816164E-02  0.1186339E+00
        -11   -1    0    0    0    0  0.00000000000E+00  0.00000000000E+00  0.45593999997E+02  0.45594000000E+02  0.51100000000E-03 0. -1.
         11   -1    0    0    0    0 -0.00000000000E+00 -0.00000000000E+00 -0.45593999997E+02  0.45594000000E+02  0.51100000000E-03 0.  1.
    9900012    2    1    2    0    0  0.82101070401E+00 -0.61775620268E+00  0.58121202882E+00  0.90007538766E+02  0.89999797478E+02 0.  0.
        -12    1    1    2    0    0 -0.82101070401E+00  0.61775620268E+00 -0.58121202882E+00  0.11804612338E+01  0.00000000000E+00 0.  1.
         11    1    3    3    0    0 -0.23167439531E+01  0.70163700887E+01 -0.62074183368E+01  0.96503261310E+01  0.51100000000E-03 0. -1.
        -11    1    3    3    0    0  0.14326657558E+02  0.28049174350E+01 -0.33887287480E+02  0.36898088454E+02  0.51100000000E-03 0.  1.
         12    1    3    3    0    0 -0.11188902900E+02 -0.10439043726E+02  0.40675917845E+02  0.43459124181E+02  0.00000000000E+00 0. -1.
</event>
<event>
 7    1  0.3861961E-015  0.9000806E+02  0.7816164E-02  0.1186338E+00
        -11   -1    0    0    0    0  0.00000000000E+00  0.00000000000E+00  0.45593999997E+02  0.45594000000E+02  0.51100000000E-03 0.  1.
         11   -1    0    0    0    0 -0.00000000000E+00 -0.00000000000E+00 -0.45593999997E+02  0.45594000000E+02  0.51100000000E-03 0. -1.
    9900012    2    1    2    0    0  0.11145757697E+01  0.29822536861E+00 -0.24704850786E+00  0.90008063357E+02  0.90000328992E+02 0.  0.
        -12    1    1    2    0    0 -0.11145757697E+01 -0.29822536861E+00  0.24704850786E+00  0.11799366433E+01  0.00000000000E+00 0.  1.
         11    1    3    3    0    0 -0.26123179591E+02 -0.12305760989E+02 -0.25685310660E+02  0.38646959123E+02  0.51100000000E-03 0. -1.
        -11    1    3    3    0    0  0.53173318155E+01  0.27168719764E+01 -0.81183577575E+01  0.10077854132E+02  0.51100000000E-03 0.  1.
        -12    1    3    3    0    0  0.21920423545E+02  0.98871143815E+01  0.33556619910E+02  0.41283250102E+02  0.00000000000E+00 0.  1.
</event>
<event>
 7    1  0.3861961E-015  0.9000774E+02  0.7816164E-02  0.1186339E+00
        -11   -1    0    0    0    0  0.00000000000E+00  0.00000000000E+00  0.45593999997E+02  0.45594000000E+02  0.51100000000E-03 0.  1.
         11   -1    0    0    0    0 -0.00000000000E+00 -0.00000000000E+00 -0.45593999997E+02  0.45594000000E+02  0.51100000000E-03 0. -1.
    9900012    2    1    2    0    0 -0.82509379010E+00 -0.82124297449E+00  0.19441209756E+00  0.90007739076E+02  0.90000000432E+02 0.  0.
        -12    1    1    2    0    0  0.82509379010E+00  0.82124297449E+00 -0.19441209756E+00  0.11802609242E+01  0.00000000000E+00 0.  1.
         11    1    3    3    0    0  0.81927966147E+00  0.81571758736E+01  0.49891144402E+01  0.95969787201E+01  0.51100000000E-03 0. -1.
        -11    1    3    3    0    0  0.34039013894E+02 -0.16628863343E+02  0.12678707047E+02  0.39949007192E+02  0.51100000000E-03 0.  1.
         12    1    3    3    0    0 -0.35683387345E+02  0.76504444949E+01 -0.17473409390E+02  0.40461753164E+02  0.00000000000E+00 0. -1.
</event>
<event>
 7    1  0.3861961E-015  0.9000774E+02  0.7816164E-02  0.1186339E+00
        -11   -1    0    0    0    0  0.00000000000E+00  0.00000000000E+00  0.45593999997E+02  0.45594000000E+02  0.51100000000E-03 0.  1.
         11   -1    0    0    0    0 -0.00000000000E+00 -0.00000000000E+00 -0.45593999997E+02  0.45594000000E+02  0.51100000000E-03 0. -1.
    9900012    2    1    2    0    0 -0.14625005583E+00  0.45968332400E-02 -0.11711543417E+01  0.90007740409E+02  0.90000001783E+02 0.  0.
        -12    1    1    2    0    0  0.14625005583E+00 -0.45968332400E-02  0.11711543417E+01  0.11802595909E+01  0.00000000000E+00 0.  1.
         11    1    3    3    0    0  0.40195482061E+01  0.37825391851E+00 -0.93832253493E+01  0.10214928391E+02  0.51100000000E-03 0. -1.
        -11    1    3    3    0    0  0.34755063156E+02 -0.12786531831E+02 -0.37584768752E+01  0.37222788180E+02  0.51100000000E-03 0.  1.
         12    1    3    3    0    0 -0.38920861418E+02  0.12412874746E+02  0.11970547883E+02  0.42570023838E+02  0.00000000000E+00 0. -1.
</event>
<event>
 7    1  0.3861961E-015  0.9000774E+02  0.7816164E-02  0.1186339E+00
        -11   -1    0    0    0    0  0.00000000000E+00  0.00000000000E+00  0.45593999997E+02  0.45594000000E+02  0.51100000000E-03 0.  1.
         11   -1    0    0    0    0 -0.00000000000E+00 -0.00000000000E+00 -0.45593999997E+02  0.45594000000E+02  0.51100000000E-03 0. -1.
    9900012    2    1    2    0    0  0.23643336314E+00  0.11199589091E+01 -0.28774313685E+00  0.90007743754E+02  0.90000005172E+02 0.  0.
        -12    1    1    2    0    0 -0.23643336314E+00 -0.11199589091E+01  0.28774313685E+00  0.11802562460E+01  0.00000000000E+00 0.  1.
         11    1    3    3    0    0  0.45879508106E+01 -0.20934412686E+02 -0.23058909390E+02  0.31480346721E+02  0.51100000000E-03 0. -1.
        -11    1    3    3    0    0 -0.34308149243E+01 -0.13022067982E+02 -0.43800245989E+01  0.14160839005E+02  0.51100000000E-03 0.  1.
        -12    1    3    3    0    0 -0.92070252309E+00  0.35076439577E+02  0.27151190852E+02  0.44366558028E+02  0.00000000000E+00 0.  1.
</event>
<event>
 7    1  0.3861961E-015  0.9000774E+02  0.7816164E-02  0.1186339E+00
        -11   -1    0    0    0    0  0.00000000000E+00  0.00000000000E+00  0.45593999997E+02  0.45594000000E+02  0.51100000000E-03 0.  1.
         11   -1    0    0    0    0 -0.00000000000E+00 -0.00000000000E+00 -0.45593999997E+02  0.45594000000E+02  0.51100000000E-03 0. -1.
    9900012    2    1    2    0    0 -0.40099039216E+00 -0.70546289886E+00 -0.85704911245E+00  0.90007743936E+02  0.90000005356E+02 0.  0.
        -12    1    1    2    0    0  0.40099039216E+00  0.70546289886E+00  0.85704911245E+00  0.11802560643E+01  0.00000000000E+00 0.  1.
         11    1    3    3    0    0 -0.33350151410E+01 -0.29921783966E+02 -0.16073021242E+02  0.34128836690E+02  0.51100000000E-03 0. -1.
        -11    1    3    3    0    0 -0.60805182243E+01 -0.10506643338E+02 -0.66996224746E+00  0.12157759077E+02  0.51100000000E-03 0.  1.
         12    1    3    3    0    0  0.90145429732E+01  0.39722964405E+02  0.15885934377E+02  0.43721148168E+02  0.00000000000E+00 0. -1.
</event>
<event>
 7    1  0.3861961E-015  0.9000694E+02  0.7816164E-02  0.1186341E+00
        -11   -1    0    0    0    0  0.00000000000E+00  0.00000000000E+00  0.45593999997E+02  0.45594000000E+02  0.51100000000E-03 0. -1.
         11   -1    0    0    0    0 -0.00000000000E+00 -0.00000000000E+00 -0.45593999997E+02  0.45594000000E+02  0.51100000000E-03 0.  1.
    9900012    2    1    2    0    0 -0.11694323213E+01 -0.15756169088E+00 -0.50021142535E-01  0.90006941257E+02  0.89999192078E+02 0.  0.
        -12    1    1    2    0    0  0.11694323213E+01  0.15756169088E+00  0.50021142535E-01  0.11810587433E+01  0.00000000000E+00 0.  1.
         11    1    3    3    0    0  0.10847181234E+02  0.24084234330E+02  0.81552923567E+01  0.27644537936E+02  0.51100000000E-03 0. -1.
        -11    1    3    3    0    0 -0.20197200877E+02  0.12666205226E+02 -0.88683435480E+00  0.23856784225E+02  0.51100000000E-03 0.  1.
        -12    1    3    3    0    0  0.81805873222E+01 -0.36908001247E+02 -0.73184791445E+01  0.38505619096E+02  0.00000000000E+00 0.  1.
</event>
<event>
 7    1  0.3861961E-015  0.9000788E+02  0.7816164E-02  0.1186339E+00
        -11   -1    0    0    0    0  0.00000000000E+00  0.00000000000E+00  0.45593999997E+02  0.45594000000E+02  0.51100000000E-03 0.  1.
         11   -1    0    0    0    0 -0.00000000000E+00 -0.00000000000E+00 -0.45593999997E+02  0.45594000000E+02  0.51100000000E-03 0. -1.
    9900012    2    1    2    0    0  0.48472292775E+00 -0.10280662556E+01 -0.31749643756E+00  0.90007881137E+02  0.90000144368E+02 0.  0.
        -12    1    1    2    0    0 -0.48472292775E+00  0.10280662556E+01  0.31749643756E+00  0.11801188628E+01  0.00000000000E+00 0.  1.
         11    1    3    3    0    0 -0.35823362393E+01  0.80110255318E+01  0.54650808671E+01  0.10338122274E+02  0.51100000000E-03 0. -1.
        -11    1    3    3    0    0  0.29576412317E+02 -0.85160361677E+01  0.25025409274E+02  0.39668099868E+02  0.51100000000E-03 0.  1.
         12    1    3    3    0    0 -0.25509353150E+02 -0.52305561967E+00 -0.30807986579E+02  0.40001658995E+02  0.00000000000E+00 0. -1.
</event>
<event>
 7    1  0.3861961E-015  0.9000772E+02  0.7816164E-02  0.1186339E+00
        -11   -1    0    0    0    0  0.00000000000E+00  0.00000000000E+00  0.45593999997E+02  0.45594000000E+02  0.51100000000E-03 0.  1.
         11   -1    0    0    0    0 -0.00000000000E+00 -0.00000000000E+00 -0.45593999997E+02  0.45594000000E+02  0.51100000000E-03 0. -1.
    9900012    2    1    2    0    0  0.95109383480E+00  0.33841286799E+00 -0.61151494497E+00  0.90007723219E+02  0.89999984366E+02 0.  0.
        -12    1    1    2    0    0 -0.95109383480E+00 -0.33841286799E+00  0.61151494497E+00  0.11802767810E+01  0.00000000000E+00 0.  1.
         11    1    3    3    0    0 -0.84202821263E+01  0.80178469154E+00 -0.54814327406E+01  0.10079192176E+02  0.51100000000E-03 0. -1.
        -11    1    3    3    0    0 -0.90406735982E+01  0.20581936555E+02  0.33218159531E+02  0.40109799480E+02  0.51100000000E-03 0.  1.
         12    1    3    3    0    0  0.18412049559E+02 -0.21045308378E+02 -0.28348241736E+02  0.39818731562E+02  0.00000000000E+00 0. -1.
</event>
<event>
 7    1  0.3861961E-015  0.9000785E+02  0.7816164E-02  0.1186339E+00
        -11   -1    0    0    0    0  0.00000000000E+00  0.00000000000E+00  0.45593999997E+02  0.45594000000E+02  0.51100000000E-03 0. -1.
         11   -1    0    0    0    0 -0.00000000000E+00 -0.00000000000E+00 -0.45593999997E+02  0.45594000000E+02  0.51100000000E-03 0.  1.
    9900012    2    1    2    0    0  0.48885413897E+00  0.60832920800E+00  0.88527963596E+00  0.90007846269E+02  0.90000109040E+02 0.  0.
        -12    1    1    2    0    0 -0.48885413897E+00 -0.60832920800E+00 -0.88527963596E+00  0.11801537308E+01  0.00000000000E+00 0.  1.
         11    1    3    3    0    0 -0.10062768808E+02  0.35388860858E+01  0.52948493926E+00  0.10680046132E+02  0.51100000000E-03 0. -1.
        -11    1    3    3    0    0  0.19465326827E+02  0.17117372896E+01 -0.36350942667E+02  0.41270086335E+02  0.51100000000E-03 0.  1.
         12    1    3    3    0    0 -0.89137038805E+01 -0.46422941674E+01  0.36706737364E+02  0.38057713803E+02  0.00000000000E+00 0. -1.
</event>
<event>
 7    1  0.3861961E-015  0.9000778E+02  0.7816164E-02  0.1186339E+00
        -11   -1    0    0    0    0  0.00000000000E+00  0.00000000000E+00  0.45593999997E+02  0.45594000000E+02  0.51100000000E-03 0.  1.
         11   -1    0    0    0    0 -0.00000000000E+00 -0.00000000000E+00 -0.45593999997E+02  0.45594000000E+02  0.51100000000E-03 0. -1.
    9900012    2    1    2    0    0 -0.11334128501E+01  0.19265098209E+00 -0.26678422047E+00  0.90007782685E+02  0.90000044617E+02 0.  0.
        -12    1    1    2    0    0  0.11334128501E+01 -0.19265098209E+00  0.26678422047E+00  0.11802173147E+01  0.00000000000E+00 0.  1.
         11    1    3    3    0    0 -0.47295690454E+01  0.39792628155E+01 -0.53501055112E+00  0.62039981029E+01  0.51100000000E-03 0. -1.
        -11    1    3    3    0    0  0.37515890768E+02  0.17942972069E+02  0.90859372936E+01  0.42566965637E+02  0.51100000000E-03 0.  1.
         12    1    3    3    0    0 -0.33919734573E+02 -0.21729583903E+02 -0.88177109630E+01  0.41236818945E+02  0.00000000000E+00 0. -1.
</event>
<event>
 7    1  0.3861961E-015  0.9000751E+02  0.7816164E-02  0.1186340E+00
        -11   -1    0    0    0    0  0.00000000000E+00  0.00000000000E+00  0.45593999997E+02  0.45594000000E+02  0.51100000000E-03 0.  1.
         11   -1    0    0    0    0 -0.00000000000E+00 -0.00000000000E+00 -0.45593999997E+02  0.45594000000E+02  0.51100000000E-03 0. -1.
    9900012    2    1    2    0    0  0.11333054301E+01  0.98497144767E-01 -0.31540993810E+00  0.90007505902E+02  0.89999764180E+02 0.  0.
        -12    1    1    2    0    0 -0.11333054301E+01 -0.98497144767E-01  0.31540993810E+00  0.11804940976E+01  0.00000000000E+00 0.  1.
         11    1    3    3    0    0 -0.16840087553E+01 -0.67496440081E+01  0.42219030653E+01  0.81374471106E+01  0.51100000000E-03 0. -1.
        -11    1    3    3    0    0  0.10182918575E+00 -0.32976923973E+02 -0.20555051042E+02  0.38858692818E+02  0.51100000000E-03 0.  1.
         12    1    3    3    0    0  0.27154849997E+01  0.39825065126E+02  0.16017738039E+02  0.43011365974E+02  0.00000000000E+00 0. -1.
</event>
<event>
 7    1  0.3861961E-015  0.9000779E+02  0.7816164E-02  0.1186339E+00
        -11   -1    0    0    0    0  0.00000000000E+00  0.00000000000E+00  0.45593999997E+02  0.45594000000E+02  0.51100000000E-03 0. -1.
         11   -1    0    0    0    0 -0.00000000000E+00 -0.00000000000E+00 -0.45593999997E+02  0.45594000000E+02  0.51100000000E-03 0.  1.
    9900012    2    1    2    0    0 -0.10181899399E+01 -0.35911566493E+00  0.47667628482E+00  0.90007790233E+02  0.90000052264E+02 0.  0.
        -12    1    1    2    0    0  0.10181899399E+01  0.35911566493E+00 -0.47667628482E+00  0.11802097674E+01  0.00000000000E+00 0.  1.
         11    1    3    3    0    0 -0.89761310564E+01 -0.82630677666E+01  0.38974504189E+02  0.40839456347E+02  0.51100000000E-03 0. -1.
        -11    1    3    3    0    0 -0.40551184731E+01  0.80289507982E+01 -0.16434660442E+00  0.89963907662E+01  0.51100000000E-03 0.  1.
        -12    1    3    3    0    0  0.12013059590E+02 -0.12499869651E+00 -0.38333481300E+02  0.40171943119E+02  0.00000000000E+00 0.  1.
</event>
<event>
 7    1  0.3861961E-015  0.9000787E+02  0.7816164E-02  0.1186339E+00
        -11   -1    0    0    0    0  0.00000000000E+00  0.00000000000E+00  0.45593999997E+02  0.45594000000E+02  0.51100000000E-03 0.  1.
         11   -1    0    0    0    0 -0.00000000000E+00 -0.00000000000E+00 -0.45593999997E+02  0.45594000000E+02  0.51100000000E-03 0. -1.
    9900012    2    1    2    0    0  0.74223917290E-01 -0.19020249354E+00 -0.11623314412E+01  0.90007872652E+02  0.90000135771E+02 0.  0.
        -12    1    1    2    0    0 -0.74223917290E-01  0.19020249354E+00  0.11623314412E+01  0.11801273480E+01  0.00000000000E+00 0.  1.
         11    1    3    3    0    0 -0.64654104171E+01  0.51801743947E+01  0.48591992956E+01  0.96045591610E+01  0.51100000000E-03 0. -1.
        -11    1    3    3    0    0  0.13837492562E+02  0.64251976984E+00  0.35348781387E+02  0.37966108279E+02  0.51100000000E-03 0.  1.
         12    1    3    3    0    0 -0.72978582274E+01 -0.60128966581E+01 -0.41370312124E+02  0.42437205212E+02  0.00000000000E+00 0. -1.
</event>
<event>
 7    1  0.3861961E-015  0.9000773E+02  0.7816164E-02  0.1186339E+00
        -11   -1    0    0    0    0  0.00000000000E+00  0.00000000000E+00  0.45593999997E+02  0.45594000000E+02  0.51100000000E-03 0.  1.
         11   -1    0    0    0    0 -0.00000000000E+00 -0.00000000000E+00 -0.45593999997E+02  0.45594000000E+02  0.51100000000E-03 0. -1.
    9900012    2    1    2    0    0 -0.84908434428E+00  0.81292705382E+00  0.10601159386E+00  0.90007731778E+02  0.89999993037E+02 0.  0.
        -12    1    1    2    0    0  0.84908434428E+00 -0.81292705382E+00 -0.10601159386E+00  0.11802682223E+01  0.00000000000E+00 0.  1.
         11    1    3    3    0    0  0.13913526695E+02  0.34042357196E+02  0.35121795377E+01  0.36943249910E+02  0.51100000000E-03 0. -1.
        -11    1    3    3    0    0 -0.18406544606E+01  0.87697310729E+01  0.30466699575E+00  0.89659920908E+01  0.51100000000E-03 0.  1.
        -12    1    3    3    0    0 -0.12921956579E+02 -0.41999161215E+02 -0.37108349396E+01  0.44098489776E+02  0.00000000000E+00 0.  1.
</event>
<event>
 7    1  0.3861961E-015  0.9000777E+02  0.7816164E-02  0.1186339E+00
        -11   -1    0    0    0    0  0.00000000000E+00  0.00000000000E+00  0.45593999997E+02  0.45594000000E+02  0.51100000000E-03 0. -1.
         11   -1    0    0    0    0 -0.00000000000E+00 -0.00000000000E+00 -0.45593999997E+02  0.45594000000E+02  0.51100000000E-03 0.  1.
    9900012    2    1    2    0    0  0.73419383787E+00  0.18336392984E+00  0.90569646600E+00  0.90007767391E+02  0.90000029121E+02 0.  0.
        -12    1    1    2    0    0 -0.73419383787E+00 -0.18336392984E+00 -0.90569646600E+00  0.11802326088E+01  0.00000000000E+00 0.  1.
         11    1    3    3    0    0 -0.24433615253E+00  0.32995750667E+02  0.18917064887E+02  0.38034650076E+02  0.51100000000E-03 0. -1.
        -11    1    3    3    0    0 -0.97034154076E+01  0.37054180574E+01 -0.14910878158E+01  0.10493318669E+02  0.51100000000E-03 0.  1.
        -12    1    3    3    0    0  0.10681945398E+02 -0.36517804794E+02 -0.16520280605E+02  0.41479798646E+02  0.00000000000E+00 0.  1.
</event>
<event>
 7    1  0.3861961E-015  0.9000779E+02  0.7816164E-02  0.1186339E+00
        -11   -1    0    0    0    0  0.00000000000E+00  0.00000000000E+00  0.45593999997E+02  0.45594000000E+02  0.51100000000E-03 0.  1.
         11   -1    0    0    0    0 -0.00000000000E+00 -0.00000000000E+00 -0.45593999997E+02  0.45594000000E+02  0.51100000000E-03 0. -1.
    9900012    2    1    2    0    0  0.59381604748E+00 -0.22146412209E+00 -0.99560575684E+00  0.90007790409E+02  0.90000052442E+02 0.  0.
        -12    1    1    2    0    0 -0.59381604748E+00  0.22146412209E+00  0.99560575684E+00  0.11802095910E+01  0.00000000000E+00 0.  1.
         11    1    3    3    0    0 -0.23331082910E+01  0.62999914425E+00 -0.75896787240E+01  0.79651438540E+01  0.51100000000E-03 0. -1.
        -11    1    3    3    0    0  0.32599989234E+02 -0.25586522844E+02 -0.49195992312E+01  0.41732863623E+02  0.51100000000E-03 0.  1.
         12    1    3    3    0    0 -0.29673064895E+02  0.24735059577E+02  0.11513672198E+02  0.40309782933E+02  0.00000000000E+00 0. -1.
</event>
<event>
 7    1  0.3861961E-015  0.9000807E+02  0.7816164E-02  0.1186338E+00
        -11   -1    0    0    0    0  0.00000000000E+00  0.00000000000E+00  0.45593999997E+02  0.45594000000E+02  0.51100000000E-03 0.  1.
         11   -1    0    0    0    0 -0.00000000000E+00 -0.00000000000E+00 -0.45593999997E+02  0.45594000000E+02  0.51100000000E-03 0. -1.
    9900012    2    1    2    0    0 -0.91694793442E+00 -0.12644757065E-01 -0.74247923577E+00  0.90008072536E+02  0.90000338293E+02 0.  0.
        -12    1    1    2    0    0  0.91694793442E+00  0.12644757065E-01  0.74247923577E+00  0.11799274638E+01  0.00000000000E+00 0.  1.
         11    1    3    3    0    0  0.90845762328E+01  0.23227594585E+01 -0.21364056927E+01  0.96171184029E+01  0.51100000000E-03 0. -1.
        -11    1    3    3    0    0  0.16013391844E+02 -0.35012890320E+02 -0.14267706737E+01  0.38527482162E+02  0.51100000000E-03 0.  1.
         12    1    3    3    0    0 -0.26014916011E+02  0.32677486105E+02  0.28206971307E+01  0.41863471971E+02  0.00000000000E+00 0. -1.
</event>
<event>
 7    1  0.3861961E-015  0.9000771E+02  0.7816164E-02  0.1186339E+00
        -11   -1    0    0    0    0  0.00000000000E+00  0.00000000000E+00  0.45593999997E+02  0.45594000000E+02  0.51100000000E-03 0. -1.
         11   -1    0    0    0    0 -0.00000000000E+00 -0.00000000000E+00 -0.45593999997E+02  0.45594000000E+02  0.51100000000E-03 0.  1.
    9900012    2    1    2    0    0  0.21654088684E+00  0.59984031010E+00  0.99316994411E+00  0.90007709828E+02  0.89999970797E+02 0.  0.
        -12    1    1    2    0    0 -0.21654088684E+00 -0.59984031010E+00 -0.99316994411E+00  0.11802901724E+01  0.00000000000E+00 0.  1.
         11    1    3    3    0    0 -0.27486980783E+01 -0.21821789286E+01  0.20704151002E+02  0.20999502732E+02  0.51100000000E-03 0. -1.
        -11    1    3    3    0    0  0.21712660178E+02 -0.22006792307E+02  0.21816708126E+01  0.30991905515E+02  0.51100000000E-03 0.  1.
         12    1    3    3    0    0 -0.18747421213E+02  0.24788811545E+02 -0.21892651870E+02  0.38016301581E+02  0.00000000000E+00 0. -1.
</event>
<event>
 7    1  0.3861961E-015  0.9000796E+02  0.7816164E-02  0.1186339E+00
        -11   -1    0    0    0    0  0.00000000000E+00  0.00000000000E+00  0.45593999997E+02  0.45594000000E+02  0.51100000000E-03 0.  1.
         11   -1    0    0    0    0 -0.00000000000E+00 -0.00000000000E+00 -0.45593999997E+02  0.45594000000E+02  0.51100000000E-03 0. -1.
    9900012    2    1    2    0    0  0.68688785012E+00 -0.72023045792E+00  0.63399027663E+00  0.90007961652E+02  0.90000225946E+02 0.  0.
        -12    1    1    2    0    0 -0.68688785012E+00  0.72023045792E+00 -0.63399027663E+00  0.11800383477E+01  0.00000000000E+00 0.  1.
         11    1    3    3    0    0 -0.13098078568E+02  0.25396242960E+02 -0.99611265704E+01  0.30261408782E+02  0.51100000000E-03 0. -1.
        -11    1    3    3    0    0  0.20519710112E+02  0.92121022166E+01  0.72232025863E+01  0.23624055245E+02  0.51100000000E-03 0.  1.
        -12    1    3    3    0    0 -0.67347436940E+01 -0.35328575634E+02  0.33719142607E+01  0.36122497626E+02  0.00000000000E+00 0.  1.
</event>
<event>
 7    1  0.3861961E-015  0.9000770E+02  0.7816164E-02  0.1186339E+00
        -11   -1    0    0    0    0  0.00000000000E+00  0.00000000000E+00  0.45593999997E+02  0.45594000000E+02  0.51100000000E-03 0.  1.
         11   -1    0    0    0    0 -0.00000000000E+00 -0.00000000000E+00 -0.45593999997E+02  0.45594000000E+02  0.51100000000E-03 0. -1.
    9900012    2    1    2    0    0 -0.46095252649E+00 -0.15354526458E+00 -0.10756634506E+01  0.90007701208E+02  0.89999962064E+02 0.  0.
        -12    1    1    2    0    0  0.46095252649E+00  0.15354526458E+00  0.10756634506E+01  0.11802987922E+01  0.00000000000E+00 0.  1.
         11    1    3    3    0    0 -0.82866776771E+01 -0.41566302340E+02 -0.11685692663E+02  0.43965690379E+02  0.51100000000E-03 0. -1.
        -11    1    3    3    0    0 -0.25332981542E+01  0.57386483992E+01  0.58736744582E+01  0.85935869630E+01  0.51100000000E-03 0.  1.
        -12    1    3    3    0    0  0.10359023305E+02  0.35674108677E+02  0.47363547545E+01  0.37448423866E+02  0.00000000000E+00 0.  1.
</event>
<event>
 7    1  0.3861961E-015  0.9000731E+02  0.7816164E-02  0.1186340E+00
        -11   -1    0    0    0    0  0.00000000000E+00  0.00000000000E+00  0.45593999997E+02  0.45594000000E+02  0.51100000000E-03 0. -1.
         11   -1    0    0    0    0 -0.00000000000E+00 -0.00000000000E+00 -0.45593999997E+02  0.45594000000E+02  0.51100000000E-03 0.  1.
    9900012    2    1    2    0    0  0.79822944032E+00 -0.75421606612E+00  0.43361720905E+00  0.90007306984E+02  0.89999562635E+02 0.  0.
        -12    1    1    2    0    0 -0.79822944032E+00  0.75421606612E+00 -0.43361720905E+00  0.11806930159E+01  0.00000000000E+00 0.  1.
         11    1    3    3    0    0  0.34053220720E+02 -0.55767086788E+01  0.13477564046E+02  0.37045461988E+02  0.51100000000E-03 0. -1.
        -11    1    3    3    0    0 -0.22426976031E+01  0.15463954305E+02  0.38285825381E+01  0.16087933981E+02  0.51100000000E-03 0.  1.
        -12    1    3    3    0    0 -0.31012293676E+02 -0.10641461692E+02 -0.16872529375E+02  0.36873911014E+02  0.00000000000E+00 0.  1.
</event>
<event>
 7    1  0.3861961E-015  0.9000794E+02  0.7816164E-02  0.1186339E+00
        -11   -1    0    0    0    0  0.00000000000E+00  0.00000000000E+00  0.45593999997E+02  0.45594000000E+02  0.51100000000E-03 0.  1.
         11   -1    0    0    0    0 -0.00000000000E+00 -0.00000000000E+00 -0.45593999997E+02  0.45594000000E+02  0.51100000000E-03 0. -1.
    9900012    2    1    2    0    0 -0.66169813117E+00  0.83452074350E+00  0.50821492399E+00  0.90007935723E+02  0.90000199675E+02 0.  0.
        -12    1    1    2    0    0  0.66169813117E+00 -0.83452074350E+00 -0.50821492399E+00  0.11800642767E+01  0.00000000000E+00 0.  1.
         11    1    3    3    0    0  0.24183553228E+02 -0.24680309804E+02 -0.10912516169E+02  0.36235962084E+02  0.51100000000E-03 0. -1.
        -11    1    3    3    0    0 -0.27149218535E+01 -0.95862956533E+01 -0.19969602365E+01  0.10161481952E+02  0.51100000000E-03 0.  1.
        -12    1    3    3    0    0 -0.22130329506E+02  0.35101126201E+02  0.13417691329E+02  0.43610491687E+02  0.00000000000E+00 0.  1.
</event>
<event>
 7    1  0.3861961E-015  0.9000766E+02  0.7816164E-02  0.1186339E+00
        -11   -1    0    0    0    0  0.00000000000E+00  0.00000000000E+00  0.45593999997E+02  0.45594000000E+02  0.51100000000E-03 0.  1.
         11   -1    0    0    0    0 -0.00000000000E+00 -0.00000000000E+00 -0.45593999997E+02  0.45594000000E+02  0.51100000000E-03 0. -1.
    9900012    2    1    2    0    0  0.45883770229E+00  0.10511865187E+01 -0.27869764554E+00  0.90007662120E+02  0.89999922460E+02 0.  0.
        -12    1    1    2    0    0 -0.45883770229E+00 -0.10511865187E+01  0.27869764554E+00  0.11803378803E+01  0.00000000000E+00 0.  1.
         11    1    3    3    0    0 -0.37559167487E+01  0.79214208128E+01  0.51318624755E+01  0.10158338006E+02  0.51100000000E-03 0. -1.
        -11    1    3    3    0    0 -0.35505952265E+02 -0.72387206143E+01  0.94331924704E+01  0.37444049498E+02  0.51100000000E-03 0.  1.
         12    1    3    3    0    0  0.39720706716E+02  0.36848632017E+00 -0.14843752591E+02  0.42405274615E+02  0.00000000000E+00 0. -1.
</event>
<event>
 7    1  0.3861961E-015  0.9000849E+02  0.7816164E-02  0.1186338E+00
        -11   -1    0    0    0    0  0.00000000000E+00  0.00000000000E+00  0.45593999997E+02  0.45594000000E+02  0.51100000000E-03 0.  1.
         11   -1    0    0    0    0 -0.00000000000E+00 -0.00000000000E+00 -0.45593999997E+02  0.45594000000E+02  0.51100000000E-03 0. -1.
    9900012    2    1    2    0    0 -0.86709152956E+00  0.14824846278E+00 -0.78576191401E+00  0.90008488613E+02  0.90000759859E+02 0.  0.
        -12    1    1    2    0    0  0.86709152956E+00 -0.14824846278E+00  0.78576191401E+00  0.11795113873E+01  0.00000000000E+00 0.  1.
         11    1    3    3    0    0  0.66324993835E+01  0.32802625075E+02 -0.13658521296E+02  0.36146334034E+02  0.51100000000E-03 0. -1.
        -11    1    3    3    0    0  0.37404131411E+01  0.86441803237E+01  0.34933580021E+01  0.10045700291E+02  0.51100000000E-03 0.  1.
        -12    1    3    3    0    0 -0.11240004054E+02 -0.41298556936E+02  0.93794013794E+01  0.43816454288E+02  0.00000000000E+00 0.  1.
</event>
<event>
 7    1  0.3861961E-015  0.9000773E+02  0.7816164E-02  0.1186339E+00
        -11   -1    0    0    0    0  0.00000000000E+00  0.00000000000E+00  0.45593999997E+02  0.45594000000E+02  0.51100000000E-03 0. -1.
         11   -1    0    0    0    0 -0.00000000000E+00 -0.00000000000E+00 -0.45593999997E+02  0.45594000000E+02  0.51100000000E-03 0.  1.
    9900012    2    1    2    0    0  0.28199651830E+00 -0.10519198772E+01  0.45493777851E+00  0.90007734841E+02  0.89999996140E+02 0.  0.
        -12    1    1    2    0    0 -0.28199651830E+00  0.10519198772E+01 -0.45493777851E+00  0.11802651595E+01  0.00000000000E+00 0.  1.
         11    1    3    3    0    0 -0.29014623379E+01  0.81686961172E+01 -0.34869812556E+01  0.93437208055E+01  0.51100000000E-03 0. -1.
        -11    1    3    3    0    0 -0.48902893596E+01  0.34315465891E+02  0.97474515001E+01  0.36006651334E+02  0.51100000000E-03 0.  1.
         12    1    3    3    0    0  0.80737482158E+01 -0.43536081885E+02 -0.58055324660E+01  0.44657362701E+02  0.00000000000E+00 0. -1.
</event>
<event>
 7    1  0.3861961E-015  0.9000768E+02  0.7816164E-02  0.1186339E+00
        -11   -1    0    0    0    0  0.00000000000E+00  0.00000000000E+00  0.45593999997E+02  0.45594000000E+02  0.51100000000E-03 0.  1.
         11   -1    0    0    0    0 -0.00000000000E+00 -0.00000000000E+00 -0.45593999997E+02  0.45594000000E+02  0.51100000000E-03 0. -1.
    9900012    2    1    2    0    0  0.34414944688E+00 -0.95907824545E+00 -0.59571516807E+00  0.90007683736E+02  0.89999944361E+02 0.  0.
        -12    1    1    2    0    0 -0.34414944688E+00  0.95907824545E+00  0.59571516807E+00  0.11803162645E+01  0.00000000000E+00 0.  1.
         11    1    3    3    0    0 -0.31469754309E+01 -0.37088419066E+02 -0.86680562569E+00  0.37231782598E+02  0.51100000000E-03 0. -1.
        -11    1    3    3    0    0 -0.13023854425E+01 -0.61952987913E+01 -0.71382126391E+01  0.95410699031E+01  0.51100000000E-03 0.  1.
        -12    1    3    3    0    0  0.47935103202E+01  0.42324639612E+02  0.74093030967E+01  0.43234831234E+02  0.00000000000E+00 0.  1.
</event>
<event>
 7    1  0.3861961E-015  0.9000779E+02  0.7816164E-02  0.1186339E+00
        -11   -1    0    0    0    0  0.00000000000E+00  0.00000000000E+00  0.45593999997E+02  0.45594000000E+02  0.51100000000E-03 0. -1.
         11   -1    0    0    0    0 -0.00000000000E+00 -0.00000000000E+00 -0.45593999997E+02  0.45594000000E+02  0.51100000000E-03 0.  1.
    9900012    2    1    2    0    0  0.10331619560E+01 -0.40986337975E+00 -0.39684276949E+00  0.90007789934E+02  0.90000051961E+02 0.  0.
        -12    1    1    2    0    0 -0.10331619560E+01  0.40986337975E+00  0.39684276949E+00  0.11802100665E+01  0.00000000000E+00 0.  1.
         11    1    3    3    0    0  0.37486980148E+01 -0.52480046391E+01  0.52394295443E+01  0.83093869635E+01  0.51100000000E-03 0. -1.
        -11    1    3    3    0    0 -0.38190153453E+02  0.15175058657E+02  0.88037178763E+01  0.42027082634E+02  0.51100000000E-03 0.  1.
         12    1    3    3    0    0  0.35474617394E+02 -0.10336917398E+02 -0.14439990190E+02  0.39671320336E+02  0.00000000000E+00 0. -1.
</event>
<event>
 7    1  0.3861961E-015  0.9000773E+02  0.7816164E-02  0.1186339E+00
        -11   -1    0    0    0    0  0.00000000000E+00  0.00000000000E+00  0.45593999997E+02  0.45594000000E+02  0.51100000000E-03 0. -1.
         11   -1    0    0    0    0 -0.00000000000E+00 -0.00000000000E+00 -0.45593999997E+02  0.45594000000E+02  0.51100000000E-03 0.  1.
    9900012    2    1    2    0    0 -0.10992339203E+01 -0.21638564451E+00  0.37135410110E+00  0.90007728071E+02  0.89999989281E+02 0.  0.
        -12    1    1    2    0    0  0.10992339203E+01  0.21638564451E+00 -0.37135410110E+00  0.11802719293E+01  0.00000000000E+00 0.  1.
         11    1    3    3    0    0 -0.97730591275E+01  0.17257196286E+01 -0.19866413364E+01  0.10121143068E+02  0.51100000000E-03 0. -1.
        -11    1    3    3    0    0  0.15614956148E+01 -0.40056777440E+02  0.74738100862E+01  0.40777953908E+02  0.51100000000E-03 0.  1.
         12    1    3    3    0    0  0.71123295923E+01  0.38114672167E+02 -0.51158146486E+01  0.39108631095E+02  0.00000000000E+00 0. -1.
</event>
<event>
 7    1  0.3861961E-015  0.9000777E+02  0.7816164E-02  0.1186339E+00
        -11   -1    0    0    0    0  0.00000000000E+00  0.00000000000E+00  0.45593999997E+02  0.45594000000E+02  0.51100000000E-03 0.  1.
         11   -1    0    0    0    0 -0.00000000000E+00 -0.00000000000E+00 -0.45593999997E+02  0.45594000000E+02  0.51100000000E-03 0. -1.
    9900012    2    1    2    0    0  0.13137459810E+00  0.73515257683E+00 -0.91391512688E+00  0.90007767203E+02  0.90000028930E+02 0.  0.
        -12    1    1    2    0    0 -0.13137459810E+00 -0.73515257683E+00  0.91391512688E+00  0.11802327971E+01  0.00000000000E+00 0.  1.
         11    1    3    3    0    0 -0.90605222023E+01  0.15189502649E+02 -0.33086535667E+02  0.37517101381E+02  0.51100000000E-03 0. -1.
        -11    1    3    3    0    0  0.14157122378E+00 -0.35726494488E+01 -0.86094815255E+01  0.93223944829E+01  0.51100000000E-03 0.  1.
        -12    1    3    3    0    0  0.90503255766E+01 -0.10881700624E+02  0.40782102066E+02  0.43168271339E+02  0.00000000000E+00 0.  1.
</event>
<event>
 7    1  0.3861961E-015  0.9000771E+02  0.7816164E-02  0.1186339E+00
        -11   -1    0    0    0    0  0.00000000000E+00  0.00000000000E+00  0.45593999997E+02  0.45594000000E+02  0.51100000000E-03 0. -1.
         11   -1    0    0    0    0 -0.00000000000E+00 -0.00000000000E+00 -0.45593999997E+02  0.45594000000E+02  0.51100000000E-03 0.  1.
    9900012    2    1    2    0    0 -0.47570559826E+00 -0.98517649255E+00  0.44297559013E+00  0.90007705159E+02  0.89999966067E+02 0.  0.
        -12    1    1    2    0    0  0.47570559826E+00  0.98517649255E+00 -0.44297559013E+00  0.11802948408E+01  0.00000000000E+00 0.  1.
         11    1    3    3    0    0  0.21725190895E+01  0.21944101104E+01  0.70938893958E+01  0.77368302262E+01  0.51100000000E-03 0. -1.
        -11    1    3    3    0    0  0.32777185167E+02 -0.24214100757E+02 -0.18612852194E+01  0.40793760869E+02  0.51100000000E-03 0.  1.
         12    1    3    3    0    0 -0.35425409854E+02  0.21034514154E+02 -0.47896285863E+01  0.41477114064E+02  0.00000000000E+00 0. -1.
</event>
<event>
 7    1  0.3861961E-015  0.9000769E+02  0.7816164E-02  0.1186339E+00
        -11   -1    0    0    0    0  0.00000000000E+00  0.00000000000E+00  0.45593999997E+02  0.45594000000E+02  0.51100000000E-03 0.  1.
         11   -1    0    0    0    0 -0.00000000000E+00 -0.00000000000E+00 -0.45593999997E+02  0.45594000000E+02  0.51100000000E-03 0. -1.
    9900012    2    1    2    0    0  0.60239319018E+00 -0.84207307385E+00 -0.56672479785E+00  0.90007685799E+02  0.89999946451E+02 0.  0.
        -12    1    1    2    0    0 -0.60239319018E+00  0.84207307385E+00  0.56672479785E+00  0.11803142013E+01  0.00000000000E+00 0.  1.
         11    1    3    3    0    0 -0.74969420070E+01  0.25567596215E+02  0.26459411899E+02  0.37550054514E+02  0.51100000000E-03 0. -1.
        -11    1    3    3    0    0 -0.70533458814E+01  0.41694935044E+01  0.10562682114E+01  0.82613598761E+01  0.51100000000E-03 0.  1.
        -12    1    3    3    0    0  0.15152681079E+02 -0.30579162793E+02 -0.28082404909E+02  0.44196271409E+02  0.00000000000E+00 0.  1.
</event>
<event>
 7    1  0.3861961E-015  0.9000768E+02  0.7816164E-02  0.1186339E+00
        -11   -1    0    0    0    0  0.00000000000E+00  0.00000000000E+00  0.45593999997E+02  0.45594000000E+02  0.51100000000E-03 0. -1.
         11   -1    0    0    0    0 -0.00000000000E+00 -0.00000000000E+00 -0.45593999997E+02  0.45594000000E+02  0.51100000000E-03 0.  1.
    9900012    2    1    2    0    0  0.69734188779E+00 -0.29229432197E+00  0.90633393336E+00  0.90007676791E+02  0.89999937325E+02 0.  0.
        -12    1    1    2    0    0 -0.69734188779E+00  0.29229432197E+00 -0.90633393336E+00  0.11803232091E+01  0.00000000000E+00 0.  1.
         11    1    3    3    0    0  0.59556784380E+01 -0.16265569025E+01  0.98960761743E+01  0.11663966603E+02  0.51100000000E-03 0. -1.
        -11    1    3    3    0    0  0.15965141745E+02 -0.33173382935E+02 -0.87070389875E+01  0.37830828889E+02  0.51100000000E-03 0.  1.
         12    1    3    3    0    0 -0.21223478295E+02  0.34507645515E+02 -0.28270325343E+00  0.40512881298E+02  0.00000000000E+00 0. -1.
</event>
<event>
 7    1  0.3861961E-015  0.9000748E+02  0.7816164E-02  0.1186340E+00
        -11   -1    0    0    0    0  0.00000000000E+00  0.00000000000E+00  0.45593999997E+02  0.45594000000E+02  0.51100000000E-03 0. -1.
         11   -1    0    0    0    0 -0.00000000000E+00 -0.00000000000E+00 -0.45593999997E+02  0.45594000000E+02  0.51100000000E-03 0.  1.
    9900012    2    1    2    0    0 -0.64509382477E+00 -0.98245875306E+00 -0.11072809577E+00  0.90007478100E+02  0.89999736011E+02 0.  0.
        -12    1    1    2    0    0  0.64509382477E+00  0.98245875306E+00  0.11072809577E+00  0.11805218996E+01  0.00000000000E+00 0.  1.
         11    1    3    3    0    0 -0.32154025809E+02 -0.25222084790E+02  0.37546192052E+01  0.41038178597E+02  0.51100000000E-03 0. -1.
        -11    1    3    3    0    0 -0.47537983780E+01  0.73502574512E+01  0.23523979335E+00  0.87567243670E+01  0.51100000000E-03 0.  1.
        -12    1    3    3    0    0  0.36262730363E+02  0.16889368586E+02 -0.41005870944E+01  0.40212575136E+02  0.00000000000E+00 0.  1.
</event>
<event>
 7    1  0.3861961E-015  0.9000776E+02  0.7816164E-02  0.1186339E+00
        -11   -1    0    0    0    0  0.00000000000E+00  0.00000000000E+00  0.45593999997E+02  0.45594000000E+02  0.51100000000E-03 0.  1.
         11   -1    0    0    0    0 -0.00000000000E+00 -0.00000000000E+00 -0.45593999997E+02  0.45594000000E+02  0.51100000000E-03 0. -1.
    9900012    2    1    2    0    0  0.41528305065E+00  0.11047421335E+01  0.63365085741E-02  0.90007764708E+02  0.90000026402E+02 0.  0.
        -12    1    1    2    0    0 -0.41528305065E+00 -0.11047421335E+01 -0.63365085741E-02  0.11802352923E+01  0.00000000000E+00 0.  1.
         11    1    3    3    0    0  0.37191802674E+02  0.54334648611E+00  0.84309225761E+01  0.38139295580E+02  0.51100000000E-03 0. -1.
        -11    1    3    3    0    0  0.27282176622E+01 -0.98690406458E+01 -0.52024580302E+00  0.10252404149E+02  0.51100000000E-03 0.  1.
        -12    1    3    3    0    0 -0.39504737286E+02  0.10430436293E+02 -0.79043402645E+01  0.41616064979E+02  0.00000000000E+00 0.  1.
</event>
<event>
 7    1  0.3861961E-015  0.9000773E+02  0.7816164E-02  0.1186339E+00
        -11   -1    0    0    0    0  0.00000000000E+00  0.00000000000E+00  0.45593999997E+02  0.45594000000E+02  0.51100000000E-03 0. -1.
         11   -1    0    0    0    0 -0.00000000000E+00 -0.00000000000E+00 -0.45593999997E+02  0.45594000000E+02  0.51100000000E-03 0.  1.
    9900012    2    1    2    0    0  0.63664419563E+00  0.31447841921E+00  0.94277164069E+00  0.90007732711E+02  0.89999993982E+02 0.  0.
        -12    1    1    2    0    0 -0.63664419563E+00 -0.31447841921E+00 -0.94277164069E+00  0.11802672894E+01  0.00000000000E+00 0.  1.
         11    1    3    3    0    0  0.14237724789E+02  0.33057634788E+02 -0.86592053236E+01  0.37020289870E+02  0.51100000000E-03 0. -1.
        -11    1    3    3    0    0  0.77326326575E+01  0.15355786022E+01 -0.57862223267E+01  0.97791604208E+01  0.51100000000E-03 0.  1.
        -12    1    3    3    0    0 -0.21333713251E+02 -0.34278734971E+02  0.15388199291E+02  0.43208282420E+02  0.00000000000E+00 0.  1.
</event>
<event>
 7    1  0.3861961E-015  0.9000776E+02  0.7816164E-02  0.1186339E+00
        -11   -1    0    0    0    0  0.00000000000E+00  0.00000000000E+00  0.45593999997E+02  0.45594000000E+02  0.51100000000E-03 0. -1.
         11   -1    0    0    0    0 -0.00000000000E+00 -0.00000000000E+00 -0.45593999997E+02  0.45594000000E+02  0.51100000000E-03 0.  1.
    9900012    2    1    2    0    0 -0.44139895251E+00 -0.96326814988E+00 -0.51986106387E+00  0.90007756767E+02  0.90000018356E+02 0.  0.
        -12    1    1    2    0    0  0.44139895251E+00  0.96326814988E+00  0.51986106387E+00  0.11802432332E+01  0.00000000000E+00 0.  1.
         11    1    3    3    0    0  0.22472350371E+02 -0.31378870913E+02 -0.14719212449E+01  0.38623912585E+02  0.51100000000E-03 0. -1.
        -11    1    3    3    0    0 -0.34190546533E+01 -0.58538319664E+01 -0.66670424062E+01  0.95082457961E+01  0.51100000000E-03 0.  1.
        -12    1    3    3    0    0 -0.19494694670E+02  0.36269434730E+02  0.76191025872E+01  0.41875598385E+02  0.00000000000E+00 0.  1.
</event>
<event>
 7    1  0.3861961E-015  0.9000802E+02  0.7816164E-02  0.1186338E+00
        -11   -1    0    0    0    0  0.00000000000E+00  0.00000000000E+00  0.45593999997E+02  0.45594000000E+02  0.51100000000E-03 0. -1.
         11   -1    0    0    0    0 -0.00000000000E+00 -0.00000000000E+00 -0.45593999997E+02  0.45594000000E+02  0.51100000000E-03 0.  1.
    9900012    2    1    2    0    0  0.29993003702E+00 -0.67811995897E+00 -0.91790856910E+00  0.90008016590E+02  0.90000281609E+02 0.  0.
        -12    1    1    2    0    0 -0.29993003702E+00  0.67811995897E+00  0.91790856910E+00  0.11799834097E+01  0.00000000000E+00 0.  1.
         11    1    3    3    0    0 -0.16918580038E+01 -0.62142355937E+01 -0.70707667943E+01  0.95642485768E+01  0.51100000000E-03 0. -1.
        -11    1    3    3    0    0  0.12268642956E+02  0.38343245509E+02 -0.11402416920E+02  0.41841835381E+02  0.51100000000E-03 0.  1.
         12    1    3    3    0    0 -0.10276854915E+02 -0.32807129875E+02  0.17555275146E+02  0.38601932633E+02  0.00000000000E+00 0. -1.
</event>
<event>
 7    1  0.3861961E-015  0.9000774E+02  0.7816164E-02  0.1186339E+00
        -11   -1    0    0    0    0  0.00000000000E+00  0.00000000000E+00  0.45593999997E+02  0.45594000000E+02  0.51100000000E-03 0.  1.
         11   -1    0    0    0    0 -0.00000000000E+00 -0.00000000000E+00 -0.45593999997E+02  0.45594000000E+02  0.51100000000E-03 0. -1.
    9900012    2    1    2    0    0  0.10472420839E+01 -0.52817658252E+00  0.13161111658E+00  0.90007742413E+02  0.90000003813E+02 0.  0.
        -12    1    1    2    0    0 -0.10472420839E+01  0.52817658252E+00 -0.13161111658E+00  0.11802575865E+01  0.00000000000E+00 0.  1.
         11    1    3    3    0    0 -0.14492918550E+02 -0.23578484551E+02 -0.24313333962E+02  0.36839215931E+02  0.51100000000E-03 0. -1.
        -11    1    3    3    0    0 -0.73697327420E+01 -0.61599917967E+01  0.20752109437E+01  0.98267471905E+01  0.51100000000E-03 0.  1.
        -12    1    3    3    0    0  0.22909893376E+02  0.29210299766E+02  0.22369734135E+02  0.43341779291E+02  0.00000000000E+00 0.  1.
</event>
<event>
 7    1  0.3861961E-015  0.9000775E+02  0.7816164E-02  0.1186339E+00
        -11   -1    0    0    0    0  0.00000000000E+00  0.00000000000E+00  0.45593999997E+02  0.45594000000E+02  0.51100000000E-03 0. -1.
         11   -1    0    0    0    0 -0.00000000000E+00 -0.00000000000E+00 -0.45593999997E+02  0.45594000000E+02  0.51100000000E-03 0.  1.
    9900012    2    1    2    0    0  0.89750139904E+00  0.58185990286E+00  0.49891266716E+00  0.90007752756E+02  0.90000014292E+02 0.  0.
        -12    1    1    2    0    0 -0.89750139904E+00 -0.58185990286E+00 -0.49891266716E+00  0.11802472441E+01  0.00000000000E+00 0.  1.
         11    1    3    3    0    0  0.47834236628E+00 -0.47616794666E+01 -0.54828105956E+01  0.72776105316E+01  0.51100000000E-03 0. -1.
        -11    1    3    3    0    0 -0.25142198346E+02  0.32867879148E+01 -0.29533066797E+02  0.38924736957E+02  0.51100000000E-03 0.  1.
         12    1    3    3    0    0  0.25561357379E+02  0.20567514546E+01  0.35514790060E+02  0.43805405267E+02  0.00000000000E+00 0. -1.
</event>
<event>
 7    1  0.3861961E-015  0.9000772E+02  0.7816164E-02  0.1186339E+00
        -11   -1    0    0    0    0  0.00000000000E+00  0.00000000000E+00  0.45593999997E+02  0.45594000000E+02  0.51100000000E-03 0. -1.
         11   -1    0    0    0    0 -0.00000000000E+00 -0.00000000000E+00 -0.45593999997E+02  0.45594000000E+02  0.51100000000E-03 0.  1.
    9900012    2    1    2    0    0  0.67044161483E+00  0.35860109594E+00  0.90276326983E+00  0.90007716887E+02  0.89999977950E+02 0.  0.
        -12    1    1    2    0    0 -0.67044161483E+00 -0.35860109594E+00 -0.90276326983E+00  0.11802831128E+01  0.00000000000E+00 0.  1.
         11    1    3    3    0    0  0.37919479597E+02  0.10065458385E+02 -0.48712487109E+01  0.39533902536E+02  0.51100000000E-03 0. -1.
        -11    1    3    3    0    0 -0.99545328077E+00  0.59050052716E+01 -0.67870588590E+01  0.90511978605E+01  0.51100000000E-03 0.  1.
        -12    1    3    3    0    0 -0.36253584702E+02 -0.15611862561E+02  0.12561070840E+02  0.41422616491E+02  0.00000000000E+00 0.  1.
</event>
<event>
 7    1  0.3861961E-015  0.9000773E+02  0.7816164E-02  0.1186339E+00
        -11   -1    0    0    0    0  0.00000000000E+00  0.00000000000E+00  0.45593999997E+02  0.45594000000E+02  0.51100000000E-03 0.  1.
         11   -1    0    0    0    0 -0.00000000000E+00 -0.00000000000E+00 -0.45593999997E+02  0.45594000000E+02  0.51100000000E-03 0. -1.
    9900012    2    1    2    0    0  0.11790538655E+01  0.51302574676E-01  0.15580997232E-01  0.90007727684E+02  0.89999988890E+02 0.  0.
        -12    1    1    2    0    0 -0.11790538655E+01 -0.51302574676E-01 -0.15580997232E-01  0.11802723158E+01  0.00000000000E+00 0.  1.
         11    1    3    3    0    0  0.25422433587E+02 -0.20178932721E+02  0.20705502256E+02  0.38499445180E+02  0.51100000000E-03 0. -1.
        -11    1    3    3    0    0  0.84177991837E+01  0.43330074546E+01  0.45334400575E+00  0.94783868748E+01  0.51100000000E-03 0.  1.
        -12    1    3    3    0    0 -0.32661178906E+02  0.15897227841E+02 -0.21143265265E+02  0.42029895629E+02  0.00000000000E+00 0.  1.
</event>
<event>
 7    1  0.3861961E-015  0.9000784E+02  0.7816164E-02  0.1186339E+00
        -11   -1    0    0    0    0  0.00000000000E+00  0.00000000000E+00  0.45593999997E+02  0.45594000000E+02  0.51100000000E-03 0. -1.
         11   -1    0    0    0    0 -0.00000000000E+00 -0.00000000000E+00 -0.45593999997E+02  0.45594000000E+02  0.51100000000E-03 0.  1.
    9900012    2    1    2    0    0  0.10914241190E+01 -0.36281045715E+00  0.26447928984E+00  0.90007835888E+02  0.90000098522E+02 0.  0.
        -12    1    1    2    0    0 -0.10914241190E+01  0.36281045715E+00 -0.26447928984E+00  0.11801641115E+01  0.00000000000E+00 0.  1.
         11    1    3    3    0    0  0.13716694019E+01 -0.34866069404E+02  0.14166741147E+02  0.37659272798E+02  0.51100000000E-03 0. -1.
        -11    1    3    3    0    0 -0.23337054117E+01 -0.36187188944E+01  0.74507564667E+01  0.86055261067E+01  0.51100000000E-03 0.  1.
        -12    1    3    3    0    0  0.20534601289E+01  0.38121977842E+02 -0.21353018324E+02  0.43743036984E+02  0.00000000000E+00 0.  1.
</event>
<event>
 7    1  0.3861961E-015  0.9000778E+02  0.7816164E-02  0.1186339E+00
        -11   -1    0    0    0    0  0.00000000000E+00  0.00000000000E+00  0.45593999997E+02  0.45594000000E+02  0.51100000000E-03 0.  1.
         11   -1    0    0    0    0 -0.00000000000E+00 -0.00000000000E+00 -0.45593999997E+02  0.45594000000E+02  0.51100000000E-03 0. -1.
    9900012    2    1    2    0    0 -0.89351920644E+00  0.53568332843E+00 -0.55459622813E+00  0.90007783843E+02  0.90000045790E+02 0.  0.
        -12    1    1    2    0    0  0.89351920644E+00 -0.53568332843E+00  0.55459622813E+00  0.11802161568E+01  0.00000000000E+00 0.  1.
         11    1    3    3    0    0 -0.30602598596E+02  0.77317888672E+01 -0.18541162514E+02  0.36607025385E+02  0.51100000000E-03 0. -1.
        -11    1    3    3    0    0 -0.25691497514E+01  0.41328149079E+01 -0.87306528275E+01  0.99952482993E+01  0.51100000000E-03 0.  1.
        -12    1    3    3    0    0  0.32278229141E+02 -0.11328920447E+02  0.26717219114E+02  0.43405510159E+02  0.00000000000E+00 0.  1.
</event>
<event>
 7    1  0.3861961E-015  0.9000776E+02  0.7816164E-02  0.1186339E+00
        -11   -1    0    0    0    0  0.00000000000E+00  0.00000000000E+00  0.45593999997E+02  0.45594000000E+02  0.51100000000E-03 0. -1.
         11   -1    0    0    0    0 -0.00000000000E+00 -0.00000000000E+00 -0.45593999997E+02  0.45594000000E+02  0.51100000000E-03 0.  1.
    9900012    2    1    2    0    0  0.86145291928E+00  0.57251506689E+00  0.56841995257E+00  0.90007756010E+02  0.90000017589E+02 0.  0.
        -12    1    1    2    0    0 -0.86145291928E+00 -0.57251506689E+00 -0.56841995257E+00  0.11802439902E+01  0.00000000000E+00 0.  1.
         11    1    3    3    0    0 -0.16589468157E+02  0.23687328545E+02  0.97129724351E+01  0.30506422620E+02  0.51100000000E-03 0. -1.
        -11    1    3    3    0    0  0.67018805725E+01  0.15083328649E+02 -0.10902023870E+02  0.19780700975E+02  0.51100000000E-03 0.  1.
         12    1    3    3    0    0  0.10749040504E+02 -0.38198142127E+02  0.17574713872E+01  0.39720632414E+02  0.00000000000E+00 0. -1.
</event>
<event>
 7    1  0.3861961E-015  0.9000740E+02  0.7816164E-02  0.1186340E+00
        -11   -1    0    0    0    0  0.00000000000E+00  0.00000000000E+00  0.45593999997E+02  0.45594000000E+02  0.51100000000E-03 0.  1.
         11   -1    0    0    0    0 -0.00000000000E+00 -0.00000000000E+00 -0.45593999997E+02  0.45594000000E+02  0.51100000000E-03 0. -1.
    9900012    2    1    2    0    0  0.10279553800E+01 -0.56583700241E+00  0.13024227711E+00  0.90007395567E+02  0.89999652388E+02 0.  0.
        -12    1    1    2    0    0 -0.10279553800E+01  0.56583700241E+00 -0.13024227711E+00  0.11806044330E+01  0.00000000000E+00 0.  1.
         11    1    3    3    0    0 -0.66478879209E+01 -0.57482975524E+01  0.80351838942E+01  0.11908044299E+02  0.51100000000E-03 0. -1.
        -11    1    3    3    0    0  0.15215364611E+02 -0.34117837754E+02 -0.25492319488E+00  0.37357718872E+02  0.51100000000E-03 0.  1.
         12    1    3    3    0    0 -0.75395213098E+01  0.39300298304E+02 -0.76500184222E+01  0.40741632395E+02  0.00000000000E+00 0. -1.
</event>
<event>
 7    1  0.3978792E-015  0.9000779E+02  0.7816164E-02  0.1186339E+00
        -11   -1    0    0    0    0  0.00000000000E+00  0.00000000000E+00  0.45593999997E+02  0.45594000000E+02  0.51100000000E-03 0.  1.
         11   -1    0    0    0    0 -0.00000000000E+00 -0.00000000000E+00 -0.45593999997E+02  0.45594000000E+02  0.51100000000E-03 0. -1.
    9900012    2    1    2    0    0  0.11380246830E+01 -0.26487727782E+00 -0.16621884006E+00  0.90007792877E+02  0.90000054943E+02 0.  0.
        -12    1    1    2    0    0 -0.11380246830E+01  0.26487727782E+00  0.16621884006E+00  0.11802071234E+01  0.00000000000E+00 0.  1.
         11    1    3    3    0    0  0.92208236596E+01  0.58276889319E+00 -0.15173521796E+01  0.93629891831E+01  0.51100000000E-03 0. -1.
        -11    1    3    3    0    0 -0.25387977498E+00 -0.10973176366E+02  0.39190950651E+02  0.40698963963E+02  0.51100000000E-03 0.  1.
         12    1    3    3    0    0 -0.78289192017E+01  0.10125530195E+02 -0.37839817311E+02  0.39945839730E+02  0.00000000000E+00 0. -1.
</event>
<event>
 7    1  0.3861961E-015  0.9000785E+02  0.7816164E-02  0.1186339E+00
        -11   -1    0    0    0    0  0.00000000000E+00  0.00000000000E+00  0.45593999997E+02  0.45594000000E+02  0.51100000000E-03 0. -1.
         11   -1    0    0    0    0 -0.00000000000E+00 -0.00000000000E+00 -0.45593999997E+02  0.45594000000E+02  0.51100000000E-03 0.  1.
    9900012    2    1    2    0    0 -0.97065956394E+00 -0.23546543052E+00  0.62859791357E+00  0.90007847766E+02  0.90000110557E+02 0.  0.
        -12    1    1    2    0    0  0.97065956394E+00  0.23546543052E+00 -0.62859791357E+00  0.11801522338E+01  0.00000000000E+00 0.  1.
         11    1    3    3    0    0 -0.79965460308E+01 -0.16969437366E+01 -0.53188358180E+01  0.97526602108E+01  0.51100000000E-03 0. -1.
        -11    1    3    3    0    0 -0.12702444354E+02 -0.29338630500E+02 -0.17852318828E+02  0.36617108297E+02  0.51100000000E-03 0.  1.
         12    1    3    3    0    0  0.19728330821E+02  0.30800108806E+02  0.23799752560E+02  0.43638079259E+02  0.00000000000E+00 0. -1.
</event>
<event>
 7    1  0.3861961E-015  0.9000789E+02  0.7816164E-02  0.1186339E+00
        -11   -1    0    0    0    0  0.00000000000E+00  0.00000000000E+00  0.45593999997E+02  0.45594000000E+02  0.51100000000E-03 0. -1.
         11   -1    0    0    0    0 -0.00000000000E+00 -0.00000000000E+00 -0.45593999997E+02  0.45594000000E+02  0.51100000000E-03 0.  1.
    9900012    2    1    2    0    0  0.33762842994E+00 -0.59189872444E+00  0.96349713788E+00  0.90007888229E+02  0.90000151554E+02 0.  0.
        -12    1    1    2    0    0 -0.33762842994E+00  0.59189872444E+00 -0.96349713788E+00  0.11801117707E+01  0.00000000000E+00 0.  1.
         11    1    3    3    0    0  0.63028177323E+00 -0.53675235050E+01  0.38906182301E+02  0.39279747774E+02  0.51100000000E-03 0. -1.
        -11    1    3    3    0    0  0.12683274730E+01 -0.86761361987E+01  0.16157574533E+01  0.89159781475E+01  0.51100000000E-03 0.  1.
        -12    1    3    3    0    0 -0.15609808163E+01  0.13451760979E+02 -0.39558442617E+02  0.41812162307E+02  0.00000000000E+00 0.  1.
</event>
<event>
 7    1  0.3861961E-015  0.9000779E+02  0.7816164E-02  0.1186339E+00
        -11   -1    0    0    0    0  0.00000000000E+00  0.00000000000E+00  0.45593999997E+02  0.45594000000E+02  0.51100000000E-03 0.  1.
         11   -1    0    0    0    0 -0.00000000000E+00 -0.00000000000E+00 -0.45593999997E+02  0.45594000000E+02  0.51100000000E-03 0. -1.
    9900012    2    1    2    0    0  0.16393751281E+00 -0.92910457357E+00 -0.70907399363E+00  0.90007789534E+02  0.90000051555E+02 0.  0.
        -12    1    1    2    0    0 -0.16393751281E+00  0.92910457357E+00  0.70907399363E+00  0.11802104665E+01  0.00000000000E+00 0.  1.
         11    1    3    3    0    0  0.37496733343E+01 -0.83471395140E+01 -0.42171202890E+01  0.10075658389E+02  0.51100000000E-03 0. -1.
        -11    1    3    3    0    0 -0.14248746348E+02  0.31651583371E+02  0.27436967024E+02  0.44245188011E+02  0.51100000000E-03 0.  1.
         12    1    3    3    0    0  0.10663010527E+02 -0.24233548430E+02 -0.23928920728E+02  0.35686943134E+02  0.00000000000E+00 0. -1.
</event>
<event>
 7    1  0.3861961E-015  0.9000769E+02  0.7816164E-02  0.1186339E+00
        -11   -1    0    0    0    0  0.00000000000E+00  0.00000000000E+00  0.45593999997E+02  0.45594000000E+02  0.51100000000E-03 0.  1.
         11   -1    0    0    0    0 -0.00000000000E+00 -0.00000000000E+00 -0.45593999997E+02  0.45594000000E+02  0.51100000000E-03 0. -1.
    9900012    2    1    2    0    0 -0.24230510814E+00  0.11475285111E+01  0.13264260824E+00  0.90007691773E+02  0.89999952504E+02 0.  0.
        -12    1    1    2    0    0  0.24230510814E+00 -0.11475285111E+01 -0.13264260824E+00  0.11803082270E+01  0.00000000000E+00 0.  1.
         11    1    3    3    0    0 -0.93762799135E+01 -0.28193363947E+02 -0.25413451581E+02  0.39097620353E+02  0.51100000000E-03 0. -1.
        -11    1    3    3    0    0  0.48502345856E+01 -0.62841285456E+01  0.66579465173E+01  0.10360661137E+02  0.51100000000E-03 0.  1.
        -12    1    3    3    0    0  0.42837402198E+01  0.35625021004E+02  0.18888147672E+02  0.40549410283E+02  0.00000000000E+00 0.  1.
</event>
<event>
 7    1  0.3861961E-015  0.9000776E+02  0.7816164E-02  0.1186339E+00
        -11   -1    0    0    0    0  0.00000000000E+00  0.00000000000E+00  0.45593999997E+02  0.45594000000E+02  0.51100000000E-03 0.  1.
         11   -1    0    0    0    0 -0.00000000000E+00 -0.00000000000E+00 -0.45593999997E+02  0.45594000000E+02  0.51100000000E-03 0. -1.
    9900012    2    1    2    0    0 -0.61941409275E+00  0.98911299263E+00  0.17589312049E+00  0.90007764125E+02  0.90000025812E+02 0.  0.
        -12    1    1    2    0    0  0.61941409275E+00 -0.98911299263E+00 -0.17589312049E+00  0.11802358749E+01  0.00000000000E+00 0.  1.
         11    1    3    3    0    0 -0.26318461159E+01  0.73872849392E+01  0.99044128626E+01  0.12633130537E+02  0.51100000000E-03 0. -1.
        -11    1    3    3    0    0  0.27243671062E+02  0.19002461992E+02  0.12205477711E+02  0.35387637123E+02  0.51100000000E-03 0.  1.
         12    1    3    3    0    0 -0.25231239039E+02 -0.25400633939E+02 -0.21933997453E+02  0.41986996466E+02  0.00000000000E+00 0. -1.
</event>
<event>
 7    1  0.3861961E-015  0.9000785E+02  0.7816164E-02  0.1186339E+00
        -11   -1    0    0    0    0  0.00000000000E+00  0.00000000000E+00  0.45593999997E+02  0.45594000000E+02  0.51100000000E-03 0. -1.
         11   -1    0    0    0    0 -0.00000000000E+00 -0.00000000000E+00 -0.45593999997E+02  0.45594000000E+02  0.51100000000E-03 0.  1.
    9900012    2    1    2    0    0  0.74556001107E+00  0.52500749259E+00  0.74917476889E+00  0.90007849403E+02  0.90000112215E+02 0.  0.
        -12    1    1    2    0    0 -0.74556001107E+00 -0.52500749259E+00 -0.74917476889E+00  0.11801505971E+01  0.00000000000E+00 0.  1.
         11    1    3    3    0    0 -0.11569530920E+02 -0.35784550232E+01  0.34755280597E+02  0.36804740397E+02  0.51100000000E-03 0. -1.
        -11    1    3    3    0    0 -0.95058847568E-01  0.34645440679E+01  0.83611663396E+01  0.90510333445E+01  0.51100000000E-03 0.  1.
        -12    1    3    3    0    0  0.12410149779E+02  0.63891844791E+00 -0.42367272167E+02  0.44152075662E+02  0.00000000000E+00 0.  1.
</event>
<event>
 7    1  0.3861961E-015  0.9000771E+02  0.7816164E-02  0.1186339E+00
        -11   -1    0    0    0    0  0.00000000000E+00  0.00000000000E+00  0.45593999997E+02  0.45594000000E+02  0.51100000000E-03 0.  1.
         11   -1    0    0    0    0 -0.00000000000E+00 -0.00000000000E+00 -0.45593999997E+02  0.45594000000E+02  0.51100000000E-03 0. -1.
    9900012    2    1    2    0    0 -0.22443319117E+00 -0.15816007744E+00 -0.11479102652E+01  0.90007710695E+02  0.89999971676E+02 0.  0.
        -12    1    1    2    0    0  0.22443319117E+00  0.15816007744E+00  0.11479102652E+01  0.11802893054E+01  0.00000000000E+00 0.  1.
         11    1    3    3    0    0 -0.54957553294E+01 -0.53001858712E+01  0.71970927101E+01  0.10492542144E+02  0.51100000000E-03 0. -1.
        -11    1    3    3    0    0 -0.13221292958E+02  0.31101941019E+02 -0.26398988531E+02  0.42884028709E+02  0.51100000000E-03 0.  1.
         12    1    3    3    0    0  0.18492615096E+02 -0.25959915225E+02  0.18053985556E+02  0.36631139841E+02  0.00000000000E+00 0. -1.
</event>
<event>
 7    1  0.3861961E-015  0.9000764E+02  0.7816164E-02  0.1186339E+00
        -11   -1    0    0    0    0  0.00000000000E+00  0.00000000000E+00  0.45593999997E+02  0.45594000000E+02  0.51100000000E-03 0.  1.
         11   -1    0    0    0    0 -0.00000000000E+00 -0.00000000000E+00 -0.45593999997E+02  0.45594000000E+02  0.51100000000E-03 0. -1.
    9900012    2    1    2    0    0  0.82501704767E+00  0.43068914336E+00 -0.72602676791E+00  0.90007635169E+02  0.89999895153E+02 0.  0.
        -12    1    1    2    0    0 -0.82501704767E+00 -0.43068914336E+00  0.72602676791E+00  0.11803648313E+01  0.00000000000E+00 0.  1.
         11    1    3    3    0    0  0.10487632268E+02  0.22782008926E+02  0.14103163380E+01  0.25119700511E+02  0.51100000000E-03 0. -1.
        -11    1    3    3    0    0  0.11851172167E+02  0.13240436562E+02  0.11446711757E+02  0.21137328412E+02  0.51100000000E-03 0.  1.
        -12    1    3    3    0    0 -0.21513787388E+02 -0.35591756345E+02 -0.13583054863E+02  0.43750606246E+02  0.00000000000E+00 0.  1.
</event>
<event>
 7    1  0.3861961E-015  0.9000756E+02  0.7816164E-02  0.1186339E+00
        -11   -1    0    0    0    0  0.00000000000E+00  0.00000000000E+00  0.45593999997E+02  0.45594000000E+02  0.51100000000E-03 0.  1.
         11   -1    0    0    0    0 -0.00000000000E+00 -0.00000000000E+00 -0.45593999997E+02  0.45594000000E+02  0.51100000000E-03 0. -1.
    9900012    2    1    2    0    0 -0.34950281054E-01 -0.87169749827E+00 -0.79520364519E+00  0.90007564958E+02  0.89999824015E+02 0.  0.
        -12    1    1    2    0    0  0.34950281054E-01  0.87169749827E+00  0.79520364519E+00  0.11804350418E+01  0.00000000000E+00 0.  1.
         11    1    3    3    0    0 -0.91138981844E+01  0.54968477560E+01 -0.40341523866E+02  0.41721901005E+02  0.51100000000E-03 0. -1.
        -11    1    3    3    0    0  0.74732726079E+01  0.59696733523E+01  0.35546440703E+01  0.10204033425E+02  0.51100000000E-03 0.  1.
        -12    1    3    3    0    0  0.16056752954E+01 -0.12338218606E+02  0.35991676151E+02  0.38081630528E+02  0.00000000000E+00 0.  1.
</event>
<event>
 7    1  0.3861961E-015  0.9000765E+02  0.7816164E-02  0.1186339E+00
        -11   -1    0    0    0    0  0.00000000000E+00  0.00000000000E+00  0.45593999997E+02  0.45594000000E+02  0.51100000000E-03 0.  1.
         11   -1    0    0    0    0 -0.00000000000E+00 -0.00000000000E+00 -0.45593999997E+02  0.45594000000E+02  0.51100000000E-03 0. -1.
    9900012    2    1    2    0    0  0.19045008940E+00  0.64125176724E+00 -0.97249816104E+00  0.90007649315E+02  0.89999909486E+02 0.  0.
        -12    1    1    2    0    0 -0.19045008940E+00 -0.64125176724E+00  0.97249816104E+00  0.11803506847E+01  0.00000000000E+00 0.  1.
         11    1    3    3    0    0 -0.61907129359E+00  0.12024175679E+01  0.90277118452E+01  0.91284521522E+01  0.51100000000E-03 0. -1.
        -11    1    3    3    0    0 -0.26553101011E+01 -0.34879507032E+02 -0.25274368857E+02  0.43155815413E+02  0.51100000000E-03 0.  1.
         12    1    3    3    0    0  0.34648314841E+01  0.34318341232E+02  0.15274158850E+02  0.37723381751E+02  0.00000000000E+00 0. -1.
</event>
<event>
 7    1  0.3861961E-015  0.9000774E+02  0.7816164E-02  0.1186339E+00
        -11   -1    0    0    0    0  0.00000000000E+00  0.00000000000E+00  0.45593999997E+02  0.45594000000E+02  0.51100000000E-03 0. -1.
         11   -1    0    0    0    0 -0.00000000000E+00 -0.00000000000E+00 -0.45593999997E+02  0.45594000000E+02  0.51100000000E-03 0.  1.
    9900012    2    1    2    0    0  0.57542852726E+00 -0.54647630469E+00  0.87364339471E+00  0.90007742773E+02  0.90000004177E+02 0.  0.
        -12    1    1    2    0    0 -0.57542852726E+00  0.54647630469E+00 -0.87364339471E+00  0.11802572273E+01  0.00000000000E+00 0.  1.
         11    1    3    3    0    0  0.99319327004E+01  0.19363623653E+01  0.36043483197E+02  0.37436953236E+02  0.51100000000E-03 0. -1.
        -11    1    3    3    0    0  0.59274663294E+00 -0.76891059385E+01  0.60796632722E+01  0.98201835252E+01  0.51100000000E-03 0.  1.
        -12    1    3    3    0    0 -0.99492508060E+01  0.52062672685E+01 -0.41249503074E+02  0.42750606011E+02  0.00000000000E+00 0.  1.
</event>
<event>
 7    1  0.3861961E-015  0.9000764E+02  0.7816164E-02  0.1186339E+00
        -11   -1    0    0    0    0  0.00000000000E+00  0.00000000000E+00  0.45593999997E+02  0.45594000000E+02  0.51100000000E-03 0.  1.
         11   -1    0    0    0    0 -0.00000000000E+00 -0.00000000000E+00 -0.45593999997E+02  0.45594000000E+02  0.51100000000E-03 0. -1.
    9900012    2    1    2    0    0 -0.75254591794E+00  0.89771185068E+00 -0.14502332222E+00  0.90007642559E+02  0.89999902640E+02 0.  0.
        -12    1    1    2    0    0  0.75254591794E+00 -0.89771185068E+00  0.14502332222E+00  0.11803574414E+01  0.00000000000E+00 0.  1.
         11    1    3    3    0    0 -0.20712948977E+02 -0.28173991261E+02  0.11341869877E+02  0.36761910335E+02  0.51100000000E-03 0. -1.
        -11    1    3    3    0    0 -0.86775037448E+01 -0.20167537732E+01 -0.57167502871E+01  0.10585253947E+02  0.51100000000E-03 0.  1.
        -12    1    3    3    0    0  0.28637906804E+02  0.31088456885E+02 -0.57701429120E+01  0.42660478277E+02  0.00000000000E+00 0.  1.
</event>
<event>
 7    1  0.3861961E-015  0.9000779E+02  0.7816164E-02  0.1186339E+00
        -11   -1    0    0    0    0  0.00000000000E+00  0.00000000000E+00  0.45593999997E+02  0.45594000000E+02  0.51100000000E-03 0. -1.
         11   -1    0    0    0    0 -0.00000000000E+00 -0.00000000000E+00 -0.45593999997E+02  0.45594000000E+02  0.51100000000E-03 0.  1.
    9900012    2    1    2    0    0 -0.82192195387E+00  0.84604590245E+00 -0.39403152623E-01  0.90007787318E+02  0.90000049310E+02 0.  0.
        -12    1    1    2    0    0  0.82192195387E+00 -0.84604590245E+00  0.39403152623E-01  0.11802126824E+01  0.00000000000E+00 0.  1.
         11    1    3    3    0    0  0.30635150786E+02  0.13174449710E+02 -0.18607249844E+02  0.38187803496E+02  0.51100000000E-03 0. -1.
        -11    1    3    3    0    0  0.69979843718E+01 -0.23880865828E+01  0.76242303578E+01  0.10620905404E+02  0.51100000000E-03 0.  1.
        -12    1    3    3    0    0 -0.38455057112E+02 -0.99403172251E+01  0.10943616333E+02  0.41199078417E+02  0.00000000000E+00 0.  1.
</event>
<event>
 7    1  0.3861961E-015  0.9000770E+02  0.7816164E-02  0.1186339E+00
        -11   -1    0    0    0    0  0.00000000000E+00  0.00000000000E+00  0.45593999997E+02  0.45594000000E+02  0.51100000000E-03 0.  1.
         11   -1    0    0    0    0 -0.00000000000E+00 -0.00000000000E+00 -0.45593999997E+02  0.45594000000E+02  0.51100000000E-03 0. -1.
    9900012    2    1    2    0    0 -0.15567965966E+00  0.94765749364E+00 -0.68615335632E+00  0.90007704567E+02  0.89999965467E+02 0.  0.
        -12    1    1    2    0    0  0.15567965966E+00 -0.94765749364E+00  0.68615335632E+00  0.11802954334E+01  0.00000000000E+00 0.  1.
         11    1    3    3    0    0 -0.30207362709E+02  0.26854460082E+02  0.10953125244E+01  0.40433235066E+02  0.51100000000E-03 0. -1.
        -11    1    3    3    0    0  0.11918494869E+02  0.55052727110E+01  0.11919923770E+01  0.13182541244E+02  0.51100000000E-03 0.  1.
        -12    1    3    3    0    0  0.18133188180E+02 -0.31412075299E+02 -0.29734582577E+01  0.36391928256E+02  0.00000000000E+00 0.  1.
</event>
<event>
 7    1  0.3861961E-015  0.9000775E+02  0.7816164E-02  0.1186339E+00
        -11   -1    0    0    0    0  0.00000000000E+00  0.00000000000E+00  0.45593999997E+02  0.45594000000E+02  0.51100000000E-03 0.  1.
         11   -1    0    0    0    0 -0.00000000000E+00 -0.00000000000E+00 -0.45593999997E+02  0.45594000000E+02  0.51100000000E-03 0. -1.
    9900012    2    1    2    0    0 -0.45455147614E+00 -0.80296899130E+00 -0.73594193356E+00  0.90007751393E+02  0.90000012911E+02 0.  0.
        -12    1    1    2    0    0  0.45455147614E+00  0.80296899130E+00  0.73594193356E+00  0.11802486073E+01  0.00000000000E+00 0.  1.
         11    1    3    3    0    0 -0.27685793088E+01 -0.42099470668E+01  0.88444571409E+01  0.10179052415E+02  0.51100000000E-03 0. -1.
        -11    1    3    3    0    0 -0.32733809196E+02  0.17056162859E+02  0.88305574648E+01  0.37952519038E+02  0.51100000000E-03 0.  1.
         12    1    3    3    0    0  0.35047837029E+02 -0.13649184783E+02 -0.18410956539E+02  0.41876179939E+02  0.00000000000E+00 0. -1.
</event>
<event>
 7    1  0.3861961E-015  0.9000790E+02  0.7816164E-02  0.1186339E+00
        -11   -1    0    0    0    0  0.00000000000E+00  0.00000000000E+00  0.45593999997E+02  0.45594000000E+02  0.51100000000E-03 0.  1.
         11   -1    0    0    0    0 -0.00000000000E+00 -0.00000000000E+00 -0.45593999997E+02  0.45594000000E+02  0.51100000000E-03 0. -1.
    9900012    2    1    2    0    0 -0.11732906834E+01  0.70217823868E-01  0.10530574990E+00  0.90007902177E+02  0.90000165686E+02 0.  0.
        -12    1    1    2    0    0  0.11732906834E+01 -0.70217823868E-01 -0.10530574990E+00  0.11800978229E+01  0.00000000000E+00 0.  1.
         11    1    3    3    0    0 -0.28023610196E+02  0.14988220339E+02 -0.25676256102E+02  0.40856328824E+02  0.51100000000E-03 0. -1.
        -11    1    3    3    0    0 -0.15332796283E+00  0.11200282800E+00 -0.53100181900E+01  0.53134120428E+01  0.51100000000E-03 0.  1.
        -12    1    3    3    0    0  0.27003647475E+02 -0.15030005343E+02  0.31091580042E+02  0.43838161310E+02  0.00000000000E+00 0.  1.
</event>
<event>
 7    1  0.3861961E-015  0.9000771E+02  0.7816164E-02  0.1186339E+00
        -11   -1    0    0    0    0  0.00000000000E+00  0.00000000000E+00  0.45593999997E+02  0.45594000000E+02  0.51100000000E-03 0. -1.
         11   -1    0    0    0    0 -0.00000000000E+00 -0.00000000000E+00 -0.45593999997E+02  0.45594000000E+02  0.51100000000E-03 0.  1.
    9900012    2    1    2    0    0 -0.10566844109E+01  0.34618877585E+00  0.39579533183E+00  0.90007710816E+02  0.89999971799E+02 0.  0.
        -12    1    1    2    0    0  0.10566844109E+01 -0.34618877585E+00 -0.39579533183E+00  0.11802891838E+01  0.00000000000E+00 0.  1.
         11    1    3    3    0    0 -0.28826037611E+02 -0.19120790445E+02 -0.26169763947E+02  0.43375126707E+02  0.51100000000E-03 0. -1.
        -11    1    3    3    0    0  0.70383296210E+01  0.47864602404E+01 -0.16463135511E+01  0.86694079415E+01  0.51100000000E-03 0.  1.
        -12    1    3    3    0    0  0.20731023579E+02  0.14680518980E+02  0.28211872830E+02  0.37963176167E+02  0.00000000000E+00 0.  1.
</event>
<event>
 7    1  0.3861961E-015  0.9000780E+02  0.7816164E-02  0.1186339E+00
        -11   -1    0    0    0    0  0.00000000000E+00  0.00000000000E+00  0.45593999997E+02  0.45594000000E+02  0.51100000000E-03 0.  1.
         11   -1    0    0    0    0 -0.00000000000E+00 -0.00000000000E+00 -0.45593999997E+02  0.45594000000E+02  0.51100000000E-03 0. -1.
    9900012    2    1    2    0    0  0.94854576307E-01 -0.10670873562E+01 -0.49517065773E+00  0.90007802221E+02  0.90000064411E+02 0.  0.
        -12    1    1    2    0    0 -0.94854576307E-01  0.10670873562E+01  0.49517065773E+00  0.11801977786E+01  0.00000000000E+00 0.  1.
         11    1    3    3    0    0  0.53665876579E+01  0.28314696210E+01  0.16738364621E+01  0.62943794029E+01  0.51100000000E-03 0. -1.
        -11    1    3    3    0    0  0.30813009244E+02  0.17325820515E+02 -0.17097237390E+02  0.39267558134E+02  0.51100000000E-03 0.  1.
         12    1    3    3    0    0 -0.36084742325E+02 -0.21224377492E+02  0.14928230270E+02  0.44445864685E+02  0.00000000000E+00 0. -1.
</event>
<event>
 7    1  0.3861961E-015  0.9000780E+02  0.7816164E-02  0.1186339E+00
        -11   -1    0    0    0    0  0.00000000000E+00  0.00000000000E+00  0.45593999997E+02  0.45594000000E+02  0.51100000000E-03 0.  1.
         11   -1    0    0    0    0 -0.00000000000E+00 -0.00000000000E+00 -0.45593999997E+02  0.45594000000E+02  0.51100000000E-03 0. -1.
    9900012    2    1    2    0    0 -0.24815042384E+00 -0.55862416565E+00 -0.10095723809E+01  0.90007798329E+02  0.90000060467E+02 0.  0.
        -12    1    1    2    0    0  0.24815042384E+00  0.55862416565E+00  0.10095723809E+01  0.11802016707E+01  0.00000000000E+00 0.  1.
         11    1    3    3    0    0  0.30160776258E+02 -0.59958903202E+01 -0.11429353194E+02  0.32806298784E+02  0.51100000000E-03 0. -1.
        -11    1    3    3    0    0  0.83898526620E+01  0.41228381827E+01 -0.97043294931E+01  0.13474473405E+02  0.51100000000E-03 0.  1.
        -12    1    3    3    0    0 -0.38798779344E+02  0.13144279719E+01  0.20124110306E+02  0.43727026140E+02  0.00000000000E+00 0.  1.
</event>
<event>
 7    1  0.3861961E-015  0.9000777E+02  0.7816164E-02  0.1186339E+00
        -11   -1    0    0    0    0  0.00000000000E+00  0.00000000000E+00  0.45593999997E+02  0.45594000000E+02  0.51100000000E-03 0.  1.
         11   -1    0    0    0    0 -0.00000000000E+00 -0.00000000000E+00 -0.45593999997E+02  0.45594000000E+02  0.51100000000E-03 0. -1.
    9900012    2    1    2    0    0  0.42607313630E+00 -0.10614835973E+01 -0.29094220516E+00  0.90007774127E+02  0.90000035945E+02 0.  0.
        -12    1    1    2    0    0 -0.42607313630E+00  0.10614835973E+01  0.29094220516E+00  0.11802258731E+01  0.00000000000E+00 0.  1.
         11    1    3    3    0    0  0.16911543074E+02 -0.29114318144E+02 -0.21063168757E+02  0.39715247556E+02  0.51100000000E-03 0. -1.
        -11    1    3    3    0    0 -0.13541509204E+02  0.58043581237E+01 -0.55122483141E+01  0.15730477631E+02  0.51100000000E-03 0.  1.
        -12    1    3    3    0    0 -0.29439607334E+01  0.22248476423E+02  0.26284474866E+02  0.34562048940E+02  0.00000000000E+00 0.  1.
</event>
<event>
 7    1  0.3861961E-015  0.9000764E+02  0.7816164E-02  0.1186339E+00
        -11   -1    0    0    0    0  0.00000000000E+00  0.00000000000E+00  0.45593999997E+02  0.45594000000E+02  0.51100000000E-03 0. -1.
         11   -1    0    0    0    0 -0.00000000000E+00 -0.00000000000E+00 -0.45593999997E+02  0.45594000000E+02  0.51100000000E-03 0.  1.
    9900012    2    1    2    0    0 -0.78427599778E+00 -0.78610103672E+00  0.40024391074E+00  0.90007644601E+02  0.89999904709E+02 0.  0.
        -12    1    1    2    0    0  0.78427599778E+00  0.78610103672E+00 -0.40024391074E+00  0.11803553993E+01  0.00000000000E+00 0.  1.
         11    1    3    3    0    0  0.18459686692E+01 -0.82821045914E+01  0.52744659814E+01  0.99910384066E+01  0.51100000000E-03 0. -1.
        -11    1    3    3    0    0 -0.99086532817E+01 -0.11696181622E+02 -0.38040271690E+02  0.41012733936E+02  0.51100000000E-03 0.  1.
         12    1    3    3    0    0  0.72784086147E+01  0.19192185176E+02  0.33166049619E+02  0.39003872258E+02  0.00000000000E+00 0. -1.
</event>
<event>
 7    1  0.3861961E-015  0.9000776E+02  0.7816164E-02  0.1186339E+00
        -11   -1    0    0    0    0  0.00000000000E+00  0.00000000000E+00  0.45593999997E+02  0.45594000000E+02  0.51100000000E-03 0.  1.
         11   -1    0    0    0    0 -0.00000000000E+00 -0.00000000000E+00 -0.45593999997E+02  0.45594000000E+02  0.51100000000E-03 0. -1.
    9900012    2    1    2    0    0 -0.86240676835E+00  0.20435598713E-01  0.80547959641E+00  0.90007762554E+02  0.90000024220E+02 0.  0.
        -12    1    1    2    0    0  0.86240676835E+00 -0.20435598713E-01 -0.80547959641E+00  0.11802374456E+01  0.00000000000E+00 0.  1.
         11    1    3    3    0    0  0.45120410238E+01  0.61102706008E+01 -0.96920697596E+01  0.12313818965E+02  0.51100000000E-03 0. -1.
        -11    1    3    3    0    0  0.14456682677E+02  0.26510472689E+02  0.22539539902E+02  0.37680654128E+02  0.51100000000E-03 0.  1.
         12    1    3    3    0    0 -0.19831130469E+02 -0.32600307691E+02 -0.12041990546E+02  0.40013289462E+02  0.00000000000E+00 0. -1.
</event>
<event>
 7    1  0.3861961E-015  0.9000771E+02  0.7816164E-02  0.1186339E+00
        -11   -1    0    0    0    0  0.00000000000E+00  0.00000000000E+00  0.45593999997E+02  0.45594000000E+02  0.51100000000E-03 0.  1.
         11   -1    0    0    0    0 -0.00000000000E+00 -0.00000000000E+00 -0.45593999997E+02  0.45594000000E+02  0.51100000000E-03 0. -1.
    9900012    2    1    2    0    0  0.60438863139E+00  0.97721237867E-01 -0.10090792288E+01  0.90007713616E+02  0.89999974636E+02 0.  0.
        -12    1    1    2    0    0 -0.60438863139E+00 -0.97721237867E-01  0.10090792288E+01  0.11802863839E+01  0.00000000000E+00 0.  1.
         11    1    3    3    0    0 -0.22032379646E+02 -0.14931566829E+02  0.23234500884E+02  0.35330149624E+02  0.51100000000E-03 0. -1.
        -11    1    3    3    0    0 -0.82714611307E+01  0.25452263990E+01  0.52893312401E+01  0.10142596901E+02  0.51100000000E-03 0.  1.
        -12    1    3    3    0    0  0.30908229408E+02  0.12484061668E+02 -0.29532911353E+02  0.44534967092E+02  0.00000000000E+00 0.  1.
</event>
<event>
 7    1  0.3861961E-015  0.9000771E+02  0.7816164E-02  0.1186339E+00
        -11   -1    0    0    0    0  0.00000000000E+00  0.00000000000E+00  0.45593999997E+02  0.45594000000E+02  0.51100000000E-03 0. -1.
         11   -1    0    0    0    0 -0.00000000000E+00 -0.00000000000E+00 -0.45593999997E+02  0.45594000000E+02  0.51100000000E-03 0.  1.
    9900012    2    1    2    0    0 -0.92262913521E+00  0.46079915003E+00  0.57402859070E+00  0.90007708002E+02  0.89999968948E+02 0.  0.
        -12    1    1    2    0    0  0.92262913521E+00 -0.46079915003E+00 -0.57402859070E+00  0.11802919981E+01  0.00000000000E+00 0.  1.
         11    1    3    3    0    0 -0.14924689582E+02 -0.95651824278E+01 -0.15236956993E+01  0.17792153407E+02  0.51100000000E-03 0. -1.
        -11    1    3    3    0    0 -0.43789773784E-01  0.24158321645E+02 -0.27456736104E+02  0.36571830416E+02  0.51100000000E-03 0.  1.
         12    1    3    3    0    0  0.14045850221E+02 -0.14132340067E+02  0.29554460394E+02  0.35643724179E+02  0.00000000000E+00 0. -1.
</event>
<event>
 7    1  0.3861961E-015  0.9000782E+02  0.7816164E-02  0.1186339E+00
        -11   -1    0    0    0    0  0.00000000000E+00  0.00000000000E+00  0.45593999997E+02  0.45594000000E+02  0.51100000000E-03 0.  1.
         11   -1    0    0    0    0 -0.00000000000E+00 -0.00000000000E+00 -0.45593999997E+02  0.45594000000E+02  0.51100000000E-03 0. -1.
    9900012    2    1    2    0    0  0.49556887525E+00 -0.56619144724E+00 -0.90920877183E+00  0.90007821261E+02  0.90000083702E+02 0.  0.
        -12    1    1    2    0    0 -0.49556887525E+00  0.56619144724E+00  0.90920877183E+00  0.11801787389E+01  0.00000000000E+00 0.  1.
         11    1    3    3    0    0 -0.61792432759E+01  0.48350731973E+01 -0.29934466456E+02  0.30945650140E+02  0.51100000000E-03 0. -1.
        -11    1    3    3    0    0 -0.22223999310E+02 -0.15541280654E+01  0.12124894426E+02  0.25364039987E+02  0.51100000000E-03 0.  1.
        -12    1    3    3    0    0  0.28898811461E+02 -0.38471365791E+01  0.16900363258E+02  0.33698131134E+02  0.00000000000E+00 0.  1.
</event>
<event>
 7    1  0.3861961E-015  0.9000771E+02  0.7816164E-02  0.1186339E+00
        -11   -1    0    0    0    0  0.00000000000E+00  0.00000000000E+00  0.45593999997E+02  0.45594000000E+02  0.51100000000E-03 0.  1.
         11   -1    0    0    0    0 -0.00000000000E+00 -0.00000000000E+00 -0.45593999997E+02  0.45594000000E+02  0.51100000000E-03 0. -1.
    9900012    2    1    2    0    0 -0.79700569020E+00  0.79176001732E+00 -0.36189961130E+00  0.90007714728E+02  0.89999975762E+02 0.  0.
        -12    1    1    2    0    0  0.79700569020E+00 -0.79176001732E+00  0.36189961130E+00  0.11802852722E+01  0.00000000000E+00 0.  1.
         11    1    3    3    0    0 -0.85680890661E+01  0.58989930343E+01 -0.32574667074E+01  0.10900521028E+02  0.51100000000E-03 0. -1.
        -11    1    3    3    0    0  0.73700871133E+01  0.17766144602E+02  0.34851404231E+02  0.39806713695E+02  0.51100000000E-03 0.  1.
         12    1    3    3    0    0  0.40099626266E+00 -0.22873377619E+02 -0.31955837134E+02  0.39300480005E+02  0.00000000000E+00 0. -1.
</event>
<event>
 7    1  0.3861961E-015  0.9000781E+02  0.7816164E-02  0.1186339E+00
        -11   -1    0    0    0    0  0.00000000000E+00  0.00000000000E+00  0.45593999997E+02  0.45594000000E+02  0.51100000000E-03 0.  1.
         11   -1    0    0    0    0 -0.00000000000E+00 -0.00000000000E+00 -0.45593999997E+02  0.45594000000E+02  0.51100000000E-03 0. -1.
    9900012    2    1    2    0    0 -0.63372073841E+00  0.96876089197E+00 -0.22968525992E+00  0.90007807237E+02  0.90000069492E+02 0.  0.
        -12    1    1    2    0    0  0.63372073841E+00 -0.96876089197E+00  0.22968525992E+00  0.11801927634E+01  0.00000000000E+00 0.  1.
         11    1    3    3    0    0  0.31669034691E+02 -0.20222920470E+02  0.14985219545E+02  0.40453072512E+02  0.51100000000E-03 0. -1.
        -11    1    3    3    0    0  0.37384287956E+01  0.78229783472E+01 -0.36961827339E+01  0.94253173498E+01  0.51100000000E-03 0.  1.
        -12    1    3    3    0    0 -0.36041184225E+02  0.13368703015E+02 -0.11518722071E+02  0.40129417374E+02  0.00000000000E+00 0.  1.
</event>
<event>
 7    1  0.3861961E-015  0.9000777E+02  0.7816164E-02  0.1186339E+00
        -11   -1    0    0    0    0  0.00000000000E+00  0.00000000000E+00  0.45593999997E+02  0.45594000000E+02  0.51100000000E-03 0.  1.
         11   -1    0    0    0    0 -0.00000000000E+00 -0.00000000000E+00 -0.45593999997E+02  0.45594000000E+02  0.51100000000E-03 0. -1.
    9900012    2    1    2    0    0 -0.45984432298E+00 -0.99708262600E+00 -0.43280761011E+00  0.90007765705E+02  0.90000027412E+02 0.  0.
        -12    1    1    2    0    0  0.45984432298E+00  0.99708262600E+00  0.43280761011E+00  0.11802342953E+01  0.00000000000E+00 0.  1.
         11    1    3    3    0    0 -0.30190289935E+02 -0.17739060090E+02  0.94051229532E+01  0.36257195110E+02  0.51100000000E-03 0. -1.
        -11    1    3    3    0    0 -0.45686863437E+01 -0.56926097904E+01  0.63598135841E+01  0.96812153275E+01  0.51100000000E-03 0.  1.
        -12    1    3    3    0    0  0.34299131956E+02  0.22434587254E+02 -0.16197744147E+02  0.44069355267E+02  0.00000000000E+00 0.  1.
</event>
<event>
 7    1  0.3861961E-015  0.9000771E+02  0.7816164E-02  0.1186339E+00
        -11   -1    0    0    0    0  0.00000000000E+00  0.00000000000E+00  0.45593999997E+02  0.45594000000E+02  0.51100000000E-03 0. -1.
         11   -1    0    0    0    0 -0.00000000000E+00 -0.00000000000E+00 -0.45593999997E+02  0.45594000000E+02  0.51100000000E-03 0.  1.
    9900012    2    1    2    0    0 -0.94969659660E+00 -0.59827093013E+00  0.36499452627E+00  0.90007714977E+02  0.89999976015E+02 0.  0.
        -12    1    1    2    0    0  0.94969659660E+00  0.59827093013E+00 -0.36499452627E+00  0.11802850231E+01  0.00000000000E+00 0.  1.
         11    1    3    3    0    0 -0.54532531967E+00  0.26863329196E+02  0.24243966278E+02  0.36189856816E+02  0.51100000000E-03 0. -1.
        -11    1    3    3    0    0 -0.56837646713E+01  0.17435026199E+01  0.81918164847E+01  0.10121800225E+02  0.51100000000E-03 0.  1.
        -12    1    3    3    0    0  0.52793933943E+01 -0.29205102746E+02 -0.32070788236E+02  0.43696057936E+02  0.00000000000E+00 0.  1.
</event>
<event>
 7    1  0.3861961E-015  0.9000768E+02  0.7816164E-02  0.1186339E+00
        -11   -1    0    0    0    0  0.00000000000E+00  0.00000000000E+00  0.45593999997E+02  0.45594000000E+02  0.51100000000E-03 0.  1.
         11   -1    0    0    0    0 -0.00000000000E+00 -0.00000000000E+00 -0.45593999997E+02  0.45594000000E+02  0.51100000000E-03 0. -1.
    9900012    2    1    2    0    0 -0.95373186678E+00 -0.53737904087E+00 -0.44132902483E+00  0.90007681392E+02  0.89999941987E+02 0.  0.
        -12    1    1    2    0    0  0.95373186678E+00  0.53737904087E+00  0.44132902483E+00  0.11803186076E+01  0.00000000000E+00 0.  1.
         11    1    3    3    0    0 -0.30664557879E+02  0.29374701522E+02  0.42604093939E+01  0.42677151825E+02  0.51100000000E-03 0. -1.
        -11    1    3    3    0    0  0.32323409199E+01 -0.49718601499E+01  0.69490172491E+01  0.91354398997E+01  0.51100000000E-03 0.  1.
        -12    1    3    3    0    0  0.26478485093E+02 -0.24940220413E+02 -0.11650755668E+02  0.38195089667E+02  0.00000000000E+00 0.  1.
</event>
<event>
 7    1  0.3861961E-015  0.9000778E+02  0.7816164E-02  0.1186339E+00
        -11   -1    0    0    0    0  0.00000000000E+00  0.00000000000E+00  0.45593999997E+02  0.45594000000E+02  0.51100000000E-03 0. -1.
         11   -1    0    0    0    0 -0.00000000000E+00 -0.00000000000E+00 -0.45593999997E+02  0.45594000000E+02  0.51100000000E-03 0.  1.
    9900012    2    1    2    0    0  0.85292846278E+00 -0.92176522720E-01  0.81051977120E+00  0.90007777236E+02  0.90000039095E+02 0.  0.
        -12    1    1    2    0    0 -0.85292846278E+00  0.92176522720E-01 -0.81051977120E+00  0.11802227643E+01  0.00000000000E+00 0.  1.
         11    1    3    3    0    0 -0.11813560657E+01 -0.92469551167E+01 -0.69719220599E+01  0.11640853858E+02  0.51100000000E-03 0. -1.
        -11    1    3    3    0    0  0.11852289388E+02 -0.31682347927E+02  0.12586104126E+02  0.36092353085E+02  0.51100000000E-03 0.  1.
         12    1    3    3    0    0 -0.98180048594E+01  0.40837126521E+02 -0.48036622954E+01  0.42274570292E+02  0.00000000000E+00 0. -1.
</event>
<event>
 7    1  0.3861961E-015  0.9000760E+02  0.7816164E-02  0.1186339E+00
        -11   -1    0    0    0    0  0.00000000000E+00  0.00000000000E+00  0.45593999997E+02  0.45594000000E+02  0.51100000000E-03 0.  1.
         11   -1    0    0    0    0 -0.00000000000E+00 -0.00000000000E+00 -0.45593999997E+02  0.45594000000E+02  0.51100000000E-03 0. -1.
    9900012    2    1    2    0    0 -0.93240148104E-01  0.11379011918E+01 -0.29973474135E+00  0.90007595932E+02  0.89999855399E+02 0.  0.
        -12    1    1    2    0    0  0.93240148104E-01 -0.11379011918E+01  0.29973474135E+00  0.11804040676E+01  0.00000000000E+00 0.  1.
         11    1    3    3    0    0  0.16685197637E+02  0.53729367808E+01 -0.37744430267E+02  0.41616178180E+02  0.51100000000E-03 0. -1.
        -11    1    3    3    0    0 -0.28991852940E+01  0.84827307487E+01  0.35933482288E+01  0.96578542170E+01  0.51100000000E-03 0.  1.
        -12    1    3    3    0    0 -0.13879252491E+02 -0.12717766338E+02  0.33851347297E+02  0.38733563536E+02  0.00000000000E+00 0.  1.
</event>
<event>
 7    1  0.3861961E-015  0.9000777E+02  0.7816164E-02  0.1186339E+00
        -11   -1    0    0    0    0  0.00000000000E+00  0.00000000000E+00  0.45593999997E+02  0.45594000000E+02  0.51100000000E-03 0. -1.
         11   -1    0    0    0    0 -0.00000000000E+00 -0.00000000000E+00 -0.45593999997E+02  0.45594000000E+02  0.51100000000E-03 0.  1.
    9900012    2    1    2    0    0 -0.94354381780E+00  0.21887898368E+00  0.67436558796E+00  0.90007766171E+02  0.90000027884E+02 0.  0.
        -12    1    1    2    0    0  0.94354381780E+00 -0.21887898368E+00 -0.67436558796E+00  0.11802338293E+01  0.00000000000E+00 0.  1.
         11    1    3    3    0    0 -0.49583662451E+01 -0.75906250979E+01 -0.74711269499E+00  0.90973162437E+01  0.51100000000E-03 0. -1.
        -11    1    3    3    0    0 -0.63454975132E+01 -0.29596308638E+02 -0.20286561556E+02  0.36438323284E+02  0.51100000000E-03 0.  1.
         12    1    3    3    0    0  0.10360319940E+02  0.37405812720E+02  0.21708039839E+02  0.44472126643E+02  0.00000000000E+00 0. -1.
</event>
<event>
 7    1  0.3861961E-015  0.9000854E+02  0.7816164E-02  0.1186337E+00
        -11   -1    0    0    0    0  0.00000000000E+00  0.00000000000E+00  0.45593999997E+02  0.45594000000E+02  0.51100000000E-03 0.  1.
         11   -1    0    0    0    0 -0.00000000000E+00 -0.00000000000E+00 -0.45593999997E+02  0.45594000000E+02  0.51100000000E-03 0. -1.
    9900012    2    1    2    0    0  0.70156751914E+00  0.19559593242E+00  0.92772996322E+00  0.90008535021E+02  0.90000806879E+02 0.  0.
        -12    1    1    2    0    0 -0.70156751914E+00 -0.19559593242E+00 -0.92772996322E+00  0.11794649793E+01  0.00000000000E+00 0.  1.
         11    1    3    3    0    0  0.28658396469E+02 -0.25955438167E+02 -0.14533020460E+02  0.41306139285E+02  0.51100000000E-03 0. -1.
        -11    1    3    3    0    0 -0.47515863678E+01 -0.44643836569E+01  0.66009951607E+01  0.92780079661E+01  0.51100000000E-03 0.  1.
        -12    1    3    3    0    0 -0.23205242582E+02  0.30615417757E+02  0.88597552621E+01  0.39424387770E+02  0.00000000000E+00 0.  1.
</event>
<event>
 7    1  0.3861961E-015  0.9000841E+02  0.7816164E-02  0.1186338E+00
        -11   -1    0    0    0    0  0.00000000000E+00  0.00000000000E+00  0.45593999997E+02  0.45594000000E+02  0.51100000000E-03 0.  1.
         11   -1    0    0    0    0 -0.00000000000E+00 -0.00000000000E+00 -0.45593999997E+02  0.45594000000E+02  0.51100000000E-03 0. -1.
    9900012    2    1    2    0    0  0.21867997567E+00 -0.10500151637E+00 -0.11543727524E+01  0.90008414182E+02  0.90000684447E+02 0.  0.
        -12    1    1    2    0    0 -0.21867997567E+00  0.10500151637E+00  0.11543727524E+01  0.11795858179E+01  0.00000000000E+00 0.  1.
         11    1    3    3    0    0  0.30217126893E+01  0.80121960742E+01  0.24694442577E+01  0.89120249501E+01  0.51100000000E-03 0. -1.
        -11    1    3    3    0    0  0.28166372371E+02 -0.16227053053E+02  0.22701643082E+02  0.39648787903E+02  0.51100000000E-03 0.  1.
         12    1    3    3    0    0 -0.30969405084E+02  0.81098554621E+01 -0.26325460092E+02  0.41447601329E+02  0.00000000000E+00 0. -1.
</event>
<event>
 7    1  0.3861961E-015  0.9000790E+02  0.7816164E-02  0.1186339E+00
        -11   -1    0    0    0    0  0.00000000000E+00  0.00000000000E+00  0.45593999997E+02  0.45594000000E+02  0.51100000000E-03 0. -1.
         11   -1    0    0    0    0 -0.00000000000E+00 -0.00000000000E+00 -0.45593999997E+02  0.45594000000E+02  0.51100000000E-03 0.  1.
    9900012    2    1    2    0    0 -0.51971772623E+00 -0.98274729364E+00  0.39589093358E+00  0.90007903229E+02  0.90000166751E+02 0.  0.
        -12    1    1    2    0    0  0.51971772623E+00  0.98274729364E+00 -0.39589093358E+00  0.11800967712E+01  0.00000000000E+00 0.  1.
         11    1    3    3    0    0 -0.37452660743E+02 -0.53095388282E+01  0.11266224743E+02  0.39469238902E+02  0.51100000000E-03 0. -1.
        -11    1    3    3    0    0 -0.38445527267E+01  0.69390374510E+01  0.98170571840E+00  0.79934080838E+01  0.51100000000E-03 0.  1.
        -12    1    3    3    0    0  0.40777495743E+02 -0.26122459165E+01 -0.11852039528E+02  0.42545256243E+02  0.00000000000E+00 0.  1.
</event>
<event>
 7    1  0.3861961E-015  0.9000774E+02  0.7816164E-02  0.1186339E+00
        -11   -1    0    0    0    0  0.00000000000E+00  0.00000000000E+00  0.45593999997E+02  0.45594000000E+02  0.51100000000E-03 0. -1.
         11   -1    0    0    0    0 -0.00000000000E+00 -0.00000000000E+00 -0.45593999997E+02  0.45594000000E+02  0.51100000000E-03 0.  1.
    9900012    2    1    2    0    0  0.50027399510E+00  0.22578767759E+00  0.10448780561E+01  0.90007735497E+02  0.89999996805E+02 0.  0.
        -12    1    1    2    0    0 -0.50027399510E+00 -0.22578767759E+00 -0.10448780561E+01  0.11802645033E+01  0.00000000000E+00 0.  1.
         11    1    3    3    0    0 -0.31593032322E+02  0.85572350694E+01 -0.39005164537E+00  0.32733745644E+02  0.51100000000E-03 0. -1.
        -11    1    3    3    0    0 -0.11552825283E+02  0.15036083157E+01  0.43565907275E+01  0.12438186886E+02  0.51100000000E-03 0.  1.
        -12    1    3    3    0    0  0.43646131601E+02 -0.98350557075E+01 -0.29216610260E+01  0.44835802966E+02  0.00000000000E+00 0.  1.
</event>
<event>
 7    1  0.3861961E-015  0.9000779E+02  0.7816164E-02  0.1186339E+00
        -11   -1    0    0    0    0  0.00000000000E+00  0.00000000000E+00  0.45593999997E+02  0.45594000000E+02  0.51100000000E-03 0.  1.
         11   -1    0    0    0    0 -0.00000000000E+00 -0.00000000000E+00 -0.45593999997E+02  0.45594000000E+02  0.51100000000E-03 0. -1.
    9900012    2    1    2    0    0  0.67079038422E+00 -0.68984244182E+00 -0.68341658125E+00  0.90007787918E+02  0.90000049919E+02 0.  0.
        -12    1    1    2    0    0 -0.67079038422E+00  0.68984244182E+00  0.68341658125E+00  0.11802120816E+01  0.00000000000E+00 0.  1.
         11    1    3    3    0    0 -0.92124362747E+01 -0.37234514974E+01 -0.68493294006E+01  0.12068404479E+02  0.51100000000E-03 0. -1.
        -11    1    3    3    0    0  0.65420509519E+01  0.12147496977E+02  0.40224270875E+02  0.42524723176E+02  0.51100000000E-03 0.  1.
         12    1    3    3    0    0  0.33411757071E+01 -0.91138879210E+01 -0.34058358056E+02  0.35414660264E+02  0.00000000000E+00 0. -1.
</event>
<event>
 7    1  0.3861961E-015  0.9000776E+02  0.7816164E-02  0.1186339E+00
        -11   -1    0    0    0    0  0.00000000000E+00  0.00000000000E+00  0.45593999997E+02  0.45594000000E+02  0.51100000000E-03 0.  1.
         11   -1    0    0    0    0 -0.00000000000E+00 -0.00000000000E+00 -0.45593999997E+02  0.45594000000E+02  0.51100000000E-03 0. -1.
    9900012    2    1    2    0    0  0.32739717942E+00 -0.19781386094E+00 -0.11165374155E+01  0.90007756365E+02  0.90000017949E+02 0.  0.
        -12    1    1    2    0    0 -0.32739717942E+00  0.19781386094E+00  0.11165374155E+01  0.11802436346E+01  0.00000000000E+00 0.  1.
         11    1    3    3    0    0 -0.56044217408E+01 -0.20684306429E+01  0.71076144294E+01  0.92847257101E+01  0.51100000000E-03 0. -1.
        -11    1    3    3    0    0 -0.31098452854E+02  0.20402427421E+02  0.43504621916E+01  0.37447287433E+02  0.51100000000E-03 0.  1.
         12    1    3    3    0    0  0.37030271774E+02 -0.18531810639E+02 -0.12574614037E+02  0.43275743222E+02  0.00000000000E+00 0. -1.
</event>
<event>
 7    1  0.3861961E-015  0.9000681E+02  0.7816164E-02  0.1186341E+00
        -11   -1    0    0    0    0  0.00000000000E+00  0.00000000000E+00  0.45593999997E+02  0.45594000000E+02  0.51100000000E-03 0.  1.
         11   -1    0    0    0    0 -0.00000000000E+00 -0.00000000000E+00 -0.45593999997E+02  0.45594000000E+02  0.51100000000E-03 0. -1.
    9900012    2    1    2    0    0 -0.71382041798E+00  0.94110274710E+00 -0.16253189069E-02  0.90006807124E+02  0.89999056173E+02 0.  0.
        -12    1    1    2    0    0  0.71382041798E+00 -0.94110274710E+00  0.16253189069E-02  0.11811928765E+01  0.00000000000E+00 0.  1.
         11    1    3    3    0    0 -0.15773774378E+01  0.19751406942E+01  0.90319472224E+01  0.93789856186E+01  0.51100000000E-03 0. -1.
        -11    1    3    3    0    0 -0.38268878588E+02 -0.68882533927E+01  0.37048430948E+01  0.39059966280E+02  0.51100000000E-03 0.  1.
         12    1    3    3    0    0  0.39132435608E+02  0.58542154456E+01 -0.12738415636E+02  0.41567855225E+02  0.00000000000E+00 0. -1.
</event>
<event>
 7    1  0.3861961E-015  0.9000776E+02  0.7816164E-02  0.1186339E+00
        -11   -1    0    0    0    0  0.00000000000E+00  0.00000000000E+00  0.45593999997E+02  0.45594000000E+02  0.51100000000E-03 0.  1.
         11   -1    0    0    0    0 -0.00000000000E+00 -0.00000000000E+00 -0.45593999997E+02  0.45594000000E+02  0.51100000000E-03 0. -1.
    9900012    2    1    2    0    0  0.73488028811E+00  0.90305122814E+00 -0.19344671155E+00  0.90007757572E+02  0.90000019172E+02 0.  0.
        -12    1    1    2    0    0 -0.73488028811E+00 -0.90305122814E+00  0.19344671155E+00  0.11802424279E+01  0.00000000000E+00 0.  1.
         11    1    3    3    0    0 -0.21435379479E+01  0.81931019041E+01  0.13128602275E+01  0.85700219360E+01  0.51100000000E-03 0. -1.
        -11    1    3    3    0    0  0.28512266023E+02 -0.20021637388E+02  0.24639219996E+02  0.42672080330E+02  0.51100000000E-03 0.  1.
         12    1    3    3    0    0 -0.25633847787E+02  0.12731586712E+02 -0.26145526935E+02  0.38765655306E+02  0.00000000000E+00 0. -1.
</event>
<event>
 7    1  0.3861961E-015  0.9000781E+02  0.7816164E-02  0.1186339E+00
        -11   -1    0    0    0    0  0.00000000000E+00  0.00000000000E+00  0.45593999997E+02  0.45594000000E+02  0.51100000000E-03 0.  1.
         11   -1    0    0    0    0 -0.00000000000E+00 -0.00000000000E+00 -0.45593999997E+02  0.45594000000E+02  0.51100000000E-03 0. -1.
    9900012    2    1    2    0    0 -0.10522172809E+01 -0.73600688712E-01 -0.52939848027E+00  0.90007813143E+02  0.90000075476E+02 0.  0.
        -12    1    1    2    0    0  0.10522172809E+01  0.73600688712E-01  0.52939848027E+00  0.11801868575E+01  0.00000000000E+00 0.  1.
         11    1    3    3    0    0  0.28231419157E+02 -0.11423784093E+02  0.57218945923E+01  0.30987996847E+02  0.51100000000E-03 0. -1.
        -11    1    3    3    0    0  0.10389018553E+02  0.40192808159E+01  0.10526210204E+02  0.15326037528E+02  0.51100000000E-03 0.  1.
        -12    1    3    3    0    0 -0.39672654991E+02  0.73309025885E+01 -0.16777503277E+02  0.43693778768E+02  0.00000000000E+00 0.  1.
</event>
<event>
 7    1  0.3861961E-015  0.9000778E+02  0.7816164E-02  0.1186339E+00
        -11   -1    0    0    0    0  0.00000000000E+00  0.00000000000E+00  0.45593999997E+02  0.45594000000E+02  0.51100000000E-03 0. -1.
         11   -1    0    0    0    0 -0.00000000000E+00 -0.00000000000E+00 -0.45593999997E+02  0.45594000000E+02  0.51100000000E-03 0.  1.
    9900012    2    1    2    0    0 -0.27665790235E-01 -0.42381923160E+00  0.11011460856E+01  0.90007783563E+02  0.90000045506E+02 0.  0.
        -12    1    1    2    0    0  0.27665790235E-01  0.42381923160E+00 -0.11011460856E+01  0.11802164373E+01  0.00000000000E+00 0.  1.
         11    1    3    3    0    0  0.69214890370E+01  0.59661405825E+01 -0.26392314241E+01  0.95114345244E+01  0.51100000000E-03 0. -1.
        -11    1    3    3    0    0  0.50441759599E+01 -0.42228531241E+02  0.38655166026E+01  0.42704037054E+02  0.51100000000E-03 0.  1.
         12    1    3    3    0    0 -0.11993330787E+02  0.35838571427E+02 -0.12513909281E+00  0.37792311984E+02  0.00000000000E+00 0. -1.
</event>
<event>
 7    1  0.3897794E-015  0.9000758E+02  0.7816164E-02  0.1186339E+00
        -11   -1    0    0    0    0  0.00000000000E+00  0.00000000000E+00  0.45593999997E+02  0.45594000000E+02  0.51100000000E-03 0. -1.
         11   -1    0    0    0    0 -0.00000000000E+00 -0.00000000000E+00 -0.45593999997E+02  0.45594000000E+02  0.51100000000E-03 0.  1.
    9900012    2    1    2    0    0 -0.95615005798E+00 -0.58099146228E+00  0.37631163854E+00  0.90007582929E+02  0.89999842223E+02 0.  0.
        -12    1    1    2    0    0  0.95615005798E+00  0.58099146228E+00 -0.37631163854E+00  0.11804170712E+01  0.00000000000E+00 0.  1.
         11    1    3    3    0    0  0.22257251275E+01  0.80980813048E+01  0.54491800282E+01  0.10011310424E+02  0.51100000000E-03 0. -1.
        -11    1    3    3    0    0 -0.25470819082E+02  0.22205445411E+02  0.14968209324E+02  0.36957972364E+02  0.51100000000E-03 0.  1.
         12    1    3    3    0    0  0.22288943897E+02 -0.30884518178E+02 -0.20041077714E+02  0.43038300141E+02  0.00000000000E+00 0. -1.
</event>
<event>
 7    1  0.3861961E-015  0.9000769E+02  0.7816164E-02  0.1186339E+00
        -11   -1    0    0    0    0  0.00000000000E+00  0.00000000000E+00  0.45593999997E+02  0.45594000000E+02  0.51100000000E-03 0.  1.
         11   -1    0    0    0    0 -0.00000000000E+00 -0.00000000000E+00 -0.45593999997E+02  0.45594000000E+02  0.51100000000E-03 0. -1.
    9900012    2    1    2    0    0  0.53445447457E+00  0.10422204987E+01 -0.14583399891E+00  0.90007689571E+02  0.89999950273E+02 0.  0.
        -12    1    1    2    0    0 -0.53445447457E+00 -0.10422204987E+01  0.14583399891E+00  0.11803104289E+01  0.00000000000E+00 0.  1.
         11    1    3    3    0    0  0.66849442567E+00  0.21010701750E+01  0.12893172416E+02  0.13080339287E+02  0.51100000000E-03 0. -1.
        -11    1    3    3    0    0 -0.14708953632E+02 -0.26628087667E+02  0.17020612050E+02  0.34858422291E+02  0.51100000000E-03 0.  1.
         12    1    3    3    0    0  0.14574913681E+02  0.25569237991E+02 -0.30059618465E+02  0.42068927993E+02  0.00000000000E+00 0. -1.
</event>
<event>
 7    1  0.3861961E-015  0.9000765E+02  0.7816164E-02  0.1186339E+00
        -11   -1    0    0    0    0  0.00000000000E+00  0.00000000000E+00  0.45593999997E+02  0.45594000000E+02  0.51100000000E-03 0.  1.
         11   -1    0    0    0    0 -0.00000000000E+00 -0.00000000000E+00 -0.45593999997E+02  0.45594000000E+02  0.51100000000E-03 0. -1.
    9900012    2    1    2    0    0  0.25686121752E+00 -0.10960998101E+01 -0.35470334060E+00  0.90007649654E+02  0.89999909830E+02 0.  0.
        -12    1    1    2    0    0 -0.25686121752E+00  0.10960998101E+01  0.35470334060E+00  0.11803503457E+01  0.00000000000E+00 0.  1.
         11    1    3    3    0    0  0.12987985139E+02 -0.44245423443E+01  0.19476187136E+01  0.13858483028E+02  0.51100000000E-03 0. -1.
        -11    1    3    3    0    0 -0.11540515031E+02  0.11889509489E+02  0.34538842753E+02  0.38307643912E+02  0.51100000000E-03 0.  1.
         12    1    3    3    0    0 -0.11906088905E+01 -0.85610669546E+01 -0.36841164808E+02  0.37841522714E+02  0.00000000000E+00 0. -1.
</event>
<event>
 7    1  0.3861961E-015  0.9000755E+02  0.7816164E-02  0.1186339E+00
        -11   -1    0    0    0    0  0.00000000000E+00  0.00000000000E+00  0.45593999997E+02  0.45594000000E+02  0.51100000000E-03 0. -1.
         11   -1    0    0    0    0 -0.00000000000E+00 -0.00000000000E+00 -0.45593999997E+02  0.45594000000E+02  0.51100000000E-03 0.  1.
    9900012    2    1    2    0    0 -0.34825280533E+00  0.84795060113E+00  0.74374748032E+00  0.90007550699E+02  0.89999809568E+02 0.  0.
        -12    1    1    2    0    0  0.34825280533E+00 -0.84795060113E+00 -0.74374748032E+00  0.11804493013E+01  0.00000000000E+00 0.  1.
         11    1    3    3    0    0  0.33714701645E+01  0.78346929053E+00 -0.66092693991E+01  0.74607692265E+01  0.51100000000E-03 0. -1.
        -11    1    3    3    0    0  0.36788417543E+02  0.72065079535E+01 -0.85437287256E+01  0.38448884548E+02  0.51100000000E-03 0.  1.
         12    1    3    3    0    0 -0.40508140512E+02 -0.71420266429E+01  0.15896745605E+02  0.44097896925E+02  0.00000000000E+00 0. -1.
</event>
<event>
 7    1  0.3861961E-015  0.9000774E+02  0.7816164E-02  0.1186339E+00
        -11   -1    0    0    0    0  0.00000000000E+00  0.00000000000E+00  0.45593999997E+02  0.45594000000E+02  0.51100000000E-03 0.  1.
         11   -1    0    0    0    0 -0.00000000000E+00 -0.00000000000E+00 -0.45593999997E+02  0.45594000000E+02  0.51100000000E-03 0. -1.
    9900012    2    1    2    0    0 -0.11479228671E+01  0.66684026913E-01  0.26614582374E+00  0.90007742711E+02  0.90000004115E+02 0.  0.
        -12    1    1    2    0    0  0.11479228671E+01 -0.66684026913E-01 -0.26614582374E+00  0.11802572887E+01  0.00000000000E+00 0.  1.
         11    1    3    3    0    0 -0.37438916868E+02  0.14423255344E+02  0.65963136089E+00  0.40126523706E+02  0.51100000000E-03 0. -1.
        -11    1    3    3    0    0  0.72000023444E+01 -0.32951517617E+01  0.13615614129E+02  0.15750651011E+02  0.51100000000E-03 0.  1.
        -12    1    3    3    0    0  0.29090991656E+02 -0.11061419555E+02 -0.14009099667E+02  0.34130567994E+02  0.00000000000E+00 0.  1.
</event>
<event>
 7    1  0.4332998E-015  0.9000771E+02  0.7816164E-02  0.1186339E+00
        -11   -1    0    0    0    0  0.00000000000E+00  0.00000000000E+00  0.45593999997E+02  0.45594000000E+02  0.51100000000E-03 0.  1.
         11   -1    0    0    0    0 -0.00000000000E+00 -0.00000000000E+00 -0.45593999997E+02  0.45594000000E+02  0.51100000000E-03 0. -1.
    9900012    2    1    2    0    0  0.61979486218E+00 -0.51190620440E+00 -0.86423481706E+00  0.90007705354E+02  0.89999966264E+02 0.  0.
        -12    1    1    2    0    0 -0.61979486218E+00  0.51190620440E+00  0.86423481706E+00  0.11802946464E+01  0.00000000000E+00 0.  1.
         11    1    3    3    0    0 -0.64567827659E+01  0.64505093369E+01 -0.75408144887E+00  0.91579339091E+01  0.51100000000E-03 0. -1.
        -11    1    3    3    0    0 -0.28537512670E+02 -0.60679954197E+01  0.24045406928E+02  0.37807298137E+02  0.51100000000E-03 0.  1.
         12    1    3    3    0    0  0.35614090299E+02 -0.89442012162E+00 -0.24155560297E+02  0.43042473307E+02  0.00000000000E+00 0. -1.
</event>
<event>
 7    1  0.3861961E-015  0.9000749E+02  0.7816164E-02  0.1186340E+00
        -11   -1    0    0    0    0  0.00000000000E+00  0.00000000000E+00  0.45593999997E+02  0.45594000000E+02  0.51100000000E-03 0. -1.
         11   -1    0    0    0    0 -0.00000000000E+00 -0.00000000000E+00 -0.45593999997E+02  0.45594000000E+02  0.51100000000E-03 0.  1.
    9900012    2    1    2    0    0 -0.99162824400E+00 -0.14085373643E+00  0.62485157113E+00  0.90007489163E+02  0.89999747220E+02 0.  0.
        -12    1    1    2    0    0  0.99162824400E+00  0.14085373643E+00 -0.62485157113E+00  0.11805108366E+01  0.00000000000E+00 0.  1.
         11    1    3    3    0    0  0.12852177298E+02 -0.62427828899E+01  0.35484451701E+02  0.38253066704E+02  0.51100000000E-03 0. -1.
        -11    1    3    3    0    0  0.74566699142E+01  0.59767284778E+01  0.14423453520E+01  0.96645522340E+01  0.51100000000E-03 0.  1.
        -12    1    3    3    0    0 -0.21300475456E+02  0.12520067569E+00 -0.36301945481E+02  0.42089870226E+02  0.00000000000E+00 0.  1.
</event>
<event>
 7    1  0.3861961E-015  0.9000776E+02  0.7816164E-02  0.1186339E+00
        -11   -1    0    0    0    0  0.00000000000E+00  0.00000000000E+00  0.45593999997E+02  0.45594000000E+02  0.51100000000E-03 0.  1.
         11   -1    0    0    0    0 -0.00000000000E+00 -0.00000000000E+00 -0.45593999997E+02  0.45594000000E+02  0.51100000000E-03 0. -1.
    9900012    2    1    2    0    0  0.46514370953E+00 -0.78893034461E+00 -0.74443670252E+00  0.90007764531E+02  0.90000026222E+02 0.  0.
        -12    1    1    2    0    0 -0.46514370953E+00  0.78893034461E+00  0.74443670252E+00  0.11802354694E+01  0.00000000000E+00 0.  1.
         11    1    3    3    0    0  0.18726750225E+02 -0.15896491813E+02 -0.34250103101E+02  0.42148062692E+02  0.51100000000E-03 0. -1.
        -11    1    3    3    0    0 -0.10592859524E+02 -0.23318468081E+01  0.19813717687E+01  0.11025970106E+02  0.51100000000E-03 0.  1.
        -12    1    3    3    0    0 -0.76687469920E+01  0.17439408277E+02  0.31524294630E+02  0.36833731733E+02  0.00000000000E+00 0.  1.
</event>
<event>
 7    1  0.3861961E-015  0.9000768E+02  0.7816164E-02  0.1186339E+00
        -11   -1    0    0    0    0  0.00000000000E+00  0.00000000000E+00  0.45593999997E+02  0.45594000000E+02  0.51100000000E-03 0.  1.
         11   -1    0    0    0    0 -0.00000000000E+00 -0.00000000000E+00 -0.45593999997E+02  0.45594000000E+02  0.51100000000E-03 0. -1.
    9900012    2    1    2    0    0  0.10772037643E+01  0.40652875648E+00  0.25986079768E+00  0.90007677496E+02  0.89999938039E+02 0.  0.
        -12    1    1    2    0    0 -0.10772037643E+01 -0.40652875648E+00 -0.25986079768E+00  0.11803225041E+01  0.00000000000E+00 0.  1.
         11    1    3    3    0    0  0.27062657193E+02 -0.18124378831E+02 -0.14769751297E+02  0.35763474048E+02  0.51100000000E-03 0. -1.
        -11    1    3    3    0    0  0.91913541172E+01 -0.22593704367E+01 -0.24875804325E+01  0.97864090425E+01  0.51100000000E-03 0.  1.
        -12    1    3    3    0    0 -0.35176807545E+02  0.20790278024E+02  0.17517192527E+02  0.44457794406E+02  0.00000000000E+00 0.  1.
</event>
<event>
 7    1  0.3861961E-015  0.9000770E+02  0.7816164E-02  0.1186339E+00
        -11   -1    0    0    0    0  0.00000000000E+00  0.00000000000E+00  0.45593999997E+02  0.45594000000E+02  0.51100000000E-03 0. -1.
         11   -1    0    0    0    0 -0.00000000000E+00 -0.00000000000E+00 -0.45593999997E+02  0.45594000000E+02  0.51100000000E-03 0.  1.
    9900012    2    1    2    0    0 -0.10876631484E+00 -0.10549822171E+01  0.51797456549E+00  0.90007696971E+02  0.89999957771E+02 0.  0.
        -12    1    1    2    0    0  0.10876631484E+00  0.10549822171E+01 -0.51797456549E+00  0.11803030290E+01  0.00000000000E+00 0.  1.
         11    1    3    3    0    0  0.16698563383E+02  0.39359795974E+01  0.31694316632E+02  0.36039751130E+02  0.51100000000E-03 0. -1.
        -11    1    3    3    0    0  0.89356678625E+01  0.16918908724E+01  0.39445144606E+01  0.99130141463E+01  0.51100000000E-03 0.  1.
        -12    1    3    3    0    0 -0.25742997560E+02 -0.66828526870E+01 -0.35120856528E+02  0.44054931695E+02  0.00000000000E+00 0.  1.
</event>
<event>
 7    1  0.3861961E-015  0.9000770E+02  0.7816164E-02  0.1186339E+00
        -11   -1    0    0    0    0  0.00000000000E+00  0.00000000000E+00  0.45593999997E+02  0.45594000000E+02  0.51100000000E-03 0.  1.
         11   -1    0    0    0    0 -0.00000000000E+00 -0.00000000000E+00 -0.45593999997E+02  0.45594000000E+02  0.51100000000E-03 0. -1.
    9900012    2    1    2    0    0 -0.18937776811E+00  0.29917237145E+00 -0.11259365308E+01  0.90007702953E+02  0.89999963832E+02 0.  0.
        -12    1    1    2    0    0  0.18937776811E+00 -0.29917237145E+00  0.11259365308E+01  0.11802970467E+01  0.00000000000E+00 0.  1.
         11    1    3    3    0    0  0.13230105173E+01 -0.11470579288E+02 -0.40710740177E+01  0.12243291630E+02  0.51100000000E-03 0. -1.
        -11    1    3    3    0    0 -0.83053619543E+01 -0.23111724538E+01  0.38220052479E+02  0.39180262468E+02  0.51100000000E-03 0.  1.
         12    1    3    3    0    0  0.67929736689E+01  0.14080924113E+02 -0.35274914992E+02  0.38584148855E+02  0.00000000000E+00 0. -1.
</event>
<event>
 7    1  0.3861961E-015  0.9000766E+02  0.7816164E-02  0.1186339E+00
        -11   -1    0    0    0    0  0.00000000000E+00  0.00000000000E+00  0.45593999997E+02  0.45594000000E+02  0.51100000000E-03 0.  1.
         11   -1    0    0    0    0 -0.00000000000E+00 -0.00000000000E+00 -0.45593999997E+02  0.45594000000E+02  0.51100000000E-03 0. -1.
    9900012    2    1    2    0    0 -0.40726073365E+00  0.56988646550E+00 -0.95003871391E+00  0.90007658758E+02  0.89999919054E+02 0.  0.
        -12    1    1    2    0    0  0.40726073365E+00 -0.56988646550E+00  0.95003871391E+00  0.11803412416E+01  0.00000000000E+00 0.  1.
         11    1    3    3    0    0  0.54517146063E+01 -0.39091628694E+01 -0.66847580664E+01  0.94704137796E+01  0.51100000000E-03 0. -1.
        -11    1    3    3    0    0 -0.30790390792E+02  0.13339517449E+02 -0.23606764232E+02  0.41027676130E+02  0.51100000000E-03 0.  1.
         12    1    3    3    0    0  0.24931415452E+02 -0.88604681143E+01  0.29341483584E+02  0.39509568848E+02  0.00000000000E+00 0. -1.
</event>
<event>
 7    1  0.3885984E-015  0.9000772E+02  0.7816164E-02  0.1186339E+00
        -11   -1    0    0    0    0  0.00000000000E+00  0.00000000000E+00  0.45593999997E+02  0.45594000000E+02  0.51100000000E-03 0.  1.
         11   -1    0    0    0    0 -0.00000000000E+00 -0.00000000000E+00 -0.45593999997E+02  0.45594000000E+02  0.51100000000E-03 0. -1.
    9900012    2    1    2    0    0 -0.37964617402E+00  0.95372736318E+00 -0.58252884802E+00  0.90007717424E+02  0.89999978494E+02 0.  0.
        -12    1    1    2    0    0  0.37964617402E+00 -0.95372736318E+00  0.58252884802E+00  0.11802825761E+01  0.00000000000E+00 0.  1.
         11    1    3    3    0    0 -0.96871939705E+01 -0.33252935860E+01 -0.82714980265E+00  0.10275382305E+02  0.51100000000E-03 0. -1.
        -11    1    3    3    0    0 -0.23406329006E+02 -0.18495834564E+02  0.19320554125E+02  0.35542030692E+02  0.51100000000E-03 0.  1.
         12    1    3    3    0    0  0.32713876802E+02  0.22774855513E+02 -0.19075933170E+02  0.44190304427E+02  0.00000000000E+00 0. -1.
</event>
<event>
 7    1  0.3861961E-015  0.9000768E+02  0.7816164E-02  0.1186339E+00
        -11   -1    0    0    0    0  0.00000000000E+00  0.00000000000E+00  0.45593999997E+02  0.45594000000E+02  0.51100000000E-03 0. -1.
         11   -1    0    0    0    0 -0.00000000000E+00 -0.00000000000E+00 -0.45593999997E+02  0.45594000000E+02  0.51100000000E-03 0.  1.
    9900012    2    1    2    0    0  0.74173454267E+00  0.61788444885E-02  0.91812522934E+00  0.90007677058E+02  0.89999937595E+02 0.  0.
        -12    1    1    2    0    0 -0.74173454267E+00 -0.61788444885E-02 -0.91812522934E+00  0.11803229417E+01  0.00000000000E+00 0.  1.
         11    1    3    3    0    0 -0.16660308127E+02  0.97214034492E+01  0.31457257180E+02  0.36900278881E+02  0.51100000000E-03 0. -1.
        -11    1    3    3    0    0 -0.60197889733E+01  0.73433238414E+01  0.18233501973E+01  0.96688608702E+01  0.51100000000E-03 0.  1.
        -12    1    3    3    0    0  0.23421831643E+02 -0.17058548446E+02 -0.32362482148E+02  0.43438537307E+02  0.00000000000E+00 0.  1.
</event>
<event>
 7    1  0.3861961E-015  0.9000768E+02  0.7816164E-02  0.1186339E+00
        -11   -1    0    0    0    0  0.00000000000E+00  0.00000000000E+00  0.45593999997E+02  0.45594000000E+02  0.51100000000E-03 0.  1.
         11   -1    0    0    0    0 -0.00000000000E+00 -0.00000000000E+00 -0.45593999997E+02  0.45594000000E+02  0.51100000000E-03 0. -1.
    9900012    2    1    2    0    0 -0.29053496473E+00  0.71378050072E+00 -0.89401982122E+00  0.90007676057E+02  0.89999936581E+02 0.  0.
        -12    1    1    2    0    0  0.29053496473E+00 -0.71378050072E+00  0.89401982122E+00  0.11803239427E+01  0.00000000000E+00 0.  1.
         11    1    3    3    0    0 -0.34713140887E+01  0.48140383949E+01  0.16106938218E+02  0.17165618142E+02  0.51100000000E-03 0. -1.
        -11    1    3    3    0    0 -0.16563215257E+02  0.12981202188E+02  0.19012684354E+02  0.28360780605E+02  0.51100000000E-03 0.  1.
         12    1    3    3    0    0  0.19743994381E+02 -0.17081460082E+02 -0.36013642394E+02  0.44481277310E+02  0.00000000000E+00 0. -1.
</event>
<event>
 7    1  0.3861961E-015  0.9000796E+02  0.7816164E-02  0.1186339E+00
        -11   -1    0    0    0    0  0.00000000000E+00  0.00000000000E+00  0.45593999997E+02  0.45594000000E+02  0.51100000000E-03 0.  1.
         11   -1    0    0    0    0 -0.00000000000E+00 -0.00000000000E+00 -0.45593999997E+02  0.45594000000E+02  0.51100000000E-03 0. -1.
    9900012    2    1    2    0    0 -0.11390844508E+01  0.24477316207E+00  0.18727188070E+00  0.90007958457E+02  0.90000222708E+02 0.  0.
        -12    1    1    2    0    0  0.11390844508E+01 -0.24477316207E+00 -0.18727188070E+00  0.11800415434E+01  0.00000000000E+00 0.  1.
         11    1    3    3    0    0  0.14923869816E+02  0.32364496285E+02 -0.86796093300E+01  0.36681304890E+02  0.51100000000E-03 0. -1.
        -11    1    3    3    0    0 -0.58948316002E+00  0.86217354833E+01 -0.82475936636E+00  0.86811313441E+01  0.51100000000E-03 0.  1.
        -12    1    3    3    0    0 -0.15473471107E+02 -0.40741458606E+02  0.96916405771E+01  0.44645522222E+02  0.00000000000E+00 0.  1.
</event>
<event>
 7    1  0.3861961E-015  0.9000765E+02  0.7816164E-02  0.1186339E+00
        -11   -1    0    0    0    0  0.00000000000E+00  0.00000000000E+00  0.45593999997E+02  0.45594000000E+02  0.51100000000E-03 0. -1.
         11   -1    0    0    0    0 -0.00000000000E+00 -0.00000000000E+00 -0.45593999997E+02  0.45594000000E+02  0.51100000000E-03 0.  1.
    9900012    2    1    2    0    0 -0.90054592384E+00 -0.64298475070E+00  0.41085990602E+00  0.90007653351E+02  0.89999913575E+02 0.  0.
        -12    1    1    2    0    0  0.90054592384E+00  0.64298475070E+00 -0.41085990602E+00  0.11803466495E+01  0.00000000000E+00 0.  1.
         11    1    3    3    0    0  0.26199245999E+02  0.30090246340E+02  0.11821609500E+02  0.41612184119E+02  0.51100000000E-03 0. -1.
        -11    1    3    3    0    0 -0.85014701023E+01 -0.13838788724E+00  0.40231849712E+01  0.94063894604E+01  0.51100000000E-03 0.  1.
        -12    1    3    3    0    0 -0.18598321821E+02 -0.30594843203E+02 -0.15433934565E+02  0.38989079771E+02  0.00000000000E+00 0.  1.
</event>
<event>
 7    1  0.3861961E-015  0.9000773E+02  0.7816164E-02  0.1186339E+00
        -11   -1    0    0    0    0  0.00000000000E+00  0.00000000000E+00  0.45593999997E+02  0.45594000000E+02  0.51100000000E-03 0. -1.
         11   -1    0    0    0    0 -0.00000000000E+00 -0.00000000000E+00 -0.45593999997E+02  0.45594000000E+02  0.51100000000E-03 0.  1.
    9900012    2    1    2    0    0  0.16054440989E+00  0.10453810495E+01  0.52386785809E+00  0.90007731565E+02  0.89999992822E+02 0.  0.
        -12    1    1    2    0    0 -0.16054440989E+00 -0.10453810495E+01 -0.52386785809E+00  0.11802684351E+01  0.00000000000E+00 0.  1.
         11    1    3    3    0    0  0.35267628590E+01 -0.92099341306E+01  0.23552421291E+01  0.10139433352E+02  0.51100000000E-03 0. -1.
        -11    1    3    3    0    0  0.36898655681E+02  0.68597324186E+01 -0.95570275937E+01  0.38728587588E+02  0.51100000000E-03 0.  1.
         12    1    3    3    0    0 -0.40264874130E+02  0.33955827615E+01  0.77256533227E+01  0.41139710624E+02  0.00000000000E+00 0. -1.
</event>
<event>
 7    1  0.7869515E-015  0.9000758E+02  0.7816164E-02  0.1186339E+00
        -11   -1    0    0    0    0  0.00000000000E+00  0.00000000000E+00  0.45593999997E+02  0.45594000000E+02  0.51100000000E-03 0. -1.
         11   -1    0    0    0    0 -0.00000000000E+00 -0.00000000000E+00 -0.45593999997E+02  0.45594000000E+02  0.51100000000E-03 0.  1.
    9900012    2    1    2    0    0 -0.19048498518E+00  0.41479075565E-02  0.11649461296E+01  0.90007575831E+02  0.89999835031E+02 0.  0.
        -12    1    1    2    0    0  0.19048498518E+00 -0.41479075565E-02 -0.11649461296E+01  0.11804241694E+01  0.00000000000E+00 0.  1.
         11    1    3    3    0    0  0.21846030173E+00 -0.10452122684E+01 -0.97140590652E+01  0.97725706635E+01  0.51100000000E-03 0. -1.
        -11    1    3    3    0    0  0.32824021546E+00  0.28892691837E+02 -0.22601023819E+02  0.36683806525E+02  0.51100000000E-03 0.  1.
         12    1    3    3    0    0 -0.73718550237E+00 -0.27843331661E+02  0.33480029014E+02  0.43551198643E+02  0.00000000000E+00 0. -1.
</event>
<event>
 7    1  0.3861961E-015  0.9000777E+02  0.7816164E-02  0.1186339E+00
        -11   -1    0    0    0    0  0.00000000000E+00  0.00000000000E+00  0.45593999997E+02  0.45594000000E+02  0.51100000000E-03 0.  1.
         11   -1    0    0    0    0 -0.00000000000E+00 -0.00000000000E+00 -0.45593999997E+02  0.45594000000E+02  0.51100000000E-03 0. -1.
    9900012    2    1    2    0    0 -0.84253437272E+00  0.41790507120E+00 -0.71304375478E+00  0.90007771118E+02  0.90000032897E+02 0.  0.
        -12    1    1    2    0    0  0.84253437272E+00 -0.41790507120E+00  0.71304375478E+00  0.11802288820E+01  0.00000000000E+00 0.  1.
         11    1    3    3    0    0  0.33667875964E+01  0.10486708395E+02 -0.37449733525E+02  0.39035738152E+02  0.51100000000E-03 0. -1.
        -11    1    3    3    0    0 -0.63731046892E+01 -0.49146399878E+01 -0.45927651252E+01  0.92662636130E+01  0.51100000000E-03 0.  1.
        -12    1    3    3    0    0  0.21637827201E+01 -0.51541633355E+01  0.41329454896E+02  0.41705769353E+02  0.00000000000E+00 0.  1.
</event>
<event>
 7    1  0.3861961E-015  0.9000773E+02  0.7816164E-02  0.1186339E+00
        -11   -1    0    0    0    0  0.00000000000E+00  0.00000000000E+00  0.45593999997E+02  0.45594000000E+02  0.51100000000E-03 0.  1.
         11   -1    0    0    0    0 -0.00000000000E+00 -0.00000000000E+00 -0.45593999997E+02  0.45594000000E+02  0.51100000000E-03 0. -1.
    9900012    2    1    2    0    0 -0.61127000233E-01 -0.69372520801E+00 -0.95291414404E+00  0.90007730310E+02  0.89999991550E+02 0.  0.
        -12    1    1    2    0    0  0.61127000233E-01  0.69372520801E+00  0.95291414404E+00  0.11802696896E+01  0.00000000000E+00 0.  1.
         11    1    3    3    0    0 -0.58742356859E+01  0.28496399892E+01  0.98593453263E+01  0.11825133550E+02  0.51100000000E-03 0. -1.
        -11    1    3    3    0    0 -0.30770007952E+02 -0.20331589291E+02 -0.86038226343E+01  0.37870736416E+02  0.51100000000E-03 0.  1.
         12    1    3    3    0    0  0.36583116638E+02  0.16788224094E+02 -0.22084368361E+01  0.40311860344E+02  0.00000000000E+00 0. -1.
</event>
<event>
 7    1  0.3861961E-015  0.9000800E+02  0.7816164E-02  0.1186339E+00
        -11   -1    0    0    0    0  0.00000000000E+00  0.00000000000E+00  0.45593999997E+02  0.45594000000E+02  0.51100000000E-03 0.  1.
         11   -1    0    0    0    0 -0.00000000000E+00 -0.00000000000E+00 -0.45593999997E+02  0.45594000000E+02  0.51100000000E-03 0. -1.
    9900012    2    1    2    0    0 -0.65817938628E+00  0.44550029227E+00 -0.87219937349E+00  0.90007998999E+02  0.90000263786E+02 0.  0.
        -12    1    1    2    0    0  0.65817938628E+00 -0.44550029227E+00  0.87219937349E+00  0.11800010009E+01  0.00000000000E+00 0.  1.
         11    1    3    3    0    0 -0.42922368916E+01  0.10695403708E+02 -0.58424066737E+01  0.12920861969E+02  0.51100000000E-03 0. -1.
        -11    1    3    3    0    0 -0.18104779017E+02  0.87439239777E+01  0.31835295011E+02  0.37652692314E+02  0.51100000000E-03 0.  1.
         12    1    3    3    0    0  0.21738836522E+02 -0.18993827394E+02 -0.26865087711E+02  0.39434444717E+02  0.00000000000E+00 0. -1.
</event>
<event>
 7    1  0.3861961E-015  0.9000772E+02  0.7816164E-02  0.1186339E+00
        -11   -1    0    0    0    0  0.00000000000E+00  0.00000000000E+00  0.45593999997E+02  0.45594000000E+02  0.51100000000E-03 0. -1.
         11   -1    0    0    0    0 -0.00000000000E+00 -0.00000000000E+00 -0.45593999997E+02  0.45594000000E+02  0.51100000000E-03 0.  1.
    9900012    2    1    2    0    0 -0.81601845307E+00 -0.85193735645E+00 -0.37250699361E-01  0.90007715717E+02  0.89999976764E+02 0.  0.
        -12    1    1    2    0    0  0.81601845307E+00  0.85193735645E+00  0.37250699361E-01  0.11802842834E+01  0.00000000000E+00 0.  1.
         11    1    3    3    0    0  0.16847731974E+02  0.57739611271E+00  0.24616967130E+02  0.29835792764E+02  0.51100000000E-03 0. -1.
        -11    1    3    3    0    0  0.97722054412E+01  0.17825241934E+02 -0.15086916317E+02  0.25315021102E+02  0.51100000000E-03 0.  1.
         12    1    3    3    0    0 -0.27435955868E+02 -0.19254575403E+02 -0.95673015122E+01  0.34856901850E+02  0.00000000000E+00 0. -1.
</event>
<event>
 7    1  0.3861961E-015  0.9000775E+02  0.7816164E-02  0.1186339E+00
        -11   -1    0    0    0    0  0.00000000000E+00  0.00000000000E+00  0.45593999997E+02  0.45594000000E+02  0.51100000000E-03 0.  1.
         11   -1    0    0    0    0 -0.00000000000E+00 -0.00000000000E+00 -0.45593999997E+02  0.45594000000E+02  0.51100000000E-03 0. -1.
    9900012    2    1    2    0    0  0.30334755673E+00  0.10958399464E+01 -0.31638995803E+00  0.90007751071E+02  0.90000012585E+02 0.  0.
        -12    1    1    2    0    0 -0.30334755673E+00 -0.10958399464E+01  0.31638995803E+00  0.11802489288E+01  0.00000000000E+00 0.  1.
         11    1    3    3    0    0  0.28325141546E+01 -0.10876670406E+02 -0.35102305797E+02  0.36857793858E+02  0.51100000000E-03 0. -1.
        -11    1    3    3    0    0  0.59492329149E+00 -0.93295165651E+01 -0.28653083833E+01  0.97777198494E+01  0.51100000000E-03 0.  1.
        -12    1    3    3    0    0 -0.31240898894E+01  0.21302026918E+02  0.37651224223E+02  0.43372237363E+02  0.00000000000E+00 0.  1.
</event>
<event>
 7    1  0.4610959E-015  0.9000729E+02  0.7816164E-02  0.1186340E+00
        -11   -1    0    0    0    0  0.00000000000E+00  0.00000000000E+00  0.45593999997E+02  0.45594000000E+02  0.51100000000E-03 0. -1.
         11   -1    0    0    0    0 -0.00000000000E+00 -0.00000000000E+00 -0.45593999997E+02  0.45594000000E+02  0.51100000000E-03 0.  1.
    9900012    2    1    2    0    0 -0.91263701109E+00 -0.72765572391E+00 -0.17797812355E+00  0.90007294542E+02  0.89999550029E+02 0.  0.
        -12    1    1    2    0    0  0.91263701109E+00  0.72765572391E+00  0.17797812355E+00  0.11807054582E+01  0.00000000000E+00 0.  1.
         11    1    3    3    0    0  0.93949152691E+01  0.18232816700E+01  0.43390646817E+00  0.95800346579E+01  0.51100000000E-03 0. -1.
        -11    1    3    3    0    0  0.30240644848E+02 -0.14300972564E+01 -0.19155831969E+02  0.35825796261E+02  0.51100000000E-03 0.  1.
         12    1    3    3    0    0 -0.40548197129E+02 -0.11208401374E+01  0.18543947378E+02  0.44601463623E+02  0.00000000000E+00 0. -1.
</event>
<event>
 7    1  0.3861961E-015  0.9000781E+02  0.7816164E-02  0.1186339E+00
        -11   -1    0    0    0    0  0.00000000000E+00  0.00000000000E+00  0.45593999997E+02  0.45594000000E+02  0.51100000000E-03 0.  1.
         11   -1    0    0    0    0 -0.00000000000E+00 -0.00000000000E+00 -0.45593999997E+02  0.45594000000E+02  0.51100000000E-03 0. -1.
    9900012    2    1    2    0    0  0.10661067534E+01 -0.25699677067E+00 -0.43615101087E+00  0.90007805671E+02  0.90000067906E+02 0.  0.
        -12    1    1    2    0    0 -0.10661067534E+01  0.25699677067E+00  0.43615101087E+00  0.11801943289E+01  0.00000000000E+00 0.  1.
         11    1    3    3    0    0  0.29506662013E+01 -0.32020643263E+01 -0.71628956814E+01  0.83825247858E+01  0.51100000000E-03 0. -1.
        -11    1    3    3    0    0  0.24504044058E+02 -0.29500207625E+02  0.10130452360E+02  0.39665305878E+02  0.51100000000E-03 0.  1.
         12    1    3    3    0    0 -0.26388603506E+02  0.32445275181E+02 -0.34037076892E+01  0.41959975007E+02  0.00000000000E+00 0. -1.
</event>
<event>
 7    1  0.3861961E-015  0.9000774E+02  0.7816164E-02  0.1186339E+00
        -11   -1    0    0    0    0  0.00000000000E+00  0.00000000000E+00  0.45593999997E+02  0.45594000000E+02  0.51100000000E-03 0.  1.
         11   -1    0    0    0    0 -0.00000000000E+00 -0.00000000000E+00 -0.45593999997E+02  0.45594000000E+02  0.51100000000E-03 0. -1.
    9900012    2    1    2    0    0 -0.10135038332E+01 -0.51369762519E+00 -0.31929115815E+00  0.90007736422E+02  0.89999997743E+02 0.  0.
        -12    1    1    2    0    0  0.10135038332E+01  0.51369762519E+00  0.31929115815E+00  0.11802635780E+01  0.00000000000E+00 0.  1.
         11    1    3    3    0    0  0.12645289445E+02 -0.27378123385E+02  0.20042044803E+02  0.36209785216E+02  0.51100000000E-03 0. -1.
        -11    1    3    3    0    0 -0.59789449634E+00 -0.46774264559E+01  0.80856972082E+01  0.93602508344E+01  0.51100000000E-03 0.  1.
        -12    1    3    3    0    0 -0.13060898781E+02  0.31541852216E+02 -0.28447033170E+02  0.44437700372E+02  0.00000000000E+00 0.  1.
</event>
<event>
 7    1  0.3861961E-015  0.9000769E+02  0.7816164E-02  0.1186339E+00
        -11   -1    0    0    0    0  0.00000000000E+00  0.00000000000E+00  0.45593999997E+02  0.45594000000E+02  0.51100000000E-03 0. -1.
         11   -1    0    0    0    0 -0.00000000000E+00 -0.00000000000E+00 -0.45593999997E+02  0.45594000000E+02  0.51100000000E-03 0.  1.
    9900012    2    1    2    0    0 -0.98562844523E+00 -0.58341398449E+00  0.28511367980E+00  0.90007692786E+02  0.89999953531E+02 0.  0.
        -12    1    1    2    0    0  0.98562844523E+00  0.58341398449E+00 -0.28511367980E+00  0.11803072141E+01  0.00000000000E+00 0.  1.
         11    1    3    3    0    0  0.48522780586E+01 -0.45189610774E+01 -0.12732777620E+02  0.14355808503E+02  0.51100000000E-03 0. -1.
        -11    1    3    3    0    0  0.60100657581E+01  0.53628865295E+01 -0.29972460610E+02  0.31035944285E+02  0.51100000000E-03 0.  1.
         12    1    3    3    0    0 -0.11847972262E+02 -0.14273394366E+01  0.42990351910E+02  0.44615939999E+02  0.00000000000E+00 0. -1.
</event>
<event>
 7    1  0.3861961E-015  0.9000776E+02  0.7816164E-02  0.1186339E+00
        -11   -1    0    0    0    0  0.00000000000E+00  0.00000000000E+00  0.45593999997E+02  0.45594000000E+02  0.51100000000E-03 0.  1.
         11   -1    0    0    0    0 -0.00000000000E+00 -0.00000000000E+00 -0.45593999997E+02  0.45594000000E+02  0.51100000000E-03 0. -1.
    9900012    2    1    2    0    0 -0.99131139641E+00  0.58854039854E+00 -0.25278479847E+00  0.90007755009E+02  0.90000016575E+02 0.  0.
        -12    1    1    2    0    0  0.99131139641E+00 -0.58854039854E+00  0.25278479847E+00  0.11802449914E+01  0.00000000000E+00 0.  1.
         11    1    3    3    0    0  0.29138291707E+02 -0.23007829107E+02  0.44728087469E+00  0.37129507191E+02  0.51100000000E-03 0. -1.
        -11    1    3    3    0    0  0.70560616701E+01  0.18308104869E+01 -0.60327374403E+01  0.94622298966E+01  0.51100000000E-03 0.  1.
        -12    1    3    3    0    0 -0.37185664773E+02  0.21765559018E+02  0.53326717671E+01  0.43416017921E+02  0.00000000000E+00 0.  1.
</event>
<event>
 7    1  0.3861961E-015  0.9000778E+02  0.7816164E-02  0.1186339E+00
        -11   -1    0    0    0    0  0.00000000000E+00  0.00000000000E+00  0.45593999997E+02  0.45594000000E+02  0.51100000000E-03 0. -1.
         11   -1    0    0    0    0 -0.00000000000E+00 -0.00000000000E+00 -0.45593999997E+02  0.45594000000E+02  0.51100000000E-03 0.  1.
    9900012    2    1    2    0    0  0.86116885670E+00 -0.58611857085E+00 -0.55476455104E+00  0.90007783712E+02  0.90000045657E+02 0.  0.
        -12    1    1    2    0    0 -0.86116885670E+00  0.58611857085E+00  0.55476455104E+00  0.11802162878E+01  0.00000000000E+00 0.  1.
         11    1    3    3    0    0  0.79380324331E+01 -0.38733685077E+01 -0.28144229439E+01  0.92701844250E+01  0.51100000000E-03 0. -1.
        -11    1    3    3    0    0 -0.46483811697E+01  0.24269400151E+02 -0.32036296967E+02  0.40459060232E+02  0.51100000000E-03 0.  1.
         12    1    3    3    0    0 -0.24284824066E+01 -0.20982150214E+02  0.34295955360E+02  0.40278539056E+02  0.00000000000E+00 0. -1.
</event>
<event>
 7    1  0.3861961E-015  0.9000777E+02  0.7816164E-02  0.1186339E+00
        -11   -1    0    0    0    0  0.00000000000E+00  0.00000000000E+00  0.45593999997E+02  0.45594000000E+02  0.51100000000E-03 0.  1.
         11   -1    0    0    0    0 -0.00000000000E+00 -0.00000000000E+00 -0.45593999997E+02  0.45594000000E+02  0.51100000000E-03 0. -1.
    9900012    2    1    2    0    0  0.20441212604E+00 -0.18374299634E+00 -0.11477833716E+01  0.90007765924E+02  0.90000027634E+02 0.  0.
        -12    1    1    2    0    0 -0.20441212604E+00  0.18374299634E+00  0.11477833716E+01  0.11802340760E+01  0.00000000000E+00 0.  1.
         11    1    3    3    0    0 -0.51146322603E+01  0.62465004994E+01  0.46219413540E+01  0.93027186235E+01  0.51100000000E-03 0. -1.
        -11    1    3    3    0    0  0.53750189631E+01  0.25702164357E+02  0.24971123005E+02  0.36236018902E+02  0.51100000000E-03 0.  1.
         12    1    3    3    0    0 -0.55974576827E-01 -0.32132407852E+02 -0.30740847730E+02  0.44469028399E+02  0.00000000000E+00 0. -1.
</event>
<event>
 7    1  0.3861961E-015  0.9000769E+02  0.7816164E-02  0.1186339E+00
        -11   -1    0    0    0    0  0.00000000000E+00  0.00000000000E+00  0.45593999997E+02  0.45594000000E+02  0.51100000000E-03 0.  1.
         11   -1    0    0    0    0 -0.00000000000E+00 -0.00000000000E+00 -0.45593999997E+02  0.45594000000E+02  0.51100000000E-03 0. -1.
    9900012    2    1    2    0    0 -0.20484240646E-01 -0.77407969930E+00  0.89079252776E+00  0.90007690586E+02  0.89999951302E+02 0.  0.
        -12    1    1    2    0    0  0.20484240646E-01  0.77407969930E+00 -0.89079252776E+00  0.11803094139E+01  0.00000000000E+00 0.  1.
         11    1    3    3    0    0 -0.35075876186E+02  0.78552714755E+00 -0.63376518169E+00  0.35090394721E+02  0.51100000000E-03 0. -1.
        -11    1    3    3    0    0 -0.76486104767E+01 -0.17367863258E+01  0.85903128420E+01  0.11632331836E+02  0.51100000000E-03 0.  1.
        -12    1    3    3    0    0  0.42704002422E+02  0.17717947896E+00 -0.70657551325E+01  0.43284964029E+02  0.00000000000E+00 0.  1.
</event>
<event>
 7    1  0.3861961E-015  0.9000777E+02  0.7816164E-02  0.1186339E+00
        -11   -1    0    0    0    0  0.00000000000E+00  0.00000000000E+00  0.45593999997E+02  0.45594000000E+02  0.51100000000E-03 0.  1.
         11   -1    0    0    0    0 -0.00000000000E+00 -0.00000000000E+00 -0.45593999997E+02  0.45594000000E+02  0.51100000000E-03 0. -1.
    9900012    2    1    2    0    0 -0.16881686642E+00 -0.56043042442E+00 -0.10248677618E+01  0.90007773190E+02  0.90000034996E+02 0.  0.
        -12    1    1    2    0    0  0.16881686642E+00  0.56043042442E+00  0.10248677618E+01  0.11802268105E+01  0.00000000000E+00 0.  1.
         11    1    3    3    0    0  0.92874378803E+00 -0.32470169720E+02 -0.13924477565E+02  0.35342121646E+02  0.51100000000E-03 0. -1.
        -11    1    3    3    0    0 -0.14068163841E+02 -0.36513551271E+01  0.77285755269E+01  0.16461364100E+02  0.51100000000E-03 0.  1.
        -12    1    3    3    0    0  0.12970603186E+02  0.35561094423E+02  0.51710342762E+01  0.38204287444E+02  0.00000000000E+00 0.  1.
</event>
<event>
 7    1  0.3861961E-015  0.9000749E+02  0.7816164E-02  0.1186340E+00
        -11   -1    0    0    0    0  0.00000000000E+00  0.00000000000E+00  0.45593999997E+02  0.45594000000E+02  0.51100000000E-03 0.  1.
         11   -1    0    0    0    0 -0.00000000000E+00 -0.00000000000E+00 -0.45593999997E+02  0.45594000000E+02  0.51100000000E-03 0. -1.
    9900012    2    1    2    0    0  0.15743929838E+00 -0.20198572023E+00 -0.11523988327E+01  0.90007488063E+02  0.89999746105E+02 0.  0.
        -12    1    1    2    0    0 -0.15743929838E+00  0.20198572023E+00  0.11523988327E+01  0.11805119371E+01  0.00000000000E+00 0.  1.
         11    1    3    3    0    0 -0.33508285337E+02  0.15510955261E+02 -0.14266608750E+02  0.39584479847E+02  0.51100000000E-03 0. -1.
        -11    1    3    3    0    0 -0.18728702058E+01 -0.69222306571E+01 -0.57935253134E+01  0.92189942996E+01  0.51100000000E-03 0.  1.
        -12    1    3    3    0    0  0.35538594841E+02 -0.87907103243E+01  0.18907735230E+02  0.41204013916E+02  0.00000000000E+00 0.  1.
</event>
<event>
 7    1  0.3861961E-015  0.9000762E+02  0.7816164E-02  0.1186339E+00
        -11   -1    0    0    0    0  0.00000000000E+00  0.00000000000E+00  0.45593999997E+02  0.45594000000E+02  0.51100000000E-03 0.  1.
         11   -1    0    0    0    0 -0.00000000000E+00 -0.00000000000E+00 -0.45593999997E+02  0.45594000000E+02  0.51100000000E-03 0. -1.
    9900012    2    1    2    0    0  0.43353523960E+00  0.98639545201E+00  0.48204523677E+00  0.90007620230E+02  0.89999880017E+02 0.  0.
        -12    1    1    2    0    0 -0.43353523960E+00 -0.98639545201E+00 -0.48204523677E+00  0.11803797703E+01  0.00000000000E+00 0.  1.
         11    1    3    3    0    0  0.30862879648E+02 -0.18159438485E+02 -0.16637867786E+02  0.39485455436E+02  0.51100000000E-03 0. -1.
        -11    1    3    3    0    0  0.16381916806E+01  0.89497141163E+01 -0.48747273342E+01  0.10322016353E+02  0.51100000000E-03 0.  1.
        -12    1    3    3    0    0 -0.32067536089E+02  0.10196119821E+02  0.21994640357E+02  0.40200148441E+02  0.00000000000E+00 0.  1.
</event>
<event>
 7    1  0.3861961E-015  0.9000745E+02  0.7816164E-02  0.1186340E+00
        -11   -1    0    0    0    0  0.00000000000E+00  0.00000000000E+00  0.45593999997E+02  0.45594000000E+02  0.51100000000E-03 0.  1.
         11   -1    0    0    0    0 -0.00000000000E+00 -0.00000000000E+00 -0.45593999997E+02  0.45594000000E+02  0.51100000000E-03 0. -1.
    9900012    2    1    2    0    0 -0.74788123717E+00  0.16470875871E+00 -0.89847130546E+00  0.90007446737E+02  0.89999704233E+02 0.  0.
        -12    1    1    2    0    0  0.74788123717E+00 -0.16470875871E+00  0.89847130546E+00  0.11805532630E+01  0.00000000000E+00 0.  1.
         11    1    3    3    0    0 -0.20599459347E+02 -0.27279068356E+02 -0.11195924546E+02  0.35969904399E+02  0.51100000000E-03 0. -1.
        -11    1    3    3    0    0 -0.19593340186E+01 -0.11317951142E+01 -0.11684138896E+02  0.11901220609E+02  0.51100000000E-03 0.  1.
        -12    1    3    3    0    0  0.21810912129E+02  0.28575572229E+02  0.21981592136E+02  0.42136321730E+02  0.00000000000E+00 0.  1.
</event>
<event>
 7    1  0.3861961E-015  0.9000766E+02  0.7816164E-02  0.1186339E+00
        -11   -1    0    0    0    0  0.00000000000E+00  0.00000000000E+00  0.45593999997E+02  0.45594000000E+02  0.51100000000E-03 0.  1.
         11   -1    0    0    0    0 -0.00000000000E+00 -0.00000000000E+00 -0.45593999997E+02  0.45594000000E+02  0.51100000000E-03 0. -1.
    9900012    2    1    2    0    0 -0.22882050305E+00  0.83720983209E+00 -0.79994685902E+00  0.90007663564E+02  0.89999923923E+02 0.  0.
        -12    1    1    2    0    0  0.22882050305E+00 -0.83720983209E+00  0.79994685902E+00  0.11803364363E+01  0.00000000000E+00 0.  1.
         11    1    3    3    0    0 -0.99767173292E+01 -0.15352669362E+00  0.21171152916E+01  0.10200031202E+02  0.51100000000E-03 0. -1.
        -11    1    3    3    0    0  0.13557149668E+01  0.17885721896E+02  0.33948504885E+02  0.38395806998E+02  0.51100000000E-03 0.  1.
         12    1    3    3    0    0  0.83921818594E+01 -0.16894985370E+02 -0.36865567036E+02  0.41411825363E+02  0.00000000000E+00 0. -1.
</event>
<event>
 7    1  0.3861961E-015  0.9000775E+02  0.7816164E-02  0.1186339E+00
        -11   -1    0    0    0    0  0.00000000000E+00  0.00000000000E+00  0.45593999997E+02  0.45594000000E+02  0.51100000000E-03 0.  1.
         11   -1    0    0    0    0 -0.00000000000E+00 -0.00000000000E+00 -0.45593999997E+02  0.45594000000E+02  0.51100000000E-03 0. -1.
    9900012    2    1    2    0    0  0.70138889226E+00 -0.93972958133E+00 -0.13398393091E+00  0.90007750129E+02  0.90000011631E+02 0.  0.
        -12    1    1    2    0    0 -0.70138889226E+00  0.93972958133E+00  0.13398393091E+00  0.11802498710E+01  0.00000000000E+00 0.  1.
         11    1    3    3    0    0  0.91420864366E+01  0.32947596277E+02 -0.23481680463E+02  0.41479044860E+02  0.51100000000E-03 0. -1.
        -11    1    3    3    0    0  0.56226460597E+01 -0.12676302186E+01  0.79339141326E+01  0.98065299066E+01  0.51100000000E-03 0.  1.
        -12    1    3    3    0    0 -0.14063343604E+02 -0.32619695640E+02  0.15413782400E+02  0.38722175363E+02  0.00000000000E+00 0.  1.
</event>
<event>
 7    1  0.3861961E-015  0.9000780E+02  0.7816164E-02  0.1186339E+00
        -11   -1    0    0    0    0  0.00000000000E+00  0.00000000000E+00  0.45593999997E+02  0.45594000000E+02  0.51100000000E-03 0.  1.
         11   -1    0    0    0    0 -0.00000000000E+00 -0.00000000000E+00 -0.45593999997E+02  0.45594000000E+02  0.51100000000E-03 0. -1.
    9900012    2    1    2    0    0 -0.52103023052E+00  0.10269454263E+01  0.25843376110E+00  0.90007797721E+02  0.90000059851E+02 0.  0.
        -12    1    1    2    0    0  0.52103023052E+00 -0.10269454263E+01 -0.25843376110E+00  0.11802022787E+01  0.00000000000E+00 0.  1.
         11    1    3    3    0    0  0.29922104251E+02 -0.12595903070E+02  0.10981269450E+02  0.34272107842E+02  0.51100000000E-03 0. -1.
        -11    1    3    3    0    0  0.55022002761E+01 -0.12614535714E+01  0.10128352377E+02  0.11595214320E+02  0.51100000000E-03 0.  1.
        -12    1    3    3    0    0 -0.35945334758E+02  0.14884302068E+02 -0.20851188065E+02  0.44140475559E+02  0.00000000000E+00 0.  1.
</event>
<event>
 7    1  0.3861961E-015  0.9000779E+02  0.7816164E-02  0.1186339E+00
        -11   -1    0    0    0    0  0.00000000000E+00  0.00000000000E+00  0.45593999997E+02  0.45594000000E+02  0.51100000000E-03 0.  1.
         11   -1    0    0    0    0 -0.00000000000E+00 -0.00000000000E+00 -0.45593999997E+02  0.45594000000E+02  0.51100000000E-03 0. -1.
    9900012    2    1    2    0    0 -0.93088661880E+00 -0.49924243750E+00 -0.52641041174E+00  0.90007787803E+02  0.90000049802E+02 0.  0.
        -12    1    1    2    0    0  0.93088661880E+00  0.49924243750E+00  0.52641041174E+00  0.11802121970E+01  0.00000000000E+00 0.  1.
         11    1    3    3    0    0 -0.47597645653E+00  0.13440728507E+02 -0.36190298275E+02  0.38608514940E+02  0.51100000000E-03 0. -1.
        -11    1    3    3    0    0 -0.35450274515E+01 -0.72693832362E+01 -0.53725330778E+01  0.97095450048E+01  0.51100000000E-03 0.  1.
        -12    1    3    3    0    0  0.30901172893E+01 -0.66705877087E+01  0.41036420941E+02  0.41689727858E+02  0.00000000000E+00 0.  1.
</event>
<event>
 7    1  0.3861961E-015  0.9000790E+02  0.7816164E-02  0.1186339E+00
        -11   -1    0    0    0    0  0.00000000000E+00  0.00000000000E+00  0.45593999997E+02  0.45594000000E+02  0.51100000000E-03 0.  1.
         11   -1    0    0    0    0 -0.00000000000E+00 -0.00000000000E+00 -0.45593999997E+02  0.45594000000E+02  0.51100000000E-03 0. -1.
    9900012    2    1    2    0    0 -0.97869151819E+00 -0.64985188953E+00 -0.11178411817E+00  0.90007898201E+02  0.90000161657E+02 0.  0.
        -12    1    1    2    0    0  0.97869151819E+00  0.64985188953E+00  0.11178411817E+00  0.11801017987E+01  0.00000000000E+00 0.  1.
         11    1    3    3    0    0 -0.23524961981E+00 -0.34365985795E+00 -0.31106169346E+02  0.31108957168E+02  0.51100000000E-03 0. -1.
        -11    1    3    3    0    0  0.13423328356E+02 -0.19153764207E+02  0.52155234419E+01  0.23963599739E+02  0.51100000000E-03 0.  1.
        -12    1    3    3    0    0 -0.14166770254E+02  0.18847572175E+02  0.25778861786E+02  0.34935341294E+02  0.00000000000E+00 0.  1.
</event>
<event>
 7    1  0.3861961E-015  0.9000770E+02  0.7816164E-02  0.1186339E+00
        -11   -1    0    0    0    0  0.00000000000E+00  0.00000000000E+00  0.45593999997E+02  0.45594000000E+02  0.51100000000E-03 0.  1.
         11   -1    0    0    0    0 -0.00000000000E+00 -0.00000000000E+00 -0.45593999997E+02  0.45594000000E+02  0.51100000000E-03 0. -1.
    9900012    2    1    2    0    0 -0.63243443703E+00  0.86239896957E+00  0.49940866593E+00  0.90007697363E+02  0.89999958168E+02 0.  0.
        -12    1    1    2    0    0  0.63243443703E+00 -0.86239896957E+00 -0.49940866593E+00  0.11803026372E+01  0.00000000000E+00 0.  1.
         11    1    3    3    0    0 -0.24815939068E+02  0.78137705435E+01  0.32250435941E+02  0.41436414669E+02  0.51100000000E-03 0. -1.
        -11    1    3    3    0    0 -0.44439025192E+01 -0.63342260677E+01 -0.40610561239E+01  0.87385849301E+01  0.51100000000E-03 0.  1.
        -12    1    3    3    0    0  0.28627407151E+02 -0.61714550622E+00 -0.27689971152E+02  0.39832697764E+02  0.00000000000E+00 0.  1.
</event>
<event>
 7    1  0.3861961E-015  0.9000774E+02  0.7816164E-02  0.1186339E+00
        -11   -1    0    0    0    0  0.00000000000E+00  0.00000000000E+00  0.45593999997E+02  0.45594000000E+02  0.51100000000E-03 0. -1.
         11   -1    0    0    0    0 -0.00000000000E+00 -0.00000000000E+00 -0.45593999997E+02  0.45594000000E+02  0.51100000000E-03 0.  1.
    9900012    2    1    2    0    0  0.27072685224E+00 -0.83647342250E+00  0.78741883783E+00  0.90007741875E+02  0.90000003268E+02 0.  0.
        -12    1    1    2    0    0 -0.27072685224E+00  0.83647342250E+00 -0.78741883783E+00  0.11802581248E+01  0.00000000000E+00 0.  1.
         11    1    3    3    0    0 -0.23126218924E+02 -0.29927426034E+02 -0.17559308902E+02  0.41698946751E+02  0.51100000000E-03 0. -1.
        -11    1    3    3    0    0  0.16453699482E+01 -0.23331962960E+01  0.83218340543E+01  0.87979525749E+01  0.51100000000E-03 0.  1.
        -12    1    3    3    0    0  0.21751575828E+02  0.31424148908E+02  0.10024893686E+02  0.39510842550E+02  0.00000000000E+00 0.  1.
</event>
<event>
 7    1  0.3861961E-015  0.9000775E+02  0.7816164E-02  0.1186339E+00
        -11   -1    0    0    0    0  0.00000000000E+00  0.00000000000E+00  0.45593999997E+02  0.45594000000E+02  0.51100000000E-03 0. -1.
         11   -1    0    0    0    0 -0.00000000000E+00 -0.00000000000E+00 -0.45593999997E+02  0.45594000000E+02  0.51100000000E-03 0.  1.
    9900012    2    1    2    0    0  0.71787431098E-01 -0.99117297859E+00  0.63671352741E+00  0.90007753659E+02  0.90000015208E+02 0.  0.
        -12    1    1    2    0    0 -0.71787431098E-01  0.99117297859E+00 -0.63671352741E+00  0.11802463407E+01  0.00000000000E+00 0.  1.
         11    1    3    3    0    0 -0.33376027537E+02 -0.15196834174E+02  0.99576972518E+01  0.38000772596E+02  0.51100000000E-03 0. -1.
        -11    1    3    3    0    0 -0.46699982743E+01 -0.26309614655E+01 -0.88346541214E+01  0.10333535495E+02  0.51100000000E-03 0.  1.
        -12    1    3    3    0    0  0.38117813243E+02  0.16836622661E+02 -0.48632960295E+00  0.41673445568E+02  0.00000000000E+00 0.  1.
</event>
<event>
 7    1  0.3861961E-015  0.9000777E+02  0.7816164E-02  0.1186339E+00
        -11   -1    0    0    0    0  0.00000000000E+00  0.00000000000E+00  0.45593999997E+02  0.45594000000E+02  0.51100000000E-03 0.  1.
         11   -1    0    0    0    0 -0.00000000000E+00 -0.00000000000E+00 -0.45593999997E+02  0.45594000000E+02  0.51100000000E-03 0. -1.
    9900012    2    1    2    0    0  0.11124580090E+01  0.35135184824E+00  0.17866946335E+00  0.90007773869E+02  0.90000035684E+02 0.  0.
        -12    1    1    2    0    0 -0.11124580090E+01 -0.35135184824E+00 -0.17866946335E+00  0.11802261310E+01  0.00000000000E+00 0.  1.
         11    1    3    3    0    0  0.31973476370E+01 -0.48654402371E+01  0.24381440665E+01  0.63119004556E+01  0.51100000000E-03 0. -1.
        -11    1    3    3    0    0  0.36540453301E+02  0.77526986801E+01  0.16315189960E+02  0.40761433831E+02  0.51100000000E-03 0.  1.
         12    1    3    3    0    0 -0.38625342929E+02 -0.25359065948E+01 -0.18574664564E+02  0.42934439582E+02  0.00000000000E+00 0. -1.
</event>
<event>
 7    1  0.3861961E-015  0.9000758E+02  0.7816164E-02  0.1186339E+00
        -11   -1    0    0    0    0  0.00000000000E+00  0.00000000000E+00  0.45593999997E+02  0.45594000000E+02  0.51100000000E-03 0.  1.
         11   -1    0    0    0    0 -0.00000000000E+00 -0.00000000000E+00 -0.45593999997E+02  0.45594000000E+02  0.51100000000E-03 0. -1.
    9900012    2    1    2    0    0 -0.24556455269E+00 -0.11247282564E+01 -0.26092068831E+00  0.90007578378E+02  0.89999837612E+02 0.  0.
        -12    1    1    2    0    0  0.24556455269E+00  0.11247282564E+01  0.26092068831E+00  0.11804216221E+01  0.00000000000E+00 0.  1.
         11    1    3    3    0    0 -0.22319708333E+02  0.31383824613E+02 -0.13510313624E+01  0.38534907726E+02  0.51100000000E-03 0. -1.
        -11    1    3    3    0    0  0.30305844046E+01  0.42205105954E+01 -0.75912944933E+01  0.91991795212E+01  0.51100000000E-03 0.  1.
        -12    1    3    3    0    0  0.19043559376E+02 -0.36729063465E+02  0.86814051674E+01  0.42273491131E+02  0.00000000000E+00 0.  1.
</event>
<event>
 7    1  0.3861961E-015  0.9000797E+02  0.7816164E-02  0.1186339E+00
        -11   -1    0    0    0    0  0.00000000000E+00  0.00000000000E+00  0.45593999997E+02  0.45594000000E+02  0.51100000000E-03 0.  1.
         11   -1    0    0    0    0 -0.00000000000E+00 -0.00000000000E+00 -0.45593999997E+02  0.45594000000E+02  0.51100000000E-03 0. -1.
    9900012    2    1    2    0    0  0.88602855951E+00 -0.61223163523E+00  0.48228637440E+00  0.90007968504E+02  0.90000232888E+02 0.  0.
        -12    1    1    2    0    0 -0.88602855951E+00  0.61223163523E+00 -0.48228637440E+00  0.11800314955E+01  0.00000000000E+00 0.  1.
         11    1    3    3    0    0 -0.23471682341E+02  0.23610075634E+02 -0.20302743628E+02  0.38994319361E+02  0.51100000000E-03 0. -1.
        -11    1    3    3    0    0  0.19437529384E+01  0.68495431105E+01  0.77988628991E+01  0.10560145789E+02  0.51100000000E-03 0.  1.
        -12    1    3    3    0    0  0.22413957962E+02 -0.31071850380E+02  0.12986167103E+02  0.40453503354E+02  0.00000000000E+00 0.  1.
</event>
<event>
 7    1  0.3861961E-015  0.9000771E+02  0.7816164E-02  0.1186339E+00
        -11   -1    0    0    0    0  0.00000000000E+00  0.00000000000E+00  0.45593999997E+02  0.45594000000E+02  0.51100000000E-03 0. -1.
         11   -1    0    0    0    0 -0.00000000000E+00 -0.00000000000E+00 -0.45593999997E+02  0.45594000000E+02  0.51100000000E-03 0.  1.
    9900012    2    1    2    0    0 -0.65704881894E+00 -0.69747424092E+00  0.68913528516E+00  0.90007707278E+02  0.89999968215E+02 0.  0.
        -12    1    1    2    0    0  0.65704881894E+00  0.69747424092E+00 -0.68913528516E+00  0.11802927215E+01  0.00000000000E+00 0.  1.
         11    1    3    3    0    0 -0.54661513782E+01 -0.50369769411E+00 -0.52076054496E+01  0.75664837960E+01  0.51100000000E-03 0. -1.
        -11    1    3    3    0    0 -0.22822897572E+02 -0.25244152399E+02 -0.17647077018E+02  0.38334986781E+02  0.51100000000E-03 0.  1.
         12    1    3    3    0    0  0.27632000131E+02  0.25050375853E+02  0.23543817753E+02  0.44106236702E+02  0.00000000000E+00 0. -1.
</event>
<event>
 7    1  0.3861961E-015  0.9000824E+02  0.7816164E-02  0.1186338E+00
        -11   -1    0    0    0    0  0.00000000000E+00  0.00000000000E+00  0.45593999997E+02  0.45594000000E+02  0.51100000000E-03 0.  1.
         11   -1    0    0    0    0 -0.00000000000E+00 -0.00000000000E+00 -0.45593999997E+02  0.45594000000E+02  0.51100000000E-03 0. -1.
    9900012    2    1    2    0    0 -0.56870729231E+00  0.10237746059E+01 -0.14245923956E+00  0.90008238557E+02  0.90000506504E+02 0.  0.
        -12    1    1    2    0    0  0.56870729231E+00 -0.10237746059E+01  0.14245923956E+00  0.11797614432E+01  0.00000000000E+00 0.  1.
         11    1    3    3    0    0  0.23473754871E+02 -0.28594851387E+02 -0.19205132690E+02  0.41683567692E+02  0.51100000000E-03 0. -1.
        -11    1    3    3    0    0  0.37045100395E+01  0.83208660265E+01  0.63692518536E+01  0.11114295997E+02  0.51100000000E-03 0.  1.
        -12    1    3    3    0    0 -0.27746972203E+02  0.21297759967E+02  0.12693421597E+02  0.37210374868E+02  0.00000000000E+00 0.  1.
</event>
<event>
 7    1  0.3861961E-015  0.9000778E+02  0.7816164E-02  0.1186339E+00
        -11   -1    0    0    0    0  0.00000000000E+00  0.00000000000E+00  0.45593999997E+02  0.45594000000E+02  0.51100000000E-03 0. -1.
         11   -1    0    0    0    0 -0.00000000000E+00 -0.00000000000E+00 -0.45593999997E+02  0.45594000000E+02  0.51100000000E-03 0.  1.
    9900012    2    1    2    0    0 -0.13301438032E-01 -0.11397287410E+01  0.30618617682E+00  0.90007784551E+02  0.90000046507E+02 0.  0.
        -12    1    1    2    0    0  0.13301438032E-01  0.11397287410E+01 -0.30618617682E+00  0.11802154491E+01  0.00000000000E+00 0.  1.
         11    1    3    3    0    0  0.60119382354E+01  0.17316162925E+02  0.33117919227E+02  0.37852205668E+02  0.51100000000E-03 0. -1.
        -11    1    3    3    0    0  0.96180191303E+01 -0.31844252563E+01  0.26720451782E+01  0.10477914005E+02  0.51100000000E-03 0.  1.
        -12    1    3    3    0    0 -0.15643258804E+02 -0.15271466410E+02 -0.35483778228E+02  0.41677664877E+02  0.00000000000E+00 0.  1.
</event>
<event>
 7    1  0.3861961E-015  0.9000785E+02  0.7816164E-02  0.1186339E+00
        -11   -1    0    0    0    0  0.00000000000E+00  0.00000000000E+00  0.45593999997E+02  0.45594000000E+02  0.51100000000E-03 0. -1.
         11   -1    0    0    0    0 -0.00000000000E+00 -0.00000000000E+00 -0.45593999997E+02  0.45594000000E+02  0.51100000000E-03 0.  1.
    9900012    2    1    2    0    0 -0.33592940717E-01 -0.10548431463E+01  0.52813939416E+00  0.90007850108E+02  0.90000112929E+02 0.  0.
        -12    1    1    2    0    0  0.33592940717E-01  0.10548431463E+01 -0.52813939416E+00  0.11801498924E+01  0.00000000000E+00 0.  1.
         11    1    3    3    0    0 -0.51176280512E+01  0.52242661739E+01  0.87029573742E+01  0.11367697271E+02  0.51100000000E-03 0. -1.
        -11    1    3    3    0    0  0.64461838709E+01  0.32832510048E+02  0.10784190333E+02  0.35154313589E+02  0.51100000000E-03 0.  1.
         12    1    3    3    0    0 -0.13621487605E+01 -0.39111619368E+02 -0.18959008313E+02  0.43485839247E+02  0.00000000000E+00 0. -1.
</event>
<event>
 7    1  0.3861961E-015  0.9000781E+02  0.7816164E-02  0.1186339E+00
        -11   -1    0    0    0    0  0.00000000000E+00  0.00000000000E+00  0.45593999997E+02  0.45594000000E+02  0.51100000000E-03 0. -1.
         11   -1    0    0    0    0 -0.00000000000E+00 -0.00000000000E+00 -0.45593999997E+02  0.45594000000E+02  0.51100000000E-03 0.  1.
    9900012    2    1    2    0    0 -0.26312009964E+00  0.26412368505E+00  0.11197533456E+01  0.90007813124E+02  0.90000075457E+02 0.  0.
        -12    1    1    2    0    0  0.26312009964E+00 -0.26412368505E+00 -0.11197533456E+01  0.11801868762E+01  0.00000000000E+00 0.  1.
         11    1    3    3    0    0  0.34349059305E+02  0.17939911614E+02 -0.11539939095E+02  0.40433507125E+02  0.51100000000E-03 0. -1.
        -11    1    3    3    0    0  0.21385217486E+01  0.44869265573E+01  0.19714186771E+01  0.53471746802E+01  0.51100000000E-03 0.  1.
        -12    1    3    3    0    0 -0.36750701153E+02 -0.22162714486E+02  0.10688273763E+02  0.44227131319E+02  0.00000000000E+00 0.  1.
</event>
<event>
 7    1  0.3861961E-015  0.9000772E+02  0.7816164E-02  0.1186339E+00
        -11   -1    0    0    0    0  0.00000000000E+00  0.00000000000E+00  0.45593999997E+02  0.45594000000E+02  0.51100000000E-03 0.  1.
         11   -1    0    0    0    0 -0.00000000000E+00 -0.00000000000E+00 -0.45593999997E+02  0.45594000000E+02  0.51100000000E-03 0. -1.
    9900012    2    1    2    0    0 -0.34778281544E+00  0.55237655986E+00 -0.98335657178E+00  0.90007719144E+02  0.89999980237E+02 0.  0.
        -12    1    1    2    0    0  0.34778281544E+00 -0.55237655986E+00  0.98335657178E+00  0.11802808555E+01  0.00000000000E+00 0.  1.
         11    1    3    3    0    0 -0.57935732921E+01  0.82032845019E+01  0.74467355173E+01  0.12502529274E+02  0.51100000000E-03 0. -1.
        -11    1    3    3    0    0  0.35557004853E+02  0.15065915501E+02 -0.95086642557E+01  0.39770555694E+02  0.51100000000E-03 0.  1.
         12    1    3    3    0    0 -0.30111214376E+02 -0.22716823443E+02  0.10785721666E+01  0.37734634177E+02  0.00000000000E+00 0. -1.
</event>
<event>
 7    1  0.3861961E-015  0.9000778E+02  0.7816164E-02  0.1186339E+00
        -11   -1    0    0    0    0  0.00000000000E+00  0.00000000000E+00  0.45593999997E+02  0.45594000000E+02  0.51100000000E-03 0.  1.
         11   -1    0    0    0    0 -0.00000000000E+00 -0.00000000000E+00 -0.45593999997E+02  0.45594000000E+02  0.51100000000E-03 0. -1.
    9900012    2    1    2    0    0  0.17217710749E-01 -0.55003912198E+00 -0.10440661943E+01  0.90007782349E+02  0.90000044276E+02 0.  0.
        -12    1    1    2    0    0 -0.17217710749E-01  0.55003912198E+00  0.10440661943E+01  0.11802176508E+01  0.00000000000E+00 0.  1.
         11    1    3    3    0    0 -0.55465017533E+01  0.78328710073E+01  0.46533952870E+01  0.10666378855E+02  0.51100000000E-03 0. -1.
        -11    1    3    3    0    0 -0.33437528829E+02 -0.14963117696E+02  0.79780141416E+01  0.37491491505E+02  0.51100000000E-03 0.  1.
         12    1    3    3    0    0  0.39001248293E+02  0.65802075671E+01 -0.13675475623E+02  0.41849911989E+02  0.00000000000E+00 0. -1.
</event>
<event>
 7    1  0.3861961E-015  0.9000777E+02  0.7816164E-02  0.1186339E+00
        -11   -1    0    0    0    0  0.00000000000E+00  0.00000000000E+00  0.45593999997E+02  0.45594000000E+02  0.51100000000E-03 0. -1.
         11   -1    0    0    0    0 -0.00000000000E+00 -0.00000000000E+00 -0.45593999997E+02  0.45594000000E+02  0.51100000000E-03 0.  1.
    9900012    2    1    2    0    0 -0.11380747482E+01  0.17989686838E+00 -0.25565946814E+00  0.90007771726E+02  0.90000033512E+02 0.  0.
        -12    1    1    2    0    0  0.11380747482E+01 -0.17989686838E+00  0.25565946814E+00  0.11802282743E+01  0.00000000000E+00 0.  1.
         11    1    3    3    0    0 -0.23738153743E+01  0.88336158760E+01  0.10507046660E+01  0.92071575110E+01  0.51100000000E-03 0. -1.
        -11    1    3    3    0    0  0.39495218280E+02  0.55098731061E+01 -0.28037890230E+01  0.39976145409E+02  0.51100000000E-03 0.  1.
         12    1    3    3    0    0 -0.38259477654E+02 -0.14163592114E+02  0.14974248888E+01  0.40824468805E+02  0.00000000000E+00 0. -1.
</event>
<event>
 7    1  0.3861961E-015  0.9000777E+02  0.7816164E-02  0.1186339E+00
        -11   -1    0    0    0    0  0.00000000000E+00  0.00000000000E+00  0.45593999997E+02  0.45594000000E+02  0.51100000000E-03 0. -1.
         11   -1    0    0    0    0 -0.00000000000E+00 -0.00000000000E+00 -0.45593999997E+02  0.45594000000E+02  0.51100000000E-03 0.  1.
    9900012    2    1    2    0    0 -0.90028981777E+00  0.10669890157E+00  0.75566486348E+00  0.90007772989E+02  0.90000034792E+02 0.  0.
        -12    1    1    2    0    0  0.90028981777E+00 -0.10669890157E+00 -0.75566486348E+00  0.11802270110E+01  0.00000000000E+00 0.  1.
         11    1    3    3    0    0  0.30793908671E+02  0.17455085310E+02  0.14766277806E+02  0.38353458448E+02  0.51100000000E-03 0. -1.
        -11    1    3    3    0    0  0.12583888987E+01 -0.54753259708E+01  0.83755762523E+01  0.10085287052E+02  0.51100000000E-03 0.  1.
        -12    1    3    3    0    0 -0.32952587388E+02 -0.11873060438E+02 -0.22386189194E+02  0.41569027489E+02  0.00000000000E+00 0.  1.
</event>
<event>
 7    1  0.3861961E-015  0.9000760E+02  0.7816164E-02  0.1186339E+00
        -11   -1    0    0    0    0  0.00000000000E+00  0.00000000000E+00  0.45593999997E+02  0.45594000000E+02  0.51100000000E-03 0. -1.
         11   -1    0    0    0    0 -0.00000000000E+00 -0.00000000000E+00 -0.45593999997E+02  0.45594000000E+02  0.51100000000E-03 0.  1.
    9900012    2    1    2    0    0  0.51738332505E+00 -0.10582217928E+01  0.76301700422E-01  0.90007601416E+02  0.89999860955E+02 0.  0.
        -12    1    1    2    0    0 -0.51738332505E+00  0.10582217928E+01 -0.76301700422E-01  0.11803985841E+01  0.00000000000E+00 0.  1.
         11    1    3    3    0    0 -0.36643197347E+02 -0.17712387432E+02  0.97674223799E+01  0.41855168386E+02  0.51100000000E-03 0. -1.
        -11    1    3    3    0    0  0.44792330419E+01  0.11863153970E+01  0.69473816452E+01  0.83508673112E+01  0.51100000000E-03 0.  1.
        -12    1    3    3    0    0  0.32681347631E+02  0.15467850242E+02 -0.16638502325E+02  0.39801565719E+02  0.00000000000E+00 0.  1.
</event>
<event>
 7    1  0.3861961E-015  0.9000771E+02  0.7816164E-02  0.1186339E+00
        -11   -1    0    0    0    0  0.00000000000E+00  0.00000000000E+00  0.45593999997E+02  0.45594000000E+02  0.51100000000E-03 0. -1.
         11   -1    0    0    0    0 -0.00000000000E+00 -0.00000000000E+00 -0.45593999997E+02  0.45594000000E+02  0.51100000000E-03 0.  1.
    9900012    2    1    2    0    0  0.11657811658E+01 -0.17920676885E+00 -0.43765287008E-01  0.90007713512E+02  0.89999974531E+02 0.  0.
        -12    1    1    2    0    0 -0.11657811658E+01  0.17920676885E+00  0.43765287008E-01  0.11802864876E+01  0.00000000000E+00 0.  1.
         11    1    3    3    0    0  0.32234943770E+01 -0.33484825150E+02  0.41574124077E+01  0.33895552946E+02  0.51100000000E-03 0. -1.
        -11    1    3    3    0    0 -0.64736059237E+01 -0.79124772751E+01  0.79090571222E+01  0.12925480846E+02  0.51100000000E-03 0.  1.
        -12    1    3    3    0    0  0.44158927125E+01  0.41218095656E+02 -0.12110234817E+02  0.43186679720E+02  0.00000000000E+00 0.  1.
</event>
<event>
 7    1  0.3861961E-015  0.9000789E+02  0.7816164E-02  0.1186339E+00
        -11   -1    0    0    0    0  0.00000000000E+00  0.00000000000E+00  0.45593999997E+02  0.45594000000E+02  0.51100000000E-03 0. -1.
         11   -1    0    0    0    0 -0.00000000000E+00 -0.00000000000E+00 -0.45593999997E+02  0.45594000000E+02  0.51100000000E-03 0.  1.
    9900012    2    1    2    0    0  0.11230698591E+01  0.79825370907E-01  0.35355711676E+00  0.90007889567E+02  0.90000152910E+02 0.  0.
        -12    1    1    2    0    0 -0.11230698591E+01 -0.79825370907E-01 -0.35355711676E+00  0.11801104326E+01  0.00000000000E+00 0.  1.
         11    1    3    3    0    0 -0.15620118123E+02  0.11722555356E+02  0.33537005970E+02  0.38808983031E+02  0.51100000000E-03 0. -1.
        -11    1    3    3    0    0 -0.76533570251E+01 -0.10699128111E+01  0.11079366876E+01  0.78067990330E+01  0.51100000000E-03 0.  1.
        -12    1    3    3    0    0  0.24396545007E+02 -0.10572817174E+02 -0.34291385541E+02  0.43392107503E+02  0.00000000000E+00 0.  1.
</event>
<event>
 7    1  0.3861961E-015  0.9000765E+02  0.7816164E-02  0.1186339E+00
        -11   -1    0    0    0    0  0.00000000000E+00  0.00000000000E+00  0.45593999997E+02  0.45594000000E+02  0.51100000000E-03 0.  1.
         11   -1    0    0    0    0 -0.00000000000E+00 -0.00000000000E+00 -0.45593999997E+02  0.45594000000E+02  0.51100000000E-03 0. -1.
    9900012    2    1    2    0    0 -0.11597714416E+01  0.21912656303E+00 -0.12098251320E-01  0.90007647250E+02  0.89999907393E+02 0.  0.
        -12    1    1    2    0    0  0.11597714416E+01 -0.21912656303E+00  0.12098251320E-01  0.11803527503E+01  0.00000000000E+00 0.  1.
         11    1    3    3    0    0 -0.13266100266E+02  0.24013981310E+00 -0.37459295534E+01  0.13786916693E+02  0.51100000000E-03 0. -1.
        -11    1    3    3    0    0 -0.25773633773E+02 -0.20432427163E+02  0.44209879845E+01  0.33185982171E+02  0.51100000000E-03 0.  1.
         12    1    3    3    0    0  0.37879962598E+02  0.20411413913E+02 -0.68715668250E+00  0.43034748386E+02  0.00000000000E+00 0. -1.
</event>
<event>
 7    1  0.3861961E-015  0.9000776E+02  0.7816164E-02  0.1186339E+00
        -11   -1    0    0    0    0  0.00000000000E+00  0.00000000000E+00  0.45593999997E+02  0.45594000000E+02  0.51100000000E-03 0.  1.
         11   -1    0    0    0    0 -0.00000000000E+00 -0.00000000000E+00 -0.45593999997E+02  0.45594000000E+02  0.51100000000E-03 0. -1.
    9900012    2    1    2    0    0 -0.85389365810E+00 -0.11613634157E-01 -0.81467359997E+00  0.90007761748E+02  0.90000023404E+02 0.  0.
        -12    1    1    2    0    0  0.85389365810E+00  0.11613634157E-01  0.81467359997E+00  0.11802382515E+01  0.00000000000E+00 0.  1.
         11    1    3    3    0    0  0.21802679006E+01 -0.13317382017E+01 -0.10182687074E+02  0.10498295627E+02  0.51100000000E-03 0. -1.
        -11    1    3    3    0    0  0.16187925012E+02 -0.28883207220E+02 -0.14848358931E+02  0.36287220047E+02  0.51100000000E-03 0.  1.
         12    1    3    3    0    0 -0.19222086571E+02  0.30203331788E+02  0.24216372405E+02  0.43222246074E+02  0.00000000000E+00 0. -1.
</event>
<event>
 7    1  0.3861961E-015  0.9000808E+02  0.7816164E-02  0.1186338E+00
        -11   -1    0    0    0    0  0.00000000000E+00  0.00000000000E+00  0.45593999997E+02  0.45594000000E+02  0.51100000000E-03 0.  1.
         11   -1    0    0    0    0 -0.00000000000E+00 -0.00000000000E+00 -0.45593999997E+02  0.45594000000E+02  0.51100000000E-03 0. -1.
    9900012    2    1    2    0    0  0.37643195800E+00  0.37748849495E+00 -0.10526218248E+01  0.90008079965E+02  0.90000345820E+02 0.  0.
        -12    1    1    2    0    0 -0.37643195800E+00 -0.37748849495E+00  0.10526218248E+01  0.11799200350E+01  0.00000000000E+00 0.  1.
         11    1    3    3    0    0  0.51610174851E+01  0.20880930694E+00 -0.31923773458E+02  0.32338939606E+02  0.51100000000E-03 0. -1.
        -11    1    3    3    0    0  0.47700211843E+01 -0.68886244495E+01 -0.11180658252E+02  0.13971877759E+02  0.51100000000E-03 0.  1.
        -12    1    3    3    0    0 -0.95546067114E+01  0.70573036375E+01  0.42051809885E+02  0.43697262599E+02  0.00000000000E+00 0.  1.
</event>
<event>
 7    1  0.3861961E-015  0.9000800E+02  0.7816164E-02  0.1186339E+00
        -11   -1    0    0    0    0  0.00000000000E+00  0.00000000000E+00  0.45593999997E+02  0.45594000000E+02  0.51100000000E-03 0.  1.
         11   -1    0    0    0    0 -0.00000000000E+00 -0.00000000000E+00 -0.45593999997E+02  0.45594000000E+02  0.51100000000E-03 0. -1.
    9900012    2    1    2    0    0  0.26647945305E+00 -0.78598404425E+00 -0.83882283317E+00  0.90007997474E+02  0.90000262240E+02 0.  0.
        -12    1    1    2    0    0 -0.26647945305E+00  0.78598404425E+00  0.83882283317E+00  0.11800025263E+01  0.00000000000E+00 0.  1.
         11    1    3    3    0    0 -0.11525854675E+02  0.11499650028E+02 -0.87562039794E+01  0.18486708337E+02  0.51100000000E-03 0. -1.
        -11    1    3    3    0    0  0.52037339959E+01  0.14023749917E+02  0.31953570451E+02  0.35281370070E+02  0.51100000000E-03 0.  1.
         12    1    3    3    0    0  0.65886001322E+01 -0.26309383990E+02 -0.24036189304E+02  0.36239919066E+02  0.00000000000E+00 0. -1.
</event>
<event>
 7    1  0.3861961E-015  0.9000783E+02  0.7816164E-02  0.1186339E+00
        -11   -1    0    0    0    0  0.00000000000E+00  0.00000000000E+00  0.45593999997E+02  0.45594000000E+02  0.51100000000E-03 0.  1.
         11   -1    0    0    0    0 -0.00000000000E+00 -0.00000000000E+00 -0.45593999997E+02  0.45594000000E+02  0.51100000000E-03 0. -1.
    9900012    2    1    2    0    0 -0.85002557694E+00 -0.73964121749E+00 -0.35099541842E+00  0.90007826116E+02  0.90000088621E+02 0.  0.
        -12    1    1    2    0    0  0.85002557694E+00  0.73964121749E+00  0.35099541842E+00  0.11801738837E+01  0.00000000000E+00 0.  1.
         11    1    3    3    0    0  0.20148556450E+02 -0.63991878412E+01  0.48483943173E+01  0.21689187623E+02  0.51100000000E-03 0. -1.
        -11    1    3    3    0    0  0.75756593172E+01  0.28553728662E+02  0.57623452017E+01  0.30098349740E+02  0.51100000000E-03 0.  1.
         12    1    3    3    0    0 -0.28574241344E+02 -0.22894182038E+02 -0.10961734937E+02  0.38220288753E+02  0.00000000000E+00 0. -1.
</event>
<event>
 7    1  0.3861961E-015  0.9000774E+02  0.7816164E-02  0.1186339E+00
        -11   -1    0    0    0    0  0.00000000000E+00  0.00000000000E+00  0.45593999997E+02  0.45594000000E+02  0.51100000000E-03 0.  1.
         11   -1    0    0    0    0 -0.00000000000E+00 -0.00000000000E+00 -0.45593999997E+02  0.45594000000E+02  0.51100000000E-03 0. -1.
    9900012    2    1    2    0    0  0.24973473702E+00 -0.88917116330E-02 -0.11535039281E+01  0.90007738244E+02  0.89999999588E+02 0.  0.
        -12    1    1    2    0    0 -0.24973473702E+00  0.88917116330E-02  0.11535039281E+01  0.11802617564E+01  0.00000000000E+00 0.  1.
         11    1    3    3    0    0  0.30963848189E+02  0.14552163337E+02 -0.14482507432E+02  0.37151963262E+02  0.51100000000E-03 0. -1.
        -11    1    3    3    0    0 -0.42705207027E+00 -0.49480272437E+01 -0.11502002374E+02  0.12528423921E+02  0.51100000000E-03 0.  1.
        -12    1    3    3    0    0 -0.30287061382E+02 -0.96130278048E+01  0.24831005877E+02  0.40327351061E+02  0.00000000000E+00 0.  1.
</event>
<event>
 7    1  0.3861961E-015  0.9000778E+02  0.7816164E-02  0.1186339E+00
        -11   -1    0    0    0    0  0.00000000000E+00  0.00000000000E+00  0.45593999997E+02  0.45594000000E+02  0.51100000000E-03 0. -1.
         11   -1    0    0    0    0 -0.00000000000E+00 -0.00000000000E+00 -0.45593999997E+02  0.45594000000E+02  0.51100000000E-03 0.  1.
    9900012    2    1    2    0    0 -0.11462113457E+01 -0.15612251064E+00  0.23395884705E+00  0.90007783312E+02  0.90000045252E+02 0.  0.
        -12    1    1    2    0    0  0.11462113457E+01  0.15612251064E+00 -0.23395884705E+00  0.11802166875E+01  0.00000000000E+00 0.  1.
         11    1    3    3    0    0  0.97885057848E+00  0.38232078642E+01 -0.69825343109E+01  0.80206516251E+01  0.51100000000E-03 0. -1.
        -11    1    3    3    0    0 -0.54137508705E+01  0.38335988344E+02  0.80123501005E+01  0.39536748161E+02  0.51100000000E-03 0.  1.
         12    1    3    3    0    0  0.32886889463E+01 -0.42315318719E+02 -0.79585694256E+00  0.42450383526E+02  0.00000000000E+00 0. -1.
</event>
<event>
 7    1  0.3861961E-015  0.9000776E+02  0.7816164E-02  0.1186339E+00
        -11   -1    0    0    0    0  0.00000000000E+00  0.00000000000E+00  0.45593999997E+02  0.45594000000E+02  0.51100000000E-03 0.  1.
         11   -1    0    0    0    0 -0.00000000000E+00 -0.00000000000E+00 -0.45593999997E+02  0.45594000000E+02  0.51100000000E-03 0. -1.
    9900012    2    1    2    0    0 -0.10373276226E+01  0.13178116768E+00 -0.54731775867E+00  0.90007757821E+02  0.90000019424E+02 0.  0.
        -12    1    1    2    0    0  0.10373276226E+01 -0.13178116768E+00  0.54731775867E+00  0.11802421793E+01  0.00000000000E+00 0.  1.
         11    1    3    3    0    0  0.81805767236E+00 -0.74710174406E+01  0.58810280859E+01  0.95431552204E+01  0.51100000000E-03 0. -1.
        -11    1    3    3    0    0 -0.24790145888E+02  0.51870342644E+01  0.28804285446E+02  0.38355488759E+02  0.51100000000E-03 0.  1.
         12    1    3    3    0    0  0.22934760593E+02  0.24157643438E+01 -0.35232631291E+02  0.42109113841E+02  0.00000000000E+00 0. -1.
</event>
<event>
 7    1  0.3861961E-015  0.9000772E+02  0.7816164E-02  0.1186339E+00
        -11   -1    0    0    0    0  0.00000000000E+00  0.00000000000E+00  0.45593999997E+02  0.45594000000E+02  0.51100000000E-03 0. -1.
         11   -1    0    0    0    0 -0.00000000000E+00 -0.00000000000E+00 -0.45593999997E+02  0.45594000000E+02  0.51100000000E-03 0.  1.
    9900012    2    1    2    0    0 -0.11630231172E+01 -0.55751407820E-01 -0.19318406306E+00  0.90007724154E+02  0.89999985313E+02 0.  0.
        -12    1    1    2    0    0  0.11630231172E+01  0.55751407820E-01  0.19318406306E+00  0.11802758461E+01  0.00000000000E+00 0.  1.
         11    1    3    3    0    0 -0.19066118260E+02 -0.15659703286E+02  0.31199333044E+02  0.39776143040E+02  0.51100000000E-03 0. -1.
        -11    1    3    3    0    0  0.10286721819E+01  0.63434494977E+01  0.56044884617E+01  0.85268874254E+01  0.51100000000E-03 0.  1.
        -12    1    3    3    0    0  0.16874422961E+02  0.92605023800E+01 -0.36997005569E+02  0.41704693688E+02  0.00000000000E+00 0.  1.
</event>
<event>
 7    1  0.3861961E-015  0.9000779E+02  0.7816164E-02  0.1186339E+00
        -11   -1    0    0    0    0  0.00000000000E+00  0.00000000000E+00  0.45593999997E+02  0.45594000000E+02  0.51100000000E-03 0. -1.
         11   -1    0    0    0    0 -0.00000000000E+00 -0.00000000000E+00 -0.45593999997E+02  0.45594000000E+02  0.51100000000E-03 0.  1.
    9900012    2    1    2    0    0 -0.87525241177E+00  0.35980844185E+00  0.70525052940E+00  0.90007785101E+02  0.90000047064E+02 0.  0.
        -12    1    1    2    0    0  0.87525241177E+00 -0.35980844185E+00 -0.70525052940E+00  0.11802148992E+01  0.00000000000E+00 0.  1.
         11    1    3    3    0    0  0.42127193443E+01 -0.72156436347E+01  0.17901041464E+01  0.85449979785E+01  0.51100000000E-03 0. -1.
        -11    1    3    3    0    0 -0.27550592062E+02 -0.13424981529E+02 -0.27308575303E+02  0.41049038203E+02  0.51100000000E-03 0.  1.
         12    1    3    3    0    0  0.22462620306E+02  0.21000433606E+02  0.26223721686E+02  0.40413748919E+02  0.00000000000E+00 0. -1.
</event>
<event>
 7    1  0.3861961E-015  0.9000772E+02  0.7816164E-02  0.1186339E+00
        -11   -1    0    0    0    0  0.00000000000E+00  0.00000000000E+00  0.45593999997E+02  0.45594000000E+02  0.51100000000E-03 0. -1.
         11   -1    0    0    0    0 -0.00000000000E+00 -0.00000000000E+00 -0.45593999997E+02  0.45594000000E+02  0.51100000000E-03 0.  1.
    9900012    2    1    2    0    0 -0.51480396963E-01  0.11786565138E+01  0.34416656513E-01  0.90007717866E+02  0.89999978942E+02 0.  0.
        -12    1    1    2    0    0  0.51480396963E-01 -0.11786565138E+01 -0.34416656513E-01  0.11802821336E+01  0.00000000000E+00 0.  1.
         11    1    3    3    0    0  0.64916204893E+01 -0.33508489114E+01 -0.80576234646E+01  0.10876333075E+02  0.51100000000E-03 0. -1.
        -11    1    3    3    0    0 -0.38012921077E+01 -0.33523015680E+02  0.19931270939E+02  0.39185430500E+02  0.51100000000E-03 0.  1.
         12    1    3    3    0    0 -0.27418087786E+01  0.38052521105E+02 -0.11839230818E+02  0.39945954291E+02  0.00000000000E+00 0. -1.
</event>
<event>
 7    1  0.3861961E-015  0.9000775E+02  0.7816164E-02  0.1186339E+00
        -11   -1    0    0    0    0  0.00000000000E+00  0.00000000000E+00  0.45593999997E+02  0.45594000000E+02  0.51100000000E-03 0. -1.
         11   -1    0    0    0    0 -0.00000000000E+00 -0.00000000000E+00 -0.45593999997E+02  0.45594000000E+02  0.51100000000E-03 0.  1.
    9900012    2    1    2    0    0 -0.94456176294E+00 -0.63932611607E+00 -0.30342331823E+00  0.90007745571E+02  0.90000007013E+02 0.  0.
        -12    1    1    2    0    0  0.94456176294E+00  0.63932611607E+00  0.30342331823E+00  0.11802544288E+01  0.00000000000E+00 0.  1.
         11    1    3    3    0    0  0.31695284210E+01 -0.18159238259E+02  0.23412509348E+02  0.29798480478E+02  0.51100000000E-03 0. -1.
        -11    1    3    3    0    0 -0.45355431210E+01 -0.37763534190E+00  0.16005428462E+02  0.16639936910E+02  0.51100000000E-03 0.  1.
        -12    1    3    3    0    0  0.42145293704E+00  0.17897547484E+02 -0.39721361128E+02  0.43569328184E+02  0.00000000000E+00 0.  1.
</event>
<event>
 7    1  0.3861961E-015  0.9000770E+02  0.7816164E-02  0.1186339E+00
        -11   -1    0    0    0    0  0.00000000000E+00  0.00000000000E+00  0.45593999997E+02  0.45594000000E+02  0.51100000000E-03 0.  1.
         11   -1    0    0    0    0 -0.00000000000E+00 -0.00000000000E+00 -0.45593999997E+02  0.45594000000E+02  0.51100000000E-03 0. -1.
    9900012    2    1    2    0    0 -0.35267849208E-01 -0.11726520524E+01 -0.12938481380E+00  0.90007704661E+02  0.89999965563E+02 0.  0.
        -12    1    1    2    0    0  0.35267849208E-01  0.11726520524E+01  0.12938481380E+00  0.11802953390E+01  0.00000000000E+00 0.  1.
         11    1    3    3    0    0  0.27046627057E+02 -0.52839984023E+01  0.28914841135E+02  0.39943819451E+02  0.51100000000E-03 0. -1.
        -11    1    3    3    0    0 -0.62010473075E+01 -0.47213646286E+01  0.49279191246E+01  0.92210985694E+01  0.51100000000E-03 0.  1.
        -12    1    3    3    0    0 -0.20880847598E+02  0.88327109785E+01 -0.33972145073E+02  0.40842786640E+02  0.00000000000E+00 0.  1.
</event>
<event>
 7    1  0.3861961E-015  0.9000774E+02  0.7816164E-02  0.1186339E+00
        -11   -1    0    0    0    0  0.00000000000E+00  0.00000000000E+00  0.45593999997E+02  0.45594000000E+02  0.51100000000E-03 0.  1.
         11   -1    0    0    0    0 -0.00000000000E+00 -0.00000000000E+00 -0.45593999997E+02  0.45594000000E+02  0.51100000000E-03 0. -1.
    9900012    2    1    2    0    0  0.31294660174E+00 -0.90662674082E+00 -0.68782507679E+00  0.90007741147E+02  0.90000002531E+02 0.  0.
        -12    1    1    2    0    0 -0.31294660174E+00  0.90662674082E+00  0.68782507679E+00  0.11802588525E+01  0.00000000000E+00 0.  1.
         11    1    3    3    0    0  0.95500777130E+01  0.66819336031E+01 -0.42141956257E+02  0.43724097457E+02  0.51100000000E-03 0. -1.
        -11    1    3    3    0    0 -0.65215974076E+01  0.22375565937E+01  0.52344629447E+01  0.86566445484E+01  0.51100000000E-03 0.  1.
        -12    1    3    3    0    0 -0.27155337036E+01 -0.98261169376E+01  0.36219668235E+02  0.37626999142E+02  0.00000000000E+00 0.  1.
</event>
<event>
 7    1  0.3861961E-015  0.9000773E+02  0.7816164E-02  0.1186339E+00
        -11   -1    0    0    0    0  0.00000000000E+00  0.00000000000E+00  0.45593999997E+02  0.45594000000E+02  0.51100000000E-03 0.  1.
         11   -1    0    0    0    0 -0.00000000000E+00 -0.00000000000E+00 -0.45593999997E+02  0.45594000000E+02  0.51100000000E-03 0. -1.
    9900012    2    1    2    0    0  0.46377079043E+00 -0.10333409955E+01  0.33190532341E+00  0.90007729648E+02  0.89999990880E+02 0.  0.
        -12    1    1    2    0    0 -0.46377079043E+00  0.10333409955E+01 -0.33190532341E+00  0.11802703515E+01  0.00000000000E+00 0.  1.
         11    1    3    3    0    0  0.40561677879E+01 -0.23583665161E+01  0.72705329123E+01  0.86530363941E+01  0.51100000000E-03 0. -1.
        -11    1    3    3    0    0  0.11635104041E+02  0.23046773347E+02  0.27607670176E+02  0.37798318224E+02  0.51100000000E-03 0.  1.
         12    1    3    3    0    0 -0.15227501038E+02 -0.21721747827E+02 -0.34546297765E+02  0.43556375030E+02  0.00000000000E+00 0. -1.
</event>
<event>
 7    1  0.3861961E-015  0.9000770E+02  0.7816164E-02  0.1186339E+00
        -11   -1    0    0    0    0  0.00000000000E+00  0.00000000000E+00  0.45593999997E+02  0.45594000000E+02  0.51100000000E-03 0. -1.
         11   -1    0    0    0    0 -0.00000000000E+00 -0.00000000000E+00 -0.45593999997E+02  0.45594000000E+02  0.51100000000E-03 0.  1.
    9900012    2    1    2    0    0  0.91069192370E+00 -0.51488190051E+00 -0.54649041730E+00  0.90007697103E+02  0.89999957905E+02 0.  0.
        -12    1    1    2    0    0 -0.91069192370E+00  0.51488190051E+00  0.54649041730E+00  0.11803028965E+01  0.00000000000E+00 0.  1.
         11    1    3    3    0    0  0.22407427767E+01 -0.32204558219E+01  0.92598140009E+01  0.10056660454E+02  0.51100000000E-03 0. -1.
        -11    1    3    3    0    0 -0.24617378548E+02  0.31719905734E+02  0.38134516021E+01  0.40332495084E+02  0.51100000000E-03 0.  1.
         12    1    3    3    0    0  0.23287327695E+02 -0.29014331813E+02 -0.13619756020E+02  0.39618541565E+02  0.00000000000E+00 0. -1.
</event>
<event>
 7    1  0.3861961E-015  0.9000776E+02  0.7816164E-02  0.1186339E+00
        -11   -1    0    0    0    0  0.00000000000E+00  0.00000000000E+00  0.45593999997E+02  0.45594000000E+02  0.51100000000E-03 0.  1.
         11   -1    0    0    0    0 -0.00000000000E+00 -0.00000000000E+00 -0.45593999997E+02  0.45594000000E+02  0.51100000000E-03 0. -1.
    9900012    2    1    2    0    0  0.20799942339E+00  0.62014750326E+00 -0.98240449264E+00  0.90007760502E+02  0.90000022140E+02 0.  0.
        -12    1    1    2    0    0 -0.20799942339E+00 -0.62014750326E+00  0.98240449264E+00  0.11802394982E+01  0.00000000000E+00 0.  1.
         11    1    3    3    0    0  0.89771110167E+01  0.23279613156E+02  0.14882444003E+02  0.29051954335E+02  0.51100000000E-03 0. -1.
        -11    1    3    3    0    0  0.14678026830E+02  0.92246161868E+01  0.21546657551E+01  0.17469419000E+02  0.51100000000E-03 0.  1.
        -12    1    3    3    0    0 -0.23447138424E+02 -0.31884081840E+02 -0.18019514250E+02  0.43486387167E+02  0.00000000000E+00 0.  1.
</event>
<event>
 7    1  0.3861961E-015  0.9000773E+02  0.7816164E-02  0.1186339E+00
        -11   -1    0    0    0    0  0.00000000000E+00  0.00000000000E+00  0.45593999997E+02  0.45594000000E+02  0.51100000000E-03 0.  1.
         11   -1    0    0    0    0 -0.00000000000E+00 -0.00000000000E+00 -0.45593999997E+02  0.45594000000E+02  0.51100000000E-03 0. -1.
    9900012    2    1    2    0    0 -0.79232472030E+00 -0.78702274370E+00 -0.38191715165E+00  0.90007727162E+02  0.89999988360E+02 0.  0.
        -12    1    1    2    0    0  0.79232472030E+00  0.78702274370E+00  0.38191715165E+00  0.11802728380E+01  0.00000000000E+00 0.  1.
         11    1    3    3    0    0 -0.33776011404E+01  0.24731104814E+02  0.27856258839E+02  0.37403300543E+02  0.51100000000E-03 0. -1.
        -11    1    3    3    0    0 -0.89425644554E+01 -0.56129698256E+00  0.43578102291E+01  0.99636852417E+01  0.51100000000E-03 0.  1.
        -12    1    3    3    0    0  0.11527840876E+02 -0.24956830575E+02 -0.32595986219E+02  0.42640741377E+02  0.00000000000E+00 0.  1.
</event>
<event>
 7    1  0.3861961E-015  0.9000775E+02  0.7816164E-02  0.1186339E+00
        -11   -1    0    0    0    0  0.00000000000E+00  0.00000000000E+00  0.45593999997E+02  0.45594000000E+02  0.51100000000E-03 0.  1.
         11   -1    0    0    0    0 -0.00000000000E+00 -0.00000000000E+00 -0.45593999997E+02  0.45594000000E+02  0.51100000000E-03 0. -1.
    9900012    2    1    2    0    0 -0.10637858699E+01 -0.12472754569E+00 -0.49577586542E+00  0.90007749583E+02  0.90000011078E+02 0.  0.
        -12    1    1    2    0    0  0.10637858699E+01  0.12472754569E+00  0.49577586542E+00  0.11802504168E+01  0.00000000000E+00 0.  1.
         11    1    3    3    0    0  0.89738949691E+01  0.60864390534E+00  0.17822347595E+01  0.91693838026E+01  0.51100000000E-03 0. -1.
        -11    1    3    3    0    0  0.18634327540E+02  0.17562912181E+02  0.26084131514E+02  0.36552372895E+02  0.51100000000E-03 0.  1.
         12    1    3    3    0    0 -0.28672008379E+02 -0.18296283632E+02 -0.28362142139E+02  0.44285992886E+02  0.00000000000E+00 0. -1.
</event>
<event>
 7    1  0.3861961E-015  0.9000776E+02  0.7816164E-02  0.1186339E+00
        -11   -1    0    0    0    0  0.00000000000E+00  0.00000000000E+00  0.45593999997E+02  0.45594000000E+02  0.51100000000E-03 0. -1.
         11   -1    0    0    0    0 -0.00000000000E+00 -0.00000000000E+00 -0.45593999997E+02  0.45594000000E+02  0.51100000000E-03 0.  1.
    9900012    2    1    2    0    0  0.24623531876E+00 -0.11526088486E+01  0.61894287959E-01  0.90007758545E+02  0.90000020157E+02 0.  0.
        -12    1    1    2    0    0 -0.24623531876E+00  0.11526088486E+01 -0.61894287959E-01  0.11802414553E+01  0.00000000000E+00 0.  1.
         11    1    3    3    0    0  0.68678545079E+01  0.45551293398E+01 -0.47392937482E+01  0.95067099639E+01  0.51100000000E-03 0. -1.
        -11    1    3    3    0    0  0.10243595467E+02  0.34234393071E+02 -0.49105148217E+01  0.36069905366E+02  0.51100000000E-03 0.  1.
         12    1    3    3    0    0 -0.16865214656E+02 -0.39942131260E+02  0.97117028578E+01  0.44431143215E+02  0.00000000000E+00 0. -1.
</event>
<event>
 7    1  0.3861961E-015  0.9000776E+02  0.7816164E-02  0.1186339E+00
        -11   -1    0    0    0    0  0.00000000000E+00  0.00000000000E+00  0.45593999997E+02  0.45594000000E+02  0.51100000000E-03 0.  1.
         11   -1    0    0    0    0 -0.00000000000E+00 -0.00000000000E+00 -0.45593999997E+02  0.45594000000E+02  0.51100000000E-03 0. -1.
    9900012    2    1    2    0    0  0.11738629105E+01  0.33859868678E-01 -0.11773005051E+00  0.90007762317E+02  0.90000023980E+02 0.  0.
        -12    1    1    2    0    0 -0.11738629105E+01 -0.33859868678E-01  0.11773005051E+00  0.11802376829E+01  0.00000000000E+00 0.  1.
         11    1    3    3    0    0  0.66408250227E+01  0.14851482452E+01  0.49811964915E+01  0.84331809562E+01  0.51100000000E-03 0. -1.
        -11    1    3    3    0    0  0.37413596697E+01 -0.20218520617E+02  0.32556293108E+02  0.38505825135E+02  0.51100000000E-03 0.  1.
         12    1    3    3    0    0 -0.92083217819E+01  0.18767232240E+02 -0.37655219650E+02  0.43068756226E+02  0.00000000000E+00 0. -1.
</event>
<event>
 7    1  0.3861961E-015  0.9000779E+02  0.7816164E-02  0.1186339E+00
        -11   -1    0    0    0    0  0.00000000000E+00  0.00000000000E+00  0.45593999997E+02  0.45594000000E+02  0.51100000000E-03 0.  1.
         11   -1    0    0    0    0 -0.00000000000E+00 -0.00000000000E+00 -0.45593999997E+02  0.45594000000E+02  0.51100000000E-03 0. -1.
    9900012    2    1    2    0    0  0.72922913963E+00 -0.70096092245E+00 -0.60809873721E+00  0.90007785855E+02  0.90000047829E+02 0.  0.
        -12    1    1    2    0    0 -0.72922913963E+00  0.70096092245E+00  0.60809873721E+00  0.11802141446E+01  0.00000000000E+00 0.  1.
         11    1    3    3    0    0  0.81011419773E+01  0.63023705730E+01 -0.39247737273E+00  0.10271436848E+02  0.51100000000E-03 0. -1.
        -11    1    3    3    0    0 -0.37596903566E+02  0.15456833400E+02 -0.76215267574E+01  0.41358536324E+02  0.51100000000E-03 0.  1.
         12    1    3    3    0    0  0.30224990728E+02 -0.22460164895E+02  0.74059053929E+01  0.38377812683E+02  0.00000000000E+00 0. -1.
</event>
<event>
 7    1  0.3861961E-015  0.9000795E+02  0.7816164E-02  0.1186339E+00
        -11   -1    0    0    0    0  0.00000000000E+00  0.00000000000E+00  0.45593999997E+02  0.45594000000E+02  0.51100000000E-03 0.  1.
         11   -1    0    0    0    0 -0.00000000000E+00 -0.00000000000E+00 -0.45593999997E+02  0.45594000000E+02  0.51100000000E-03 0. -1.
    9900012    2    1    2    0    0  0.57651036831E+00  0.86766651586E+00  0.55435077027E+00  0.90007951626E+02  0.90000215788E+02 0.  0.
        -12    1    1    2    0    0 -0.57651036831E+00 -0.86766651586E+00 -0.55435077027E+00  0.11800483736E+01  0.00000000000E+00 0.  1.
         11    1    3    3    0    0  0.16772115376E+02  0.18530322768E+02 -0.68134353312E+01  0.25905590465E+02  0.51100000000E-03 0. -1.
        -11    1    3    3    0    0 -0.81994780066E+01  0.13302753973E+02 -0.17594800809E+02  0.23532354719E+02  0.51100000000E-03 0.  1.
        -12    1    3    3    0    0 -0.79961270007E+01 -0.30965410225E+02  0.24962586911E+02  0.40570006442E+02  0.00000000000E+00 0.  1.
</event>
<event>
 7    1  0.3861961E-015  0.9000774E+02  0.7816164E-02  0.1186339E+00
        -11   -1    0    0    0    0  0.00000000000E+00  0.00000000000E+00  0.45593999997E+02  0.45594000000E+02  0.51100000000E-03 0.  1.
         11   -1    0    0    0    0 -0.00000000000E+00 -0.00000000000E+00 -0.45593999997E+02  0.45594000000E+02  0.51100000000E-03 0. -1.
    9900012    2    1    2    0    0  0.72722635376E+00 -0.37199839059E+00 -0.85191840299E+00  0.90007743275E+02  0.90000004686E+02 0.  0.
        -12    1    1    2    0    0 -0.72722635376E+00  0.37199839059E+00  0.85191840299E+00  0.11802567253E+01  0.00000000000E+00 0.  1.
         11    1    3    3    0    0 -0.29115018047E+02  0.27103758072E+01 -0.15084143604E+02  0.32902306932E+02  0.51100000000E-03 0. -1.
        -11    1    3    3    0    0 -0.49695413237E+01  0.28246309009E+01 -0.11883955547E+02  0.13187239301E+02  0.51100000000E-03 0.  1.
        -12    1    3    3    0    0  0.34811785725E+02 -0.59070050987E+01  0.26116180747E+02  0.43918197042E+02  0.00000000000E+00 0.  1.
</event>
<event>
 7    1  0.3861961E-015  0.9000779E+02  0.7816164E-02  0.1186339E+00
        -11   -1    0    0    0    0  0.00000000000E+00  0.00000000000E+00  0.45593999997E+02  0.45594000000E+02  0.51100000000E-03 0. -1.
         11   -1    0    0    0    0 -0.00000000000E+00 -0.00000000000E+00 -0.45593999997E+02  0.45594000000E+02  0.51100000000E-03 0.  1.
    9900012    2    1    2    0    0 -0.64443119899E+00  0.95916311121E+00 -0.24003887076E+00  0.90007786416E+02  0.90000048397E+02 0.  0.
        -12    1    1    2    0    0  0.64443119899E+00 -0.95916311121E+00  0.24003887076E+00  0.11802135839E+01  0.00000000000E+00 0.  1.
         11    1    3    3    0    0 -0.20993728726E+01 -0.22293673789E+02  0.28483214173E+02  0.36231322738E+02  0.51100000000E-03 0. -1.
        -11    1    3    3    0    0  0.33755753504E+01 -0.10706580844E+02 -0.48957855491E+01  0.12247207793E+02  0.51100000000E-03 0.  1.
        -12    1    3    3    0    0 -0.19206336768E+01  0.33959417744E+02 -0.23827467494E+02  0.41529255886E+02  0.00000000000E+00 0.  1.
</event>
<event>
 7    1  0.3861961E-015  0.9000788E+02  0.7816164E-02  0.1186339E+00
        -11   -1    0    0    0    0  0.00000000000E+00  0.00000000000E+00  0.45593999997E+02  0.45594000000E+02  0.51100000000E-03 0.  1.
         11   -1    0    0    0    0 -0.00000000000E+00 -0.00000000000E+00 -0.45593999997E+02  0.45594000000E+02  0.51100000000E-03 0. -1.
    9900012    2    1    2    0    0  0.94970358134E+00  0.54119405939E+00  0.44480536405E+00  0.90007881483E+02  0.90000144718E+02 0.  0.
        -12    1    1    2    0    0 -0.94970358134E+00 -0.54119405939E+00 -0.44480536405E+00  0.11801185170E+01  0.00000000000E+00 0.  1.
         11    1    3    3    0    0  0.91541118680E+01  0.35408228650E+01  0.18033029367E+01  0.99793332641E+01  0.51100000000E-03 0. -1.
        -11    1    3    3    0    0 -0.21727366043E+02 -0.35743470788E+02 -0.11119865540E+02  0.43281930976E+02  0.51100000000E-03 0.  1.
         12    1    3    3    0    0  0.13522957756E+02  0.32743841982E+02  0.97613679677E+01  0.36746617243E+02  0.00000000000E+00 0. -1.
</event>
<event>
 7    1  0.3861961E-015  0.9000841E+02  0.7816164E-02  0.1186338E+00
        -11   -1    0    0    0    0  0.00000000000E+00  0.00000000000E+00  0.45593999997E+02  0.45594000000E+02  0.51100000000E-03 0.  1.
         11   -1    0    0    0    0 -0.00000000000E+00 -0.00000000000E+00 -0.45593999997E+02  0.45594000000E+02  0.51100000000E-03 0. -1.
    9900012    2    1    2    0    0 -0.38939448920E+00  0.83215868941E+00 -0.73980335540E+00  0.90008413141E+02  0.90000683392E+02 0.  0.
        -12    1    1    2    0    0  0.38939448920E+00 -0.83215868941E+00  0.73980335540E+00  0.11795868587E+01  0.00000000000E+00 0.  1.
         11    1    3    3    0    0 -0.19865393955E+01 -0.98832782602E+01  0.30557147137E+01  0.10533893896E+02  0.51100000000E-03 0. -1.
        -11    1    3    3    0    0 -0.42168661042E+01  0.28400182388E+01  0.37088287493E+02  0.37435126990E+02  0.51100000000E-03 0.  1.
         12    1    3    3    0    0  0.58140110105E+01  0.78754187108E+01 -0.40883805562E+02  0.42039392255E+02  0.00000000000E+00 0. -1.
</event>
<event>
 7    1  0.3861961E-015  0.9000782E+02  0.7816164E-02  0.1186339E+00
        -11   -1    0    0    0    0  0.00000000000E+00  0.00000000000E+00  0.45593999997E+02  0.45594000000E+02  0.51100000000E-03 0. -1.
         11   -1    0    0    0    0 -0.00000000000E+00 -0.00000000000E+00 -0.45593999997E+02  0.45594000000E+02  0.51100000000E-03 0.  1.
    9900012    2    1    2    0    0  0.87759737937E+00 -0.78708504976E+00  0.56033448227E-01  0.90007822139E+02  0.90000084591E+02 0.  0.
        -12    1    1    2    0    0 -0.87759737937E+00  0.78708504976E+00 -0.56033448227E-01  0.11801778608E+01  0.00000000000E+00 0.  1.
         11    1    3    3    0    0 -0.43657889174E+01  0.39057209271E+01  0.41403651360E+02  0.41815991140E+02  0.51100000000E-03 0. -1.
        -11    1    3    3    0    0  0.18957500151E+01  0.97467794418E+01 -0.16199178134E+02  0.19000182896E+02  0.51100000000E-03 0.  1.
        -12    1    3    3    0    0  0.33476362817E+01 -0.14439585419E+02 -0.25148439777E+02  0.29191648103E+02  0.00000000000E+00 0.  1.
</event>
<event>
 7    1  0.3861961E-015  0.9000769E+02  0.7816164E-02  0.1186339E+00
        -11   -1    0    0    0    0  0.00000000000E+00  0.00000000000E+00  0.45593999997E+02  0.45594000000E+02  0.51100000000E-03 0.  1.
         11   -1    0    0    0    0 -0.00000000000E+00 -0.00000000000E+00 -0.45593999997E+02  0.45594000000E+02  0.51100000000E-03 0. -1.
    9900012    2    1    2    0    0 -0.15685117839E+00  0.10919305672E+01 -0.41978055005E+00  0.90007690563E+02  0.89999951279E+02 0.  0.
        -12    1    1    2    0    0  0.15685117839E+00 -0.10919305672E+01  0.41978055005E+00  0.11803094366E+01  0.00000000000E+00 0.  1.
         11    1    3    3    0    0 -0.29117119662E+02 -0.12242983137E+02  0.25937884904E+02  0.40871397909E+02  0.51100000000E-03 0. -1.
        -11    1    3    3    0    0  0.53874983735E+01  0.58978636544E+01  0.48348432343E+01  0.93373253007E+01  0.51100000000E-03 0.  1.
        -12    1    3    3    0    0  0.23572770110E+02  0.74370500501E+01 -0.31192508689E+02  0.39798967353E+02  0.00000000000E+00 0.  1.
</event>
<event>
 7    1  0.3861961E-015  0.9000765E+02  0.7816164E-02  0.1186339E+00
        -11   -1    0    0    0    0  0.00000000000E+00  0.00000000000E+00  0.45593999997E+02  0.45594000000E+02  0.51100000000E-03 0. -1.
         11   -1    0    0    0    0 -0.00000000000E+00 -0.00000000000E+00 -0.45593999997E+02  0.45594000000E+02  0.51100000000E-03 0.  1.
    9900012    2    1    2    0    0  0.72945851769E+00 -0.68488631087E+00  0.62614370714E+00  0.90007646269E+02  0.89999906400E+02 0.  0.
        -12    1    1    2    0    0 -0.72945851769E+00  0.68488631087E+00 -0.62614370714E+00  0.11803537308E+01  0.00000000000E+00 0.  1.
         11    1    3    3    0    0  0.61000140277E+01  0.46340706192E+01  0.87349798400E+01  0.11618289664E+02  0.51100000000E-03 0. -1.
        -11    1    3    3    0    0  0.15226140054E+02 -0.35262636895E+02 -0.15294033768E+02  0.41342428217E+02  0.51100000000E-03 0.  1.
         12    1    3    3    0    0 -0.20596695564E+02  0.29943679965E+02  0.71851976350E+01  0.37046928389E+02  0.00000000000E+00 0. -1.
</event>
<event>
 7    1  0.3861961E-015  0.9000773E+02  0.7816164E-02  0.1186339E+00
        -11   -1    0    0    0    0  0.00000000000E+00  0.00000000000E+00  0.45593999997E+02  0.45594000000E+02  0.51100000000E-03 0. -1.
         11   -1    0    0    0    0 -0.00000000000E+00 -0.00000000000E+00 -0.45593999997E+02  0.45594000000E+02  0.51100000000E-03 0.  1.
    9900012    2    1    2    0    0  0.80347041776E+00 -0.23176460591E+00 -0.83291889263E+00  0.90007731629E+02  0.89999992887E+02 0.  0.
        -12    1    1    2    0    0 -0.80347041776E+00  0.23176460591E+00  0.83291889263E+00  0.11802683705E+01  0.00000000000E+00 0.  1.
         11    1    3    3    0    0  0.82279476248E+01  0.23384815370E+02  0.23495527563E+00  0.24791206430E+02  0.51100000000E-03 0. -1.
        -11    1    3    3    0    0  0.94161046291E+01 -0.23569539071E+01 -0.26385644284E+02  0.28114417701E+02  0.51100000000E-03 0.  1.
        -12    1    3    3    0    0 -0.16840581836E+02 -0.21259626069E+02  0.25317770116E+02  0.37102107498E+02  0.00000000000E+00 0.  1.
</event>
<event>
 7    1  0.3861961E-015  0.9000776E+02  0.7816164E-02  0.1186339E+00
        -11   -1    0    0    0    0  0.00000000000E+00  0.00000000000E+00  0.45593999997E+02  0.45594000000E+02  0.51100000000E-03 0.  1.
         11   -1    0    0    0    0 -0.00000000000E+00 -0.00000000000E+00 -0.45593999997E+02  0.45594000000E+02  0.51100000000E-03 0. -1.
    9900012    2    1    2    0    0  0.10252887253E+01 -0.28180046063E+00 -0.51217879679E+00  0.90007764604E+02  0.90000026297E+02 0.  0.
        -12    1    1    2    0    0 -0.10252887253E+01  0.28180046063E+00  0.51217879679E+00  0.11802353959E+01  0.00000000000E+00 0.  1.
         11    1    3    3    0    0 -0.14763062061E+02  0.21324035543E+02 -0.22393332693E+02  0.34265490550E+02  0.51100000000E-03 0. -1.
        -11    1    3    3    0    0  0.67209888797E+00  0.10573457478E+02 -0.44592258761E+01  0.11494973494E+02  0.51100000000E-03 0.  1.
        -12    1    3    3    0    0  0.15116251899E+02 -0.32179293481E+02  0.26340379772E+02  0.44247300561E+02  0.00000000000E+00 0.  1.
</event>
<event>
 7    1  0.3861961E-015  0.9000799E+02  0.7816164E-02  0.1186339E+00
        -11   -1    0    0    0    0  0.00000000000E+00  0.00000000000E+00  0.45593999997E+02  0.45594000000E+02  0.51100000000E-03 0.  1.
         11   -1    0    0    0    0 -0.00000000000E+00 -0.00000000000E+00 -0.45593999997E+02  0.45594000000E+02  0.51100000000E-03 0. -1.
    9900012    2    1    2    0    0 -0.21065025417E+00  0.83253971496E+00 -0.80926884148E+00  0.90007994930E+02  0.90000259663E+02 0.  0.
        -12    1    1    2    0    0  0.21065025417E+00 -0.83253971496E+00  0.80926884148E+00  0.11800050696E+01  0.00000000000E+00 0.  1.
         11    1    3    3    0    0  0.15609493208E+02  0.52232691571E+01 -0.35160355990E+02  0.38822537945E+02  0.51100000000E-03 0. -1.
        -11    1    3    3    0    0  0.93791643941E+01 -0.61540659966E+01  0.45163311062E+01  0.12092911144E+02  0.51100000000E-03 0.  1.
        -12    1    3    3    0    0 -0.25199307856E+02  0.17633365545E+01  0.29834756042E+02  0.39092545841E+02  0.00000000000E+00 0.  1.
</event>
<event>
 7    1  0.3861961E-015  0.9000801E+02  0.7816164E-02  0.1186339E+00
        -11   -1    0    0    0    0  0.00000000000E+00  0.00000000000E+00  0.45593999997E+02  0.45594000000E+02  0.51100000000E-03 0.  1.
         11   -1    0    0    0    0 -0.00000000000E+00 -0.00000000000E+00 -0.45593999997E+02  0.45594000000E+02  0.51100000000E-03 0. -1.
    9900012    2    1    2    0    0 -0.10505546253E+01 -0.21269248625E+00  0.49342996013E+00  0.90008010068E+02  0.90000275000E+02 0.  0.
        -12    1    1    2    0    0  0.10505546253E+01  0.21269248625E+00 -0.49342996013E+00  0.11799899321E+01  0.00000000000E+00 0.  1.
         11    1    3    3    0    0 -0.99379850799E+01  0.30610234376E+02  0.16218703577E+02  0.36038817155E+02  0.51100000000E-03 0. -1.
        -11    1    3    3    0    0 -0.56656448951E+01  0.70056204355E+01 -0.92697370563E+01  0.12926959237E+02  0.51100000000E-03 0.  1.
        -12    1    3    3    0    0  0.14553075350E+02 -0.37828547298E+02 -0.64555365603E+01  0.41042233675E+02  0.00000000000E+00 0.  1.
</event>
<event>
 7    1  0.3861961E-015  0.9000779E+02  0.7816164E-02  0.1186339E+00
        -11   -1    0    0    0    0  0.00000000000E+00  0.00000000000E+00  0.45593999997E+02  0.45594000000E+02  0.51100000000E-03 0.  1.
         11   -1    0    0    0    0 -0.00000000000E+00 -0.00000000000E+00 -0.45593999997E+02  0.45594000000E+02  0.51100000000E-03 0. -1.
    9900012    2    1    2    0    0  0.31828059436E+00 -0.61119257853E+00 -0.95814616079E+00  0.90007786896E+02  0.90000048883E+02 0.  0.
        -12    1    1    2    0    0 -0.31828059436E+00  0.61119257853E+00  0.95814616079E+00  0.11802131037E+01  0.00000000000E+00 0.  1.
         11    1    3    3    0    0 -0.70825034084E+01 -0.37338157017E+02 -0.10226904778E+02  0.39355932279E+02  0.51100000000E-03 0. -1.
        -11    1    3    3    0    0 -0.97924341073E+01  0.11786742966E+01  0.46193748731E+01  0.10891265460E+02  0.51100000000E-03 0.  1.
        -12    1    3    3    0    0  0.17193218110E+02  0.35548290141E+02  0.46493837440E+01  0.39760589158E+02  0.00000000000E+00 0.  1.
</event>
<event>
 7    1  0.3861961E-015  0.9000771E+02  0.7816164E-02  0.1186339E+00
        -11   -1    0    0    0    0  0.00000000000E+00  0.00000000000E+00  0.45593999997E+02  0.45594000000E+02  0.51100000000E-03 0. -1.
         11   -1    0    0    0    0 -0.00000000000E+00 -0.00000000000E+00 -0.45593999997E+02  0.45594000000E+02  0.51100000000E-03 0.  1.
    9900012    2    1    2    0    0  0.89260476161E-01 -0.11694818343E+01  0.13200980676E+00  0.90007711144E+02  0.89999972132E+02 0.  0.
        -12    1    1    2    0    0 -0.89260476161E-01  0.11694818343E+01 -0.13200980676E+00  0.11802888555E+01  0.00000000000E+00 0.  1.
         11    1    3    3    0    0  0.22161892931E+02 -0.17425570188E+02  0.27731560839E+02  0.39545410119E+02  0.51100000000E-03 0. -1.
        -11    1    3    3    0    0  0.84136041364E+01  0.46999427858E+01 -0.59576509805E+01  0.11330128076E+02  0.51100000000E-03 0.  1.
        -12    1    3    3    0    0 -0.30486236592E+02  0.11556145568E+02 -0.21641900051E+02  0.39132172949E+02  0.00000000000E+00 0.  1.
</event>
<event>
 7    1  0.3861961E-015  0.9000776E+02  0.7816164E-02  0.1186339E+00
        -11   -1    0    0    0    0  0.00000000000E+00  0.00000000000E+00  0.45593999997E+02  0.45594000000E+02  0.51100000000E-03 0. -1.
         11   -1    0    0    0    0 -0.00000000000E+00 -0.00000000000E+00 -0.45593999997E+02  0.45594000000E+02  0.51100000000E-03 0.  1.
    9900012    2    1    2    0    0 -0.97790721864E+00 -0.55050521233E+00 -0.36552504749E+00  0.90007759737E+02  0.90000021366E+02 0.  0.
        -12    1    1    2    0    0  0.97790721864E+00  0.55050521233E+00  0.36552504749E+00  0.11802402626E+01  0.00000000000E+00 0.  1.
         11    1    3    3    0    0  0.60938209652E+01 -0.86723155662E+00 -0.77440036202E+01  0.98922361911E+01  0.51100000000E-03 0. -1.
        -11    1    3    3    0    0 -0.23450045882E+02  0.15410071676E+02 -0.27138340608E+02  0.39036706983E+02  0.51100000000E-03 0.  1.
         12    1    3    3    0    0  0.16378317698E+02 -0.15093345331E+02  0.34516819180E+02  0.41078816563E+02  0.00000000000E+00 0. -1.
</event>
<event>
 7    1  0.3861961E-015  0.9000781E+02  0.7816164E-02  0.1186339E+00
        -11   -1    0    0    0    0  0.00000000000E+00  0.00000000000E+00  0.45593999997E+02  0.45594000000E+02  0.51100000000E-03 0. -1.
         11   -1    0    0    0    0 -0.00000000000E+00 -0.00000000000E+00 -0.45593999997E+02  0.45594000000E+02  0.51100000000E-03 0.  1.
    9900012    2    1    2    0    0  0.12483873197E-01  0.11486174137E+01  0.27088254981E+00  0.90007807149E+02  0.90000069403E+02 0.  0.
        -12    1    1    2    0    0 -0.12483873197E-01 -0.11486174137E+01 -0.27088254981E+00  0.11801928512E+01  0.00000000000E+00 0.  1.
         11    1    3    3    0    0 -0.41476441400E+02  0.75393547688E+01  0.19146930839E+01  0.42199562929E+02  0.51100000000E-03 0. -1.
        -11    1    3    3    0    0  0.45279787546E+01  0.64960822131E+01  0.28330178977E+01  0.84099742206E+01  0.51100000000E-03 0.  1.
        -12    1    3    3    0    0  0.36960946518E+02 -0.12886819568E+02 -0.44768284318E+01  0.39398269999E+02  0.00000000000E+00 0.  1.
</event>
<event>
 7    1  0.3861961E-015  0.9000778E+02  0.7816164E-02  0.1186339E+00
        -11   -1    0    0    0    0  0.00000000000E+00  0.00000000000E+00  0.45593999997E+02  0.45594000000E+02  0.51100000000E-03 0. -1.
         11   -1    0    0    0    0 -0.00000000000E+00 -0.00000000000E+00 -0.45593999997E+02  0.45594000000E+02  0.51100000000E-03 0.  1.
    9900012    2    1    2    0    0 -0.49030851567E+00 -0.92205812154E+00 -0.54983664247E+00  0.90007782243E+02  0.90000044169E+02 0.  0.
        -12    1    1    2    0    0  0.49030851567E+00  0.92205812154E+00  0.54983664247E+00  0.11802177568E+01  0.00000000000E+00 0.  1.
         11    1    3    3    0    0  0.12232297604E+02 -0.30735639890E+02  0.15596821561E+02  0.36572797366E+02  0.51100000000E-03 0. -1.
        -11    1    3    3    0    0  0.44869905547E+01 -0.95839645240E+00  0.90180603510E+01  0.10118153031E+02  0.51100000000E-03 0.  1.
        -12    1    3    3    0    0 -0.17209596675E+02  0.30771978220E+02 -0.25164718555E+02  0.43316831847E+02  0.00000000000E+00 0.  1.
</event>
<event>
 7    1  0.3861961E-015  0.9000773E+02  0.7816164E-02  0.1186339E+00
        -11   -1    0    0    0    0  0.00000000000E+00  0.00000000000E+00  0.45593999997E+02  0.45594000000E+02  0.51100000000E-03 0.  1.
         11   -1    0    0    0    0 -0.00000000000E+00 -0.00000000000E+00 -0.45593999997E+02  0.45594000000E+02  0.51100000000E-03 0. -1.
    9900012    2    1    2    0    0 -0.83898868298E-01  0.39953151502E+00 -0.11074204491E+01  0.90007726937E+02  0.89999988133E+02 0.  0.
        -12    1    1    2    0    0  0.83898868298E-01 -0.39953151502E+00  0.11074204491E+01  0.11802730628E+01  0.00000000000E+00 0.  1.
         11    1    3    3    0    0  0.45406779377E+01  0.80185339203E+01 -0.39488122196E+01  0.10025355883E+02  0.51100000000E-03 0. -1.
        -11    1    3    3    0    0 -0.10629041825E+01  0.35864627410E+02 -0.28021677078E+01  0.35989629183E+02  0.51100000000E-03 0.  1.
         12    1    3    3    0    0 -0.35616726235E+01 -0.43483629816E+02  0.56435594782E+01  0.43992741872E+02  0.00000000000E+00 0. -1.
</event>
<event>
 7    1  0.3861961E-015  0.9000771E+02  0.7816164E-02  0.1186339E+00
        -11   -1    0    0    0    0  0.00000000000E+00  0.00000000000E+00  0.45593999997E+02  0.45594000000E+02  0.51100000000E-03 0. -1.
         11   -1    0    0    0    0 -0.00000000000E+00 -0.00000000000E+00 -0.45593999997E+02  0.45594000000E+02  0.51100000000E-03 0.  1.
    9900012    2    1    2    0    0 -0.95273841953E+00 -0.29860094096E+00  0.62945599952E+00  0.90007708564E+02  0.89999969517E+02 0.  0.
        -12    1    1    2    0    0  0.95273841953E+00  0.29860094096E+00 -0.62945599952E+00  0.11802914358E+01  0.00000000000E+00 0.  1.
         11    1    3    3    0    0 -0.29769144306E+02  0.21605516959E+01  0.31329364518E+02  0.43271226210E+02  0.51100000000E-03 0. -1.
        -11    1    3    3    0    0  0.88538448177E+01 -0.27162682952E+01  0.95668848719E+00  0.93104207547E+01  0.51100000000E-03 0.  1.
        -12    1    3    3    0    0  0.19962561069E+02  0.25711565837E+00 -0.31656597005E+02  0.37426061600E+02  0.00000000000E+00 0.  1.
</event>
<event>
 7    1  0.3861961E-015  0.9000764E+02  0.7816164E-02  0.1186339E+00
        -11   -1    0    0    0    0  0.00000000000E+00  0.00000000000E+00  0.45593999997E+02  0.45594000000E+02  0.51100000000E-03 0.  1.
         11   -1    0    0    0    0 -0.00000000000E+00 -0.00000000000E+00 -0.45593999997E+02  0.45594000000E+02  0.51100000000E-03 0. -1.
    9900012    2    1    2    0    0 -0.73531204662E+00 -0.59970940100E+00  0.70207604404E+00  0.90007641604E+02  0.89999901673E+02 0.  0.
        -12    1    1    2    0    0  0.73531204662E+00  0.59970940100E+00 -0.70207604404E+00  0.11803583961E+01  0.00000000000E+00 0.  1.
         11    1    3    3    0    0  0.81706661339E+01  0.19465965695E+02  0.48507666822E+01  0.21661337520E+02  0.51100000000E-03 0. -1.
        -11    1    3    3    0    0 -0.26968231379E+02 -0.48475080116E+01  0.20490947501E+02  0.34214949472E+02  0.51100000000E-03 0.  1.
         12    1    3    3    0    0  0.18062253198E+02 -0.15218167084E+02 -0.24639638139E+02  0.34131354612E+02  0.00000000000E+00 0. -1.
</event>
<event>
 7    1  0.3861961E-015  0.9000780E+02  0.7816164E-02  0.1186339E+00
        -11   -1    0    0    0    0  0.00000000000E+00  0.00000000000E+00  0.45593999997E+02  0.45594000000E+02  0.51100000000E-03 0.  1.
         11   -1    0    0    0    0 -0.00000000000E+00 -0.00000000000E+00 -0.45593999997E+02  0.45594000000E+02  0.51100000000E-03 0. -1.
    9900012    2    1    2    0    0 -0.88593287403E+00 -0.27563467795E+00 -0.72939981438E+00  0.90007798482E+02  0.90000060622E+02 0.  0.
        -12    1    1    2    0    0  0.88593287403E+00  0.27563467795E+00  0.72939981438E+00  0.11802015176E+01  0.00000000000E+00 0.  1.
         11    1    3    3    0    0  0.63516279284E+01 -0.25800908503E+02 -0.29773219765E+02  0.39905822537E+02  0.51100000000E-03 0. -1.
        -11    1    3    3    0    0 -0.89830498339E+01 -0.66801472226E+00 -0.22210464786E+01  0.92776330876E+01  0.51100000000E-03 0.  1.
        -12    1    3    3    0    0  0.17454890314E+01  0.26193288547E+02  0.31264866430E+02  0.40824342857E+02  0.00000000000E+00 0.  1.
</event>
<event>
 7    1  0.3861961E-015  0.9000863E+02  0.7816164E-02  0.1186337E+00
        -11   -1    0    0    0    0  0.00000000000E+00  0.00000000000E+00  0.45593999997E+02  0.45594000000E+02  0.51100000000E-03 0.  1.
         11   -1    0    0    0    0 -0.00000000000E+00 -0.00000000000E+00 -0.45593999997E+02  0.45594000000E+02  0.51100000000E-03 0. -1.
    9900012    2    1    2    0    0 -0.94852149505E+00  0.49687846392E+00  0.49428926815E+00  0.90008634444E+02  0.90000907614E+02 0.  0.
        -12    1    1    2    0    0  0.94852149505E+00 -0.49687846392E+00 -0.49428926815E+00  0.11793655562E+01  0.00000000000E+00 0.  1.
         11    1    3    3    0    0  0.15557255423E+01  0.14888082158E+01 -0.11378473363E+02  0.11580435579E+02  0.51100000000E-03 0. -1.
        -11    1    3    3    0    0 -0.26305896534E+02  0.24035022717E+02 -0.10656369900E+02  0.37191944412E+02  0.51100000000E-03 0.  1.
         12    1    3    3    0    0  0.23801649497E+02 -0.25026952468E+02  0.22529132531E+02  0.41236254452E+02  0.00000000000E+00 0. -1.
</event>
<event>
 7    1  0.3861961E-015  0.9000780E+02  0.7816164E-02  0.1186339E+00
        -11   -1    0    0    0    0  0.00000000000E+00  0.00000000000E+00  0.45593999997E+02  0.45594000000E+02  0.51100000000E-03 0. -1.
         11   -1    0    0    0    0 -0.00000000000E+00 -0.00000000000E+00 -0.45593999997E+02  0.45594000000E+02  0.51100000000E-03 0.  1.
    9900012    2    1    2    0    0  0.10982275216E+01 -0.10461301783E+00 -0.41930133374E+00  0.90007804600E+02  0.90000066821E+02 0.  0.
        -12    1    1    2    0    0 -0.10982275216E+01  0.10461301783E+00  0.41930133374E+00  0.11801953996E+01  0.00000000000E+00 0.  1.
         11    1    3    3    0    0 -0.12433799554E+02  0.25754345457E+02  0.22931960508E+02  0.36657338887E+02  0.51100000000E-03 0. -1.
        -11    1    3    3    0    0  0.16951470345E+01  0.23835326557E+01  0.86061451758E+01  0.90895812026E+01  0.51100000000E-03 0.  1.
        -12    1    3    3    0    0  0.11836880041E+02 -0.28242491131E+02 -0.31957407018E+02  0.44260884511E+02  0.00000000000E+00 0.  1.
</event>
<event>
 7    1  0.3861961E-015  0.9000758E+02  0.7816164E-02  0.1186339E+00
        -11   -1    0    0    0    0  0.00000000000E+00  0.00000000000E+00  0.45593999997E+02  0.45594000000E+02  0.51100000000E-03 0. -1.
         11   -1    0    0    0    0 -0.00000000000E+00 -0.00000000000E+00 -0.45593999997E+02  0.45594000000E+02  0.51100000000E-03 0.  1.
    9900012    2    1    2    0    0 -0.11363137458E+01 -0.31780327465E+00  0.34538071426E-01  0.90007576039E+02  0.89999835242E+02 0.  0.
        -12    1    1    2    0    0  0.11363137458E+01  0.31780327465E+00 -0.34538071426E-01  0.11804239614E+01  0.00000000000E+00 0.  1.
         11    1    3    3    0    0  0.15469252444E+01 -0.39315654031E+01 -0.10498887756E+02  0.11317103366E+02  0.51100000000E-03 0. -1.
        -11    1    3    3    0    0 -0.16658294711E+02  0.84516611929E+01 -0.30113615841E+02  0.35436693114E+02  0.51100000000E-03 0.  1.
         12    1    3    3    0    0  0.13975055720E+02 -0.48378990645E+01  0.40647041668E+02  0.43253779559E+02  0.00000000000E+00 0. -1.
</event>
<event>
 7    1  0.3861961E-015  0.9000774E+02  0.7816164E-02  0.1186339E+00
        -11   -1    0    0    0    0  0.00000000000E+00  0.00000000000E+00  0.45593999997E+02  0.45594000000E+02  0.51100000000E-03 0. -1.
         11   -1    0    0    0    0 -0.00000000000E+00 -0.00000000000E+00 -0.45593999997E+02  0.45594000000E+02  0.51100000000E-03 0.  1.
    9900012    2    1    2    0    0  0.23179117515E-01 -0.61251812832E+00  0.10086100433E+01  0.90007741576E+02  0.90000002964E+02 0.  0.
        -12    1    1    2    0    0 -0.23179117515E-01  0.61251812832E+00 -0.10086100433E+01  0.11802584245E+01  0.00000000000E+00 0.  1.
         11    1    3    3    0    0 -0.97234077235E+00 -0.24463916910E+02  0.27183294950E+02  0.36583605642E+02  0.51100000000E-03 0. -1.
        -11    1    3    3    0    0  0.68979663872E+01 -0.15830857544E+01  0.78280025887E+01  0.10552996047E+02  0.51100000000E-03 0.  1.
        -12    1    3    3    0    0 -0.59024464973E+01  0.25434484536E+02 -0.34002687495E+02  0.42871139887E+02  0.00000000000E+00 0.  1.
</event>
<event>
 7    1  0.3861961E-015  0.9000772E+02  0.7816164E-02  0.1186339E+00
        -11   -1    0    0    0    0  0.00000000000E+00  0.00000000000E+00  0.45593999997E+02  0.45594000000E+02  0.51100000000E-03 0.  1.
         11   -1    0    0    0    0 -0.00000000000E+00 -0.00000000000E+00 -0.45593999997E+02  0.45594000000E+02  0.51100000000E-03 0. -1.
    9900012    2    1    2    0    0  0.48771460816E+00 -0.62040444838E+00  0.87766991053E+00  0.90007715420E+02  0.89999976463E+02 0.  0.
        -12    1    1    2    0    0 -0.48771460816E+00  0.62040444838E+00 -0.87766991053E+00  0.11802845803E+01  0.00000000000E+00 0.  1.
         11    1    3    3    0    0  0.21460448889E+02  0.83722231949E+01 -0.30466386220E+02  0.38194838359E+02  0.51100000000E-03 0. -1.
        -11    1    3    3    0    0  0.91963814274E+01 -0.50255135049E+00  0.33824048158E+01  0.98115570537E+01  0.51100000000E-03 0.  1.
        -12    1    3    3    0    0 -0.30169115708E+02 -0.84900762928E+01  0.27961651314E+02  0.42001320007E+02  0.00000000000E+00 0.  1.
</event>
<event>
 7    1  0.3861961E-015  0.9000778E+02  0.7816164E-02  0.1186339E+00
        -11   -1    0    0    0    0  0.00000000000E+00  0.00000000000E+00  0.45593999997E+02  0.45594000000E+02  0.51100000000E-03 0. -1.
         11   -1    0    0    0    0 -0.00000000000E+00 -0.00000000000E+00 -0.45593999997E+02  0.45594000000E+02  0.51100000000E-03 0.  1.
    9900012    2    1    2    0    0  0.97580437086E+00 -0.64466277178E+00  0.15850707773E+00  0.90007784446E+02  0.90000046401E+02 0.  0.
        -12    1    1    2    0    0 -0.97580437086E+00  0.64466277178E+00 -0.15850707773E+00  0.11802155537E+01  0.00000000000E+00 0.  1.
         11    1    3    3    0    0 -0.97665777396E+01  0.22549026793E+00  0.48567617780E+01  0.10909858928E+02  0.51100000000E-03 0. -1.
        -11    1    3    3    0    0 -0.22620553043E+02  0.17288459357E+02 -0.23312706895E+02  0.36797588915E+02  0.51100000000E-03 0.  1.
         12    1    3    3    0    0  0.33362935154E+02 -0.18158612397E+02  0.18614452194E+02  0.42300336603E+02  0.00000000000E+00 0. -1.
</event>
<event>
 7    1  0.3861961E-015  0.9000707E+02  0.7816164E-02  0.1186340E+00
        -11   -1    0    0    0    0  0.00000000000E+00  0.00000000000E+00  0.45593999997E+02  0.45594000000E+02  0.51100000000E-03 0.  1.
         11   -1    0    0    0    0 -0.00000000000E+00 -0.00000000000E+00 -0.45593999997E+02  0.45594000000E+02  0.51100000000E-03 0. -1.
    9900012    2    1    2    0    0  0.76081401354E+00 -0.89601076782E+00  0.11367055013E+00  0.90007070598E+02  0.89999323127E+02 0.  0.
        -12    1    1    2    0    0 -0.76081401354E+00  0.89601076782E+00 -0.11367055013E+00  0.11809294023E+01  0.00000000000E+00 0.  1.
         11    1    3    3    0    0  0.13012064005E+02 -0.55597681956E+01  0.45031048795E+01  0.14849336210E+02  0.51100000000E-03 0. -1.
        -11    1    3    3    0    0 -0.10981663987E+02  0.23581920796E+02  0.27627823042E+02  0.37947339020E+02  0.51100000000E-03 0.  1.
         12    1    3    3    0    0 -0.12695860043E+01 -0.18918163368E+02 -0.32017257372E+02  0.37210395368E+02  0.00000000000E+00 0. -1.
</event>
<event>
 7    1  0.3861961E-015  0.9000775E+02  0.7816164E-02  0.1186339E+00
        -11   -1    0    0    0    0  0.00000000000E+00  0.00000000000E+00  0.45593999997E+02  0.45594000000E+02  0.51100000000E-03 0. -1.
         11   -1    0    0    0    0 -0.00000000000E+00 -0.00000000000E+00 -0.45593999997E+02  0.45594000000E+02  0.51100000000E-03 0.  1.
    9900012    2    1    2    0    0  0.89766778220E+00 -0.30177956838E+00  0.70435110648E+00  0.90007750519E+02  0.90000012026E+02 0.  0.
        -12    1    1    2    0    0 -0.89766778220E+00  0.30177956838E+00 -0.70435110648E+00  0.11802494805E+01  0.00000000000E+00 0.  1.
         11    1    3    3    0    0  0.37761242052E+01 -0.66246393206E+00  0.68144668404E+01  0.78188829799E+01  0.51100000000E-03 0. -1.
        -11    1    3    3    0    0  0.33311745421E+02  0.77319974301E+01  0.17438549022E+02  0.38386966010E+02  0.51100000000E-03 0.  1.
         12    1    3    3    0    0 -0.36190201844E+02 -0.73713130665E+01 -0.23548664756E+02  0.43801901529E+02  0.00000000000E+00 0. -1.
</event>
<event>
 7    1  0.3861961E-015  0.9000769E+02  0.7816164E-02  0.1186339E+00
        -11   -1    0    0    0    0  0.00000000000E+00  0.00000000000E+00  0.45593999997E+02  0.45594000000E+02  0.51100000000E-03 0.  1.
         11   -1    0    0    0    0 -0.00000000000E+00 -0.00000000000E+00 -0.45593999997E+02  0.45594000000E+02  0.51100000000E-03 0. -1.
    9900012    2    1    2    0    0  0.67427862264E+00  0.68942145563E+00  0.68057382830E+00  0.90007688880E+02  0.89999949573E+02 0.  0.
        -12    1    1    2    0    0 -0.67427862264E+00 -0.68942145563E+00 -0.68057382830E+00  0.11803111201E+01  0.00000000000E+00 0.  1.
         11    1    3    3    0    0  0.37593152515E+01 -0.26708460196E+02 -0.28293811249E+02  0.39089820318E+02  0.51100000000E-03 0. -1.
        -11    1    3    3    0    0  0.12767353355E+02  0.45692785115E+01  0.58726668197E+01  0.14777409572E+02  0.51100000000E-03 0.  1.
        -12    1    3    3    0    0 -0.15852389984E+02  0.22828603140E+02  0.23101718258E+02  0.36140458990E+02  0.00000000000E+00 0.  1.
</event>
<event>
 7    1  0.3861961E-015  0.9000772E+02  0.7816164E-02  0.1186339E+00
        -11   -1    0    0    0    0  0.00000000000E+00  0.00000000000E+00  0.45593999997E+02  0.45594000000E+02  0.51100000000E-03 0.  1.
         11   -1    0    0    0    0 -0.00000000000E+00 -0.00000000000E+00 -0.45593999997E+02  0.45594000000E+02  0.51100000000E-03 0. -1.
    9900012    2    1    2    0    0 -0.15002497353E+00  0.17366046142E+00 -0.11577548926E+01  0.90007719593E+02  0.89999980691E+02 0.  0.
        -12    1    1    2    0    0  0.15002497353E+00 -0.17366046142E+00  0.11577548926E+01  0.11802804073E+01  0.00000000000E+00 0.  1.
         11    1    3    3    0    0  0.70277618192E+01 -0.25209618171E+01 -0.67730877327E+01  0.10080644938E+02  0.51100000000E-03 0. -1.
        -11    1    3    3    0    0 -0.17976270780E+02 -0.30397551795E+02  0.21839301424E+02  0.41522434337E+02  0.51100000000E-03 0.  1.
         12    1    3    3    0    0  0.10798483988E+02  0.33092174074E+02 -0.16223968583E+02  0.38404640318E+02  0.00000000000E+00 0. -1.
</event>
<event>
 7    1  0.3861961E-015  0.9000783E+02  0.7816164E-02  0.1186339E+00
        -11   -1    0    0    0    0  0.00000000000E+00  0.00000000000E+00  0.45593999997E+02  0.45594000000E+02  0.51100000000E-03 0.  1.
         11   -1    0    0    0    0 -0.00000000000E+00 -0.00000000000E+00 -0.45593999997E+02  0.45594000000E+02  0.51100000000E-03 0. -1.
    9900012    2    1    2    0    0 -0.43296868364E-02  0.42175634743E+00 -0.11022304407E+01  0.90007826662E+02  0.90000089174E+02 0.  0.
        -12    1    1    2    0    0  0.43296868364E-02 -0.42175634743E+00  0.11022304407E+01  0.11801733378E+01  0.00000000000E+00 0.  1.
         11    1    3    3    0    0  0.71294381405E+01 -0.62502609061E+01 -0.63905219708E+01  0.11433871650E+02  0.51100000000E-03 0. -1.
        -11    1    3    3    0    0  0.34399019171E+02  0.21231711104E+01  0.11502323601E+02  0.36333233052E+02  0.51100000000E-03 0.  1.
         12    1    3    3    0    0 -0.41532786999E+02  0.45488461432E+01 -0.62140320713E+01  0.42240721960E+02  0.00000000000E+00 0. -1.
</event>
<event>
 7    1  0.3861961E-015  0.9000785E+02  0.7816164E-02  0.1186339E+00
        -11   -1    0    0    0    0  0.00000000000E+00  0.00000000000E+00  0.45593999997E+02  0.45594000000E+02  0.51100000000E-03 0.  1.
         11   -1    0    0    0    0 -0.00000000000E+00 -0.00000000000E+00 -0.45593999997E+02  0.45594000000E+02  0.51100000000E-03 0. -1.
    9900012    2    1    2    0    0  0.22117028116E-01 -0.11088590002E+01  0.40334416820E+00  0.90007854262E+02  0.90000117138E+02 0.  0.
        -12    1    1    2    0    0 -0.22117028116E-01  0.11088590002E+01 -0.40334416820E+00  0.11801457382E+01  0.00000000000E+00 0.  1.
         11    1    3    3    0    0  0.14582414966E+01  0.36479885887E+02  0.20621362799E+02  0.41930289130E+02  0.51100000000E-03 0. -1.
        -11    1    3    3    0    0  0.67083535126E+01 -0.39626925075E+01  0.40015157232E+00  0.78016062641E+01  0.51100000000E-03 0.  1.
        -12    1    3    3    0    0 -0.81444779810E+01 -0.33626052379E+02 -0.20618170203E+02  0.40275958868E+02  0.00000000000E+00 0.  1.
</event>
<event>
 7    1  0.3861961E-015  0.9000779E+02  0.7816164E-02  0.1186339E+00
        -11   -1    0    0    0    0  0.00000000000E+00  0.00000000000E+00  0.45593999997E+02  0.45594000000E+02  0.51100000000E-03 0. -1.
         11   -1    0    0    0    0 -0.00000000000E+00 -0.00000000000E+00 -0.45593999997E+02  0.45594000000E+02  0.51100000000E-03 0.  1.
    9900012    2    1    2    0    0  0.54751688789E+00 -0.39783714908E+00  0.96687486134E+00  0.90007789791E+02  0.90000051816E+02 0.  0.
        -12    1    1    2    0    0 -0.54751688789E+00  0.39783714908E+00 -0.96687486134E+00  0.11802102089E+01  0.00000000000E+00 0.  1.
         11    1    3    3    0    0 -0.25702450622E+02 -0.29007356296E+02  0.11874347409E+02  0.40534464520E+02  0.51100000000E-03 0. -1.
        -11    1    3    3    0    0  0.49122891697E+00 -0.19939056358E+01 -0.92101495266E+01  0.94363033067E+01  0.51100000000E-03 0.  1.
        -12    1    3    3    0    0  0.25758738593E+02  0.30603424783E+02 -0.16973230208E+01  0.40037021964E+02  0.00000000000E+00 0.  1.
</event>
<event>
 7    1  0.3861961E-015  0.9000779E+02  0.7816164E-02  0.1186339E+00
        -11   -1    0    0    0    0  0.00000000000E+00  0.00000000000E+00  0.45593999997E+02  0.45594000000E+02  0.51100000000E-03 0. -1.
         11   -1    0    0    0    0 -0.00000000000E+00 -0.00000000000E+00 -0.45593999997E+02  0.45594000000E+02  0.51100000000E-03 0.  1.
    9900012    2    1    2    0    0 -0.17214907791E+00 -0.11112506208E+01 -0.35831547686E+00  0.90007786787E+02  0.90000048773E+02 0.  0.
        -12    1    1    2    0    0  0.17214907791E+00  0.11112506208E+01  0.35831547686E+00  0.11802132130E+01  0.00000000000E+00 0.  1.
         11    1    3    3    0    0  0.26618433737E+00  0.68327654497E+01 -0.35993004365E+01  0.77273864719E+01  0.51100000000E-03 0. -1.
        -11    1    3    3    0    0 -0.22533628101E+02 -0.25127813884E+01 -0.32670687554E+02  0.39767477808E+02  0.51100000000E-03 0.  1.
         12    1    3    3    0    0  0.22095294686E+02 -0.54312346821E+01  0.35911672513E+02  0.42512922507E+02  0.00000000000E+00 0. -1.
</event>
<event>
 7    1  0.3861961E-015  0.9000772E+02  0.7816164E-02  0.1186339E+00
        -11   -1    0    0    0    0  0.00000000000E+00  0.00000000000E+00  0.45593999997E+02  0.45594000000E+02  0.51100000000E-03 0. -1.
         11   -1    0    0    0    0 -0.00000000000E+00 -0.00000000000E+00 -0.45593999997E+02  0.45594000000E+02  0.51100000000E-03 0.  1.
    9900012    2    1    2    0    0  0.35861278726E+00  0.97698394268E+00  0.55674599224E+00  0.90007717468E+02  0.89999978539E+02 0.  0.
        -12    1    1    2    0    0 -0.35861278726E+00 -0.97698394268E+00 -0.55674599224E+00  0.11802825320E+01  0.00000000000E+00 0.  1.
         11    1    3    3    0    0  0.16629329675E+02  0.29849745466E+02  0.62169735314E+01  0.34730284623E+02  0.51100000000E-03 0. -1.
        -11    1    3    3    0    0 -0.31840132547E+01  0.11602715629E+02  0.15536555641E+01  0.12131561987E+02  0.51100000000E-03 0.  1.
        -12    1    3    3    0    0 -0.13086703633E+02 -0.40475477152E+02 -0.72138831032E+01  0.43145870858E+02  0.00000000000E+00 0.  1.
</event>
<event>
 7    1  0.3861961E-015  0.9000769E+02  0.7816164E-02  0.1186339E+00
        -11   -1    0    0    0    0  0.00000000000E+00  0.00000000000E+00  0.45593999997E+02  0.45594000000E+02  0.51100000000E-03 0.  1.
         11   -1    0    0    0    0 -0.00000000000E+00 -0.00000000000E+00 -0.45593999997E+02  0.45594000000E+02  0.51100000000E-03 0. -1.
    9900012    2    1    2    0    0 -0.83775027528E+00 -0.32980539724E+00  0.76323940140E+00  0.90007690080E+02  0.89999950789E+02 0.  0.
        -12    1    1    2    0    0  0.83775027528E+00  0.32980539724E+00 -0.76323940140E+00  0.11803099202E+01  0.00000000000E+00 0.  1.
         11    1    3    3    0    0  0.49027235214E+01 -0.10854051061E+02 -0.51729296132E+01  0.12984849765E+02  0.51100000000E-03 0. -1.
        -11    1    3    3    0    0 -0.10210010576E+02 -0.15566413929E+02  0.33801467864E+02  0.38588816885E+02  0.51100000000E-03 0.  1.
         12    1    3    3    0    0  0.44695367792E+01  0.26090659593E+02 -0.27865298849E+02  0.38434023430E+02  0.00000000000E+00 0. -1.
</event>
<event>
 7    1  0.3861961E-015  0.9000773E+02  0.7816164E-02  0.1186339E+00
        -11   -1    0    0    0    0  0.00000000000E+00  0.00000000000E+00  0.45593999997E+02  0.45594000000E+02  0.51100000000E-03 0. -1.
         11   -1    0    0    0    0 -0.00000000000E+00 -0.00000000000E+00 -0.45593999997E+02  0.45594000000E+02  0.51100000000E-03 0.  1.
    9900012    2    1    2    0    0 -0.10671990371E+01  0.26747872841E+00  0.42728342763E+00  0.90007733173E+02  0.89999994451E+02 0.  0.
        -12    1    1    2    0    0  0.10671990371E+01 -0.26747872841E+00 -0.42728342763E+00  0.11802668268E+01  0.00000000000E+00 0.  1.
         11    1    3    3    0    0 -0.71643743313E+01 -0.13913452532E+02  0.90932660815E+01  0.18099721247E+02  0.51100000000E-03 0. -1.
        -11    1    3    3    0    0 -0.21658262389E+02  0.94914060833E+01 -0.28826339012E+02  0.37284379306E+02  0.51100000000E-03 0.  1.
         12    1    3    3    0    0  0.27755437683E+02  0.46895251771E+01  0.20160356358E+02  0.34623632621E+02  0.00000000000E+00 0. -1.
</event>
<event>
 7    1  0.3861961E-015  0.9000775E+02  0.7816164E-02  0.1186339E+00
        -11   -1    0    0    0    0  0.00000000000E+00  0.00000000000E+00  0.45593999997E+02  0.45594000000E+02  0.51100000000E-03 0. -1.
         11   -1    0    0    0    0 -0.00000000000E+00 -0.00000000000E+00 -0.45593999997E+02  0.45594000000E+02  0.51100000000E-03 0.  1.
    9900012    2    1    2    0    0 -0.27538583424E-01 -0.75398038963E+00  0.90760680750E+00  0.90007747943E+02  0.90000009416E+02 0.  0.
        -12    1    1    2    0    0  0.27538583424E-01  0.75398038963E+00 -0.90760680750E+00  0.11802520572E+01  0.00000000000E+00 0.  1.
         11    1    3    3    0    0  0.10402458647E+02  0.37768365537E+02 -0.10694841068E+02  0.40608376069E+02  0.51100000000E-03 0. -1.
        -11    1    3    3    0    0 -0.59570607426E+01 -0.37512553070E+01 -0.68152463243E+01  0.97982688160E+01  0.51100000000E-03 0.  1.
        -12    1    3    3    0    0 -0.44729364884E+01 -0.34771090620E+02  0.18417694200E+02  0.39601103057E+02  0.00000000000E+00 0.  1.
</event>
<event>
 7    1  0.3861961E-015  0.9000763E+02  0.7816164E-02  0.1186339E+00
        -11   -1    0    0    0    0  0.00000000000E+00  0.00000000000E+00  0.45593999997E+02  0.45594000000E+02  0.51100000000E-03 0.  1.
         11   -1    0    0    0    0 -0.00000000000E+00 -0.00000000000E+00 -0.45593999997E+02  0.45594000000E+02  0.51100000000E-03 0. -1.
    9900012    2    1    2    0    0 -0.24647833443E+00  0.26025279686E+00 -0.11246325768E+01  0.90007626534E+02  0.89999886404E+02 0.  0.
        -12    1    1    2    0    0  0.24647833443E+00 -0.26025279686E+00  0.11246325768E+01  0.11803734665E+01  0.00000000000E+00 0.  1.
         11    1    3    3    0    0  0.49155562612E+01 -0.71266279198E+01  0.71697408531E+01  0.11240849747E+02  0.51100000000E-03 0. -1.
        -11    1    3    3    0    0 -0.30611088713E+02  0.28518225335E+02  0.68366596949E+01  0.42391837003E+02  0.51100000000E-03 0.  1.
         12    1    3    3    0    0  0.25449054117E+02 -0.21131344619E+02 -0.15131033125E+02  0.36374939784E+02  0.00000000000E+00 0. -1.
</event>
<event>
 7    1  0.3861961E-015  0.9000770E+02  0.7816164E-02  0.1186339E+00
        -11   -1    0    0    0    0  0.00000000000E+00  0.00000000000E+00  0.45593999997E+02  0.45594000000E+02  0.51100000000E-03 0. -1.
         11   -1    0    0    0    0 -0.00000000000E+00 -0.00000000000E+00 -0.45593999997E+02  0.45594000000E+02  0.51100000000E-03 0.  1.
    9900012    2    1    2    0    0  0.85400667624E+00  0.66348206247E+00  0.47283100691E+00  0.90007701304E+02  0.89999962161E+02 0.  0.
        -12    1    1    2    0    0 -0.85400667624E+00 -0.66348206247E+00 -0.47283100691E+00  0.11802986958E+01  0.00000000000E+00 0.  1.
         11    1    3    3    0    0  0.20518142074E+02 -0.32165578487E+02  0.12824793267E+01  0.38174118812E+02  0.51100000000E-03 0. -1.
        -11    1    3    3    0    0  0.83016218976E+01  0.85242863266E+01  0.72256990190E+01  0.13920887547E+02  0.51100000000E-03 0.  1.
        -12    1    3    3    0    0 -0.27965757296E+02  0.24304774223E+02 -0.80353473389E+01  0.37912694945E+02  0.00000000000E+00 0.  1.
</event>
<event>
 7    1  0.3861961E-015  0.9000770E+02  0.7816164E-02  0.1186339E+00
        -11   -1    0    0    0    0  0.00000000000E+00  0.00000000000E+00  0.45593999997E+02  0.45594000000E+02  0.51100000000E-03 0.  1.
         11   -1    0    0    0    0 -0.00000000000E+00 -0.00000000000E+00 -0.45593999997E+02  0.45594000000E+02  0.51100000000E-03 0. -1.
    9900012    2    1    2    0    0 -0.25445422833E+00  0.99762429039E+00 -0.57714691843E+00  0.90007703535E+02  0.89999964422E+02 0.  0.
        -12    1    1    2    0    0  0.25445422833E+00 -0.99762429039E+00  0.57714691843E+00  0.11802964647E+01  0.00000000000E+00 0.  1.
         11    1    3    3    0    0  0.20873577013E+01 -0.19309274265E+01 -0.77754034838E+01  0.82790363266E+01  0.51100000000E-03 0. -1.
        -11    1    3    3    0    0  0.32872033539E+02  0.20914013696E+02  0.14400217544E+02  0.41537125845E+02  0.51100000000E-03 0.  1.
         12    1    3    3    0    0 -0.35213845469E+02 -0.17985461979E+02 -0.72019609786E+01  0.40191541364E+02  0.00000000000E+00 0. -1.
</event>
<event>
 7    1  0.3861961E-015  0.9000771E+02  0.7816164E-02  0.1186339E+00
        -11   -1    0    0    0    0  0.00000000000E+00  0.00000000000E+00  0.45593999997E+02  0.45594000000E+02  0.51100000000E-03 0.  1.
         11   -1    0    0    0    0 -0.00000000000E+00 -0.00000000000E+00 -0.45593999997E+02  0.45594000000E+02  0.51100000000E-03 0. -1.
    9900012    2    1    2    0    0  0.59199388978E+00 -0.93613008110E+00 -0.40777138007E+00  0.90007714529E+02  0.89999975561E+02 0.  0.
        -12    1    1    2    0    0 -0.59199388978E+00  0.93613008110E+00  0.40777138007E+00  0.11802854708E+01  0.00000000000E+00 0.  1.
         11    1    3    3    0    0  0.21241221487E+02 -0.34117285888E+02  0.12135220939E+01  0.40207602798E+02  0.51100000000E-03 0. -1.
        -11    1    3    3    0    0  0.32408710751E+01  0.26305784173E+01 -0.93641472451E+01  0.10252338369E+02  0.51100000000E-03 0.  1.
        -12    1    3    3    0    0 -0.23890098672E+02  0.30550577390E+02  0.77428537711E+01  0.39547773363E+02  0.00000000000E+00 0.  1.
</event>
<event>
 7    1  0.3861961E-015  0.9000775E+02  0.7816164E-02  0.1186339E+00
        -11   -1    0    0    0    0  0.00000000000E+00  0.00000000000E+00  0.45593999997E+02  0.45594000000E+02  0.51100000000E-03 0.  1.
         11   -1    0    0    0    0 -0.00000000000E+00 -0.00000000000E+00 -0.45593999997E+02  0.45594000000E+02  0.51100000000E-03 0. -1.
    9900012    2    1    2    0    0  0.32801430451E+00 -0.55382237495E+00 -0.98928376606E+00  0.90007747918E+02  0.90000009391E+02 0.  0.
        -12    1    1    2    0    0 -0.32801430451E+00  0.55382237495E+00  0.98928376606E+00  0.11802520819E+01  0.00000000000E+00 0.  1.
         11    1    3    3    0    0 -0.47148682060E+01  0.32042656129E+02 -0.54922874770E+00  0.32392336231E+02  0.51100000000E-03 0. -1.
        -11    1    3    3    0    0  0.23552218993E+02 -0.46302569471E+01 -0.16237410218E+01  0.24057905854E+02  0.51100000000E-03 0.  1.
        -12    1    3    3    0    0 -0.18509336483E+02 -0.27966221557E+02  0.11836860035E+01  0.33557505834E+02  0.00000000000E+00 0.  1.
</event>
<event>
 7    1  0.3861961E-015  0.9000760E+02  0.7816164E-02  0.1186339E+00
        -11   -1    0    0    0    0  0.00000000000E+00  0.00000000000E+00  0.45593999997E+02  0.45594000000E+02  0.51100000000E-03 0. -1.
         11   -1    0    0    0    0 -0.00000000000E+00 -0.00000000000E+00 -0.45593999997E+02  0.45594000000E+02  0.51100000000E-03 0.  1.
    9900012    2    1    2    0    0 -0.76622074144E+00  0.59659435473E+00 -0.67106073746E+00  0.90007601100E+02  0.89999860635E+02 0.  0.
        -12    1    1    2    0    0  0.76622074144E+00 -0.59659435473E+00  0.67106073746E+00  0.11803988996E+01  0.00000000000E+00 0.  1.
         11    1    3    3    0    0  0.20788058068E+02  0.58766601332E+01  0.38018413519E+02  0.43727317083E+02  0.51100000000E-03 0. -1.
        -11    1    3    3    0    0 -0.29821544353E+00 -0.40928296854E+01 -0.65497790084E+01  0.77291521271E+01  0.51100000000E-03 0.  1.
        -12    1    3    3    0    0 -0.21256063366E+02 -0.11872360931E+01 -0.32139695248E+02  0.38551131890E+02  0.00000000000E+00 0.  1.
</event>
<event>
 7    1  0.3861961E-015  0.9000770E+02  0.7816164E-02  0.1186339E+00
        -11   -1    0    0    0    0  0.00000000000E+00  0.00000000000E+00  0.45593999997E+02  0.45594000000E+02  0.51100000000E-03 0.  1.
         11   -1    0    0    0    0 -0.00000000000E+00 -0.00000000000E+00 -0.45593999997E+02  0.45594000000E+02  0.51100000000E-03 0. -1.
    9900012    2    1    2    0    0 -0.60295897564E+00 -0.73685266898E+00 -0.69755693169E+00  0.90007704675E+02  0.89999965576E+02 0.  0.
        -12    1    1    2    0    0  0.60295897564E+00  0.73685266898E+00  0.69755693169E+00  0.11802953253E+01  0.00000000000E+00 0.  1.
         11    1    3    3    0    0  0.74575151409E+01  0.67434184939E+01  0.48050181086E+00  0.10065739283E+02  0.51100000000E-03 0. -1.
        -11    1    3    3    0    0  0.11771597612E+01  0.35569517443E+02  0.29956565141E+01  0.35714846135E+02  0.51100000000E-03 0.  1.
         12    1    3    3    0    0 -0.92376338778E+01 -0.43049788606E+02 -0.41737152567E+01  0.44227119257E+02  0.00000000000E+00 0. -1.
</event>
<event>
 7    1  0.3861961E-015  0.9000774E+02  0.7816164E-02  0.1186339E+00
        -11   -1    0    0    0    0  0.00000000000E+00  0.00000000000E+00  0.45593999997E+02  0.45594000000E+02  0.51100000000E-03 0. -1.
         11   -1    0    0    0    0 -0.00000000000E+00 -0.00000000000E+00 -0.45593999997E+02  0.45594000000E+02  0.51100000000E-03 0.  1.
    9900012    2    1    2    0    0  0.72644968538E+00  0.87554775854E+00  0.31415072463E+00  0.90007744222E+02  0.90000005646E+02 0.  0.
        -12    1    1    2    0    0 -0.72644968538E+00 -0.87554775854E+00 -0.31415072463E+00  0.11802557776E+01  0.00000000000E+00 0.  1.
         11    1    3    3    0    0  0.22021724572E+02 -0.15077457914E+02  0.32952110502E+02  0.42404335593E+02  0.51100000000E-03 0. -1.
        -11    1    3    3    0    0 -0.39188218952E+01  0.89916084153E+01  0.19358648079E+00  0.98103854627E+01  0.51100000000E-03 0.  1.
        -12    1    3    3    0    0 -0.17376452992E+02  0.69613972575E+01 -0.32831546258E+02  0.37793023166E+02  0.00000000000E+00 0.  1.
</event>
<event>
 7    1  0.3861961E-015  0.9000676E+02  0.7816164E-02  0.1186341E+00
        -11   -1    0    0    0    0  0.00000000000E+00  0.00000000000E+00  0.45593999997E+02  0.45594000000E+02  0.51100000000E-03 0. -1.
         11   -1    0    0    0    0 -0.00000000000E+00 -0.00000000000E+00 -0.45593999997E+02  0.45594000000E+02  0.51100000000E-03 0.  1.
    9900012    2    1    2    0    0  0.10240043638E+01 -0.56872188698E+00 -0.15265247993E+00  0.90006758153E+02  0.89999006555E+02 0.  0.
        -12    1    1    2    0    0 -0.10240043638E+01  0.56872188698E+00  0.15265247993E+00  0.11812418471E+01  0.00000000000E+00 0.  1.
         11    1    3    3    0    0  0.87290660847E+01  0.45838497636E+01  0.33047854196E+01  0.10398551837E+02  0.51100000000E-03 0. -1.
        -11    1    3    3    0    0  0.14697733712E+02 -0.34976678215E+02 -0.14641698457E+02  0.40666580004E+02  0.51100000000E-03 0.  1.
         12    1    3    3    0    0 -0.22402795433E+02  0.29824106565E+02  0.11184260558E+02  0.38941626312E+02  0.00000000000E+00 0. -1.
</event>
<event>
 7    1  0.3861961E-015  0.9000776E+02  0.7816164E-02  0.1186339E+00
        -11   -1    0    0    0    0  0.00000000000E+00  0.00000000000E+00  0.45593999997E+02  0.45594000000E+02  0.51100000000E-03 0.  1.
         11   -1    0    0    0    0 -0.00000000000E+00 -0.00000000000E+00 -0.45593999997E+02  0.45594000000E+02  0.51100000000E-03 0. -1.
    9900012    2    1    2    0    0  0.25114893610E+00  0.10997505544E+01 -0.34704665134E+00  0.90007759157E+02  0.90000020778E+02 0.  0.
        -12    1    1    2    0    0 -0.25114893610E+00 -0.10997505544E+01  0.34704665134E+00  0.11802408433E+01  0.00000000000E+00 0.  1.
         11    1    3    3    0    0 -0.68787672567E+01 -0.67321808038E+00 -0.33036041565E+01  0.76605784534E+01  0.51100000000E-03 0. -1.
        -11    1    3    3    0    0 -0.12755877346E+02  0.38370968571E+02  0.43731626296E+01  0.40671466504E+02  0.51100000000E-03 0.  1.
         12    1    3    3    0    0  0.19885793539E+02 -0.36597999936E+02 -0.14166051244E+01  0.41675714200E+02  0.00000000000E+00 0. -1.
</event>
<event>
 7    1  0.3861961E-015  0.9000790E+02  0.7816164E-02  0.1186339E+00
        -11   -1    0    0    0    0  0.00000000000E+00  0.00000000000E+00  0.45593999997E+02  0.45594000000E+02  0.51100000000E-03 0. -1.
         11   -1    0    0    0    0 -0.00000000000E+00 -0.00000000000E+00 -0.45593999997E+02  0.45594000000E+02  0.51100000000E-03 0.  1.
    9900012    2    1    2    0    0 -0.11405451705E+01  0.17629181659E+00  0.24641158974E+00  0.90007897987E+02  0.90000161440E+02 0.  0.
        -12    1    1    2    0    0  0.11405451705E+01 -0.17629181659E+00 -0.24641158974E+00  0.11801020135E+01  0.00000000000E+00 0.  1.
         11    1    3    3    0    0  0.11126412038E+02  0.58050400847E+01 -0.32620392808E+00  0.12553961307E+02  0.51100000000E-03 0. -1.
        -11    1    3    3    0    0  0.27697853746E+02  0.15991144463E+02 -0.84700709806E+00  0.31993831041E+02  0.51100000000E-03 0.  1.
         12    1    3    3    0    0 -0.39964810954E+02 -0.21619892732E+02  0.14196226159E+01  0.45460105639E+02  0.00000000000E+00 0. -1.
</event>
<event>
 7    1  0.3861961E-015  0.9000777E+02  0.7816164E-02  0.1186339E+00
        -11   -1    0    0    0    0  0.00000000000E+00  0.00000000000E+00  0.45593999997E+02  0.45594000000E+02  0.51100000000E-03 0. -1.
         11   -1    0    0    0    0 -0.00000000000E+00 -0.00000000000E+00 -0.45593999997E+02  0.45594000000E+02  0.51100000000E-03 0.  1.
    9900012    2    1    2    0    0 -0.64351484028E+00 -0.65762275788E+00  0.73917140638E+00  0.90007765528E+02  0.90000027233E+02 0.  0.
        -12    1    1    2    0    0  0.64351484028E+00  0.65762275788E+00 -0.73917140638E+00  0.11802344722E+01  0.00000000000E+00 0.  1.
         11    1    3    3    0    0 -0.18582622850E+02  0.30032355725E+02 -0.51317380230E+01  0.35687406711E+02  0.51100000000E-03 0. -1.
        -11    1    3    3    0    0 -0.20440870331E+01  0.88542301011E+01  0.41246110358E+01  0.99793836954E+01  0.51100000000E-03 0.  1.
        -12    1    3    3    0    0  0.19983195043E+02 -0.39544208584E+02  0.17462983936E+01  0.44340975121E+02  0.00000000000E+00 0.  1.
</event>
<event>
 7    1  0.3861961E-015  0.9000772E+02  0.7816164E-02  0.1186339E+00
        -11   -1    0    0    0    0  0.00000000000E+00  0.00000000000E+00  0.45593999997E+02  0.45594000000E+02  0.51100000000E-03 0. -1.
         11   -1    0    0    0    0 -0.00000000000E+00 -0.00000000000E+00 -0.45593999997E+02  0.45594000000E+02  0.51100000000E-03 0.  1.
    9900012    2    1    2    0    0  0.88201737869E+00  0.76864449818E+00 -0.15588669422E+00  0.90007716270E+02  0.89999977325E+02 0.  0.
        -12    1    1    2    0    0 -0.88201737869E+00 -0.76864449818E+00  0.15588669422E+00  0.11802837296E+01  0.00000000000E+00 0.  1.
         11    1    3    3    0    0  0.19675304687E+01  0.83094806638E+01 -0.64628175523E+01  0.10709185591E+02  0.51100000000E-03 0. -1.
        -11    1    3    3    0    0  0.31422241108E+02  0.17251935158E+02 -0.65524138329E+01  0.36440645305E+02  0.51100000000E-03 0.  1.
         12    1    3    3    0    0 -0.32507754198E+02 -0.24792771324E+02  0.12859344691E+02  0.42857885375E+02  0.00000000000E+00 0. -1.
</event>
<event>
 7    1  0.3861961E-015  0.9000775E+02  0.7816164E-02  0.1186339E+00
        -11   -1    0    0    0    0  0.00000000000E+00  0.00000000000E+00  0.45593999997E+02  0.45594000000E+02  0.51100000000E-03 0. -1.
         11   -1    0    0    0    0 -0.00000000000E+00 -0.00000000000E+00 -0.45593999997E+02  0.45594000000E+02  0.51100000000E-03 0.  1.
    9900012    2    1    2    0    0 -0.28991742528E+00 -0.60977500805E+00  0.96804670422E+00  0.90007749139E+02  0.90000010627E+02 0.  0.
        -12    1    1    2    0    0  0.28991742528E+00  0.60977500805E+00 -0.96804670422E+00  0.11802508612E+01  0.00000000000E+00 0.  1.
         11    1    3    3    0    0 -0.13939993088E+02  0.51297155666E+01  0.78144779133E+01  0.16784023785E+02  0.51100000000E-03 0. -1.
        -11    1    3    3    0    0 -0.19835441157E+02 -0.16396209718E+02 -0.23030828490E+02  0.34535481468E+02  0.51100000000E-03 0.  1.
         12    1    3    3    0    0  0.33485516820E+02  0.10656719143E+02  0.16184397281E+02  0.38688243886E+02  0.00000000000E+00 0. -1.
</event>
<event>
 7    1  0.3861961E-015  0.9000775E+02  0.7816164E-02  0.1186339E+00
        -11   -1    0    0    0    0  0.00000000000E+00  0.00000000000E+00  0.45593999997E+02  0.45594000000E+02  0.51100000000E-03 0. -1.
         11   -1    0    0    0    0 -0.00000000000E+00 -0.00000000000E+00 -0.45593999997E+02  0.45594000000E+02  0.51100000000E-03 0.  1.
    9900012    2    1    2    0    0  0.86543305827E+00 -0.35875615074E+00  0.71784295330E+00  0.90007754746E+02  0.90000016309E+02 0.  0.
        -12    1    1    2    0    0 -0.86543305827E+00  0.35875615074E+00 -0.71784295330E+00  0.11802452540E+01  0.00000000000E+00 0.  1.
         11    1    3    3    0    0  0.20759086194E+02  0.52722794968E+01  0.32771917234E+02  0.39150161559E+02  0.51100000000E-03 0. -1.
        -11    1    3    3    0    0  0.72236980616E+01  0.48995509125E+01 -0.18493704110E+01  0.89223082220E+01  0.51100000000E-03 0.  1.
        -12    1    3    3    0    0 -0.27117351197E+02 -0.10530586560E+02 -0.30204703869E+02  0.41935284965E+02  0.00000000000E+00 0.  1.
</event>
<event>
 7    1  0.3861961E-015  0.9000767E+02  0.7816164E-02  0.1186339E+00
        -11   -1    0    0    0    0  0.00000000000E+00  0.00000000000E+00  0.45593999997E+02  0.45594000000E+02  0.51100000000E-03 0. -1.
         11   -1    0    0    0    0 -0.00000000000E+00 -0.00000000000E+00 -0.45593999997E+02  0.45594000000E+02  0.51100000000E-03 0.  1.
    9900012    2    1    2    0    0 -0.10718255186E+01 -0.42461043230E+00  0.25315027321E+00  0.90007665716E+02  0.89999926103E+02 0.  0.
        -12    1    1    2    0    0  0.10718255186E+01  0.42461043230E+00 -0.25315027321E+00  0.11803342842E+01  0.00000000000E+00 0.  1.
         11    1    3    3    0    0  0.39572712276E+01 -0.14471787037E+01  0.83016926083E+01  0.93098024788E+01  0.51100000000E-03 0. -1.
        -11    1    3    3    0    0  0.35165158498E+02  0.84106377677E+01 -0.15177162883E+02  0.39213179841E+02  0.51100000000E-03 0.  1.
         12    1    3    3    0    0 -0.40194255244E+02 -0.73880694962E+01  0.71286205475E+01  0.41484683396E+02  0.00000000000E+00 0. -1.
</event>
<event>
 7    1  0.3861961E-015  0.9000768E+02  0.7816164E-02  0.1186339E+00
        -11   -1    0    0    0    0  0.00000000000E+00  0.00000000000E+00  0.45593999997E+02  0.45594000000E+02  0.51100000000E-03 0. -1.
         11   -1    0    0    0    0 -0.00000000000E+00 -0.00000000000E+00 -0.45593999997E+02  0.45594000000E+02  0.51100000000E-03 0.  1.
    9900012    2    1    2    0    0  0.71297743640E+00  0.48076276119E+00  0.80851217926E+00  0.90007677332E+02  0.89999937872E+02 0.  0.
        -12    1    1    2    0    0 -0.71297743640E+00 -0.48076276119E+00 -0.80851217926E+00  0.11803226683E+01  0.00000000000E+00 0.  1.
         11    1    3    3    0    0 -0.19594133856E+01 -0.34077286103E+01 -0.80310063317E+01  0.89414192419E+01  0.51100000000E-03 0. -1.
        -11    1    3    3    0    0  0.27271136248E+02  0.56662240342E+01 -0.26185265376E+02  0.38229427018E+02  0.51100000000E-03 0.  1.
         12    1    3    3    0    0 -0.24598745426E+02 -0.17777326626E+01  0.35024783887E+02  0.42836831072E+02  0.00000000000E+00 0. -1.
</event>
<event>
 7    1  0.3861961E-015  0.9000771E+02  0.7816164E-02  0.1186339E+00
        -11   -1    0    0    0    0  0.00000000000E+00  0.00000000000E+00  0.45593999997E+02  0.45594000000E+02  0.51100000000E-03 0. -1.
         11   -1    0    0    0    0 -0.00000000000E+00 -0.00000000000E+00 -0.45593999997E+02  0.45594000000E+02  0.51100000000E-03 0.  1.
    9900012    2    1    2    0    0 -0.11283464199E+01  0.34291025471E+00 -0.48329427090E-01  0.90007708163E+02  0.89999969111E+02 0.  0.
        -12    1    1    2    0    0  0.11283464199E+01 -0.34291025471E+00  0.48329427090E-01  0.11802918366E+01  0.00000000000E+00 0.  1.
         11    1    3    3    0    0 -0.11907360884E+02 -0.33431627551E+02  0.12661510870E+02  0.37679872899E+02  0.51100000000E-03 0. -1.
        -11    1    3    3    0    0  0.86857888503E+01 -0.62109928362E+01 -0.35558919715E+01  0.11254498120E+02  0.51100000000E-03 0.  1.
        -12    1    3    3    0    0  0.20932256135E+01  0.39985530642E+02 -0.91539483260E+01  0.41073337144E+02  0.00000000000E+00 0.  1.
</event>
<event>
 7    1  0.3861961E-015  0.9000774E+02  0.7816164E-02  0.1186339E+00
        -11   -1    0    0    0    0  0.00000000000E+00  0.00000000000E+00  0.45593999997E+02  0.45594000000E+02  0.51100000000E-03 0.  1.
         11   -1    0    0    0    0 -0.00000000000E+00 -0.00000000000E+00 -0.45593999997E+02  0.45594000000E+02  0.51100000000E-03 0. -1.
    9900012    2    1    2    0    0  0.55265064617E+00 -0.15247349780E+00 -0.10316726428E+01  0.90007737594E+02  0.89999998931E+02 0.  0.
        -12    1    1    2    0    0 -0.55265064617E+00  0.15247349780E+00  0.10316726428E+01  0.11802624057E+01  0.00000000000E+00 0.  1.
         11    1    3    3    0    0  0.77510940865E+01 -0.57601195456E+01 -0.44105286331E+01  0.10616553104E+02  0.51100000000E-03 0. -1.
        -11    1    3    3    0    0  0.15327045311E+02 -0.32000175235E+02  0.15833533443E+01  0.35516707914E+02  0.51100000000E-03 0.  1.
         12    1    3    3    0    0 -0.22525488751E+02  0.37607821282E+02  0.17955026460E+01  0.43874476576E+02  0.00000000000E+00 0. -1.
</event>
<event>
 7    1  0.3861961E-015  0.9000777E+02  0.7816164E-02  0.1186339E+00
        -11   -1    0    0    0    0  0.00000000000E+00  0.00000000000E+00  0.45593999997E+02  0.45594000000E+02  0.51100000000E-03 0.  1.
         11   -1    0    0    0    0 -0.00000000000E+00 -0.00000000000E+00 -0.45593999997E+02  0.45594000000E+02  0.51100000000E-03 0. -1.
    9900012    2    1    2    0    0 -0.59440892419E+00  0.17923862974E-01 -0.10194618875E+01  0.90007768762E+02  0.90000030510E+02 0.  0.
        -12    1    1    2    0    0  0.59440892419E+00 -0.17923862974E-01  0.10194618875E+01  0.11802312375E+01  0.00000000000E+00 0.  1.
         11    1    3    3    0    0 -0.56793764212E+01  0.33582029874E+02 -0.15017301331E+02  0.37222673017E+02  0.51100000000E-03 0. -1.
        -11    1    3    3    0    0 -0.54051683107E+01  0.66599866446E+01 -0.90501431703E+00  0.86249821883E+01  0.51100000000E-03 0.  1.
        -12    1    3    3    0    0  0.10490135808E+02 -0.40224092655E+02  0.14902853761E+02  0.44160113558E+02  0.00000000000E+00 0.  1.
</event>
<event>
 7    1  0.3861961E-015  0.9000771E+02  0.7816164E-02  0.1186339E+00
        -11   -1    0    0    0    0  0.00000000000E+00  0.00000000000E+00  0.45593999997E+02  0.45594000000E+02  0.51100000000E-03 0.  1.
         11   -1    0    0    0    0 -0.00000000000E+00 -0.00000000000E+00 -0.45593999997E+02  0.45594000000E+02  0.51100000000E-03 0. -1.
    9900012    2    1    2    0    0  0.10029251433E+01 -0.62227319105E+00 -0.13918953913E-02  0.90007709907E+02  0.89999970877E+02 0.  0.
        -12    1    1    2    0    0 -0.10029251433E+01  0.62227319105E+00  0.13918953913E-02  0.11802900935E+01  0.00000000000E+00 0.  1.
         11    1    3    3    0    0 -0.25835638481E+02  0.21286481642E+02 -0.16618448109E+02  0.37373350588E+02  0.51100000000E-03 0. -1.
        -11    1    3    3    0    0  0.36255070883E+01  0.61366839173E+01 -0.63860872299E+01  0.95700209779E+01  0.51100000000E-03 0.  1.
        -12    1    3    3    0    0  0.23213056536E+02 -0.28045438750E+02  0.23003143444E+02  0.43064338340E+02  0.00000000000E+00 0.  1.
</event>
<event>
 7    1  0.3861961E-015  0.9000783E+02  0.7816164E-02  0.1186339E+00
        -11   -1    0    0    0    0  0.00000000000E+00  0.00000000000E+00  0.45593999997E+02  0.45594000000E+02  0.51100000000E-03 0.  1.
         11   -1    0    0    0    0 -0.00000000000E+00 -0.00000000000E+00 -0.45593999997E+02  0.45594000000E+02  0.51100000000E-03 0. -1.
    9900012    2    1    2    0    0  0.46653793471E+00 -0.10560185449E+01 -0.24490630331E+00  0.90007825475E+02  0.90000087971E+02 0.  0.
        -12    1    1    2    0    0 -0.46653793471E+00  0.10560185449E+01  0.24490630331E+00  0.11801745248E+01  0.00000000000E+00 0.  1.
         11    1    3    3    0    0 -0.40712945270E+01  0.10022457898E+02  0.76198780653E+00  0.10844617426E+02  0.51100000000E-03 0. -1.
        -11    1    3    3    0    0 -0.26633041457E+02  0.19186382778E+02  0.10056624659E+02  0.34330334708E+02  0.51100000000E-03 0.  1.
         12    1    3    3    0    0  0.31170873919E+02 -0.30264859220E+02 -0.11063518769E+02  0.44832873341E+02  0.00000000000E+00 0. -1.
</event>
<event>
 7    1  0.3861961E-015  0.9000766E+02  0.7816164E-02  0.1186339E+00
        -11   -1    0    0    0    0  0.00000000000E+00  0.00000000000E+00  0.45593999997E+02  0.45594000000E+02  0.51100000000E-03 0. -1.
         11   -1    0    0    0    0 -0.00000000000E+00 -0.00000000000E+00 -0.45593999997E+02  0.45594000000E+02  0.51100000000E-03 0.  1.
    9900012    2    1    2    0    0  0.44652858089E+00 -0.10890285317E+01  0.88449004786E-01  0.90007663547E+02  0.89999923906E+02 0.  0.
        -12    1    1    2    0    0 -0.44652858089E+00  0.10890285317E+01 -0.88449004786E-01  0.11803364532E+01  0.00000000000E+00 0.  1.
         11    1    3    3    0    0 -0.87720795497E+00 -0.97017269309E+01 -0.16233872448E+01  0.98756460875E+01  0.51100000000E-03 0. -1.
        -11    1    3    3    0    0 -0.28365840509E+02  0.16655841265E+02 -0.23445520971E+02  0.40394682941E+02  0.51100000000E-03 0.  1.
         12    1    3    3    0    0  0.29689577045E+02 -0.80431428657E+01  0.25157357221E+02  0.39737334518E+02  0.00000000000E+00 0. -1.
</event>
<event>
 7    1  0.3861961E-015  0.9000781E+02  0.7816164E-02  0.1186339E+00
        -11   -1    0    0    0    0  0.00000000000E+00  0.00000000000E+00  0.45593999997E+02  0.45594000000E+02  0.51100000000E-03 0.  1.
         11   -1    0    0    0    0 -0.00000000000E+00 -0.00000000000E+00 -0.45593999997E+02  0.45594000000E+02  0.51100000000E-03 0. -1.
    9900012    2    1    2    0    0  0.51825905862E+00 -0.53753419321E+00 -0.91395276511E+00  0.90007811406E+02  0.90000073716E+02 0.  0.
        -12    1    1    2    0    0 -0.51825905862E+00  0.53753419321E+00  0.91395276511E+00  0.11801885941E+01  0.00000000000E+00 0.  1.
         11    1    3    3    0    0  0.19969429193E+02  0.21171229173E+02  0.27781694715E+02  0.40234582245E+02  0.51100000000E-03 0. -1.
        -11    1    3    3    0    0 -0.33092628506E+00 -0.91068045304E+01  0.39209578932E+01  0.99205499859E+01  0.51100000000E-03 0.  1.
        -12    1    3    3    0    0 -0.19120243849E+02 -0.12601958836E+02 -0.32616605373E+02  0.39852679175E+02  0.00000000000E+00 0.  1.
</event>
<event>
 7    1  0.3861961E-015  0.9000752E+02  0.7816164E-02  0.1186339E+00
        -11   -1    0    0    0    0  0.00000000000E+00  0.00000000000E+00  0.45593999997E+02  0.45594000000E+02  0.51100000000E-03 0.  1.
         11   -1    0    0    0    0 -0.00000000000E+00 -0.00000000000E+00 -0.45593999997E+02  0.45594000000E+02  0.51100000000E-03 0. -1.
    9900012    2    1    2    0    0  0.19418493649E+00 -0.16499303813E+00 -0.11526453407E+01  0.90007524768E+02  0.89999783295E+02 0.  0.
        -12    1    1    2    0    0 -0.19418493649E+00  0.16499303813E+00  0.11526453407E+01  0.11804752321E+01  0.00000000000E+00 0.  1.
         11    1    3    3    0    0 -0.35548558574E+00 -0.94701999490E+01 -0.18335592854E+01  0.96526160698E+01  0.51100000000E-03 0. -1.
        -11    1    3    3    0    0 -0.30879345519E+02  0.19755988000E+02  0.20255281914E+02  0.41882090292E+02  0.51100000000E-03 0.  1.
         12    1    3    3    0    0  0.31429016041E+02 -0.10450781089E+02 -0.19574367970E+02  0.38472818406E+02  0.00000000000E+00 0. -1.
</event>
<event>
 7    1  0.3861961E-015  0.9000773E+02  0.7816164E-02  0.1186339E+00
        -11   -1    0    0    0    0  0.00000000000E+00  0.00000000000E+00  0.45593999997E+02  0.45594000000E+02  0.51100000000E-03 0.  1.
         11   -1    0    0    0    0 -0.00000000000E+00 -0.00000000000E+00 -0.45593999997E+02  0.45594000000E+02  0.51100000000E-03 0. -1.
    9900012    2    1    2    0    0 -0.28962930506E+00 -0.46538161584E+00  0.10452646566E+01  0.90007727411E+02  0.89999988613E+02 0.  0.
        -12    1    1    2    0    0  0.28962930506E+00  0.46538161584E+00 -0.10452646566E+01  0.11802725893E+01  0.00000000000E+00 0.  1.
         11    1    3    3    0    0 -0.73699145881E+01 -0.34141373262E+01 -0.58942400257E+01  0.10035638518E+02  0.51100000000E-03 0. -1.
        -11    1    3    3    0    0 -0.25290491792E+02  0.28547935110E+02  0.98433280498E-01  0.38139261444E+02  0.51100000000E-03 0.  1.
         12    1    3    3    0    0  0.32370777075E+02 -0.25599179400E+02  0.68410714018E+01  0.41832827448E+02  0.00000000000E+00 0. -1.
</event>
<event>
 7    1  0.3861961E-015  0.9000758E+02  0.7816164E-02  0.1186339E+00
        -11   -1    0    0    0    0  0.00000000000E+00  0.00000000000E+00  0.45593999997E+02  0.45594000000E+02  0.51100000000E-03 0.  1.
         11   -1    0    0    0    0 -0.00000000000E+00 -0.00000000000E+00 -0.45593999997E+02  0.45594000000E+02  0.51100000000E-03 0. -1.
    9900012    2    1    2    0    0 -0.37520571837E-01  0.11089983091E+01  0.40262914421E+00  0.90007578351E+02  0.89999837585E+02 0.  0.
        -12    1    1    2    0    0  0.37520571837E-01 -0.11089983091E+01 -0.40262914421E+00  0.11804216495E+01  0.00000000000E+00 0.  1.
         11    1    3    3    0    0 -0.25176781411E+01 -0.15073780024E+02 -0.16108827525E+01  0.15367253851E+02  0.51100000000E-03 0. -1.
        -11    1    3    3    0    0 -0.30147431696E+02  0.15770248088E+02  0.17793267256E+02  0.38394904903E+02  0.51100000000E-03 0.  1.
         12    1    3    3    0    0  0.32627589266E+02  0.41253024497E+00 -0.15779755359E+02  0.36245419596E+02  0.00000000000E+00 0. -1.
</event>
<event>
 7    1  0.3861961E-015  0.9000780E+02  0.7816164E-02  0.1186339E+00
        -11   -1    0    0    0    0  0.00000000000E+00  0.00000000000E+00  0.45593999997E+02  0.45594000000E+02  0.51100000000E-03 0.  1.
         11   -1    0    0    0    0 -0.00000000000E+00 -0.00000000000E+00 -0.45593999997E+02  0.45594000000E+02  0.51100000000E-03 0. -1.
    9900012    2    1    2    0    0  0.52956868797E+00 -0.10321122487E+01 -0.21716758307E+00  0.90007804911E+02  0.90000067136E+02 0.  0.
        -12    1    1    2    0    0 -0.52956868797E+00  0.10321122487E+01  0.21716758307E+00  0.11801950891E+01  0.00000000000E+00 0.  1.
         11    1    3    3    0    0 -0.30868979036E+02 -0.24453733837E+02  0.14380474659E+02  0.41924658818E+02  0.51100000000E-03 0. -1.
        -11    1    3    3    0    0 -0.30837303345E+01  0.67092354165E+01 -0.36156740820E+01  0.82216988499E+01  0.51100000000E-03 0.  1.
        -12    1    3    3    0    0  0.34482278058E+02  0.16712386172E+02 -0.10981968160E+02  0.39861447243E+02  0.00000000000E+00 0.  1.
</event>
