<event>
 7    1  0.9868142E-013  0.5052886E+02  0.7816164E-02  0.1300439E+00
        -11   -1    0    0    0    0  0.00000000000E+00  0.00000000000E+00  0.45593999997E+02  0.45594000000E+02  0.51100000000E-03 0.  1.
         11   -1    0    0    0    0 -0.00000000000E+00 -0.00000000000E+00 -0.45593999997E+02  0.45594000000E+02  0.51100000000E-03 0. -1.
    9900012    2    1    2    0    0 -0.83160776379E+01 -0.38087327827E+02 -0.11548347825E+02  0.50528855571E+02  0.29999986992E+02 0.  0.
        -12    1    1    2    0    0  0.83160776379E+01  0.38087327827E+02  0.11548347825E+02  0.40659144429E+02  0.00000000000E+00 0.  1.
         11    1    3    3    0    0 -0.46428882933E+01 -0.12522666724E+02 -0.62816152926E+00  0.13370421862E+02  0.51100000000E-03 0. -1.
        -11    1    3    3    0    0 -0.89100608623E+01 -0.35766497544E+01 -0.10939725785E+02  0.14555384177E+02  0.51100000000E-03 0.  1.
        -12    1    3    3    0    0  0.52368715176E+01 -0.21988011348E+02  0.19539489949E-01  0.22603049531E+02  0.00000000000E+00 0.  1.
</event>
<event>
 7    1  0.9868142E-013  0.5052886E+02  0.7816164E-02  0.1300439E+00
        -11   -1    0    0    0    0  0.00000000000E+00  0.00000000000E+00  0.45593999997E+02  0.45594000000E+02  0.51100000000E-03 0.  1.
         11   -1    0    0    0    0 -0.00000000000E+00 -0.00000000000E+00 -0.45593999997E+02  0.45594000000E+02  0.51100000000E-03 0. -1.
    9900012    2    1    2    0    0 -0.24388674454E+02 -0.29756225884E+02 -0.13150111787E+02  0.50528857602E+02  0.29999993168E+02 0.  0.
        -12    1    1    2    0    0  0.24388674454E+02  0.29756225884E+02  0.13150111787E+02  0.40659142398E+02  0.00000000000E+00 0.  1.
         11    1    3    3    0    0 -0.15137847113E+02 -0.44096851054E+01 -0.75235448188E+01  0.17470073407E+02  0.51100000000E-03 0. -1.
        -11    1    3    3    0    0 -0.61696268467E+00 -0.23548716920E+02 -0.24448330366E+01  0.23683325788E+02  0.51100000000E-03 0.  1.
        -12    1    3    3    0    0 -0.86338646567E+01 -0.17978238589E+01 -0.31817339315E+01  0.93754584073E+01  0.00000000000E+00 0.  1.
</event>
<event>
 7    1  0.9868142E-013  0.5052887E+02  0.7816164E-02  0.1300439E+00
        -11   -1    0    0    0    0  0.00000000000E+00  0.00000000000E+00  0.45593999997E+02  0.45594000000E+02  0.51100000000E-03 0.  1.
         11   -1    0    0    0    0 -0.00000000000E+00 -0.00000000000E+00 -0.45593999997E+02  0.45594000000E+02  0.51100000000E-03 0. -1.
    9900012    2    1    2    0    0  0.12668670582E+02  0.17049117925E+02 -0.34669836480E+02  0.50528865751E+02  0.30000017937E+02 0.  0.
        -12    1    1    2    0    0 -0.12668670582E+02 -0.17049117925E+02  0.34669836480E+02  0.40659134249E+02  0.00000000000E+00 0.  1.
         11    1    3    3    0    0  0.16871428233E+01  0.81127601498E+00 -0.14022097011E+02  0.14146512805E+02  0.51100000000E-03 0. -1.
        -11    1    3    3    0    0 -0.32180373388E+00  0.35337348414E+00  0.45209470966E+01  0.45461404921E+01  0.51100000000E-03 0.  1.
        -12    1    3    3    0    0  0.11303331493E+02  0.15884468425E+02 -0.25168686565E+02  0.31836212454E+02  0.00000000000E+00 0.  1.
</event>
<event>
 7    1  0.9868142E-013  0.5052885E+02  0.7816164E-02  0.1300439E+00
        -11   -1    0    0    0    0  0.00000000000E+00  0.00000000000E+00  0.45593999997E+02  0.45594000000E+02  0.51100000000E-03 0.  1.
         11   -1    0    0    0    0 -0.00000000000E+00 -0.00000000000E+00 -0.45593999997E+02  0.45594000000E+02  0.51100000000E-03 0. -1.
    9900012    2    1    2    0    0 -0.30882865011E+02  0.26401054763E+02  0.15489410717E+01  0.50528852661E+02  0.29999978148E+02 0.  0.
        -12    1    1    2    0    0  0.30882865011E+02 -0.26401054763E+02 -0.15489410717E+01  0.40659147339E+02  0.00000000000E+00 0.  1.
         11    1    3    3    0    0 -0.77608286919E+01  0.13807621836E+02 -0.27725535020E+01  0.16080047759E+02  0.51100000000E-03 0. -1.
        -11    1    3    3    0    0 -0.21499685496E+02  0.95948682956E+01  0.11722363510E+02  0.26300414076E+02  0.51100000000E-03 0.  1.
        -12    1    3    3    0    0 -0.16223508226E+01  0.29985646314E+01 -0.74008689360E+01  0.81483908257E+01  0.00000000000E+00 0.  1.
</event>
<event>
 7    1  0.9868142E-013  0.5052887E+02  0.7816164E-02  0.1300439E+00
        -11   -1    0    0    0    0  0.00000000000E+00  0.00000000000E+00  0.45593999997E+02  0.45594000000E+02  0.51100000000E-03 0. -1.
         11   -1    0    0    0    0 -0.00000000000E+00 -0.00000000000E+00 -0.45593999997E+02  0.45594000000E+02  0.51100000000E-03 0.  1.
    9900012    2    1    2    0    0  0.38693890602E+02  0.19149191352E+01 -0.12340224465E+02  0.50528865417E+02  0.30000016921E+02 0.  0.
        -12    1    1    2    0    0 -0.38693890602E+02 -0.19149191352E+01  0.12340224465E+02  0.40659134583E+02  0.00000000000E+00 0.  1.
         11    1    3    3    0    0  0.16260506033E+01 -0.23242221922E+01  0.73995663554E+01  0.79246218757E+01  0.51100000000E-03 0. -1.
        -11    1    3    3    0    0  0.24762135920E+02  0.31213279283E+01 -0.16185372936E+02  0.29746804210E+02  0.51100000000E-03 0.  1.
         12    1    3    3    0    0  0.12305704078E+02  0.11178133991E+01 -0.35544178851E+01  0.12857439331E+02  0.00000000000E+00 0. -1.
</event>
<event>
 7    1  0.9868142E-013  0.5052886E+02  0.7816164E-02  0.1300439E+00
        -11   -1    0    0    0    0  0.00000000000E+00  0.00000000000E+00  0.45593999997E+02  0.45594000000E+02  0.51100000000E-03 0.  1.
         11   -1    0    0    0    0 -0.00000000000E+00 -0.00000000000E+00 -0.45593999997E+02  0.45594000000E+02  0.51100000000E-03 0. -1.
    9900012    2    1    2    0    0 -0.11928363588E+02  0.35186587021E+02 -0.16516168444E+02  0.50528861001E+02  0.30000003498E+02 0.  0.
        -12    1    1    2    0    0  0.11928363588E+02 -0.35186587021E+02  0.16516168444E+02  0.40659138999E+02  0.00000000000E+00 0.  1.
         11    1    3    3    0    0 -0.39273114057E+01  0.31793838010E+02 -0.66247440203E+01  0.32713286963E+02  0.51100000000E-03 0. -1.
        -11    1    3    3    0    0 -0.98027429937E+01  0.27633453468E+01 -0.11469757832E+02  0.15339008856E+02  0.51100000000E-03 0.  1.
         12    1    3    3    0    0  0.18016908110E+01  0.62940366357E+00  0.15783334084E+01  0.24765651816E+01  0.00000000000E+00 0. -1.
</event>
<event>
 7    1  0.9868142E-013  0.5052886E+02  0.7816164E-02  0.1300439E+00
        -11   -1    0    0    0    0  0.00000000000E+00  0.00000000000E+00  0.45593999997E+02  0.45594000000E+02  0.51100000000E-03 0.  1.
         11   -1    0    0    0    0 -0.00000000000E+00 -0.00000000000E+00 -0.45593999997E+02  0.45594000000E+02  0.51100000000E-03 0. -1.
    9900012    2    1    2    0    0 -0.27072003152E+02 -0.70714500806E+01 -0.29500291563E+02  0.50528856339E+02  0.29999989329E+02 0.  0.
        -12    1    1    2    0    0  0.27072003152E+02  0.70714500806E+01  0.29500291563E+02  0.40659143661E+02  0.00000000000E+00 0.  1.
         11    1    3    3    0    0 -0.11690345941E+02 -0.97091071241E+01 -0.16279994280E+02  0.22270365138E+02  0.51100000000E-03 0. -1.
        -11    1    3    3    0    0 -0.25324774612E+01 -0.82194791470E-02  0.51183380260E+01  0.57105948956E+01  0.51100000000E-03 0.  1.
        -12    1    3    3    0    0 -0.12849179750E+02  0.26458765227E+01 -0.18338635309E+02  0.22547896306E+02  0.00000000000E+00 0.  1.
</event>
<event>
 7    1  0.9868142E-013  0.5052887E+02  0.7816164E-02  0.1300439E+00
        -11   -1    0    0    0    0  0.00000000000E+00  0.00000000000E+00  0.45593999997E+02  0.45594000000E+02  0.51100000000E-03 0. -1.
         11   -1    0    0    0    0 -0.00000000000E+00 -0.00000000000E+00 -0.45593999997E+02  0.45594000000E+02  0.51100000000E-03 0.  1.
    9900012    2    1    2    0    0  0.14375408452E+02 -0.10214692877E+02  0.36635672110E+02  0.50528870771E+02  0.30000033196E+02 0.  0.
        -12    1    1    2    0    0 -0.14375408452E+02  0.10214692877E+02 -0.36635672110E+02  0.40659129229E+02  0.00000000000E+00 0.  1.
         11    1    3    3    0    0 -0.37155985624E+01  0.30203148543E+01  0.20813636383E+02  0.21357327413E+02  0.51100000000E-03 0. -1.
        -11    1    3    3    0    0  0.25446593663E+01 -0.75264638092E+01  0.52914119114E+01  0.95457838358E+01  0.51100000000E-03 0.  1.
         12    1    3    3    0    0  0.15546347648E+02 -0.57085439218E+01  0.10530623815E+02  0.19625759523E+02  0.00000000000E+00 0. -1.
</event>
<event>
 7    1  0.9868142E-013  0.5052879E+02  0.7816164E-02  0.1300439E+00
        -11   -1    0    0    0    0  0.00000000000E+00  0.00000000000E+00  0.45593999997E+02  0.45594000000E+02  0.51100000000E-03 0. -1.
         11   -1    0    0    0    0 -0.00000000000E+00 -0.00000000000E+00 -0.45593999997E+02  0.45594000000E+02  0.51100000000E-03 0.  1.
    9900012    2    1    2    0    0  0.17843603389E+02 -0.28018364994E+02  0.23446711819E+02  0.50528791277E+02  0.29999791566E+02 0.  0.
        -12    1    1    2    0    0 -0.17843603389E+02  0.28018364994E+02 -0.23446711819E+02  0.40659208723E+02  0.00000000000E+00 0.  1.
         11    1    3    3    0    0  0.13384715121E+02 -0.17288063422E+02  0.20164406949E+02  0.29742747748E+02  0.51100000000E-03 0. -1.
        -11    1    3    3    0    0 -0.28273505097E+01  0.29792535581E+01 -0.17511069788E+01  0.44650015208E+01  0.51100000000E-03 0.  1.
        -12    1    3    3    0    0  0.72862387774E+01 -0.13709555131E+02  0.50334118487E+01  0.16321042008E+02  0.00000000000E+00 0.  1.
</event>
<event>
 7    1  0.9868142E-013  0.5052885E+02  0.7816164E-02  0.1300439E+00
        -11   -1    0    0    0    0  0.00000000000E+00  0.00000000000E+00  0.45593999997E+02  0.45594000000E+02  0.51100000000E-03 0.  1.
         11   -1    0    0    0    0 -0.00000000000E+00 -0.00000000000E+00 -0.45593999997E+02  0.45594000000E+02  0.51100000000E-03 0. -1.
    9900012    2    1    2    0    0 -0.31704455386E+02  0.25249775059E+02 -0.32315972269E+01  0.50528845404E+02  0.29999956090E+02 0.  0.
        -12    1    1    2    0    0  0.31704455386E+02 -0.25249775059E+02  0.32315972269E+01  0.40659154596E+02  0.00000000000E+00 0.  1.
         11    1    3    3    0    0 -0.12563935730E+02 -0.48693115217E+00 -0.23529498122E+01  0.12791636176E+02  0.51100000000E-03 0. -1.
        -11    1    3    3    0    0 -0.17896324377E+02  0.27371017977E+02 -0.50476029795E+01  0.33089716642E+02  0.51100000000E-03 0.  1.
        -12    1    3    3    0    0 -0.12441952779E+01 -0.16343117661E+01  0.41689555648E+01  0.46474925863E+01  0.00000000000E+00 0.  1.
</event>
<event>
 7    1  0.9868142E-013  0.5052886E+02  0.7816164E-02  0.1300439E+00
        -11   -1    0    0    0    0  0.00000000000E+00  0.00000000000E+00  0.45593999997E+02  0.45594000000E+02  0.51100000000E-03 0.  1.
         11   -1    0    0    0    0 -0.00000000000E+00 -0.00000000000E+00 -0.45593999997E+02  0.45594000000E+02  0.51100000000E-03 0. -1.
    9900012    2    1    2    0    0 -0.92405592630E+00 -0.21715084456E+02 -0.34362286470E+02  0.50528861990E+02  0.30000006504E+02 0.  0.
        -12    1    1    2    0    0  0.92405592630E+00  0.21715084456E+02  0.34362286470E+02  0.40659138010E+02  0.00000000000E+00 0.  1.
         11    1    3    3    0    0  0.13369459008E+02 -0.10268918125E+02 -0.22752410989E+02  0.28317226554E+02  0.51100000000E-03 0. -1.
        -11    1    3    3    0    0 -0.12044590236E+02 -0.76681465223E+01 -0.10359341633E+02  0.17640538098E+02  0.51100000000E-03 0.  1.
         12    1    3    3    0    0 -0.22489246982E+01 -0.37780198079E+01 -0.12505338478E+01  0.45710973378E+01  0.00000000000E+00 0. -1.
</event>
<event>
 7    1  0.9868142E-013  0.5052885E+02  0.7816164E-02  0.1300439E+00
        -11   -1    0    0    0    0  0.00000000000E+00  0.00000000000E+00  0.45593999997E+02  0.45594000000E+02  0.51100000000E-03 0.  1.
         11   -1    0    0    0    0 -0.00000000000E+00 -0.00000000000E+00 -0.45593999997E+02  0.45594000000E+02  0.51100000000E-03 0. -1.
    9900012    2    1    2    0    0 -0.20147051901E+02  0.87460185781E+01 -0.34216510884E+02  0.50528853939E+02  0.29999982034E+02 0.  0.
        -12    1    1    2    0    0  0.20147051901E+02 -0.87460185781E+01  0.34216510884E+02  0.40659146061E+02  0.00000000000E+00 0.  1.
         11    1    3    3    0    0 -0.19386492656E+02  0.16176840640E+02 -0.22669259669E+02  0.33932603861E+02  0.51100000000E-03 0. -1.
        -11    1    3    3    0    0  0.18344581505E+01 -0.35153171523E+01 -0.11205601372E+02  0.11886471039E+02  0.51100000000E-03 0.  1.
         12    1    3    3    0    0 -0.25950173958E+01 -0.39155049097E+01 -0.34164984268E+00  0.47097790392E+01  0.00000000000E+00 0. -1.
</event>
<event>
 7    1  0.9868142E-013  0.5052885E+02  0.7816164E-02  0.1300439E+00
        -11   -1    0    0    0    0  0.00000000000E+00  0.00000000000E+00  0.45593999997E+02  0.45594000000E+02  0.51100000000E-03 0. -1.
         11   -1    0    0    0    0 -0.00000000000E+00 -0.00000000000E+00 -0.45593999997E+02  0.45594000000E+02  0.51100000000E-03 0.  1.
    9900012    2    1    2    0    0  0.15781497028E+02 -0.21009250069E+01  0.37412519099E+02  0.50528854416E+02  0.29999983482E+02 0.  0.
        -12    1    1    2    0    0 -0.15781497028E+02  0.21009250069E+01 -0.37412519099E+02  0.40659145584E+02  0.00000000000E+00 0.  1.
         11    1    3    3    0    0  0.76964166038E+01  0.10142563680E+02  0.24888846580E+02  0.27956414486E+02  0.51100000000E-03 0. -1.
        -11    1    3    3    0    0  0.93933666764E+01 -0.48053966199E+01  0.42631027147E+01  0.11379860246E+02  0.51100000000E-03 0.  1.
         12    1    3    3    0    0 -0.13082862521E+01 -0.74380920669E+01  0.82605698038E+01  0.11192579685E+02  0.00000000000E+00 0. -1.
</event>
<event>
 7    1  0.9868142E-013  0.5052887E+02  0.7816164E-02  0.1300439E+00
        -11   -1    0    0    0    0  0.00000000000E+00  0.00000000000E+00  0.45593999997E+02  0.45594000000E+02  0.51100000000E-03 0. -1.
         11   -1    0    0    0    0 -0.00000000000E+00 -0.00000000000E+00 -0.45593999997E+02  0.45594000000E+02  0.51100000000E-03 0.  1.
    9900012    2    1    2    0    0  0.25904550873E+02  0.31104299954E+02 -0.38264859046E+01  0.50528865405E+02  0.30000016887E+02 0.  0.
        -12    1    1    2    0    0 -0.25904550873E+02 -0.31104299954E+02  0.38264859046E+01  0.40659134595E+02  0.00000000000E+00 0.  1.
         11    1    3    3    0    0  0.13779839873E+02  0.22043767547E+02  0.84573906187E+01  0.27337504109E+02  0.51100000000E-03 0. -1.
        -11    1    3    3    0    0  0.11057461571E+01 -0.30812462203E+01 -0.19605258052E+01  0.38158111232E+01  0.51100000000E-03 0.  1.
         12    1    3    3    0    0  0.11018964843E+02  0.12141778628E+02 -0.10323350718E+02  0.19375550173E+02  0.00000000000E+00 0. -1.
</event>
<event>
 7    1  0.9868142E-013  0.5052886E+02  0.7816164E-02  0.1300439E+00
        -11   -1    0    0    0    0  0.00000000000E+00  0.00000000000E+00  0.45593999997E+02  0.45594000000E+02  0.51100000000E-03 0.  1.
         11   -1    0    0    0    0 -0.00000000000E+00 -0.00000000000E+00 -0.45593999997E+02  0.45594000000E+02  0.51100000000E-03 0. -1.
    9900012    2    1    2    0    0 -0.35122978122E+02 -0.18202165021E+02 -0.93927075263E+01  0.50528863778E+02  0.30000011940E+02 0.  0.
        -12    1    1    2    0    0  0.35122978122E+02  0.18202165021E+02  0.93927075263E+01  0.40659136222E+02  0.00000000000E+00 0.  1.
         11    1    3    3    0    0 -0.78756499843E+01 -0.46108425435E+01 -0.15952108676E+02  0.18378125669E+02  0.51100000000E-03 0. -1.
        -11    1    3    3    0    0 -0.14260470536E+02 -0.27755073791E+01  0.21707642228E+01  0.14689338947E+02  0.51100000000E-03 0.  1.
         12    1    3    3    0    0 -0.12986857602E+02 -0.10815815099E+02  0.43886369273E+01  0.17461399162E+02  0.00000000000E+00 0. -1.
</event>
<event>
 7    1  0.9868142E-013  0.5052886E+02  0.7816164E-02  0.1300439E+00
        -11   -1    0    0    0    0  0.00000000000E+00  0.00000000000E+00  0.45593999997E+02  0.45594000000E+02  0.51100000000E-03 0. -1.
         11   -1    0    0    0    0 -0.00000000000E+00 -0.00000000000E+00 -0.45593999997E+02  0.45594000000E+02  0.51100000000E-03 0.  1.
    9900012    2    1    2    0    0  0.18374714467E+02 -0.36015645238E+02 -0.42905967187E+01  0.50528855225E+02  0.29999985941E+02 0.  0.
        -12    1    1    2    0    0 -0.18374714467E+02  0.36015645238E+02  0.42905967187E+01  0.40659144775E+02  0.00000000000E+00 0.  1.
         11    1    3    3    0    0  0.11426478645E+02 -0.33108097402E+02 -0.13449904538E+02  0.37518135083E+02  0.51100000000E-03 0. -1.
        -11    1    3    3    0    0  0.64172446716E+01 -0.43037631219E+01  0.79769745028E+01  0.11105653005E+02  0.51100000000E-03 0.  1.
         12    1    3    3    0    0  0.53099115118E+00  0.13962152854E+01  0.11823333161E+01  0.19050671369E+01  0.00000000000E+00 0. -1.
</event>
<event>
 7    1  0.9868142E-013  0.5052886E+02  0.7816164E-02  0.1300439E+00
        -11   -1    0    0    0    0  0.00000000000E+00  0.00000000000E+00  0.45593999997E+02  0.45594000000E+02  0.51100000000E-03 0.  1.
         11   -1    0    0    0    0 -0.00000000000E+00 -0.00000000000E+00 -0.45593999997E+02  0.45594000000E+02  0.51100000000E-03 0. -1.
    9900012    2    1    2    0    0  0.35956465741E+02 -0.18787675588E+02 -0.27057644468E+01  0.50528863956E+02  0.30000012482E+02 0.  0.
        -12    1    1    2    0    0 -0.35956465741E+02  0.18787675588E+02  0.27057644468E+01  0.40659136044E+02  0.00000000000E+00 0.  1.
         11    1    3    3    0    0  0.11241354770E+02  0.30400380281E+01 -0.80465969324E+01  0.14154773425E+02  0.51100000000E-03 0. -1.
        -11    1    3    3    0    0  0.65021350750E+01 -0.12848060982E+02  0.69790430569E+01  0.16001795955E+02  0.51100000000E-03 0.  1.
         12    1    3    3    0    0  0.18212975896E+02 -0.89796526338E+01 -0.16382105713E+01  0.20372294576E+02  0.00000000000E+00 0. -1.
</event>
<event>
 7    1  0.9868142E-013  0.5052886E+02  0.7816164E-02  0.1300439E+00
        -11   -1    0    0    0    0  0.00000000000E+00  0.00000000000E+00  0.45593999997E+02  0.45594000000E+02  0.51100000000E-03 0. -1.
         11   -1    0    0    0    0 -0.00000000000E+00 -0.00000000000E+00 -0.45593999997E+02  0.45594000000E+02  0.51100000000E-03 0.  1.
    9900012    2    1    2    0    0 -0.20466801848E+02  0.34520613534E+02 -0.65271097328E+01  0.50528857140E+02  0.29999991762E+02 0.  0.
        -12    1    1    2    0    0  0.20466801848E+02 -0.34520613534E+02  0.65271097328E+01  0.40659142860E+02  0.00000000000E+00 0.  1.
         11    1    3    3    0    0 -0.77182761386E+01  0.29456205947E+02  0.31052705719E+01  0.30608537387E+02  0.51100000000E-03 0. -1.
        -11    1    3    3    0    0 -0.68356374274E+01  0.16105275143E+01 -0.10889974624E+02  0.12958058708E+02  0.51100000000E-03 0.  1.
         12    1    3    3    0    0 -0.59128882821E+01  0.34538800724E+01  0.12575943188E+01  0.69622610452E+01  0.00000000000E+00 0. -1.
</event>
<event>
 7    1  0.9868142E-013  0.5052886E+02  0.7816164E-02  0.1300439E+00
        -11   -1    0    0    0    0  0.00000000000E+00  0.00000000000E+00  0.45593999997E+02  0.45594000000E+02  0.51100000000E-03 0.  1.
         11   -1    0    0    0    0 -0.00000000000E+00 -0.00000000000E+00 -0.45593999997E+02  0.45594000000E+02  0.51100000000E-03 0. -1.
    9900012    2    1    2    0    0  0.15097431549E+02  0.37532904508E+02 -0.40638201760E+01  0.50528855953E+02  0.29999988155E+02 0.  0.
        -12    1    1    2    0    0 -0.15097431549E+02 -0.37532904508E+02  0.40638201760E+01  0.40659144047E+02  0.00000000000E+00 0.  1.
         11    1    3    3    0    0  0.93507316466E+01  0.29986885343E+02 -0.95205281154E+01  0.32822095161E+02  0.51100000000E-03 0. -1.
        -11    1    3    3    0    0 -0.19674189113E+00  0.92385075604E+01  0.66862492729E+01  0.11405904564E+02  0.51100000000E-03 0.  1.
         12    1    3    3    0    0  0.59434417940E+01 -0.16924883947E+01 -0.12295413335E+01  0.63008562288E+01  0.00000000000E+00 0. -1.
</event>
<event>
 7    1  0.9868142E-013  0.5052887E+02  0.7816164E-02  0.1300439E+00
        -11   -1    0    0    0    0  0.00000000000E+00  0.00000000000E+00  0.45593999997E+02  0.45594000000E+02  0.51100000000E-03 0.  1.
         11   -1    0    0    0    0 -0.00000000000E+00 -0.00000000000E+00 -0.45593999997E+02  0.45594000000E+02  0.51100000000E-03 0. -1.
    9900012    2    1    2    0    0  0.36985547036E+02  0.65049786732E+01 -0.15585876280E+02  0.50528868473E+02  0.30000026210E+02 0.  0.
        -12    1    1    2    0    0 -0.36985547036E+02 -0.65049786732E+01  0.15585876280E+02  0.40659131527E+02  0.00000000000E+00 0.  1.
         11    1    3    3    0    0  0.33008136483E+02 -0.13026263491E+01 -0.17868759303E+02  0.37556976300E+02  0.51100000000E-03 0. -1.
        -11    1    3    3    0    0 -0.29176472706E+01  0.37387223051E+01  0.12087727841E+01  0.48940619096E+01  0.51100000000E-03 0.  1.
         12    1    3    3    0    0  0.68950578238E+01  0.40688827173E+01  0.10741102381E+01  0.80778302634E+01  0.00000000000E+00 0. -1.
</event>
<event>
 7    1  0.9868142E-013  0.5052887E+02  0.7816164E-02  0.1300439E+00
        -11   -1    0    0    0    0  0.00000000000E+00  0.00000000000E+00  0.45593999997E+02  0.45594000000E+02  0.51100000000E-03 0. -1.
         11   -1    0    0    0    0 -0.00000000000E+00 -0.00000000000E+00 -0.45593999997E+02  0.45594000000E+02  0.51100000000E-03 0.  1.
    9900012    2    1    2    0    0  0.25385379289E+02  0.35229706029E+01  0.31564794711E+02  0.50528867340E+02  0.30000022767E+02 0.  0.
        -12    1    1    2    0    0 -0.25385379289E+02 -0.35229706029E+01 -0.31564794711E+02  0.40659132660E+02  0.00000000000E+00 0.  1.
         11    1    3    3    0    0  0.10579644503E+02  0.22099286009E+01  0.10036298396E+02  0.14749235506E+02  0.51100000000E-03 0. -1.
        -11    1    3    3    0    0 -0.45829630975E+01  0.14051777207E+01 -0.20837982725E+01  0.52268815446E+01  0.51100000000E-03 0.  1.
        -12    1    3    3    0    0  0.19388697883E+02 -0.92135718725E-01  0.23612294587E+02  0.30552750290E+02  0.00000000000E+00 0.  1.
</event>
<event>
 7    1  0.9868142E-013  0.5052886E+02  0.7816164E-02  0.1300439E+00
        -11   -1    0    0    0    0  0.00000000000E+00  0.00000000000E+00  0.45593999997E+02  0.45594000000E+02  0.51100000000E-03 0. -1.
         11   -1    0    0    0    0 -0.00000000000E+00 -0.00000000000E+00 -0.45593999997E+02  0.45594000000E+02  0.51100000000E-03 0.  1.
    9900012    2    1    2    0    0  0.25954756739E+01 -0.32072205053E+02  0.24855636253E+02  0.50528862227E+02  0.30000007225E+02 0.  0.
        -12    1    1    2    0    0 -0.25954756739E+01  0.32072205053E+02 -0.24855636253E+02  0.40659137773E+02  0.00000000000E+00 0.  1.
         11    1    3    3    0    0  0.23485589424E+01 -0.32018319973E+02  0.13588058891E+02  0.34861495775E+02  0.51100000000E-03 0. -1.
        -11    1    3    3    0    0  0.12078916790E+01  0.52635759620E+01  0.65927183014E+01  0.85222162071E+01  0.51100000000E-03 0.  1.
        -12    1    3    3    0    0 -0.96097494741E+00 -0.53174610415E+01  0.46748590609E+01  0.71451502445E+01  0.00000000000E+00 0.  1.
</event>
<event>
 7    1  0.9868142E-013  0.5052886E+02  0.7816164E-02  0.1300439E+00
        -11   -1    0    0    0    0  0.00000000000E+00  0.00000000000E+00  0.45593999997E+02  0.45594000000E+02  0.51100000000E-03 0.  1.
         11   -1    0    0    0    0 -0.00000000000E+00 -0.00000000000E+00 -0.45593999997E+02  0.45594000000E+02  0.51100000000E-03 0. -1.
    9900012    2    1    2    0    0 -0.33692270590E+02 -0.21687190153E+02 -0.69038125239E+01  0.50528856605E+02  0.29999990135E+02 0.  0.
        -12    1    1    2    0    0  0.33692270590E+02  0.21687190153E+02  0.69038125239E+01  0.40659143395E+02  0.00000000000E+00 0.  1.
         11    1    3    3    0    0 -0.33758384133E+02 -0.10671251612E+02 -0.98986414862E+01  0.36762578987E+02  0.51100000000E-03 0. -1.
        -11    1    3    3    0    0 -0.20446295595E+01 -0.90378250505E+01  0.47190054218E+01  0.10398644340E+02  0.51100000000E-03 0.  1.
         12    1    3    3    0    0  0.21107431025E+01 -0.19781134907E+01 -0.17241764595E+01  0.33676332773E+01  0.00000000000E+00 0. -1.
</event>
<event>
 7    1  0.9868142E-013  0.5052875E+02  0.7816164E-02  0.1300439E+00
        -11   -1    0    0    0    0  0.00000000000E+00  0.00000000000E+00  0.45593999997E+02  0.45594000000E+02  0.51100000000E-03 0.  1.
         11   -1    0    0    0    0 -0.00000000000E+00 -0.00000000000E+00 -0.45593999997E+02  0.45594000000E+02  0.51100000000E-03 0. -1.
    9900012    2    1    2    0    0  0.14786236665E+02  0.35215740963E+02 -0.13942511462E+02  0.50528747275E+02  0.29999657814E+02 0.  0.
        -12    1    1    2    0    0 -0.14786236665E+02 -0.35215740963E+02  0.13942511462E+02  0.40659252725E+02  0.00000000000E+00 0.  1.
         11    1    3    3    0    0  0.33450832571E+01  0.60031704089E+01 -0.16405941256E+02  0.17787145519E+02  0.51100000000E-03 0. -1.
        -11    1    3    3    0    0  0.19814331926E+01  0.11828785908E+02  0.45788161522E+01  0.12837905249E+02  0.51100000000E-03 0.  1.
         12    1    3    3    0    0  0.94597202153E+01  0.17383784646E+02 -0.21153863580E+01  0.19903696506E+02  0.00000000000E+00 0. -1.
</event>
<event>
 7    1  0.9868142E-013  0.5052886E+02  0.7816164E-02  0.1300439E+00
        -11   -1    0    0    0    0  0.00000000000E+00  0.00000000000E+00  0.45593999997E+02  0.45594000000E+02  0.51100000000E-03 0.  1.
         11   -1    0    0    0    0 -0.00000000000E+00 -0.00000000000E+00 -0.45593999997E+02  0.45594000000E+02  0.51100000000E-03 0. -1.
    9900012    2    1    2    0    0  0.41535672069E+01 -0.17049536481E+02 -0.36677329556E+02  0.50528864272E+02  0.30000013442E+02 0.  0.
        -12    1    1    2    0    0 -0.41535672069E+01  0.17049536481E+02  0.36677329556E+02  0.40659135728E+02  0.00000000000E+00 0.  1.
         11    1    3    3    0    0  0.83947342473E+01  0.27092236349E+01 -0.14436624308E+02  0.16918261656E+02  0.51100000000E-03 0. -1.
        -11    1    3    3    0    0  0.16311429165E+01 -0.15062751860E+02 -0.71559425748E+01  0.16755734398E+02  0.51100000000E-03 0.  1.
         12    1    3    3    0    0 -0.58723099569E+01 -0.46960082557E+01 -0.15084762673E+02  0.16854868219E+02  0.00000000000E+00 0. -1.
</event>
<event>
 7    1  0.9868142E-013  0.5052886E+02  0.7816164E-02  0.1300439E+00
        -11   -1    0    0    0    0  0.00000000000E+00  0.00000000000E+00  0.45593999997E+02  0.45594000000E+02  0.51100000000E-03 0.  1.
         11   -1    0    0    0    0 -0.00000000000E+00 -0.00000000000E+00 -0.45593999997E+02  0.45594000000E+02  0.51100000000E-03 0. -1.
    9900012    2    1    2    0    0 -0.37131234813E+02  0.32885035554E+01 -0.16236465943E+02  0.50528859813E+02  0.29999999888E+02 0.  0.
        -12    1    1    2    0    0  0.37131234813E+02 -0.32885035554E+01  0.16236465943E+02  0.40659140187E+02  0.00000000000E+00 0.  1.
         11    1    3    3    0    0 -0.33076806529E+02 -0.29622871989E+01 -0.15477724782E+02  0.36638917019E+02  0.51100000000E-03 0. -1.
        -11    1    3    3    0    0 -0.25178486843E+01  0.42354081999E+01  0.53518464019E+01  0.72746480868E+01  0.51100000000E-03 0.  1.
         12    1    3    3    0    0 -0.15365796003E+01  0.20153825544E+01 -0.61105875628E+01  0.66152947079E+01  0.00000000000E+00 0. -1.
</event>
<event>
 7    1  0.9868142E-013  0.5052883E+02  0.7816164E-02  0.1300439E+00
        -11   -1    0    0    0    0  0.00000000000E+00  0.00000000000E+00  0.45593999997E+02  0.45594000000E+02  0.51100000000E-03 0.  1.
         11   -1    0    0    0    0 -0.00000000000E+00 -0.00000000000E+00 -0.45593999997E+02  0.45594000000E+02  0.51100000000E-03 0. -1.
    9900012    2    1    2    0    0 -0.12098939552E+02  0.29437054898E+02 -0.25303032556E+02  0.50528831343E+02  0.29999913350E+02 0.  0.
        -12    1    1    2    0    0  0.12098939552E+02 -0.29437054898E+02  0.25303032556E+02  0.40659168657E+02  0.00000000000E+00 0.  1.
         11    1    3    3    0    0 -0.58184912366E+01  0.16683222394E+02 -0.23961704648E+02  0.29771597868E+02  0.51100000000E-03 0. -1.
        -11    1    3    3    0    0  0.13441843475E+01  0.13001507479E+02 -0.47357336454E+00  0.13079384552E+02  0.51100000000E-03 0.  1.
         12    1    3    3    0    0 -0.76246326628E+01 -0.24767497420E+00 -0.86775454336E+00  0.76778489229E+01  0.00000000000E+00 0. -1.
</event>
<event>
 7    1  0.9868142E-013  0.5052887E+02  0.7816164E-02  0.1300439E+00
        -11   -1    0    0    0    0  0.00000000000E+00  0.00000000000E+00  0.45593999997E+02  0.45594000000E+02  0.51100000000E-03 0.  1.
         11   -1    0    0    0    0 -0.00000000000E+00 -0.00000000000E+00 -0.45593999997E+02  0.45594000000E+02  0.51100000000E-03 0. -1.
    9900012    2    1    2    0    0 -0.62790827303E+01  0.27448733824E+01 -0.40077469440E+02  0.50528871056E+02  0.30000034061E+02 0.  0.
        -12    1    1    2    0    0  0.62790827303E+01 -0.27448733824E+01  0.40077469440E+02  0.40659128944E+02  0.00000000000E+00 0.  1.
         11    1    3    3    0    0 -0.89140166879E+00  0.84581575282E+00 -0.15914163003E+02  0.15961534561E+02  0.51100000000E-03 0. -1.
        -11    1    3    3    0    0  0.55659989335E+01  0.29265642504E+01  0.16550628078E+01  0.65026422013E+01  0.51100000000E-03 0.  1.
        -12    1    3    3    0    0 -0.10953679995E+02 -0.10275066208E+01 -0.25818369245E+02  0.28064694293E+02  0.00000000000E+00 0.  1.
</event>
<event>
 7    1  0.9868142E-013  0.5052887E+02  0.7816164E-02  0.1300439E+00
        -11   -1    0    0    0    0  0.00000000000E+00  0.00000000000E+00  0.45593999997E+02  0.45594000000E+02  0.51100000000E-03 0.  1.
         11   -1    0    0    0    0 -0.00000000000E+00 -0.00000000000E+00 -0.45593999997E+02  0.45594000000E+02  0.51100000000E-03 0. -1.
    9900012    2    1    2    0    0  0.32783303314E+02 -0.23789376316E+02  0.35335036018E+01  0.50528867577E+02  0.30000023488E+02 0.  0.
        -12    1    1    2    0    0 -0.32783303314E+02  0.23789376316E+02 -0.35335036018E+01  0.40659132423E+02  0.00000000000E+00 0.  1.
         11    1    3    3    0    0  0.12798177523E+02 -0.28997336961E+01 -0.99921185651E+01  0.16493763582E+02  0.51100000000E-03 0. -1.
        -11    1    3    3    0    0  0.14378846985E+02 -0.13229504934E+02  0.14726197793E+02  0.24466956147E+02  0.51100000000E-03 0.  1.
        -12    1    3    3    0    0  0.56062788050E+01 -0.76601376856E+01 -0.12005756258E+01  0.95681478477E+01  0.00000000000E+00 0.  1.
</event>
<event>
 7    1  0.9868142E-013  0.5052886E+02  0.7816164E-02  0.1300439E+00
        -11   -1    0    0    0    0  0.00000000000E+00  0.00000000000E+00  0.45593999997E+02  0.45594000000E+02  0.51100000000E-03 0.  1.
         11   -1    0    0    0    0 -0.00000000000E+00 -0.00000000000E+00 -0.45593999997E+02  0.45594000000E+02  0.51100000000E-03 0. -1.
    9900012    2    1    2    0    0 -0.38511029669E+02  0.12642272857E+02 -0.31999129124E+01  0.50528856971E+02  0.29999991250E+02 0.  0.
        -12    1    1    2    0    0  0.38511029669E+02 -0.12642272857E+02  0.31999129124E+01  0.40659143029E+02  0.00000000000E+00 0.  1.
         11    1    3    3    0    0 -0.27311613057E+02 -0.15281910021E+00 -0.62015471753E+01  0.28007262435E+02  0.51100000000E-03 0. -1.
        -11    1    3    3    0    0  0.16992054753E+01  0.33935722894E+01 -0.36167161437E+01  0.52425440442E+01  0.51100000000E-03 0.  1.
        -12    1    3    3    0    0 -0.12898622087E+02  0.94015196677E+01  0.66183504066E+01  0.17279050492E+02  0.00000000000E+00 0.  1.
</event>
<event>
 7    1  0.9868142E-013  0.5052887E+02  0.7816164E-02  0.1300439E+00
        -11   -1    0    0    0    0  0.00000000000E+00  0.00000000000E+00  0.45593999997E+02  0.45594000000E+02  0.51100000000E-03 0.  1.
         11   -1    0    0    0    0 -0.00000000000E+00 -0.00000000000E+00 -0.45593999997E+02  0.45594000000E+02  0.51100000000E-03 0. -1.
    9900012    2    1    2    0    0  0.38499315934E+02  0.42101127168E+00 -0.13068685632E+02  0.50528866683E+02  0.30000020771E+02 0.  0.
        -12    1    1    2    0    0 -0.38499315934E+02 -0.42101127168E+00  0.13068685632E+02  0.40659133317E+02  0.00000000000E+00 0.  1.
         11    1    3    3    0    0  0.12663308716E+01  0.54170946141E+01  0.22211394013E+01  0.59901559609E+01  0.51100000000E-03 0.  1.
        -11    1    3    3    0    0  0.29091670039E+02 -0.79569041545E+01 -0.18405224855E+02  0.35332561351E+02  0.51100000000E-03 0. -1.
         12    1    3    3    0    0  0.81413150235E+01  0.29608208121E+01  0.31153998223E+01  0.92061493713E+01  0.00000000000E+00 0. -1.
</event>
<event>
 7    1  0.9868142E-013  0.5052886E+02  0.7816164E-02  0.1300439E+00
        -11   -1    0    0    0    0  0.00000000000E+00  0.00000000000E+00  0.45593999997E+02  0.45594000000E+02  0.51100000000E-03 0.  1.
         11   -1    0    0    0    0 -0.00000000000E+00 -0.00000000000E+00 -0.45593999997E+02  0.45594000000E+02  0.51100000000E-03 0. -1.
    9900012    2    1    2    0    0  0.36417865149E+02 -0.28496013670E+01 -0.17854539267E+02  0.50528859546E+02  0.29999999076E+02 0.  0.
        -12    1    1    2    0    0 -0.36417865149E+02  0.28496013670E+01  0.17854539267E+02  0.40659140454E+02  0.00000000000E+00 0.  1.
         11    1    3    3    0    0  0.20861959213E+02 -0.46215634635E+00 -0.15682689761E+02  0.26103288856E+02  0.51100000000E-03 0. -1.
        -11    1    3    3    0    0  0.13932304422E+02 -0.28832153944E+01  0.64621195285E+01  0.15626292797E+02  0.51100000000E-03 0.  1.
        -12    1    3    3    0    0  0.16236015146E+01  0.49577037369E+00 -0.86339690354E+01  0.87992778934E+01  0.00000000000E+00 0.  1.
</event>
<event>
 7    1  0.9868142E-013  0.5052885E+02  0.7816164E-02  0.1300439E+00
        -11   -1    0    0    0    0  0.00000000000E+00  0.00000000000E+00  0.45593999997E+02  0.45594000000E+02  0.51100000000E-03 0.  1.
         11   -1    0    0    0    0 -0.00000000000E+00 -0.00000000000E+00 -0.45593999997E+02  0.45594000000E+02  0.51100000000E-03 0. -1.
    9900012    2    1    2    0    0  0.91133425409E+01 -0.34371032160E+01 -0.39475302893E+02  0.50528853068E+02  0.29999979385E+02 0.  0.
        -12    1    1    2    0    0 -0.91133425409E+01  0.34371032160E+01  0.39475302893E+02  0.40659146932E+02  0.00000000000E+00 0.  1.
         11    1    3    3    0    0  0.71664335523E+01 -0.24743994200E+01 -0.33690356665E+01  0.82964344108E+01  0.51100000000E-03 0. -1.
        -11    1    3    3    0    0 -0.88132403877E+01 -0.77567831496E+00 -0.26019584077E+02  0.27482606113E+02  0.51100000000E-03 0.  1.
        -12    1    3    3    0    0  0.10760149376E+02 -0.18702548109E+00 -0.10086683149E+02  0.14749812544E+02  0.00000000000E+00 0.  1.
</event>
<event>
 7    1  0.9868142E-013  0.5052886E+02  0.7816164E-02  0.1300439E+00
        -11   -1    0    0    0    0  0.00000000000E+00  0.00000000000E+00  0.45593999997E+02  0.45594000000E+02  0.51100000000E-03 0. -1.
         11   -1    0    0    0    0 -0.00000000000E+00 -0.00000000000E+00 -0.45593999997E+02  0.45594000000E+02  0.51100000000E-03 0.  1.
    9900012    2    1    2    0    0 -0.33138851820E+02  0.22224587147E+02 -0.78134407503E+01  0.50528860435E+02  0.30000001777E+02 0.  0.
        -12    1    1    2    0    0  0.33138851820E+02 -0.22224587147E+02  0.78134407503E+01  0.40659139565E+02  0.00000000000E+00 0.  1.
         11    1    3    3    0    0  0.19797381734E+01  0.81349342612E-01  0.67977432532E+00  0.20947731011E+01  0.51100000000E-03 0. -1.
        -11    1    3    3    0    0 -0.35525850512E+02  0.25856390260E+02 -0.75713278481E+01  0.44586589660E+02  0.51100000000E-03 0.  1.
        -12    1    3    3    0    0  0.40726051853E+00 -0.37131524551E+01 -0.92188722758E+00  0.38474976732E+01  0.00000000000E+00 0.  1.
</event>
<event>
 7    1  0.9868142E-013  0.5052891E+02  0.7816164E-02  0.1300439E+00
        -11   -1    0    0    0    0  0.00000000000E+00  0.00000000000E+00  0.45593999997E+02  0.45594000000E+02  0.51100000000E-03 0.  1.
         11   -1    0    0    0    0 -0.00000000000E+00 -0.00000000000E+00 -0.45593999997E+02  0.45594000000E+02  0.51100000000E-03 0. -1.
    9900012    2    1    2    0    0 -0.16231342986E+02  0.24285423581E+02 -0.28282913384E+02  0.50528911433E+02  0.30000156792E+02 0.  0.
        -12    1    1    2    0    0  0.16231342986E+02 -0.24285423581E+02  0.28282913384E+02  0.40659088567E+02  0.00000000000E+00 0.  1.
         11    1    3    3    0    0 -0.66873280630E+01  0.11476027133E+01 -0.10970108451E+02  0.12898861512E+02  0.51100000000E-03 0. -1.
        -11    1    3    3    0    0  0.57709817835E+00  0.10153611822E+02  0.38005379613E+01  0.10856931629E+02  0.51100000000E-03 0.  1.
        -12    1    3    3    0    0 -0.10121113101E+02  0.12984209045E+02 -0.21113342894E+02  0.26773118292E+02  0.00000000000E+00 0.  1.
</event>
<event>
 7    1  0.9868142E-013  0.5052886E+02  0.7816164E-02  0.1300439E+00
        -11   -1    0    0    0    0  0.00000000000E+00  0.00000000000E+00  0.45593999997E+02  0.45594000000E+02  0.51100000000E-03 0. -1.
         11   -1    0    0    0    0 -0.00000000000E+00 -0.00000000000E+00 -0.45593999997E+02  0.45594000000E+02  0.51100000000E-03 0.  1.
    9900012    2    1    2    0    0  0.10806850822E+02 -0.37032686329E+02  0.12843579406E+02  0.50528863101E+02  0.30000009881E+02 0.  0.
        -12    1    1    2    0    0 -0.10806850822E+02  0.37032686329E+02 -0.12843579406E+02  0.40659136899E+02  0.00000000000E+00 0.  1.
         11    1    3    3    0    0  0.11394101493E+01 -0.30537640291E+01  0.25687728882E+01  0.41499788729E+01  0.51100000000E-03 0. -1.
        -11    1    3    3    0    0 -0.93150125607E+01 -0.16572128186E+02  0.76432045975E+01  0.20489594150E+02  0.51100000000E-03 0.  1.
        -12    1    3    3    0    0  0.18982453234E+02 -0.17406794113E+02  0.26316019204E+01  0.25889290078E+02  0.00000000000E+00 0.  1.
</event>
<event>
 7    1  0.9868142E-013  0.5052886E+02  0.7816164E-02  0.1300439E+00
        -11   -1    0    0    0    0  0.00000000000E+00  0.00000000000E+00  0.45593999997E+02  0.45594000000E+02  0.51100000000E-03 0.  1.
         11   -1    0    0    0    0 -0.00000000000E+00 -0.00000000000E+00 -0.45593999997E+02  0.45594000000E+02  0.51100000000E-03 0. -1.
    9900012    2    1    2    0    0 -0.63393784102E+01  0.14392104858E+02 -0.37494599566E+02  0.50528863296E+02  0.30000010476E+02 0.  0.
        -12    1    1    2    0    0  0.63393784102E+01 -0.14392104858E+02  0.37494599566E+02  0.40659136704E+02  0.00000000000E+00 0.  1.
         11    1    3    3    0    0 -0.78579146148E+01  0.17839018895E+02 -0.34832571755E+02  0.39915980165E+02  0.51100000000E-03 0. -1.
        -11    1    3    3    0    0 -0.17669905219E+01  0.27060792951E+01 -0.14103889404E+01  0.35262328170E+01  0.51100000000E-03 0.  1.
         12    1    3    3    0    0  0.32855267265E+01 -0.61529933317E+01 -0.12516388704E+01  0.70866503140E+01  0.00000000000E+00 0. -1.
</event>
<event>
 7    1  0.9868142E-013  0.5052885E+02  0.7816164E-02  0.1300439E+00
        -11   -1    0    0    0    0  0.00000000000E+00  0.00000000000E+00  0.45593999997E+02  0.45594000000E+02  0.51100000000E-03 0.  1.
         11   -1    0    0    0    0 -0.00000000000E+00 -0.00000000000E+00 -0.45593999997E+02  0.45594000000E+02  0.51100000000E-03 0. -1.
    9900012    2    1    2    0    0 -0.91228247027E+01  0.20394138114E+02 -0.33970863539E+02  0.50528851343E+02  0.29999974141E+02 0.  0.
        -12    1    1    2    0    0  0.91228247027E+01 -0.20394138114E+02  0.33970863539E+02  0.40659148657E+02  0.00000000000E+00 0.  1.
         11    1    3    3    0    0 -0.87882784592E+01  0.56878155960E+01 -0.31897650297E+02  0.33571493551E+02  0.51100000000E-03 0. -1.
        -11    1    3    3    0    0 -0.11246019820E+01  0.13822815862E+02 -0.42275383855E+01  0.14498518857E+02  0.51100000000E-03 0.  1.
        -12    1    3    3    0    0  0.79005573849E+00  0.88350665601E+00  0.21543251436E+01  0.24588389345E+01  0.00000000000E+00 0.  1.
</event>
<event>
 7    1  0.9868142E-013  0.5052887E+02  0.7816164E-02  0.1300439E+00
        -11   -1    0    0    0    0  0.00000000000E+00  0.00000000000E+00  0.45593999997E+02  0.45594000000E+02  0.51100000000E-03 0.  1.
         11   -1    0    0    0    0 -0.00000000000E+00 -0.00000000000E+00 -0.45593999997E+02  0.45594000000E+02  0.51100000000E-03 0. -1.
    9900012    2    1    2    0    0  0.18809543274E+02  0.10467695147E+02 -0.34493381463E+02  0.50528869112E+02  0.30000028152E+02 0.  0.
        -12    1    1    2    0    0 -0.18809543274E+02 -0.10467695147E+02  0.34493381463E+02  0.40659130888E+02  0.00000000000E+00 0.  1.
         11    1    3    3    0    0  0.10866371309E+02  0.17463814627E+02 -0.30514601628E+02  0.36799507599E+02  0.51100000000E-03 0.  1.
        -11    1    3    3    0    0  0.12644862106E+00 -0.46878177130E+01 -0.69833356385E-01  0.46900427635E+01  0.51100000000E-03 0. -1.
        -12    1    3    3    0    0  0.78167233436E+01 -0.23083017678E+01 -0.39089464790E+01  0.90393187496E+01  0.00000000000E+00 0.  1.
</event>
<event>
 7    1  0.9868142E-013  0.5052887E+02  0.7816164E-02  0.1300439E+00
        -11   -1    0    0    0    0  0.00000000000E+00  0.00000000000E+00  0.45593999997E+02  0.45594000000E+02  0.51100000000E-03 0. -1.
         11   -1    0    0    0    0 -0.00000000000E+00 -0.00000000000E+00 -0.45593999997E+02  0.45594000000E+02  0.51100000000E-03 0.  1.
    9900012    2    1    2    0    0 -0.15992004029E+02  0.36387887652E+02  0.85640336028E+01  0.50528865329E+02  0.30000016654E+02 0.  0.
        -12    1    1    2    0    0  0.15992004029E+02 -0.36387887652E+02 -0.85640336028E+01  0.40659134671E+02  0.00000000000E+00 0.  1.
         11    1    3    3    0    0  0.68274840509E+01  0.20078255435E+01  0.29909804924E+01  0.77195768308E+01  0.51100000000E-03 0. -1.
        -11    1    3    3    0    0 -0.37489997875E+01  0.83741947549E+01 -0.26087008188E+01  0.95387345818E+01  0.51100000000E-03 0.  1.
         12    1    3    3    0    0 -0.19070488293E+02  0.26005867354E+02  0.81817539291E+01  0.33270553916E+02  0.00000000000E+00 0. -1.
</event>
<event>
 7    1  0.9868142E-013  0.5052886E+02  0.7816164E-02  0.1300439E+00
        -11   -1    0    0    0    0  0.00000000000E+00  0.00000000000E+00  0.45593999997E+02  0.45594000000E+02  0.51100000000E-03 0. -1.
         11   -1    0    0    0    0 -0.00000000000E+00 -0.00000000000E+00 -0.45593999997E+02  0.45594000000E+02  0.51100000000E-03 0.  1.
    9900012    2    1    2    0    0  0.12104130188E+02  0.21015980729E+02  0.32634101256E+02  0.50528856152E+02  0.29999988761E+02 0.  0.
        -12    1    1    2    0    0 -0.12104130188E+02 -0.21015980729E+02 -0.32634101256E+02  0.40659143848E+02  0.00000000000E+00 0.  1.
         11    1    3    3    0    0  0.55069958171E+01  0.12891464023E+02  0.26491177703E+02  0.29971642330E+02  0.51100000000E-03 0. -1.
        -11    1    3    3    0    0 -0.15412958933E+01  0.26120787425E+01 -0.49065791434E+01  0.57682811598E+01  0.51100000000E-03 0.  1.
         12    1    3    3    0    0  0.81384302639E+01  0.55124379632E+01  0.11049502697E+02  0.14788932663E+02  0.00000000000E+00 0. -1.
</event>
<event>
 7    1  0.9868142E-013  0.5052886E+02  0.7816164E-02  0.1300439E+00
        -11   -1    0    0    0    0  0.00000000000E+00  0.00000000000E+00  0.45593999997E+02  0.45594000000E+02  0.51100000000E-03 0. -1.
         11   -1    0    0    0    0 -0.00000000000E+00 -0.00000000000E+00 -0.45593999997E+02  0.45594000000E+02  0.51100000000E-03 0.  1.
    9900012    2    1    2    0    0  0.16211312793E+02  0.40313856256E+00  0.37285341946E+02  0.50528857028E+02  0.29999991421E+02 0.  0.
        -12    1    1    2    0    0 -0.16211312793E+02 -0.40313856256E+00 -0.37285341946E+02  0.40659142972E+02  0.00000000000E+00 0.  1.
         11    1    3    3    0    0  0.10766292262E+02 -0.77064475181E+01  0.12352377949E+02  0.18107557087E+02  0.51100000000E-03 0. -1.
        -11    1    3    3    0    0  0.61428047488E+01  0.12999461223E+02  0.12531834155E+02  0.19072674427E+02  0.51100000000E-03 0.  1.
        -12    1    3    3    0    0 -0.69778421722E+00 -0.48898751419E+01  0.12401129843E+02  0.13348625513E+02  0.00000000000E+00 0.  1.
</event>
<event>
 7    1  0.9868142E-013  0.5052886E+02  0.7816164E-02  0.1300439E+00
        -11   -1    0    0    0    0  0.00000000000E+00  0.00000000000E+00  0.45593999997E+02  0.45594000000E+02  0.51100000000E-03 0.  1.
         11   -1    0    0    0    0 -0.00000000000E+00 -0.00000000000E+00 -0.45593999997E+02  0.45594000000E+02  0.51100000000E-03 0. -1.
    9900012    2    1    2    0    0 -0.16657881274E+02  0.35181918333E+02 -0.11743644889E+02  0.50528861035E+02  0.30000003601E+02 0.  0.
        -12    1    1    2    0    0  0.16657881274E+02 -0.35181918333E+02  0.11743644889E+02  0.40659138965E+02  0.00000000000E+00 0.  1.
         11    1    3    3    0    0 -0.17794022866E+02  0.18928798292E+02 -0.64824480890E+01  0.26775899388E+02  0.51100000000E-03 0. -1.
        -11    1    3    3    0    0  0.14875791255E+01  0.15418405185E+01  0.52491007650E+01  0.56694993554E+01  0.51100000000E-03 0.  1.
         12    1    3    3    0    0 -0.35143753343E+00  0.14711279523E+02 -0.10510297565E+02  0.18083462291E+02  0.00000000000E+00 0. -1.
</event>
<event>
 7    1  0.9868142E-013  0.5052886E+02  0.7816164E-02  0.1300439E+00
        -11   -1    0    0    0    0  0.00000000000E+00  0.00000000000E+00  0.45593999997E+02  0.45594000000E+02  0.51100000000E-03 0. -1.
         11   -1    0    0    0    0 -0.00000000000E+00 -0.00000000000E+00 -0.45593999997E+02  0.45594000000E+02  0.51100000000E-03 0.  1.
    9900012    2    1    2    0    0  0.36719654409E+02 -0.45774756303E+00  0.17453444801E+02  0.50528864641E+02  0.30000014562E+02 0.  0.
        -12    1    1    2    0    0 -0.36719654409E+02  0.45774756303E+00 -0.17453444801E+02  0.40659135359E+02  0.00000000000E+00 0.  1.
         11    1    3    3    0    0  0.14704843448E+02 -0.14367768766E+02  0.11010558084E+02  0.23321612074E+02  0.51100000000E-03 0. -1.
        -11    1    3    3    0    0  0.18021811364E+02  0.91406784284E+01  0.46831820958E+01  0.20742947760E+02  0.51100000000E-03 0.  1.
         12    1    3    3    0    0  0.39929995973E+01  0.47693427749E+01  0.17597046218E+01  0.64643048075E+01  0.00000000000E+00 0. -1.
</event>
<event>
 7    1  0.9868142E-013  0.5052886E+02  0.7816164E-02  0.1300439E+00
        -11   -1    0    0    0    0  0.00000000000E+00  0.00000000000E+00  0.45593999997E+02  0.45594000000E+02  0.51100000000E-03 0.  1.
         11   -1    0    0    0    0 -0.00000000000E+00 -0.00000000000E+00 -0.45593999997E+02  0.45594000000E+02  0.51100000000E-03 0. -1.
    9900012    2    1    2    0    0 -0.36468340612E+02  0.17824524979E+02 -0.23477777051E+01  0.50528860586E+02  0.30000002238E+02 0.  0.
        -12    1    1    2    0    0  0.36468340612E+02 -0.17824524979E+02  0.23477777051E+01  0.40659139414E+02  0.00000000000E+00 0.  1.
         11    1    3    3    0    0 -0.11963265412E+02  0.16549211045E+02 -0.75735132199E+01  0.21779674200E+02  0.51100000000E-03 0. -1.
        -11    1    3    3    0    0 -0.18517648437E+02  0.30302963604E+01  0.96504567408E+01  0.21100173346E+02  0.51100000000E-03 0.  1.
         12    1    3    3    0    0 -0.59874267626E+01 -0.17549824264E+01 -0.44247212260E+01  0.76490130397E+01  0.00000000000E+00 0. -1.
</event>
<event>
 7    1  0.9868142E-013  0.5052874E+02  0.7816164E-02  0.1300439E+00
        -11   -1    0    0    0    0  0.00000000000E+00  0.00000000000E+00  0.45593999997E+02  0.45594000000E+02  0.51100000000E-03 0.  1.
         11   -1    0    0    0    0 -0.00000000000E+00 -0.00000000000E+00 -0.45593999997E+02  0.45594000000E+02  0.51100000000E-03 0. -1.
    9900012    2    1    2    0    0  0.25688521717E+02  0.87889501384E+01 -0.30265975485E+02  0.50528744417E+02  0.29999649128E+02 0.  0.
        -12    1    1    2    0    0 -0.25688521717E+02 -0.87889501384E+01  0.30265975485E+02  0.40659255583E+02  0.00000000000E+00 0.  1.
         11    1    3    3    0    0  0.25081213692E+02  0.27626928058E+01 -0.34056184433E+02  0.42385415536E+02  0.51100000000E-03 0. -1.
        -11    1    3    3    0    0  0.11445992372E+01  0.52930359281E+01  0.14107051990E+01  0.55961081270E+01  0.51100000000E-03 0.  1.
         12    1    3    3    0    0 -0.53729121199E+00  0.73322140456E+00  0.23795037494E+01  0.25472207537E+01  0.00000000000E+00 0. -1.
</event>
<event>
 7    1  0.9868142E-013  0.5052886E+02  0.7816164E-02  0.1300439E+00
        -11   -1    0    0    0    0  0.00000000000E+00  0.00000000000E+00  0.45593999997E+02  0.45594000000E+02  0.51100000000E-03 0.  1.
         11   -1    0    0    0    0 -0.00000000000E+00 -0.00000000000E+00 -0.45593999997E+02  0.45594000000E+02  0.51100000000E-03 0. -1.
    9900012    2    1    2    0    0  0.20280702381E+02  0.32646034783E+02 -0.13270081895E+02  0.50528861426E+02  0.30000004790E+02 0.  0.
        -12    1    1    2    0    0 -0.20280702381E+02 -0.32646034783E+02  0.13270081895E+02  0.40659138574E+02  0.00000000000E+00 0.  1.
         11    1    3    3    0    0  0.83311096269E+01  0.12691762743E+02 -0.19932934759E+02  0.25056139318E+02  0.51100000000E-03 0. -1.
        -11    1    3    3    0    0  0.56541730262E+01  0.16275849892E+02  0.38307729350E+01  0.17650716242E+02  0.51100000000E-03 0.  1.
         12    1    3    3    0    0  0.62954197280E+01  0.36784221471E+01  0.28320799287E+01  0.78220058659E+01  0.00000000000E+00 0. -1.
</event>
<event>
 7    1  0.9868142E-013  0.5052886E+02  0.7816164E-02  0.1300439E+00
        -11   -1    0    0    0    0  0.00000000000E+00  0.00000000000E+00  0.45593999997E+02  0.45594000000E+02  0.51100000000E-03 0.  1.
         11   -1    0    0    0    0 -0.00000000000E+00 -0.00000000000E+00 -0.45593999997E+02  0.45594000000E+02  0.51100000000E-03 0. -1.
    9900012    2    1    2    0    0  0.19810341752E+02  0.21373500609E+02 -0.28352945556E+02  0.50528859695E+02  0.29999999530E+02 0.  0.
        -12    1    1    2    0    0 -0.19810341752E+02 -0.21373500609E+02  0.28352945556E+02  0.40659140305E+02  0.00000000000E+00 0.  1.
         11    1    3    3    0    0  0.23837116774E+02  0.72059157066E+01 -0.22354328414E+02  0.33464150316E+02  0.51100000000E-03 0. -1.
        -11    1    3    3    0    0 -0.52106405332E+01  0.71587687225E+01 -0.29817694772E+01  0.93428953684E+01  0.51100000000E-03 0.  1.
         12    1    3    3    0    0  0.11838655114E+01  0.70088161796E+01 -0.30168476653E+01  0.77218140113E+01  0.00000000000E+00 0. -1.
</event>
<event>
 7    1  0.9868142E-013  0.5052886E+02  0.7816164E-02  0.1300439E+00
        -11   -1    0    0    0    0  0.00000000000E+00  0.00000000000E+00  0.45593999997E+02  0.45594000000E+02  0.51100000000E-03 0. -1.
         11   -1    0    0    0    0 -0.00000000000E+00 -0.00000000000E+00 -0.45593999997E+02  0.45594000000E+02  0.51100000000E-03 0.  1.
    9900012    2    1    2    0    0 -0.11164329753E+02  0.30266707144E+02  0.24747723057E+02  0.50528860601E+02  0.30000002283E+02 0.  0.
        -12    1    1    2    0    0  0.11164329753E+02 -0.30266707144E+02 -0.24747723057E+02  0.40659139399E+02  0.00000000000E+00 0.  1.
         11    1    3    3    0    0 -0.43597017891E+01 -0.22851429284E+01  0.11992086701E+02  0.12962986600E+02  0.51100000000E-03 0. -1.
        -11    1    3    3    0    0  0.23941265400E+01  0.16904982701E+02  0.47053877567E+01  0.17710193567E+02  0.51100000000E-03 0.  1.
        -12    1    3    3    0    0 -0.91987545041E+01  0.15646867372E+02  0.80502485995E+01  0.19855680434E+02  0.00000000000E+00 0.  1.
</event>
<event>
 7    1  0.9868142E-013  0.5052886E+02  0.7816164E-02  0.1300439E+00
        -11   -1    0    0    0    0  0.00000000000E+00  0.00000000000E+00  0.45593999997E+02  0.45594000000E+02  0.51100000000E-03 0.  1.
         11   -1    0    0    0    0 -0.00000000000E+00 -0.00000000000E+00 -0.45593999997E+02  0.45594000000E+02  0.51100000000E-03 0. -1.
    9900012    2    1    2    0    0  0.71945534632E+01  0.15954379038E+02 -0.36699619522E+02  0.50528857325E+02  0.29999992324E+02 0.  0.
        -12    1    1    2    0    0 -0.71945534632E+01 -0.15954379038E+02  0.36699619522E+02  0.40659142675E+02  0.00000000000E+00 0.  1.
         11    1    3    3    0    0  0.46838339488E+01  0.23079917840E+02 -0.30329063847E+02  0.38398867459E+02  0.51100000000E-03 0. -1.
        -11    1    3    3    0    0 -0.35878000945E+00 -0.23684029295E+01 -0.61162461957E+01  0.65686013214E+01  0.51100000000E-03 0.  1.
         12    1    3    3    0    0  0.28694995238E+01 -0.47571358731E+01 -0.25430947923E+00  0.55613885446E+01  0.00000000000E+00 0. -1.
</event>
<event>
 7    1  0.9868142E-013  0.5052886E+02  0.7816164E-02  0.1300439E+00
        -11   -1    0    0    0    0  0.00000000000E+00  0.00000000000E+00  0.45593999997E+02  0.45594000000E+02  0.51100000000E-03 0.  1.
         11   -1    0    0    0    0 -0.00000000000E+00 -0.00000000000E+00 -0.45593999997E+02  0.45594000000E+02  0.51100000000E-03 0. -1.
    9900012    2    1    2    0    0  0.24476848528E+02  0.30977859432E+02  0.97170736690E+01  0.50528863148E+02  0.30000010025E+02 0.  0.
        -12    1    1    2    0    0 -0.24476848528E+02 -0.30977859432E+02 -0.97170736690E+01  0.40659136852E+02  0.00000000000E+00 0.  1.
         11    1    3    3    0    0  0.74052408986E+01 -0.37147092760E+01  0.85279304363E+00  0.83285001055E+01  0.51100000000E-03 0.  1.
        -11    1    3    3    0    0  0.18011610090E+02  0.26081517740E+02  0.32156174408E+01  0.31859125246E+02  0.51100000000E-03 0. -1.
         12    1    3    3    0    0 -0.94000246035E+00  0.86110509678E+01  0.56486631846E+01  0.10341237797E+02  0.00000000000E+00 0. -1.
</event>
<event>
 7    1  0.9868142E-013  0.5052886E+02  0.7816164E-02  0.1300439E+00
        -11   -1    0    0    0    0  0.00000000000E+00  0.00000000000E+00  0.45593999997E+02  0.45594000000E+02  0.51100000000E-03 0.  1.
         11   -1    0    0    0    0 -0.00000000000E+00 -0.00000000000E+00 -0.45593999997E+02  0.45594000000E+02  0.51100000000E-03 0. -1.
    9900012    2    1    2    0    0  0.32735232569E+02  0.15623403001E+02 -0.18370611022E+02  0.50528861765E+02  0.30000005822E+02 0.  0.
        -12    1    1    2    0    0 -0.32735232569E+02 -0.15623403001E+02  0.18370611022E+02  0.40659138235E+02  0.00000000000E+00 0.  1.
         11    1    3    3    0    0  0.29053937574E+02  0.19328860131E+02 -0.10726552335E+02  0.36507465645E+02  0.51100000000E-03 0. -1.
        -11    1    3    3    0    0  0.52130970441E+00 -0.77354264493E+00  0.26777802236E+01  0.28356020910E+01  0.51100000000E-03 0.  1.
         12    1    3    3    0    0  0.31599852902E+01 -0.29319144850E+01 -0.10321838911E+02  0.11185794030E+02  0.00000000000E+00 0. -1.
</event>
<event>
 7    1  0.9868142E-013  0.5052884E+02  0.7816164E-02  0.1300439E+00
        -11   -1    0    0    0    0  0.00000000000E+00  0.00000000000E+00  0.45593999997E+02  0.45594000000E+02  0.51100000000E-03 0.  1.
         11   -1    0    0    0    0 -0.00000000000E+00 -0.00000000000E+00 -0.45593999997E+02  0.45594000000E+02  0.51100000000E-03 0. -1.
    9900012    2    1    2    0    0 -0.62083944308E+01 -0.39721448106E+02 -0.60687213414E+01  0.50528843838E+02  0.29999951330E+02 0.  0.
        -12    1    1    2    0    0  0.62083944308E+01  0.39721448106E+02  0.60687213414E+01  0.40659156162E+02  0.00000000000E+00 0.  1.
         11    1    3    3    0    0  0.61237337012E+01 -0.10891438773E+02  0.20777260497E+01  0.12666510916E+02  0.51100000000E-03 0. -1.
        -11    1    3    3    0    0 -0.16361356637E+02 -0.16639084635E+02 -0.89608718097E+01  0.24997006868E+02  0.51100000000E-03 0.  1.
        -12    1    3    3    0    0  0.40292285053E+01 -0.12190924698E+02  0.81442441858E+00  0.12865326054E+02  0.00000000000E+00 0.  1.
</event>
<event>
 7    1  0.9868142E-013  0.5052886E+02  0.7816164E-02  0.1300439E+00
        -11   -1    0    0    0    0  0.00000000000E+00  0.00000000000E+00  0.45593999997E+02  0.45594000000E+02  0.51100000000E-03 0. -1.
         11   -1    0    0    0    0 -0.00000000000E+00 -0.00000000000E+00 -0.45593999997E+02  0.45594000000E+02  0.51100000000E-03 0.  1.
    9900012    2    1    2    0    0 -0.22965878202E+02  0.43555117214E+01 -0.33268057935E+02  0.50528859297E+02  0.29999998319E+02 0.  0.
        -12    1    1    2    0    0  0.22965878202E+02 -0.43555117214E+01  0.33268057935E+02  0.40659140703E+02  0.00000000000E+00 0.  1.
         11    1    3    3    0    0 -0.43523945928E+01  0.74696775281E+00  0.51052416467E+01  0.67501697791E+01  0.51100000000E-03 0. -1.
        -11    1    3    3    0    0  0.49005372408E+00  0.12091985088E+00 -0.60465778485E+01  0.60676089361E+01  0.51100000000E-03 0.  1.
         12    1    3    3    0    0 -0.19103537333E+02  0.34876241177E+01 -0.32326721733E+02  0.37711080582E+02  0.00000000000E+00 0. -1.
</event>
<event>
 7    1  0.9868142E-013  0.5052886E+02  0.7816164E-02  0.1300439E+00
        -11   -1    0    0    0    0  0.00000000000E+00  0.00000000000E+00  0.45593999997E+02  0.45594000000E+02  0.51100000000E-03 0.  1.
         11   -1    0    0    0    0 -0.00000000000E+00 -0.00000000000E+00 -0.45593999997E+02  0.45594000000E+02  0.51100000000E-03 0. -1.
    9900012    2    1    2    0    0 -0.71516522262E+01  0.15847716295E+02 -0.36754173187E+02  0.50528862184E+02  0.30000007094E+02 0.  0.
        -12    1    1    2    0    0  0.71516522262E+01 -0.15847716295E+02  0.36754173187E+02  0.40659137816E+02  0.00000000000E+00 0.  1.
         11    1    3    3    0    0 -0.11558170388E+01  0.21173176492E+02 -0.17520245788E+02  0.27506332517E+02  0.51100000000E-03 0. -1.
        -11    1    3    3    0    0 -0.24822734808E+01 -0.17255165619E+01  0.12007553086E+00  0.30254763977E+01  0.51100000000E-03 0.  1.
         12    1    3    3    0    0 -0.35135617066E+01 -0.35999436357E+01 -0.19354002930E+02  0.19997053269E+02  0.00000000000E+00 0. -1.
</event>
<event>
 7    1  0.9868142E-013  0.5052886E+02  0.7816164E-02  0.1300439E+00
        -11   -1    0    0    0    0  0.00000000000E+00  0.00000000000E+00  0.45593999997E+02  0.45594000000E+02  0.51100000000E-03 0.  1.
         11   -1    0    0    0    0 -0.00000000000E+00 -0.00000000000E+00 -0.45593999997E+02  0.45594000000E+02  0.51100000000E-03 0. -1.
    9900012    2    1    2    0    0  0.25765934272E+02  0.23173363302E+02 -0.21266815895E+02  0.50528860880E+02  0.30000003131E+02 0.  0.
        -12    1    1    2    0    0 -0.25765934272E+02 -0.23173363302E+02  0.21266815895E+02  0.40659139120E+02  0.00000000000E+00 0.  1.
         11    1    3    3    0    0  0.10841309915E+02  0.95152939174E+01 -0.78221814337E+01  0.16409184673E+02  0.51100000000E-03 0. -1.
        -11    1    3    3    0    0  0.81299974938E+01 -0.55163970956E+01 -0.16515916901E+00  0.98262288787E+01  0.51100000000E-03 0.  1.
        -12    1    3    3    0    0  0.67946268637E+01  0.19174466481E+02 -0.13279475293E+02  0.24293447328E+02  0.00000000000E+00 0.  1.
</event>
<event>
 7    1  0.9868142E-013  0.5052886E+02  0.7816164E-02  0.1300439E+00
        -11   -1    0    0    0    0  0.00000000000E+00  0.00000000000E+00  0.45593999997E+02  0.45594000000E+02  0.51100000000E-03 0.  1.
         11   -1    0    0    0    0 -0.00000000000E+00 -0.00000000000E+00 -0.45593999997E+02  0.45594000000E+02  0.51100000000E-03 0. -1.
    9900012    2    1    2    0    0 -0.13306483648E+02  0.34159941768E+02 -0.17584125116E+02  0.50528860993E+02  0.30000003474E+02 0.  0.
        -12    1    1    2    0    0  0.13306483648E+02 -0.34159941768E+02  0.17584125116E+02  0.40659139007E+02  0.00000000000E+00 0.  1.
         11    1    3    3    0    0  0.24542902825E+01  0.47097344351E+01 -0.77182624501E+01  0.93689228169E+01  0.51100000000E-03 0. -1.
        -11    1    3    3    0    0 -0.20261574584E+02  0.16336641464E+02 -0.52856366653E+01  0.26558524322E+02  0.51100000000E-03 0.  1.
        -12    1    3    3    0    0  0.45008006531E+01  0.13113565869E+02 -0.45802260006E+01  0.14601413854E+02  0.00000000000E+00 0.  1.
</event>
<event>
 7    1  0.9868142E-013  0.5052883E+02  0.7816164E-02  0.1300439E+00
        -11   -1    0    0    0    0  0.00000000000E+00  0.00000000000E+00  0.45593999997E+02  0.45594000000E+02  0.51100000000E-03 0.  1.
         11   -1    0    0    0    0 -0.00000000000E+00 -0.00000000000E+00 -0.45593999997E+02  0.45594000000E+02  0.51100000000E-03 0. -1.
    9900012    2    1    2    0    0 -0.29144674383E+01  0.38598215160E+02 -0.12443939540E+02  0.50528831719E+02  0.29999914494E+02 0.  0.
        -12    1    1    2    0    0  0.29144674383E+01 -0.38598215160E+02  0.12443939540E+02  0.40659168281E+02  0.00000000000E+00 0.  1.
         11    1    3    3    0    0  0.17248695176E+01  0.32506218732E+02 -0.68375498674E+00  0.32559130090E+02  0.51100000000E-03 0. -1.
        -11    1    3    3    0    0 -0.95239934026E+00  0.15871452469E+00  0.21761006223E+01  0.23806866621E+01  0.51100000000E-03 0.  1.
         12    1    3    3    0    0 -0.36869376156E+01  0.59332819037E+01 -0.13936285176E+02  0.15589014967E+02  0.00000000000E+00 0. -1.
</event>
<event>
 7    1  0.9868142E-013  0.5052886E+02  0.7816164E-02  0.1300439E+00
        -11   -1    0    0    0    0  0.00000000000E+00  0.00000000000E+00  0.45593999997E+02  0.45594000000E+02  0.51100000000E-03 0.  1.
         11   -1    0    0    0    0 -0.00000000000E+00 -0.00000000000E+00 -0.45593999997E+02  0.45594000000E+02  0.51100000000E-03 0. -1.
    9900012    2    1    2    0    0 -0.12564739870E+02  0.21117840957E+02 -0.32393363872E+02  0.50528856900E+02  0.29999991032E+02 0.  0.
        -12    1    1    2    0    0  0.12564739870E+02 -0.21117840957E+02  0.32393363872E+02  0.40659143100E+02  0.00000000000E+00 0.  1.
         11    1    3    3    0    0 -0.83351823968E+01  0.13409392603E+02 -0.12550799859E+02  0.20169522873E+02  0.51100000000E-03 0. -1.
        -11    1    3    3    0    0 -0.24110274157E+01 -0.56687518598E+01  0.23540865211E+00  0.61646750395E+01  0.51100000000E-03 0.  1.
        -12    1    3    3    0    0 -0.18185300578E+01  0.13377200214E+02 -0.20077972666E+02  0.24194658987E+02  0.00000000000E+00 0.  1.
</event>
<event>
 7    1  0.9868142E-013  0.5052886E+02  0.7816164E-02  0.1300439E+00
        -11   -1    0    0    0    0  0.00000000000E+00  0.00000000000E+00  0.45593999997E+02  0.45594000000E+02  0.51100000000E-03 0.  1.
         11   -1    0    0    0    0 -0.00000000000E+00 -0.00000000000E+00 -0.45593999997E+02  0.45594000000E+02  0.51100000000E-03 0. -1.
    9900012    2    1    2    0    0 -0.22259196397E+02  0.33254099189E+02 -0.72012917668E+01  0.50528861541E+02  0.30000005139E+02 0.  0.
        -12    1    1    2    0    0  0.22259196397E+02 -0.33254099189E+02  0.72012917668E+01  0.40659138459E+02  0.00000000000E+00 0.  1.
         11    1    3    3    0    0 -0.61509872803E+01  0.96326687461E+01 -0.20879376713E+01  0.11618194166E+02  0.51100000000E-03 0. -1.
        -11    1    3    3    0    0 -0.15757767205E+02  0.57290202670E+01  0.60424321746E+01  0.17822454583E+02  0.51100000000E-03 0.  1.
        -12    1    3    3    0    0 -0.35044191174E+00  0.17892410176E+02 -0.11155786270E+02  0.21088212792E+02  0.00000000000E+00 0.  1.
</event>
<event>
 7    1  0.9868142E-013  0.5052886E+02  0.7816164E-02  0.1300439E+00
        -11   -1    0    0    0    0  0.00000000000E+00  0.00000000000E+00  0.45593999997E+02  0.45594000000E+02  0.51100000000E-03 0.  1.
         11   -1    0    0    0    0 -0.00000000000E+00 -0.00000000000E+00 -0.45593999997E+02  0.45594000000E+02  0.51100000000E-03 0. -1.
    9900012    2    1    2    0    0 -0.64262874997E+01  0.72550652324E+01 -0.39487118515E+02  0.50528859931E+02  0.30000000245E+02 0.  0.
        -12    1    1    2    0    0  0.64262874997E+01 -0.72550652324E+01  0.39487118515E+02  0.40659140069E+02  0.00000000000E+00 0.  1.
         11    1    3    3    0    0 -0.11141178307E+02  0.10502177923E+02 -0.39183876350E+02  0.42068964347E+02  0.51100000000E-03 0. -1.
        -11    1    3    3    0    0 -0.32522328973E+00 -0.29381316247E+00  0.20985118937E+01  0.21437930851E+01  0.51100000000E-03 0.  1.
         12    1    3    3    0    0  0.50401140968E+01 -0.29532995280E+01 -0.24017540592E+01  0.63161024985E+01  0.00000000000E+00 0. -1.
</event>
<event>
 7    1  0.9868142E-013  0.5052886E+02  0.7816164E-02  0.1300439E+00
        -11   -1    0    0    0    0  0.00000000000E+00  0.00000000000E+00  0.45593999997E+02  0.45594000000E+02  0.51100000000E-03 0.  1.
         11   -1    0    0    0    0 -0.00000000000E+00 -0.00000000000E+00 -0.45593999997E+02  0.45594000000E+02  0.51100000000E-03 0. -1.
    9900012    2    1    2    0    0 -0.21087830960E+02 -0.65282851929E+01 -0.34144553953E+02  0.50528859739E+02  0.29999999662E+02 0.  0.
        -12    1    1    2    0    0  0.21087830960E+02  0.65282851929E+01  0.34144553953E+02  0.40659140261E+02  0.00000000000E+00 0.  1.
         11    1    3    3    0    0  0.49169840355E+01 -0.49328342828E+01 -0.11897184268E+02  0.13785955891E+02  0.51100000000E-03 0. -1.
        -11    1    3    3    0    0 -0.24719948944E+02 -0.52486556333E+01 -0.18209779040E+02  0.31148359744E+02  0.51100000000E-03 0.  1.
         12    1    3    3    0    0 -0.12848660509E+01  0.36532047233E+01 -0.40375906447E+01  0.55945441041E+01  0.00000000000E+00 0. -1.
</event>
<event>
 7    1  0.9868142E-013  0.5052886E+02  0.7816164E-02  0.1300439E+00
        -11   -1    0    0    0    0  0.00000000000E+00  0.00000000000E+00  0.45593999997E+02  0.45594000000E+02  0.51100000000E-03 0.  1.
         11   -1    0    0    0    0 -0.00000000000E+00 -0.00000000000E+00 -0.45593999997E+02  0.45594000000E+02  0.51100000000E-03 0. -1.
    9900012    2    1    2    0    0  0.24026917688E+02 -0.11156778669E+02 -0.30844761435E+02  0.50528858447E+02  0.29999995735E+02 0.  0.
        -12    1    1    2    0    0 -0.24026917688E+02  0.11156778669E+02  0.30844761435E+02  0.40659141553E+02  0.00000000000E+00 0.  1.
         11    1    3    3    0    0  0.30291766377E+01 -0.92984236724E+00  0.27718096129E+01  0.42099224128E+01  0.51100000000E-03 0. -1.
        -11    1    3    3    0    0  0.23953615195E+02 -0.81721174205E+01 -0.34327991604E+02  0.42649386770E+02  0.51100000000E-03 0.  1.
        -12    1    3    3    0    0 -0.29558741452E+01 -0.20548188810E+01  0.71142055555E+00  0.36695492642E+01  0.00000000000E+00 0.  1.
</event>
<event>
 7    1  0.9868142E-013  0.5052885E+02  0.7816164E-02  0.1300439E+00
        -11   -1    0    0    0    0  0.00000000000E+00  0.00000000000E+00  0.45593999997E+02  0.45594000000E+02  0.51100000000E-03 0.  1.
         11   -1    0    0    0    0 -0.00000000000E+00 -0.00000000000E+00 -0.45593999997E+02  0.45594000000E+02  0.51100000000E-03 0. -1.
    9900012    2    1    2    0    0  0.30026737668E+02 -0.82312512407E+01 -0.26149717613E+02  0.50528853389E+02  0.29999980360E+02 0.  0.
        -12    1    1    2    0    0 -0.30026737668E+02  0.82312512407E+01  0.26149717613E+02  0.40659146611E+02  0.00000000000E+00 0.  1.
         11    1    3    3    0    0  0.21907784373E+02 -0.32996009319E+01 -0.25575141522E+02  0.33836758807E+02  0.51100000000E-03 0. -1.
        -11    1    3    3    0    0  0.14553162828E+01 -0.74774825342E+01  0.36014641633E+01  0.84262230515E+01  0.51100000000E-03 0.  1.
         12    1    3    3    0    0  0.66636370121E+01  0.25458322254E+01 -0.41760402536E+01  0.82658715299E+01  0.00000000000E+00 0. -1.
</event>
<event>
 7    1  0.9868142E-013  0.5052886E+02  0.7816164E-02  0.1300439E+00
        -11   -1    0    0    0    0  0.00000000000E+00  0.00000000000E+00  0.45593999997E+02  0.45594000000E+02  0.51100000000E-03 0.  1.
         11   -1    0    0    0    0 -0.00000000000E+00 -0.00000000000E+00 -0.45593999997E+02  0.45594000000E+02  0.51100000000E-03 0. -1.
    9900012    2    1    2    0    0  0.34766979102E+02 -0.10200089715E+02 -0.18449424075E+02  0.50528856935E+02  0.29999991139E+02 0.  0.
        -12    1    1    2    0    0 -0.34766979102E+02  0.10200089715E+02  0.18449424075E+02  0.40659143065E+02  0.00000000000E+00 0.  1.
         11    1    3    3    0    0  0.88043652329E+01 -0.69842046017E+01 -0.35912531808E+01  0.11798010881E+02  0.51100000000E-03 0. -1.
        -11    1    3    3    0    0  0.16163919333E+02  0.91932929965E+01 -0.27108611992E+01  0.18791958201E+02  0.51100000000E-03 0.  1.
        -12    1    3    3    0    0  0.97986945358E+01 -0.12409178110E+02 -0.12147309695E+02  0.19938887853E+02  0.00000000000E+00 0.  1.
</event>
<event>
 7    1  0.9868142E-013  0.5052886E+02  0.7816164E-02  0.1300439E+00
        -11   -1    0    0    0    0  0.00000000000E+00  0.00000000000E+00  0.45593999997E+02  0.45594000000E+02  0.51100000000E-03 0.  1.
         11   -1    0    0    0    0 -0.00000000000E+00 -0.00000000000E+00 -0.45593999997E+02  0.45594000000E+02  0.51100000000E-03 0. -1.
    9900012    2    1    2    0    0 -0.63967450798E+01 -0.64733184802E+01 -0.39627554619E+02  0.50528864681E+02  0.30000014686E+02 0.  0.
        -12    1    1    2    0    0  0.63967450798E+01  0.64733184802E+01  0.39627554619E+02  0.40659135319E+02  0.00000000000E+00 0.  1.
         11    1    3    3    0    0 -0.67342786675E+01 -0.19160477594E+01 -0.31812193468E+02  0.32573569066E+02  0.51100000000E-03 0. -1.
        -11    1    3    3    0    0  0.76742305842E+01 -0.28543785933E+01 -0.19703531035E+01  0.84216140868E+01  0.51100000000E-03 0.  1.
        -12    1    3    3    0    0 -0.73366969965E+01 -0.17028921275E+01 -0.58450080480E+01  0.95336815291E+01  0.00000000000E+00 0.  1.
</event>
<event>
 7    1  0.9868142E-013  0.5052884E+02  0.7816164E-02  0.1300439E+00
        -11   -1    0    0    0    0  0.00000000000E+00  0.00000000000E+00  0.45593999997E+02  0.45594000000E+02  0.51100000000E-03 0.  1.
         11   -1    0    0    0    0 -0.00000000000E+00 -0.00000000000E+00 -0.45593999997E+02  0.45594000000E+02  0.51100000000E-03 0. -1.
    9900012    2    1    2    0    0  0.23687656829E+02 -0.13915676650E+01 -0.33017048053E+02  0.50528843482E+02  0.29999950249E+02 0.  0.
        -12    1    1    2    0    0 -0.23687656829E+02  0.13915676650E+01  0.33017048053E+02  0.40659156518E+02  0.00000000000E+00 0.  1.
         11    1    3    3    0    0  0.17192398905E+02 -0.30440777953E+01 -0.12962002224E+02  0.21745309647E+02  0.51100000000E-03 0. -1.
        -11    1    3    3    0    0 -0.11525285627E+01 -0.55979308807E+01 -0.16812774937E+02  0.17757661827E+02  0.51100000000E-03 0.  1.
        -12    1    3    3    0    0  0.76477864866E+01  0.72504410110E+01 -0.32422708919E+01  0.11025872008E+02  0.00000000000E+00 0.  1.
</event>
<event>
 7    1  0.9868142E-013  0.5052886E+02  0.7816164E-02  0.1300439E+00
        -11   -1    0    0    0    0  0.00000000000E+00  0.00000000000E+00  0.45593999997E+02  0.45594000000E+02  0.51100000000E-03 0.  1.
         11   -1    0    0    0    0 -0.00000000000E+00 -0.00000000000E+00 -0.45593999997E+02  0.45594000000E+02  0.51100000000E-03 0. -1.
    9900012    2    1    2    0    0  0.85500758994E+01 -0.54449942943E+01 -0.39375300415E+02  0.50528855352E+02  0.29999986328E+02 0.  0.
        -12    1    1    2    0    0 -0.85500758994E+01  0.54449942943E+01  0.39375300415E+02  0.40659144648E+02  0.00000000000E+00 0.  1.
         11    1    3    3    0    0 -0.11257025462E+01 -0.24524576126E+01 -0.22055528596E+02  0.22219993170E+02  0.51100000000E-03 0. -1.
        -11    1    3    3    0    0  0.14524801487E+01  0.70293450700E+01 -0.67249427545E+00  0.72092745479E+01  0.51100000000E-03 0.  1.
        -12    1    3    3    0    0  0.82232982969E+01 -0.10021881752E+02 -0.16647277544E+02  0.21099587635E+02  0.00000000000E+00 0.  1.
</event>
<event>
 7    1  0.9868142E-013  0.5052886E+02  0.7816164E-02  0.1300439E+00
        -11   -1    0    0    0    0  0.00000000000E+00  0.00000000000E+00  0.45593999997E+02  0.45594000000E+02  0.51100000000E-03 0.  1.
         11   -1    0    0    0    0 -0.00000000000E+00 -0.00000000000E+00 -0.45593999997E+02  0.45594000000E+02  0.51100000000E-03 0. -1.
    9900012    2    1    2    0    0 -0.14122037772E+02  0.60746695884E+01 -0.37640830726E+02  0.50528859586E+02  0.29999999198E+02 0.  0.
        -12    1    1    2    0    0  0.14122037772E+02 -0.60746695884E+01  0.37640830726E+02  0.40659140414E+02  0.00000000000E+00 0.  1.
         11    1    3    3    0    0  0.53769769228E+01  0.66566332277E+01 -0.18513426422E+02  0.20395332920E+02  0.51100000000E-03 0. -1.
        -11    1    3    3    0    0 -0.11992106446E+02 -0.13479399133E+01 -0.31624880333E+01  0.12475130855E+02  0.51100000000E-03 0.  1.
        -12    1    3    3    0    0 -0.75069082493E+01  0.76597627393E+00 -0.15964916270E+02  0.17658395811E+02  0.00000000000E+00 0.  1.
</event>
<event>
 7    1  0.9868142E-013  0.5052886E+02  0.7816164E-02  0.1300439E+00
        -11   -1    0    0    0    0  0.00000000000E+00  0.00000000000E+00  0.45593999997E+02  0.45594000000E+02  0.51100000000E-03 0.  1.
         11   -1    0    0    0    0 -0.00000000000E+00 -0.00000000000E+00 -0.45593999997E+02  0.45594000000E+02  0.51100000000E-03 0. -1.
    9900012    2    1    2    0    0  0.36093708319E+02  0.14428492186E+02 -0.11925962505E+02  0.50528858978E+02  0.29999997348E+02 0.  0.
        -12    1    1    2    0    0 -0.36093708319E+02 -0.14428492186E+02  0.11925962505E+02  0.40659141022E+02  0.00000000000E+00 0.  1.
         11    1    3    3    0    0  0.33471740345E+02  0.15163699603E+02 -0.11351166517E+02  0.38459643380E+02  0.51100000000E-03 0. -1.
        -11    1    3    3    0    0  0.50492687990E+00 -0.38249732165E+01 -0.49718211649E+01  0.62932008722E+01  0.51100000000E-03 0.  1.
         12    1    3    3    0    0  0.21170410942E+01  0.30897658000E+01  0.43970251773E+01  0.57760147250E+01  0.00000000000E+00 0. -1.
</event>
<event>
 7    1  0.9868142E-013  0.5052888E+02  0.7816164E-02  0.1300439E+00
        -11   -1    0    0    0    0  0.00000000000E+00  0.00000000000E+00  0.45593999997E+02  0.45594000000E+02  0.51100000000E-03 0.  1.
         11   -1    0    0    0    0 -0.00000000000E+00 -0.00000000000E+00 -0.45593999997E+02  0.45594000000E+02  0.51100000000E-03 0. -1.
    9900012    2    1    2    0    0 -0.26661642481E+02 -0.30448608545E+02 -0.38991434395E+01  0.50528877264E+02  0.30000052930E+02 0.  0.
        -12    1    1    2    0    0  0.26661642481E+02  0.30448608545E+02  0.38991434395E+01  0.40659122736E+02  0.00000000000E+00 0.  1.
         11    1    3    3    0    0 -0.49341397966E+01 -0.40007594284E+00 -0.10498512623E+02  0.11607091102E+02  0.51100000000E-03 0. -1.
        -11    1    3    3    0    0 -0.18804143629E+02 -0.23373579737E+02  0.88814085902E+01  0.31285770985E+02  0.51100000000E-03 0.  1.
         12    1    3    3    0    0 -0.29233590563E+01 -0.66749528647E+01 -0.22820394066E+01  0.76360151762E+01  0.00000000000E+00 0. -1.
</event>
<event>
 7    1  0.9868142E-013  0.5052887E+02  0.7816164E-02  0.1300439E+00
        -11   -1    0    0    0    0  0.00000000000E+00  0.00000000000E+00  0.45593999997E+02  0.45594000000E+02  0.51100000000E-03 0.  1.
         11   -1    0    0    0    0 -0.00000000000E+00 -0.00000000000E+00 -0.45593999997E+02  0.45594000000E+02  0.51100000000E-03 0. -1.
    9900012    2    1    2    0    0  0.22435041615E+02  0.26803499694E+02 -0.20770319878E+02  0.50528869710E+02  0.30000029969E+02 0.  0.
        -12    1    1    2    0    0 -0.22435041615E+02 -0.26803499694E+02  0.20770319878E+02  0.40659130290E+02  0.00000000000E+00 0.  1.
         11    1    3    3    0    0  0.12540548304E+02 -0.17988072858E+01 -0.13617966197E+02  0.18599732875E+02  0.51100000000E-03 0. -1.
        -11    1    3    3    0    0  0.59957360995E+01  0.13170577399E+02 -0.68479744853E+01  0.16009613213E+02  0.51100000000E-03 0.  1.
         12    1    3    3    0    0  0.38987572117E+01  0.15431729581E+02 -0.30437919547E+00  0.15919523622E+02  0.00000000000E+00 0. -1.
</event>
<event>
 7    1  0.9868142E-013  0.5052886E+02  0.7816164E-02  0.1300439E+00
        -11   -1    0    0    0    0  0.00000000000E+00  0.00000000000E+00  0.45593999997E+02  0.45594000000E+02  0.51100000000E-03 0.  1.
         11   -1    0    0    0    0 -0.00000000000E+00 -0.00000000000E+00 -0.45593999997E+02  0.45594000000E+02  0.51100000000E-03 0. -1.
    9900012    2    1    2    0    0  0.17936972802E+02  0.56739746312E+01 -0.36044929415E+02  0.50528856896E+02  0.29999991022E+02 0.  0.
        -12    1    1    2    0    0 -0.17936972802E+02 -0.56739746312E+01  0.36044929415E+02  0.40659143104E+02  0.00000000000E+00 0.  1.
         11    1    3    3    0    0 -0.31124886609E+01 -0.45484577274E+01 -0.16090912923E+02  0.17008631112E+02  0.51100000000E-03 0. -1.
        -11    1    3    3    0    0  0.22157101936E+02  0.66438786842E+01 -0.17894415391E+02  0.29245314028E+02  0.51100000000E-03 0.  1.
        -12    1    3    3    0    0 -0.11076404735E+01  0.35785536744E+01 -0.20596011014E+01  0.42749117554E+01  0.00000000000E+00 0.  1.
</event>
<event>
 7    1  0.9868142E-013  0.5052886E+02  0.7816164E-02  0.1300439E+00
        -11   -1    0    0    0    0  0.00000000000E+00  0.00000000000E+00  0.45593999997E+02  0.45594000000E+02  0.51100000000E-03 0.  1.
         11   -1    0    0    0    0 -0.00000000000E+00 -0.00000000000E+00 -0.45593999997E+02  0.45594000000E+02  0.51100000000E-03 0. -1.
    9900012    2    1    2    0    0  0.26894474166E+02  0.15621416418E+02 -0.26188249308E+02  0.50528858428E+02  0.29999995678E+02 0.  0.
        -12    1    1    2    0    0 -0.26894474166E+02 -0.15621416418E+02  0.26188249308E+02  0.40659141572E+02  0.00000000000E+00 0.  1.
         11    1    3    3    0    0  0.26971931441E+01 -0.57109303528E+01 -0.99547917024E+01  0.11789294061E+02  0.51100000000E-03 0.  1.
        -11    1    3    3    0    0  0.25233161602E+02  0.16466314050E+02 -0.13065035783E+02  0.32841240888E+02  0.51100000000E-03 0. -1.
         12    1    3    3    0    0 -0.10358805802E+01  0.48660327210E+01 -0.31684218226E+01  0.58983234791E+01  0.00000000000E+00 0. -1.
</event>
<event>
 7    1  0.9868142E-013  0.5052886E+02  0.7816164E-02  0.1300439E+00
        -11   -1    0    0    0    0  0.00000000000E+00  0.00000000000E+00  0.45593999997E+02  0.45594000000E+02  0.51100000000E-03 0.  1.
         11   -1    0    0    0    0 -0.00000000000E+00 -0.00000000000E+00 -0.45593999997E+02  0.45594000000E+02  0.51100000000E-03 0. -1.
    9900012    2    1    2    0    0  0.14309149491E+02  0.65554473386E+01 -0.37489197598E+02  0.50528860984E+02  0.30000003448E+02 0.  0.
        -12    1    1    2    0    0 -0.14309149491E+02 -0.65554473386E+01  0.37489197598E+02  0.40659139016E+02  0.00000000000E+00 0.  1.
         11    1    3    3    0    0  0.13430872977E+02  0.14725226710E+02 -0.19247500253E+02  0.27707163638E+02  0.51100000000E-03 0. -1.
        -11    1    3    3    0    0 -0.43696615940E+01 -0.59096562059E+00 -0.71375155576E+01  0.83897146201E+01  0.51100000000E-03 0.  1.
         12    1    3    3    0    0  0.52479381075E+01 -0.75788137510E+01 -0.11104181787E+02  0.14431982726E+02  0.00000000000E+00 0. -1.
</event>
<event>
 7    1  0.9868142E-013  0.5052886E+02  0.7816164E-02  0.1300439E+00
        -11   -1    0    0    0    0  0.00000000000E+00  0.00000000000E+00  0.45593999997E+02  0.45594000000E+02  0.51100000000E-03 0.  1.
         11   -1    0    0    0    0 -0.00000000000E+00 -0.00000000000E+00 -0.45593999997E+02  0.45594000000E+02  0.51100000000E-03 0. -1.
    9900012    2    1    2    0    0 -0.14150367197E+02 -0.38084158757E+02 -0.15903794203E+01  0.50528863921E+02  0.30000012373E+02 0.  0.
        -12    1    1    2    0    0  0.14150367197E+02  0.38084158757E+02  0.15903794203E+01  0.40659136079E+02  0.00000000000E+00 0.  1.
         11    1    3    3    0    0  0.11955655445E+01  0.32413340838E+01 -0.29420110516E+00  0.34673012799E+01  0.51100000000E-03 0. -1.
        -11    1    3    3    0    0 -0.63417835381E+01 -0.35282041579E+02  0.14437249059E+01  0.35876524613E+02  0.51100000000E-03 0.  1.
         12    1    3    3    0    0 -0.90041492030E+01 -0.60434512613E+01 -0.27399032210E+01  0.11185038028E+02  0.00000000000E+00 0. -1.
</event>
<event>
 7    1  0.9868142E-013  0.5052886E+02  0.7816164E-02  0.1300439E+00
        -11   -1    0    0    0    0  0.00000000000E+00  0.00000000000E+00  0.45593999997E+02  0.45594000000E+02  0.51100000000E-03 0.  1.
         11   -1    0    0    0    0 -0.00000000000E+00 -0.00000000000E+00 -0.45593999997E+02  0.45594000000E+02  0.51100000000E-03 0. -1.
    9900012    2    1    2    0    0  0.33538691166E+02 -0.80879654199E+01 -0.21515269277E+02  0.50528858324E+02  0.29999995362E+02 0.  0.
        -12    1    1    2    0    0 -0.33538691166E+02  0.80879654199E+01  0.21515269277E+02  0.40659141676E+02  0.00000000000E+00 0.  1.
         11    1    3    3    0    0  0.14690603762E+02 -0.21084331038E+01 -0.11691767014E+02  0.18893298950E+02  0.51100000000E-03 0. -1.
        -11    1    3    3    0    0 -0.21874185834E+00  0.28561728366E+01  0.51080327499E+01  0.58564127338E+01  0.51100000000E-03 0.  1.
        -12    1    3    3    0    0  0.19066829263E+02 -0.88357051528E+01 -0.14931535013E+02  0.25779146641E+02  0.00000000000E+00 0.  1.
</event>
<event>
 7    1  0.9868142E-013  0.5052886E+02  0.7816164E-02  0.1300439E+00
        -11   -1    0    0    0    0  0.00000000000E+00  0.00000000000E+00  0.45593999997E+02  0.45594000000E+02  0.51100000000E-03 0.  1.
         11   -1    0    0    0    0 -0.00000000000E+00 -0.00000000000E+00 -0.45593999997E+02  0.45594000000E+02  0.51100000000E-03 0. -1.
    9900012    2    1    2    0    0  0.62698928349E+01  0.25340162612E+01 -0.40092801099E+02  0.50528862102E+02  0.30000006847E+02 0.  0.
        -12    1    1    2    0    0 -0.62698928349E+01 -0.25340162612E+01  0.40092801099E+02  0.40659137898E+02  0.00000000000E+00 0.  1.
         11    1    3    3    0    0 -0.16183365058E+01  0.18012273751E+01 -0.21940362944E+02  0.22073580577E+02  0.51100000000E-03 0. -1.
        -11    1    3    3    0    0  0.47905524676E+01 -0.71576562994E+00  0.38507848655E+01  0.61879122265E+01  0.51100000000E-03 0.  1.
        -12    1    3    3    0    0  0.30976768732E+01  0.14485545160E+01 -0.22003223021E+02  0.22267369299E+02  0.00000000000E+00 0.  1.
</event>
<event>
 7    1  0.9868142E-013  0.5052886E+02  0.7816164E-02  0.1300439E+00
        -11   -1    0    0    0    0  0.00000000000E+00  0.00000000000E+00  0.45593999997E+02  0.45594000000E+02  0.51100000000E-03 0.  1.
         11   -1    0    0    0    0 -0.00000000000E+00 -0.00000000000E+00 -0.45593999997E+02  0.45594000000E+02  0.51100000000E-03 0. -1.
    9900012    2    1    2    0    0  0.26602748020E+01 -0.11740193684E+01 -0.40555027671E+02  0.50528860155E+02  0.30000000927E+02 0.  0.
        -12    1    1    2    0    0 -0.26602748020E+01  0.11740193684E+01  0.40555027671E+02  0.40659139845E+02  0.00000000000E+00 0.  1.
         11    1    3    3    0    0 -0.11151819506E+02  0.93957112450E+00 -0.24031852699E+02  0.26509919211E+02  0.51100000000E-03 0. -1.
        -11    1    3    3    0    0  0.40127030559E+01 -0.46452609112E+01 -0.22847777095E+01  0.65498430662E+01  0.51100000000E-03 0.  1.
         12    1    3    3    0    0  0.97993912524E+01  0.25316704184E+01 -0.14238397263E+02  0.17469097878E+02  0.00000000000E+00 0. -1.
</event>
<event>
 7    1  0.9868142E-013  0.5052886E+02  0.7816164E-02  0.1300439E+00
        -11   -1    0    0    0    0  0.00000000000E+00  0.00000000000E+00  0.45593999997E+02  0.45594000000E+02  0.51100000000E-03 0. -1.
         11   -1    0    0    0    0 -0.00000000000E+00 -0.00000000000E+00 -0.45593999997E+02  0.45594000000E+02  0.51100000000E-03 0.  1.
    9900012    2    1    2    0    0 -0.35113758041E+02 -0.18177857036E+02 -0.94739155402E+01  0.50528861226E+02  0.30000004184E+02 0.  0.
        -12    1    1    2    0    0  0.35113758041E+02  0.18177857036E+02  0.94739155402E+01  0.40659138774E+02  0.00000000000E+00 0.  1.
         11    1    3    3    0    0 -0.21767469440E+02 -0.64094638925E+01  0.16662126463E+01  0.22752587063E+02  0.51100000000E-03 0. -1.
        -11    1    3    3    0    0 -0.14739425518E+02 -0.15203984286E+02 -0.11419218844E+02  0.24058477966E+02  0.51100000000E-03 0.  1.
        -12    1    3    3    0    0  0.13931369169E+01  0.34355911432E+01  0.27909065720E+00  0.37177961976E+01  0.00000000000E+00 0.  1.
</event>
<event>
 7    1  0.9868142E-013  0.5052880E+02  0.7816164E-02  0.1300439E+00
        -11   -1    0    0    0    0  0.00000000000E+00  0.00000000000E+00  0.45593999997E+02  0.45594000000E+02  0.51100000000E-03 0. -1.
         11   -1    0    0    0    0 -0.00000000000E+00 -0.00000000000E+00 -0.45593999997E+02  0.45594000000E+02  0.51100000000E-03 0.  1.
    9900012    2    1    2    0    0 -0.20676067895E+02 -0.32636611919E+02  0.12669741505E+02  0.50528799676E+02  0.29999817095E+02 0.  0.
        -12    1    1    2    0    0  0.20676067895E+02  0.32636611919E+02 -0.12669741505E+02  0.40659200324E+02  0.00000000000E+00 0.  1.
         11    1    3    3    0    0 -0.19807443043E+01 -0.21196543289E+01  0.51184437041E+01  0.58834300103E+01  0.51100000000E-03 0. -1.
        -11    1    3    3    0    0 -0.19065693374E+02 -0.33396802225E+02  0.21533125222E+01  0.38516020274E+02  0.51100000000E-03 0.  1.
        -12    1    3    3    0    0  0.37036978336E+00  0.28798446348E+01  0.53979852785E+01  0.61293493916E+01  0.00000000000E+00 0.  1.
</event>
<event>
 7    1  0.9868142E-013  0.5052887E+02  0.7816164E-02  0.1300439E+00
        -11   -1    0    0    0    0  0.00000000000E+00  0.00000000000E+00  0.45593999997E+02  0.45594000000E+02  0.51100000000E-03 0.  1.
         11   -1    0    0    0    0 -0.00000000000E+00 -0.00000000000E+00 -0.45593999997E+02  0.45594000000E+02  0.51100000000E-03 0. -1.
    9900012    2    1    2    0    0 -0.14754285484E+02 -0.31314047282E+02 -0.21328539909E+02  0.50528866807E+02  0.30000021148E+02 0.  0.
        -12    1    1    2    0    0  0.14754285484E+02  0.31314047282E+02  0.21328539909E+02  0.40659133193E+02  0.00000000000E+00 0.  1.
         11    1    3    3    0    0 -0.76806599072E+00 -0.13186340060E+02 -0.19865194758E+02  0.23855721590E+02  0.51100000000E-03 0. -1.
        -11    1    3    3    0    0 -0.72181903895E+01 -0.18496208046E+02 -0.10521998080E+01  0.19882633359E+02  0.51100000000E-03 0.  1.
         12    1    3    3    0    0 -0.67680291037E+01  0.36850082485E+00 -0.41114534369E+00  0.67905118585E+01  0.00000000000E+00 0. -1.
</event>
<event>
 7    1  0.9868142E-013  0.5052886E+02  0.7816164E-02  0.1300439E+00
        -11   -1    0    0    0    0  0.00000000000E+00  0.00000000000E+00  0.45593999997E+02  0.45594000000E+02  0.51100000000E-03 0.  1.
         11   -1    0    0    0    0 -0.00000000000E+00 -0.00000000000E+00 -0.45593999997E+02  0.45594000000E+02  0.51100000000E-03 0. -1.
    9900012    2    1    2    0    0  0.39578420049E+02 -0.92715558144E+01 -0.86763752658E+00  0.50528857416E+02  0.29999992602E+02 0.  0.
        -12    1    1    2    0    0 -0.39578420049E+02  0.92715558144E+01  0.86763752658E+00  0.40659142584E+02  0.00000000000E+00 0.  1.
         11    1    3    3    0    0  0.36477382825E+02  0.17892871981E+01  0.46390557583E+01  0.36814696047E+02  0.51100000000E-03 0. -1.
        -11    1    3    3    0    0  0.36677492861E+01 -0.38518241105E+01 -0.20634522807E+01  0.57049775968E+01  0.51100000000E-03 0.  1.
         12    1    3    3    0    0 -0.56671206235E+00 -0.72090189019E+01 -0.34432410041E+01  0.80091837725E+01  0.00000000000E+00 0. -1.
</event>
<event>
 7    1  0.9868142E-013  0.5052886E+02  0.7816164E-02  0.1300439E+00
        -11   -1    0    0    0    0  0.00000000000E+00  0.00000000000E+00  0.45593999997E+02  0.45594000000E+02  0.51100000000E-03 0.  1.
         11   -1    0    0    0    0 -0.00000000000E+00 -0.00000000000E+00 -0.45593999997E+02  0.45594000000E+02  0.51100000000E-03 0. -1.
    9900012    2    1    2    0    0  0.12854594755E+02 -0.36461440611E+02 -0.12589202258E+02  0.50528864849E+02  0.30000015194E+02 0.  0.
        -12    1    1    2    0    0 -0.12854594755E+02  0.36461440611E+02  0.12589202258E+02  0.40659135151E+02  0.00000000000E+00 0.  1.
         11    1    3    3    0    0  0.19034056871E+01 -0.17265839487E+02 -0.61679755637E+01  0.18433016281E+02  0.51100000000E-03 0. -1.
        -11    1    3    3    0    0  0.70345601636E+01  0.20936652732E+01  0.36777512384E+01  0.82094046924E+01  0.51100000000E-03 0.  1.
        -12    1    3    3    0    0  0.39166289039E+01 -0.21289266397E+02 -0.10098977933E+02  0.23886443875E+02  0.00000000000E+00 0.  1.
</event>
<event>
 7    1  0.9868142E-013  0.5052886E+02  0.7816164E-02  0.1300439E+00
        -11   -1    0    0    0    0  0.00000000000E+00  0.00000000000E+00  0.45593999997E+02  0.45594000000E+02  0.51100000000E-03 0. -1.
         11   -1    0    0    0    0 -0.00000000000E+00 -0.00000000000E+00 -0.45593999997E+02  0.45594000000E+02  0.51100000000E-03 0.  1.
    9900012    2    1    2    0    0  0.36380635797E+02  0.52166362741E+00  0.18147812661E+02  0.50528857138E+02  0.29999991757E+02 0.  0.
        -12    1    1    2    0    0 -0.36380635797E+02 -0.52166362741E+00 -0.18147812661E+02  0.40659142862E+02  0.00000000000E+00 0.  1.
         11    1    3    3    0    0  0.14119463471E+01 -0.43209157538E+01  0.52317487565E+01  0.69307359458E+01  0.51100000000E-03 0. -1.
        -11    1    3    3    0    0  0.19337108865E+02 -0.46884568977E+01 -0.19799191051E+01  0.19995636705E+02  0.51100000000E-03 0.  1.
        -12    1    3    3    0    0  0.15631580585E+02  0.95310362790E+01  0.14895983010E+02  0.23602484487E+02  0.00000000000E+00 0.  1.
</event>
<event>
 7    1  0.9868142E-013  0.5052886E+02  0.7816164E-02  0.1300439E+00
        -11   -1    0    0    0    0  0.00000000000E+00  0.00000000000E+00  0.45593999997E+02  0.45594000000E+02  0.51100000000E-03 0.  1.
         11   -1    0    0    0    0 -0.00000000000E+00 -0.00000000000E+00 -0.45593999997E+02  0.45594000000E+02  0.51100000000E-03 0. -1.
    9900012    2    1    2    0    0 -0.11228949366E+02 -0.38891879082E+02  0.38075913171E+01  0.50528864323E+02  0.30000013596E+02 0.  0.
        -12    1    1    2    0    0  0.11228949366E+02  0.38891879082E+02 -0.38075913171E+01  0.40659135677E+02  0.00000000000E+00 0.  1.
         11    1    3    3    0    0 -0.50830775132E+01 -0.32677458115E+02  0.89017887699E+01  0.34247566183E+02  0.51100000000E-03 0. -1.
        -11    1    3    3    0    0 -0.32130866909E+01  0.15479511598E+01 -0.69198720386E+01  0.77849025792E+01  0.51100000000E-03 0.  1.
        -12    1    3    3    0    0 -0.29327851624E+01 -0.77623721263E+01  0.18256745859E+01  0.84963955610E+01  0.00000000000E+00 0.  1.
</event>
<event>
 7    1  0.1729042E-012  0.5052887E+02  0.7816164E-02  0.1300439E+00
        -11   -1    0    0    0    0  0.00000000000E+00  0.00000000000E+00  0.45593999997E+02  0.45594000000E+02  0.51100000000E-03 0.  1.
         11   -1    0    0    0    0 -0.00000000000E+00 -0.00000000000E+00 -0.45593999997E+02  0.45594000000E+02  0.51100000000E-03 0. -1.
    9900012    2    1    2    0    0 -0.22708706943E+02  0.33725341964E+02  0.28481131938E+00  0.50528865982E+02  0.30000018637E+02 0.  0.
        -12    1    1    2    0    0  0.22708706943E+02 -0.33725341964E+02 -0.28481131938E+00  0.40659134018E+02  0.00000000000E+00 0.  1.
         11    1    3    3    0    0 -0.15076790797E+02  0.25509799177E+02 -0.13474331589E+01  0.29662687862E+02  0.51100000000E-03 0. -1.
        -11    1    3    3    0    0  0.29799111881E+01  0.32651008779E+01  0.67647612026E+01  0.80810116212E+01  0.51100000000E-03 0.  1.
        -12    1    3    3    0    0 -0.10611827334E+02  0.49504419090E+01 -0.51325167243E+01  0.12785166499E+02  0.00000000000E+00 0.  1.
</event>
<event>
 7    1  0.9868142E-013  0.5052886E+02  0.7816164E-02  0.1300439E+00
        -11   -1    0    0    0    0  0.00000000000E+00  0.00000000000E+00  0.45593999997E+02  0.45594000000E+02  0.51100000000E-03 0.  1.
         11   -1    0    0    0    0 -0.00000000000E+00 -0.00000000000E+00 -0.45593999997E+02  0.45594000000E+02  0.51100000000E-03 0. -1.
    9900012    2    1    2    0    0  0.19929081175E+02  0.11768037801E+02 -0.33429189160E+02  0.50528859846E+02  0.29999999987E+02 0.  0.
        -12    1    1    2    0    0 -0.19929081175E+02 -0.11768037801E+02  0.33429189160E+02  0.40659140154E+02  0.00000000000E+00 0.  1.
         11    1    3    3    0    0  0.35712119153E+01 -0.76272363372E+01 -0.85483999972E+01  0.12000142977E+02  0.51100000000E-03 0. -1.
        -11    1    3    3    0    0  0.15850583106E+01  0.13171797119E+02 -0.95403637700E+01  0.16340966627E+02  0.51100000000E-03 0.  1.
         12    1    3    3    0    0  0.14772810949E+02  0.62234770191E+01 -0.15340425393E+02  0.22187750242E+02  0.00000000000E+00 0. -1.
</event>
<event>
 7    1  0.9868142E-013  0.5052886E+02  0.7816164E-02  0.1300439E+00
        -11   -1    0    0    0    0  0.00000000000E+00  0.00000000000E+00  0.45593999997E+02  0.45594000000E+02  0.51100000000E-03 0. -1.
         11   -1    0    0    0    0 -0.00000000000E+00 -0.00000000000E+00 -0.45593999997E+02  0.45594000000E+02  0.51100000000E-03 0.  1.
    9900012    2    1    2    0    0  0.34700307390E+02 -0.21110420310E+02  0.18451084973E+01  0.50528860757E+02  0.30000002758E+02 0.  0.
        -12    1    1    2    0    0 -0.34700307390E+02  0.21110420310E+02 -0.18451084973E+01  0.40659139243E+02  0.00000000000E+00 0.  1.
         11    1    3    3    0    0  0.35206674021E+02 -0.12955378741E+02  0.55490315287E+01  0.37922862301E+02  0.51100000000E-03 0. -1.
        -11    1    3    3    0    0 -0.40931899097E+00 -0.84280344873E+01 -0.59605179395E+01  0.10330880007E+02  0.51100000000E-03 0.  1.
         12    1    3    3    0    0 -0.97047640294E-01  0.27299291875E+00  0.22565949080E+01  0.22751184490E+01  0.00000000000E+00 0. -1.
</event>
<event>
 7    1  0.9868142E-013  0.5052886E+02  0.7816164E-02  0.1300439E+00
        -11   -1    0    0    0    0  0.00000000000E+00  0.00000000000E+00  0.45593999997E+02  0.45594000000E+02  0.51100000000E-03 0.  1.
         11   -1    0    0    0    0 -0.00000000000E+00 -0.00000000000E+00 -0.45593999997E+02  0.45594000000E+02  0.51100000000E-03 0. -1.
    9900012    2    1    2    0    0  0.28693446185E+02 -0.20523211514E+02 -0.20215076329E+02  0.50528863563E+02  0.30000011285E+02 0.  0.
        -12    1    1    2    0    0 -0.28693446185E+02  0.20523211514E+02  0.20215076329E+02  0.40659136437E+02  0.00000000000E+00 0.  1.
         11    1    3    3    0    0  0.22705718924E+02 -0.10574710304E+02 -0.27155955595E+02  0.36943471608E+02  0.51100000000E-03 0. -1.
        -11    1    3    3    0    0  0.50489464887E+00 -0.10952940279E+01  0.32885575948E+00  0.12500935908E+01  0.51100000000E-03 0.  1.
         12    1    3    3    0    0  0.54828326120E+01 -0.88532071825E+01  0.66120235071E+01  0.12335298364E+02  0.00000000000E+00 0. -1.
</event>
<event>
 7    1  0.9868142E-013  0.5052886E+02  0.7816164E-02  0.1300439E+00
        -11   -1    0    0    0    0  0.00000000000E+00  0.00000000000E+00  0.45593999997E+02  0.45594000000E+02  0.51100000000E-03 0. -1.
         11   -1    0    0    0    0 -0.00000000000E+00 -0.00000000000E+00 -0.45593999997E+02  0.45594000000E+02  0.51100000000E-03 0.  1.
    9900012    2    1    2    0    0 -0.28396515257E+02  0.25813028374E+02  0.13434689148E+02  0.50528863449E+02  0.30000010940E+02 0.  0.
        -12    1    1    2    0    0  0.28396515257E+02 -0.25813028374E+02 -0.13434689148E+02  0.40659136551E+02  0.00000000000E+00 0.  1.
         11    1    3    3    0    0 -0.18777010487E+02  0.40694938932E+01  0.17453801033E+02  0.25957119912E+02  0.51100000000E-03 0. -1.
        -11    1    3    3    0    0 -0.90401846018E+01  0.20280464166E+02 -0.24322060754E+01  0.22336915433E+02  0.51100000000E-03 0.  1.
         12    1    3    3    0    0 -0.57932016765E+00  0.14630703150E+01 -0.15869058098E+01  0.22348281035E+01  0.00000000000E+00 0. -1.
</event>
<event>
 7    1  0.9868142E-013  0.5052886E+02  0.7816164E-02  0.1300439E+00
        -11   -1    0    0    0    0  0.00000000000E+00  0.00000000000E+00  0.45593999997E+02  0.45594000000E+02  0.51100000000E-03 0.  1.
         11   -1    0    0    0    0 -0.00000000000E+00 -0.00000000000E+00 -0.45593999997E+02  0.45594000000E+02  0.51100000000E-03 0. -1.
    9900012    2    1    2    0    0 -0.60592696461E+01 -0.30894703715E+02 -0.25728737722E+02  0.50528863130E+02  0.30000009969E+02 0.  0.
        -12    1    1    2    0    0  0.60592696461E+01  0.30894703715E+02  0.25728737722E+02  0.40659136870E+02  0.00000000000E+00 0.  1.
         11    1    3    3    0    0 -0.44930517902E+01 -0.28941069201E+02 -0.70549955987E+01  0.30125503548E+02  0.51100000000E-03 0. -1.
        -11    1    3    3    0    0 -0.22149033361E+01 -0.34797822221E+01 -0.18224247017E+02  0.18685231085E+02  0.51100000000E-03 0.  1.
        -12    1    3    3    0    0  0.64868548028E+00  0.15261477080E+01 -0.44949510584E+00  0.17181284961E+01  0.00000000000E+00 0.  1.
</event>
<event>
 7    1  0.9868142E-013  0.5052885E+02  0.7816164E-02  0.1300439E+00
        -11   -1    0    0    0    0  0.00000000000E+00  0.00000000000E+00  0.45593999997E+02  0.45594000000E+02  0.51100000000E-03 0. -1.
         11   -1    0    0    0    0 -0.00000000000E+00 -0.00000000000E+00 -0.45593999997E+02  0.45594000000E+02  0.51100000000E-03 0.  1.
    9900012    2    1    2    0    0 -0.30945423412E+02 -0.26084798481E+02  0.38897706291E+01  0.50528852720E+02  0.29999978328E+02 0.  0.
        -12    1    1    2    0    0  0.30945423412E+02  0.26084798481E+02 -0.38897706291E+01  0.40659147280E+02  0.00000000000E+00 0.  1.
         11    1    3    3    0    0 -0.23509526137E+02 -0.16622384225E+02  0.30059863445E+00  0.28793954857E+02  0.51100000000E-03 0. -1.
        -11    1    3    3    0    0 -0.48686660587E+00 -0.13156869214E+02  0.42558581264E+01  0.13836638872E+02  0.51100000000E-03 0.  1.
         12    1    3    3    0    0 -0.69490306701E+01  0.36944549589E+01 -0.66668613171E+00  0.78982589914E+01  0.00000000000E+00 0. -1.
</event>
<event>
 7    1  0.9868142E-013  0.5052884E+02  0.7816164E-02  0.1300439E+00
        -11   -1    0    0    0    0  0.00000000000E+00  0.00000000000E+00  0.45593999997E+02  0.45594000000E+02  0.51100000000E-03 0.  1.
         11   -1    0    0    0    0 -0.00000000000E+00 -0.00000000000E+00 -0.45593999997E+02  0.45594000000E+02  0.51100000000E-03 0. -1.
    9900012    2    1    2    0    0  0.23617557573E+02 -0.25161804366E+02 -0.21500267972E+02  0.50528844235E+02  0.29999952536E+02 0.  0.
        -12    1    1    2    0    0 -0.23617557573E+02  0.25161804366E+02  0.21500267972E+02  0.40659155765E+02  0.00000000000E+00 0.  1.
         11    1    3    3    0    0  0.12532014241E+02 -0.46180031214E-01 -0.36930827126E+01  0.13064929151E+02  0.51100000000E-03 0. -1.
        -11    1    3    3    0    0  0.27806836334E+01 -0.10751968979E+02 -0.17671679126E+02  0.20871638215E+02  0.51100000000E-03 0.  1.
        -12    1    3    3    0    0  0.83048596981E+01 -0.14363655356E+02 -0.13550613407E+00  0.16592276869E+02  0.00000000000E+00 0.  1.
</event>
<event>
 7    1  0.9868142E-013  0.5052886E+02  0.7816164E-02  0.1300439E+00
        -11   -1    0    0    0    0  0.00000000000E+00  0.00000000000E+00  0.45593999997E+02  0.45594000000E+02  0.51100000000E-03 0.  1.
         11   -1    0    0    0    0 -0.00000000000E+00 -0.00000000000E+00 -0.45593999997E+02  0.45594000000E+02  0.51100000000E-03 0. -1.
    9900012    2    1    2    0    0  0.35817317598E+02 -0.15754660939E+02 -0.11048807141E+02  0.50528859325E+02  0.29999998404E+02 0.  0.
        -12    1    1    2    0    0 -0.35817317598E+02  0.15754660939E+02  0.11048807141E+02  0.40659140675E+02  0.00000000000E+00 0.  1.
         11    1    3    3    0    0  0.17669407129E+02 -0.32688831765E+01 -0.19391182426E+02  0.26436934422E+02  0.51100000000E-03 0. -1.
        -11    1    3    3    0    0  0.69081698011E+01 -0.44632448087E+01  0.56663169347E+00  0.82440545825E+01  0.51100000000E-03 0.  1.
         12    1    3    3    0    0  0.11239740668E+02 -0.80225329541E+01  0.77757435915E+01  0.15847870320E+02  0.00000000000E+00 0. -1.
</event>
<event>
 7    1  0.9868142E-013  0.5052885E+02  0.7816164E-02  0.1300439E+00
        -11   -1    0    0    0    0  0.00000000000E+00  0.00000000000E+00  0.45593999997E+02  0.45594000000E+02  0.51100000000E-03 0.  1.
         11   -1    0    0    0    0 -0.00000000000E+00 -0.00000000000E+00 -0.45593999997E+02  0.45594000000E+02  0.51100000000E-03 0. -1.
    9900012    2    1    2    0    0 -0.16713589224E+02 -0.10085053978E+02 -0.35666710238E+02  0.50528848537E+02  0.29999965613E+02 0.  0.
        -12    1    1    2    0    0  0.16713589224E+02  0.10085053978E+02  0.35666710238E+02  0.40659151463E+02  0.00000000000E+00 0.  1.
         11    1    3    3    0    0 -0.21303338239E+01  0.38836974471E+01 -0.97667901685E+01  0.10724346997E+02  0.51100000000E-03 0. -1.
        -11    1    3    3    0    0 -0.19558352446E+01 -0.17097761409E+02 -0.15176375421E+02  0.22945176135E+02  0.51100000000E-03 0.  1.
        -12    1    3    3    0    0 -0.12627420155E+02  0.31290099842E+01 -0.10723544649E+02  0.16859325405E+02  0.00000000000E+00 0.  1.
</event>
<event>
 7    1  0.9868142E-013  0.5052887E+02  0.7816164E-02  0.1300439E+00
        -11   -1    0    0    0    0  0.00000000000E+00  0.00000000000E+00  0.45593999997E+02  0.45594000000E+02  0.51100000000E-03 0.  1.
         11   -1    0    0    0    0 -0.00000000000E+00 -0.00000000000E+00 -0.45593999997E+02  0.45594000000E+02  0.51100000000E-03 0. -1.
    9900012    2    1    2    0    0  0.12167387553E+02 -0.19199895568E+02 -0.33711772799E+02  0.50528868984E+02  0.30000027764E+02 0.  0.
        -12    1    1    2    0    0 -0.12167387553E+02  0.19199895568E+02  0.33711772799E+02  0.40659131016E+02  0.00000000000E+00 0.  1.
         11    1    3    3    0    0  0.12980216405E+02 -0.10573085235E+00 -0.60457853332E+01  0.14319522251E+02  0.51100000000E-03 0. -1.
        -11    1    3    3    0    0 -0.49855397076E+01 -0.86159991275E+01 -0.20657138112E+02  0.22930512475E+02  0.51100000000E-03 0.  1.
         12    1    3    3    0    0  0.41727108551E+01 -0.10478165588E+02 -0.70088493541E+01  0.13278834258E+02  0.00000000000E+00 0. -1.
</event>
<event>
 7    1  0.9868142E-013  0.5052886E+02  0.7816164E-02  0.1300439E+00
        -11   -1    0    0    0    0  0.00000000000E+00  0.00000000000E+00  0.45593999997E+02  0.45594000000E+02  0.51100000000E-03 0.  1.
         11   -1    0    0    0    0 -0.00000000000E+00 -0.00000000000E+00 -0.45593999997E+02  0.45594000000E+02  0.51100000000E-03 0. -1.
    9900012    2    1    2    0    0  0.45386088416E+01 -0.39866765125E+02 -0.65732335246E+01  0.50528864117E+02  0.30000012971E+02 0.  0.
        -12    1    1    2    0    0 -0.45386088416E+01  0.39866765125E+02  0.65732335246E+01  0.40659135883E+02  0.00000000000E+00 0.  1.
         11    1    3    3    0    0  0.49932259358E+01 -0.16619305620E+01 -0.72800209784E+01  0.89829295971E+01  0.51100000000E-03 0. -1.
        -11    1    3    3    0    0 -0.21334894898E+01 -0.16086231555E+02  0.81362384815E+01  0.18152603118E+02  0.51100000000E-03 0.  1.
        -12    1    3    3    0    0  0.16788723957E+01 -0.22118603008E+02 -0.74294510277E+01  0.23393331403E+02  0.00000000000E+00 0.  1.
</event>
<event>
 7    1  0.9868142E-013  0.5052886E+02  0.7816164E-02  0.1300439E+00
        -11   -1    0    0    0    0  0.00000000000E+00  0.00000000000E+00  0.45593999997E+02  0.45594000000E+02  0.51100000000E-03 0.  1.
         11   -1    0    0    0    0 -0.00000000000E+00 -0.00000000000E+00 -0.45593999997E+02  0.45594000000E+02  0.51100000000E-03 0. -1.
    9900012    2    1    2    0    0  0.34321272127E+01 -0.14169658697E+01 -0.40489234733E+02  0.50528863035E+02  0.30000009681E+02 0.  0.
        -12    1    1    2    0    0 -0.34321272127E+01  0.14169658697E+01  0.40489234733E+02  0.40659136965E+02  0.00000000000E+00 0.  1.
         11    1    3    3    0    0  0.98065192597E+01  0.25769490120E+01 -0.74128174428E+01  0.12560189047E+02  0.51100000000E-03 0. -1.
        -11    1    3    3    0    0 -0.96904185236E+01 -0.35567958163E+01 -0.33049297375E+02  0.34623851098E+02  0.51100000000E-03 0.  1.
        -12    1    3    3    0    0  0.33160264767E+01 -0.43711906545E+00 -0.27119914915E-01  0.33448228893E+01  0.00000000000E+00 0.  1.
</event>
<event>
 7    1  0.9868142E-013  0.5052887E+02  0.7816164E-02  0.1300439E+00
        -11   -1    0    0    0    0  0.00000000000E+00  0.00000000000E+00  0.45593999997E+02  0.45594000000E+02  0.51100000000E-03 0.  1.
         11   -1    0    0    0    0 -0.00000000000E+00 -0.00000000000E+00 -0.45593999997E+02  0.45594000000E+02  0.51100000000E-03 0. -1.
    9900012    2    1    2    0    0  0.32189500726E+02 -0.13460707971E+02 -0.20876075729E+02  0.50528866292E+02  0.30000019581E+02 0.  0.
        -12    1    1    2    0    0 -0.32189500726E+02  0.13460707971E+02  0.20876075729E+02  0.40659133708E+02  0.00000000000E+00 0.  1.
         11    1    3    3    0    0  0.21333931383E+02 -0.11417029151E+02 -0.16301749516E+02  0.29175884227E+02  0.51100000000E-03 0. -1.
        -11    1    3    3    0    0  0.67302950339E+01 -0.73090579162E+01  0.37978401131E+01  0.10636859906E+02  0.51100000000E-03 0.  1.
         12    1    3    3    0    0  0.41252743089E+01  0.52653790955E+01 -0.83721663262E+01  0.10716122159E+02  0.00000000000E+00 0. -1.
</event>
<event>
 7    1  0.9868142E-013  0.5052882E+02  0.7816164E-02  0.1300439E+00
        -11   -1    0    0    0    0  0.00000000000E+00  0.00000000000E+00  0.45593999997E+02  0.45594000000E+02  0.51100000000E-03 0.  1.
         11   -1    0    0    0    0 -0.00000000000E+00 -0.00000000000E+00 -0.45593999997E+02  0.45594000000E+02  0.51100000000E-03 0. -1.
    9900012    2    1    2    0    0  0.33033818253E+02  0.36605223817E+01 -0.23420858906E+02  0.50528816482E+02  0.29999868179E+02 0.  0.
        -12    1    1    2    0    0 -0.33033818253E+02 -0.36605223817E+01  0.23420858906E+02  0.40659183518E+02  0.00000000000E+00 0.  1.
         11    1    3    3    0    0  0.17625881917E+02 -0.94600460328E+01 -0.14896535798E+02  0.24941350472E+02  0.51100000000E-03 0. -1.
        -11    1    3    3    0    0 -0.49826794014E+00 -0.92526706963E-01  0.22250636606E+01  0.22820474768E+01  0.51100000000E-03 0.  1.
         12    1    3    3    0    0  0.15906204276E+02  0.13213095121E+02 -0.10749386768E+02  0.23305418534E+02  0.00000000000E+00 0. -1.
</event>
<event>
 7    1  0.9868142E-013  0.5052886E+02  0.7816164E-02  0.1300439E+00
        -11   -1    0    0    0    0  0.00000000000E+00  0.00000000000E+00  0.45593999997E+02  0.45594000000E+02  0.51100000000E-03 0.  1.
         11   -1    0    0    0    0 -0.00000000000E+00 -0.00000000000E+00 -0.45593999997E+02  0.45594000000E+02  0.51100000000E-03 0. -1.
    9900012    2    1    2    0    0 -0.34608615870E+02  0.17273671577E+02  0.12531139966E+02  0.50528862146E+02  0.30000006979E+02 0.  0.
        -12    1    1    2    0    0  0.34608615870E+02 -0.17273671577E+02 -0.12531139966E+02  0.40659137854E+02  0.00000000000E+00 0.  1.
         11    1    3    3    0    0 -0.80750972286E+01 -0.33650606201E-01 -0.39452530527E+01  0.89873994863E+01  0.51100000000E-03 0.  1.
        -11    1    3    3    0    0 -0.15958541161E+02  0.21246136715E+02  0.13808211665E+02  0.29945618560E+02  0.51100000000E-03 0. -1.
        -12    1    3    3    0    0 -0.10574977481E+02 -0.39388145324E+01  0.26681813532E+01  0.11595844099E+02  0.00000000000E+00 0.  1.
</event>
<event>
 7    1  0.9868142E-013  0.5052886E+02  0.7816164E-02  0.1300439E+00
        -11   -1    0    0    0    0  0.00000000000E+00  0.00000000000E+00  0.45593999997E+02  0.45594000000E+02  0.51100000000E-03 0. -1.
         11   -1    0    0    0    0 -0.00000000000E+00 -0.00000000000E+00 -0.45593999997E+02  0.45594000000E+02  0.51100000000E-03 0.  1.
    9900012    2    1    2    0    0 -0.28446609834E+02 -0.88295722739E+01 -0.27676609152E+02  0.50528860170E+02  0.30000000972E+02 0.  0.
        -12    1    1    2    0    0  0.28446609834E+02  0.88295722739E+01  0.27676609152E+02  0.40659139830E+02  0.00000000000E+00 0.  1.
         11    1    3    3    0    0 -0.23523044100E+02  0.42299512934E+00 -0.16032323835E+02  0.28470123576E+02  0.51100000000E-03 0. -1.
        -11    1    3    3    0    0 -0.40001460284E+01 -0.87451298685E+01  0.72573946962E+00  0.96439184310E+01  0.51100000000E-03 0.  1.
         12    1    3    3    0    0 -0.92341970568E+00 -0.50743753471E+00 -0.12370024786E+02  0.12414818163E+02  0.00000000000E+00 0. -1.
</event>
<event>
 7    1  0.9868142E-013  0.5052886E+02  0.7816164E-02  0.1300439E+00
        -11   -1    0    0    0    0  0.00000000000E+00  0.00000000000E+00  0.45593999997E+02  0.45594000000E+02  0.51100000000E-03 0. -1.
         11   -1    0    0    0    0 -0.00000000000E+00 -0.00000000000E+00 -0.45593999997E+02  0.45594000000E+02  0.51100000000E-03 0.  1.
    9900012    2    1    2    0    0  0.34511200337E+01  0.36390320501E+02  0.17804505313E+02  0.50528855086E+02  0.29999985520E+02 0.  0.
        -12    1    1    2    0    0 -0.34511200337E+01 -0.36390320501E+02 -0.17804505313E+02  0.40659144914E+02  0.00000000000E+00 0.  1.
         11    1    3    3    0    0 -0.66174927248E+01  0.32210289858E+02  0.17809922606E+02  0.37396354451E+02  0.51100000000E-03 0. -1.
        -11    1    3    3    0    0  0.51713063110E+01  0.59672888549E+01  0.37695231976E+00  0.79052538576E+01  0.51100000000E-03 0.  1.
         12    1    3    3    0    0  0.48973064475E+01 -0.17872582116E+01 -0.38236961261E+00  0.52272467779E+01  0.00000000000E+00 0. -1.
</event>
<event>
 7    1  0.9868142E-013  0.5052886E+02  0.7816164E-02  0.1300439E+00
        -11   -1    0    0    0    0  0.00000000000E+00  0.00000000000E+00  0.45593999997E+02  0.45594000000E+02  0.51100000000E-03 0. -1.
         11   -1    0    0    0    0 -0.00000000000E+00 -0.00000000000E+00 -0.45593999997E+02  0.45594000000E+02  0.51100000000E-03 0.  1.
    9900012    2    1    2    0    0 -0.39108256163E+02  0.80749407251E+00  0.11093145437E+02  0.50528860529E+02  0.30000002065E+02 0.  0.
        -12    1    1    2    0    0  0.39108256163E+02 -0.80749407251E+00 -0.11093145437E+02  0.40659139471E+02  0.00000000000E+00 0.  1.
         11    1    3    3    0    0 -0.14754992419E+02  0.53824500126E+01  0.12318827683E+01  0.15754304327E+02  0.51100000000E-03 0. -1.
        -11    1    3    3    0    0  0.16499946899E+01 -0.18960719608E+01  0.82048907278E+01  0.85812471980E+01  0.51100000000E-03 0.  1.
        -12    1    3    3    0    0 -0.26003258434E+02 -0.26788839793E+01  0.16563719414E+01  0.26193309004E+02  0.00000000000E+00 0.  1.
</event>
<event>
 7    1  0.9868142E-013  0.5052887E+02  0.7816164E-02  0.1300439E+00
        -11   -1    0    0    0    0  0.00000000000E+00  0.00000000000E+00  0.45593999997E+02  0.45594000000E+02  0.51100000000E-03 0. -1.
         11   -1    0    0    0    0 -0.00000000000E+00 -0.00000000000E+00 -0.45593999997E+02  0.45594000000E+02  0.51100000000E-03 0.  1.
    9900012    2    1    2    0    0 -0.10538894367E+02 -0.38725096044E+02 -0.65163850628E+01  0.50528872705E+02  0.30000039075E+02 0.  0.
        -12    1    1    2    0    0  0.10538894367E+02  0.38725096044E+02  0.65163850628E+01  0.40659127295E+02  0.00000000000E+00 0.  1.
         11    1    3    3    0    0 -0.15376917061E+02 -0.28385645703E+02 -0.32122961470E+01  0.32442461483E+02  0.51100000000E-03 0. -1.
        -11    1    3    3    0    0  0.84046301681E+00  0.17422822105E+01 -0.48931843474E+01  0.52616707140E+01  0.51100000000E-03 0.  1.
         12    1    3    3    0    0  0.39975596771E+01 -0.12081732552E+02  0.15890954317E+01  0.12824740509E+02  0.00000000000E+00 0. -1.
</event>
<event>
 7    1  0.9868142E-013  0.5052886E+02  0.7816164E-02  0.1300439E+00
        -11   -1    0    0    0    0  0.00000000000E+00  0.00000000000E+00  0.45593999997E+02  0.45594000000E+02  0.51100000000E-03 0. -1.
         11   -1    0    0    0    0 -0.00000000000E+00 -0.00000000000E+00 -0.45593999997E+02  0.45594000000E+02  0.51100000000E-03 0.  1.
    9900012    2    1    2    0    0 -0.30132517146E+00  0.39892594019E+02  0.78520993168E+01  0.50528864273E+02  0.30000013443E+02 0.  0.
        -12    1    1    2    0    0  0.30132517146E+00 -0.39892594019E+02 -0.78520993168E+01  0.40659135727E+02  0.00000000000E+00 0.  1.
         11    1    3    3    0    0 -0.10481151774E+02  0.23485138364E+02 -0.52848290606E+01  0.26255203007E+02  0.51100000000E-03 0. -1.
        -11    1    3    3    0    0  0.32892036672E+01  0.88320676228E+00  0.26146744690E+01  0.42936508695E+01  0.51100000000E-03 0.  1.
         12    1    3    3    0    0  0.68906229351E+01  0.15524248893E+02  0.10522253908E+02  0.19980010396E+02  0.00000000000E+00 0. -1.
</event>
<event>
 7    1  0.1245304E-012  0.5052886E+02  0.7816164E-02  0.1300439E+00
        -11   -1    0    0    0    0  0.00000000000E+00  0.00000000000E+00  0.45593999997E+02  0.45594000000E+02  0.51100000000E-03 0. -1.
         11   -1    0    0    0    0 -0.00000000000E+00 -0.00000000000E+00 -0.45593999997E+02  0.45594000000E+02  0.51100000000E-03 0.  1.
    9900012    2    1    2    0    0  0.21973132273E+02 -0.17194015300E+02  0.29575543961E+02  0.50528861979E+02  0.30000006472E+02 0.  0.
        -12    1    1    2    0    0 -0.21973132273E+02  0.17194015300E+02 -0.29575543961E+02  0.40659138021E+02  0.00000000000E+00 0.  1.
         11    1    3    3    0    0  0.15391893603E+02 -0.54591456639E+01  0.15146362584E+02  0.22273862706E+02  0.51100000000E-03 0. -1.
        -11    1    3    3    0    0 -0.25902033071E+01 -0.27743422218E+01  0.14948052270E+02  0.15422399128E+02  0.51100000000E-03 0.  1.
        -12    1    3    3    0    0  0.91714419765E+01 -0.89605274142E+01 -0.51887089312E+00  0.12832600145E+02  0.00000000000E+00 0.  1.
</event>
<event>
 7    1  0.9868142E-013  0.5052888E+02  0.7816164E-02  0.1300439E+00
        -11   -1    0    0    0    0  0.00000000000E+00  0.00000000000E+00  0.45593999997E+02  0.45594000000E+02  0.51100000000E-03 0.  1.
         11   -1    0    0    0    0 -0.00000000000E+00 -0.00000000000E+00 -0.45593999997E+02  0.45594000000E+02  0.51100000000E-03 0. -1.
    9900012    2    1    2    0    0  0.18426768305E+02  0.48446392031E+00 -0.36240628564E+02  0.50528884735E+02  0.30000075639E+02 0.  0.
        -12    1    1    2    0    0 -0.18426768305E+02 -0.48446392031E+00  0.36240628564E+02  0.40659115265E+02  0.00000000000E+00 0.  1.
         11    1    3    3    0    0 -0.26343420278E+01 -0.43249642455E+01 -0.16478555644E+02  0.17239137740E+02  0.51100000000E-03 0.  1.
        -11    1    3    3    0    0  0.91123883294E+01  0.38007182621E+01  0.34419445355E+00  0.98792484763E+01  0.51100000000E-03 0. -1.
         12    1    3    3    0    0  0.11948722004E+02  0.10087099037E+01 -0.20106267374E+02  0.23410498519E+02  0.00000000000E+00 0. -1.
</event>
<event>
 7    1  0.9868142E-013  0.5052884E+02  0.7816164E-02  0.1300439E+00
        -11   -1    0    0    0    0  0.00000000000E+00  0.00000000000E+00  0.45593999997E+02  0.45594000000E+02  0.51100000000E-03 0. -1.
         11   -1    0    0    0    0 -0.00000000000E+00 -0.00000000000E+00 -0.45593999997E+02  0.45594000000E+02  0.51100000000E-03 0.  1.
    9900012    2    1    2    0    0  0.17541473518E+02 -0.28812411843E+02  0.22700409576E+02  0.50528844028E+02  0.29999951908E+02 0.  0.
        -12    1    1    2    0    0 -0.17541473518E+02  0.28812411843E+02 -0.22700409576E+02  0.40659155972E+02  0.00000000000E+00 0.  1.
         11    1    3    3    0    0  0.16074641435E+02 -0.14103578129E+02  0.58966683319E+01  0.22182779605E+02  0.51100000000E-03 0. -1.
        -11    1    3    3    0    0  0.26152116825E+01 -0.13049843093E+02  0.20320762821E+02  0.24291379928E+02  0.51100000000E-03 0.  1.
        -12    1    3    3    0    0 -0.11483795994E+01 -0.16589906216E+01 -0.35170215773E+01  0.40546844960E+01  0.00000000000E+00 0.  1.
</event>
<event>
 7    1  0.9868142E-013  0.5052894E+02  0.7816164E-02  0.1300439E+00
        -11   -1    0    0    0    0  0.00000000000E+00  0.00000000000E+00  0.45593999997E+02  0.45594000000E+02  0.51100000000E-03 0.  1.
         11   -1    0    0    0    0 -0.00000000000E+00 -0.00000000000E+00 -0.45593999997E+02  0.45594000000E+02  0.51100000000E-03 0. -1.
    9900012    2    1    2    0    0 -0.63426308169E+01  0.25279557286E+02 -0.31206956705E+02  0.50528940382E+02  0.30000244784E+02 0.  0.
        -12    1    1    2    0    0  0.63426308169E+01 -0.25279557286E+02  0.31206956705E+02  0.40659059618E+02  0.00000000000E+00 0.  1.
         11    1    3    3    0    0 -0.85889451662E+01  0.10024835462E+02  0.14245354216E+01  0.13277673235E+02  0.51100000000E-03 0. -1.
        -11    1    3    3    0    0 -0.63320439718E+00  0.18107202298E+01 -0.85280283062E-01  0.19201376376E+01  0.51100000000E-03 0.  1.
         12    1    3    3    0    0  0.28795187464E+01  0.13444001595E+02 -0.32546211843E+02  0.35331129510E+02  0.00000000000E+00 0. -1.
</event>
<event>
 7    1  0.9868142E-013  0.5052886E+02  0.7816164E-02  0.1300439E+00
        -11   -1    0    0    0    0  0.00000000000E+00  0.00000000000E+00  0.45593999997E+02  0.45594000000E+02  0.51100000000E-03 0.  1.
         11   -1    0    0    0    0 -0.00000000000E+00 -0.00000000000E+00 -0.45593999997E+02  0.45594000000E+02  0.51100000000E-03 0. -1.
    9900012    2    1    2    0    0  0.33654647454E+02 -0.20876463968E+02  0.92034406133E+01  0.50528863731E+02  0.30000011796E+02 0.  0.
        -12    1    1    2    0    0 -0.33654647454E+02  0.20876463968E+02 -0.92034406133E+01  0.40659136269E+02  0.00000000000E+00 0.  1.
         11    1    3    3    0    0  0.30573404112E+02 -0.16926273468E+02  0.17765707681E+01  0.34991255714E+02  0.51100000000E-03 0. -1.
        -11    1    3    3    0    0  0.10527923802E+01 -0.35744852022E+01  0.10888180260E+02  0.11508161707E+02  0.51100000000E-03 0.  1.
         12    1    3    3    0    0  0.20284509617E+01 -0.37570529833E+00 -0.34613104143E+01  0.40294463093E+01  0.00000000000E+00 0. -1.
</event>
<event>
 7    1  0.9868142E-013  0.5052897E+02  0.7816164E-02  0.1300438E+00
        -11   -1    0    0    0    0  0.00000000000E+00  0.00000000000E+00  0.45593999997E+02  0.45594000000E+02  0.51100000000E-03 0. -1.
         11   -1    0    0    0    0 -0.00000000000E+00 -0.00000000000E+00 -0.45593999997E+02  0.45594000000E+02  0.51100000000E-03 0.  1.
    9900012    2    1    2    0    0  0.14603902902E+02 -0.97525131899E+01  0.36671123714E+02  0.50528968925E+02  0.30000331544E+02 0.  0.
        -12    1    1    2    0    0 -0.14603902902E+02  0.97525131899E+01 -0.36671123714E+02  0.40659031075E+02  0.00000000000E+00 0.  1.
         11    1    3    3    0    0  0.12633310524E+02 -0.13127194719E+02  0.14746579094E+02  0.23438971207E+02  0.51100000000E-03 0. -1.
        -11    1    3    3    0    0 -0.55363028907E+01  0.32640352917E+01  0.16834256723E+02  0.18019344488E+02  0.51100000000E-03 0.  1.
        -12    1    3    3    0    0  0.75068952694E+01  0.11064623748E+00  0.50902878963E+01  0.90706532313E+01  0.00000000000E+00 0.  1.
</event>
<event>
 7    1  0.9868142E-013  0.5052886E+02  0.7816164E-02  0.1300439E+00
        -11   -1    0    0    0    0  0.00000000000E+00  0.00000000000E+00  0.45593999997E+02  0.45594000000E+02  0.51100000000E-03 0.  1.
         11   -1    0    0    0    0 -0.00000000000E+00 -0.00000000000E+00 -0.45593999997E+02  0.45594000000E+02  0.51100000000E-03 0. -1.
    9900012    2    1    2    0    0 -0.50087777294E+01  0.35467670971E+02  0.19238564238E+02  0.50528857210E+02  0.29999991976E+02 0.  0.
        -12    1    1    2    0    0  0.50087777294E+01 -0.35467670971E+02 -0.19238564238E+02  0.40659142790E+02  0.00000000000E+00 0.  1.
         11    1    3    3    0    0  0.25086499510E+01  0.15652102411E+02 -0.31576075548E+01  0.16163295462E+02  0.51100000000E-03 0. -1.
        -11    1    3    3    0    0 -0.14548800616E+01  0.16471033183E+02  0.21876082607E+02  0.27422155287E+02  0.51100000000E-03 0.  1.
        -12    1    3    3    0    0 -0.60625476188E+01  0.33445353776E+01  0.52008918550E+00  0.69434064610E+01  0.00000000000E+00 0.  1.
</event>
<event>
 7    1  0.9868142E-013  0.5052886E+02  0.7816164E-02  0.1300439E+00
        -11   -1    0    0    0    0  0.00000000000E+00  0.00000000000E+00  0.45593999997E+02  0.45594000000E+02  0.51100000000E-03 0.  1.
         11   -1    0    0    0    0 -0.00000000000E+00 -0.00000000000E+00 -0.45593999997E+02  0.45594000000E+02  0.51100000000E-03 0. -1.
    9900012    2    1    2    0    0  0.11836117636E+02 -0.70875435235E+01 -0.38247072978E+02  0.50528861479E+02  0.30000004952E+02 0.  0.
        -12    1    1    2    0    0 -0.11836117636E+02  0.70875435235E+01  0.38247072978E+02  0.40659138521E+02  0.00000000000E+00 0.  1.
         11    1    3    3    0    0 -0.16287591246E+01 -0.72283735595E+01 -0.10678292031E+02  0.12997236690E+02  0.51100000000E-03 0. -1.
        -11    1    3    3    0    0  0.17820107097E+02 -0.14008300855E+01 -0.12609218333E+02  0.21874892665E+02  0.51100000000E-03 0.  1.
        -12    1    3    3    0    0 -0.43552303368E+01  0.15416601216E+01 -0.14959562614E+02  0.15656732125E+02  0.00000000000E+00 0.  1.
</event>
<event>
 7    1  0.9868142E-013  0.5052886E+02  0.7816164E-02  0.1300439E+00
        -11   -1    0    0    0    0  0.00000000000E+00  0.00000000000E+00  0.45593999997E+02  0.45594000000E+02  0.51100000000E-03 0.  1.
         11   -1    0    0    0    0 -0.00000000000E+00 -0.00000000000E+00 -0.45593999997E+02  0.45594000000E+02  0.51100000000E-03 0. -1.
    9900012    2    1    2    0    0 -0.35246411712E+02 -0.15301668969E+02  0.13293414157E+02  0.50528862383E+02  0.30000007699E+02 0.  0.
        -12    1    1    2    0    0  0.35246411712E+02  0.15301668969E+02 -0.13293414157E+02  0.40659137617E+02  0.00000000000E+00 0.  1.
         11    1    3    3    0    0 -0.13579860579E+01  0.20163520477E+01  0.11049183220E+02  0.11313454459E+02  0.51100000000E-03 0. -1.
        -11    1    3    3    0    0 -0.25016118851E+02 -0.10038175290E+02  0.49945090586E+01  0.27413797375E+02  0.51100000000E-03 0.  1.
         12    1    3    3    0    0 -0.88723068037E+01 -0.72798457258E+01 -0.27502781210E+01  0.11801610549E+02  0.00000000000E+00 0. -1.
</event>
<event>
 7    1  0.9868142E-013  0.5052886E+02  0.7816164E-02  0.1300439E+00
        -11   -1    0    0    0    0  0.00000000000E+00  0.00000000000E+00  0.45593999997E+02  0.45594000000E+02  0.51100000000E-03 0.  1.
         11   -1    0    0    0    0 -0.00000000000E+00 -0.00000000000E+00 -0.45593999997E+02  0.45594000000E+02  0.51100000000E-03 0. -1.
    9900012    2    1    2    0    0 -0.19899395113E+02  0.33453834879E+02 -0.11748229910E+02  0.50528857117E+02  0.29999991692E+02 0.  0.
        -12    1    1    2    0    0  0.19899395113E+02 -0.33453834879E+02  0.11748229910E+02  0.40659142883E+02  0.00000000000E+00 0.  1.
         11    1    3    3    0    0  0.96477156582E+00  0.25240861184E+02 -0.43366265836E+01  0.25628854595E+02  0.51100000000E-03 0. -1.
        -11    1    3    3    0    0 -0.45586734281E+01 -0.85478843373E+00 -0.35660578762E+01  0.58505500363E+01  0.51100000000E-03 0.  1.
         12    1    3    3    0    0 -0.16305493251E+02  0.90677621287E+01 -0.38455454506E+01  0.19049452485E+02  0.00000000000E+00 0. -1.
</event>
<event>
 7    1  0.9868142E-013  0.5052886E+02  0.7816164E-02  0.1300439E+00
        -11   -1    0    0    0    0  0.00000000000E+00  0.00000000000E+00  0.45593999997E+02  0.45594000000E+02  0.51100000000E-03 0.  1.
         11   -1    0    0    0    0 -0.00000000000E+00 -0.00000000000E+00 -0.45593999997E+02  0.45594000000E+02  0.51100000000E-03 0. -1.
    9900012    2    1    2    0    0  0.21854670949E+02 -0.33679583433E+02 -0.64206542687E+01  0.50528858547E+02  0.29999996038E+02 0.  0.
        -12    1    1    2    0    0 -0.21854670949E+02  0.33679583433E+02  0.64206542687E+01  0.40659141453E+02  0.00000000000E+00 0.  1.
         11    1    3    3    0    0  0.60946622124E+01 -0.11548299873E+02 -0.27009596568E+01  0.13334291161E+02  0.51100000000E-03 0. -1.
        -11    1    3    3    0    0 -0.25953982157E+01  0.16172898114E+01  0.50681746614E+01  0.59193000339E+01  0.51100000000E-03 0.  1.
        -12    1    3    3    0    0  0.18355406952E+02 -0.23748573371E+02 -0.87878692733E+01  0.31275267352E+02  0.00000000000E+00 0.  1.
</event>
<event>
 7    1  0.9868142E-013  0.5052885E+02  0.7816164E-02  0.1300439E+00
        -11   -1    0    0    0    0  0.00000000000E+00  0.00000000000E+00  0.45593999997E+02  0.45594000000E+02  0.51100000000E-03 0. -1.
         11   -1    0    0    0    0 -0.00000000000E+00 -0.00000000000E+00 -0.45593999997E+02  0.45594000000E+02  0.51100000000E-03 0.  1.
    9900012    2    1    2    0    0  0.27335914865E+02  0.96072674708E-01  0.30098250831E+02  0.50528853741E+02  0.29999981430E+02 0.  0.
        -12    1    1    2    0    0 -0.27335914865E+02 -0.96072674708E-01 -0.30098250831E+02  0.40659146259E+02  0.00000000000E+00 0.  1.
         11    1    3    3    0    0  0.41031790500E+01 -0.58340229146E+00  0.72986468678E+01  0.83932522250E+01  0.51100000000E-03 0. -1.
        -11    1    3    3    0    0  0.36926574407E+01  0.11475109893E+02  0.33092921930E+01  0.12500611230E+02  0.51100000000E-03 0.  1.
        -12    1    3    3    0    0  0.19540078374E+02 -0.10795634927E+02  0.19490311770E+02  0.29634990286E+02  0.00000000000E+00 0.  1.
</event>
<event>
 7    1  0.9868142E-013  0.5052888E+02  0.7816164E-02  0.1300439E+00
        -11   -1    0    0    0    0  0.00000000000E+00  0.00000000000E+00  0.45593999997E+02  0.45594000000E+02  0.51100000000E-03 0.  1.
         11   -1    0    0    0    0 -0.00000000000E+00 -0.00000000000E+00 -0.45593999997E+02  0.45594000000E+02  0.51100000000E-03 0. -1.
    9900012    2    1    2    0    0  0.23288705898E+02 -0.30036835899E+01 -0.33193046404E+02  0.50528877198E+02  0.30000052730E+02 0.  0.
        -12    1    1    2    0    0 -0.23288705898E+02  0.30036835899E+01  0.33193046404E+02  0.40659122802E+02  0.00000000000E+00 0.  1.
         11    1    3    3    0    0  0.10734128180E+02 -0.86752357784E+01 -0.10248504222E+02  0.17190493380E+02  0.51100000000E-03 0. -1.
        -11    1    3    3    0    0  0.91057504155E+01  0.80151176904E+01 -0.25645808067E+02  0.28370129959E+02  0.51100000000E-03 0.  1.
        -12    1    3    3    0    0  0.34488273028E+01 -0.23435655018E+01  0.27012658850E+01  0.49682538590E+01  0.00000000000E+00 0.  1.
</event>
<event>
 7    1  0.9868142E-013  0.5052877E+02  0.7816164E-02  0.1300439E+00
        -11   -1    0    0    0    0  0.00000000000E+00  0.00000000000E+00  0.45593999997E+02  0.45594000000E+02  0.51100000000E-03 0.  1.
         11   -1    0    0    0    0 -0.00000000000E+00 -0.00000000000E+00 -0.45593999997E+02  0.45594000000E+02  0.51100000000E-03 0. -1.
    9900012    2    1    2    0    0 -0.29697385418E+02 -0.26144803686E+02 -0.93641692569E+01  0.50528768252E+02  0.29999721578E+02 0.  0.
        -12    1    1    2    0    0  0.29697385418E+02  0.26144803686E+02  0.93641692569E+01  0.40659231748E+02  0.00000000000E+00 0.  1.
         11    1    3    3    0    0 -0.18271152405E+02 -0.10042918529E+02 -0.10262445609E+02  0.23238180069E+02  0.51100000000E-03 0. -1.
        -11    1    3    3    0    0 -0.33481506008E+01 -0.99158333571E+01  0.93725434702E+01  0.14049143567E+02  0.51100000000E-03 0.  1.
        -12    1    3    3    0    0 -0.80780824117E+01 -0.61860518002E+01 -0.84742671178E+01  0.13241444616E+02  0.00000000000E+00 0.  1.
</event>
<event>
 7    1  0.9868142E-013  0.5052886E+02  0.7816164E-02  0.1300439E+00
        -11   -1    0    0    0    0  0.00000000000E+00  0.00000000000E+00  0.45593999997E+02  0.45594000000E+02  0.51100000000E-03 0.  1.
         11   -1    0    0    0    0 -0.00000000000E+00 -0.00000000000E+00 -0.45593999997E+02  0.45594000000E+02  0.51100000000E-03 0. -1.
    9900012    2    1    2    0    0 -0.29377627104E+01 -0.32358878097E+01 -0.40423558119E+02  0.50528862397E+02  0.30000007741E+02 0.  0.
        -12    1    1    2    0    0  0.29377627104E+01  0.32358878097E+01  0.40423558119E+02  0.40659137603E+02  0.00000000000E+00 0.  1.
         11    1    3    3    0    0 -0.11783006005E+02  0.20480662933E+01 -0.13941789718E+02  0.18368650110E+02  0.51100000000E-03 0. -1.
        -11    1    3    3    0    0  0.10292566390E+02 -0.29200522975E+01 -0.77161738171E+01  0.13191018419E+02  0.51100000000E-03 0.  1.
         12    1    3    3    0    0 -0.14473230946E+01 -0.23639018055E+01 -0.18765594583E+02  0.18969193867E+02  0.00000000000E+00 0. -1.
</event>
<event>
 7    1  0.9868142E-013  0.5052886E+02  0.7816164E-02  0.1300439E+00
        -11   -1    0    0    0    0  0.00000000000E+00  0.00000000000E+00  0.45593999997E+02  0.45594000000E+02  0.51100000000E-03 0. -1.
         11   -1    0    0    0    0 -0.00000000000E+00 -0.00000000000E+00 -0.45593999997E+02  0.45594000000E+02  0.51100000000E-03 0.  1.
    9900012    2    1    2    0    0  0.22909066571E+02  0.31963406797E+02  0.10328638995E+02  0.50528862174E+02  0.30000007064E+02 0.  0.
        -12    1    1    2    0    0 -0.22909066571E+02 -0.31963406797E+02 -0.10328638995E+02  0.40659137826E+02  0.00000000000E+00 0.  1.
         11    1    3    3    0    0 -0.80894642430E+00  0.13585267134E+02 -0.35529620461E+00  0.13613967573E+02  0.51100000000E-03 0. -1.
        -11    1    3    3    0    0  0.19372612282E+02  0.12036285576E+02 -0.11126598010E+01  0.22834366407E+02  0.51100000000E-03 0.  1.
        -12    1    3    3    0    0  0.43454007136E+01  0.63418540873E+01  0.11796595001E+02  0.14080528195E+02  0.00000000000E+00 0.  1.
</event>
<event>
 7    1  0.9868142E-013  0.5052886E+02  0.7816164E-02  0.1300439E+00
        -11   -1    0    0    0    0  0.00000000000E+00  0.00000000000E+00  0.45593999997E+02  0.45594000000E+02  0.51100000000E-03 0. -1.
         11   -1    0    0    0    0 -0.00000000000E+00 -0.00000000000E+00 -0.45593999997E+02  0.45594000000E+02  0.51100000000E-03 0.  1.
    9900012    2    1    2    0    0  0.23933561194E+02  0.26642407058E+02 -0.19249228769E+02  0.50528855721E+02  0.29999987450E+02 0.  0.
        -12    1    1    2    0    0 -0.23933561194E+02 -0.26642407058E+02  0.19249228769E+02  0.40659144279E+02  0.00000000000E+00 0.  1.
         11    1    3    3    0    0  0.22885749887E+02  0.27292150885E+02 -0.11951661427E+02  0.37569419199E+02  0.51100000000E-03 0. -1.
        -11    1    3    3    0    0  0.94150321452E+00 -0.56288617556E+01 -0.43114515471E+01  0.71525609170E+01  0.51100000000E-03 0.  1.
        -12    1    3    3    0    0  0.10630809323E+00  0.49791179285E+01 -0.29861157946E+01  0.58068756053E+01  0.00000000000E+00 0.  1.
</event>
<event>
 7    1  0.9868142E-013  0.5052886E+02  0.7816164E-02  0.1300439E+00
        -11   -1    0    0    0    0  0.00000000000E+00  0.00000000000E+00  0.45593999997E+02  0.45594000000E+02  0.51100000000E-03 0.  1.
         11   -1    0    0    0    0 -0.00000000000E+00 -0.00000000000E+00 -0.45593999997E+02  0.45594000000E+02  0.51100000000E-03 0. -1.
    9900012    2    1    2    0    0 -0.10500606915E+02 -0.55836883684E+01 -0.38880911151E+02  0.50528861134E+02  0.30000003904E+02 0.  0.
        -12    1    1    2    0    0  0.10500606915E+02  0.55836883684E+01  0.38880911151E+02  0.40659138866E+02  0.00000000000E+00 0.  1.
         11    1    3    3    0    0  0.54025618247E+01 -0.12880693036E+01 -0.26648774845E+02  0.27221388609E+02  0.51100000000E-03 0. -1.
        -11    1    3    3    0    0 -0.47799857603E+01 -0.23017273452E+01  0.15097097852E+01  0.55159257189E+01  0.51100000000E-03 0.  1.
         12    1    3    3    0    0 -0.11123182979E+02 -0.19938917196E+01 -0.13741846091E+02  0.17791546806E+02  0.00000000000E+00 0. -1.
</event>
<event>
 7    1  0.9868142E-013  0.5052888E+02  0.7816164E-02  0.1300439E+00
        -11   -1    0    0    0    0  0.00000000000E+00  0.00000000000E+00  0.45593999997E+02  0.45594000000E+02  0.51100000000E-03 0.  1.
         11   -1    0    0    0    0 -0.00000000000E+00 -0.00000000000E+00 -0.45593999997E+02  0.45594000000E+02  0.51100000000E-03 0. -1.
    9900012    2    1    2    0    0  0.37142762186E+02 -0.16246947971E+02  0.31009428724E+01  0.50528881123E+02  0.30000064662E+02 0.  0.
        -12    1    1    2    0    0 -0.37142762186E+02  0.16246947971E+02 -0.31009428724E+01  0.40659118877E+02  0.00000000000E+00 0.  1.
         11    1    3    3    0    0  0.27218563146E+02 -0.12472492175E+02  0.14416534648E+02  0.33230252968E+02  0.51100000000E-03 0. -1.
        -11    1    3    3    0    0  0.10421368877E+02 -0.16833710861E+01 -0.76053251458E+01  0.13010750874E+02  0.51100000000E-03 0.  1.
        -12    1    3    3    0    0 -0.49716983652E+00 -0.20910847102E+01 -0.37102666303E+01  0.42878772813E+01  0.00000000000E+00 0.  1.
</event>
<event>
 7    1  0.9868142E-013  0.5052888E+02  0.7816164E-02  0.1300439E+00
        -11   -1    0    0    0    0  0.00000000000E+00  0.00000000000E+00  0.45593999997E+02  0.45594000000E+02  0.51100000000E-03 0. -1.
         11   -1    0    0    0    0 -0.00000000000E+00 -0.00000000000E+00 -0.45593999997E+02  0.45594000000E+02  0.51100000000E-03 0.  1.
    9900012    2    1    2    0    0  0.92883164717E+01  0.34856246132E+02  0.18759877833E+02  0.50528883758E+02  0.30000072670E+02 0.  0.
        -12    1    1    2    0    0 -0.92883164717E+01 -0.34856246132E+02 -0.18759877833E+02  0.40659116242E+02  0.00000000000E+00 0.  1.
         11    1    3    3    0    0  0.15605932846E+02  0.10372978537E+02  0.13109726916E+02  0.22869384859E+02  0.51100000000E-03 0. -1.
        -11    1    3    3    0    0 -0.86538894119E+01  0.15416374561E+02  0.43510099843E+01  0.18206748603E+02  0.51100000000E-03 0.  1.
         12    1    3    3    0    0  0.23362730372E+01  0.90668930340E+01  0.12991409326E+01  0.94527502959E+01  0.00000000000E+00 0. -1.
</event>
<event>
 7    1  0.9868142E-013  0.5052884E+02  0.7816164E-02  0.1300439E+00
        -11   -1    0    0    0    0  0.00000000000E+00  0.00000000000E+00  0.45593999997E+02  0.45594000000E+02  0.51100000000E-03 0.  1.
         11   -1    0    0    0    0 -0.00000000000E+00 -0.00000000000E+00 -0.45593999997E+02  0.45594000000E+02  0.51100000000E-03 0. -1.
    9900012    2    1    2    0    0 -0.22911860072E+02 -0.32241379440E+02 -0.94184620000E+01  0.50528839819E+02  0.29999939113E+02 0.  0.
        -12    1    1    2    0    0  0.22911860072E+02  0.32241379440E+02  0.94184620000E+01  0.40659160181E+02  0.00000000000E+00 0.  1.
         11    1    3    3    0    0 -0.22118176374E+02 -0.35796076033E+02 -0.33723540192E+01  0.42213096988E+02  0.51100000000E-03 0. -1.
        -11    1    3    3    0    0  0.40031329715E+00  0.13382221192E+01 -0.55840199498E+01  0.57560722925E+01  0.51100000000E-03 0.  1.
         12    1    3    3    0    0 -0.11939969953E+01  0.22164744730E+01 -0.46208803097E+00  0.25596705379E+01  0.00000000000E+00 0. -1.
</event>
<event>
 7    1  0.9868142E-013  0.5052885E+02  0.7816164E-02  0.1300439E+00
        -11   -1    0    0    0    0  0.00000000000E+00  0.00000000000E+00  0.45593999997E+02  0.45594000000E+02  0.51100000000E-03 0.  1.
         11   -1    0    0    0    0 -0.00000000000E+00 -0.00000000000E+00 -0.45593999997E+02  0.45594000000E+02  0.51100000000E-03 0. -1.
    9900012    2    1    2    0    0  0.29296579530E+01  0.39876787264E+02 -0.73773519240E+01  0.50528851218E+02  0.29999973764E+02 0.  0.
        -12    1    1    2    0    0 -0.29296579530E+01 -0.39876787264E+02  0.73773519240E+01  0.40659148782E+02  0.00000000000E+00 0.  1.
         11    1    3    3    0    0 -0.62265736772E+00  0.50445631775E+01 -0.92364976426E+01  0.10542685085E+02  0.51100000000E-03 0. -1.
        -11    1    3    3    0    0 -0.15195529680E+01  0.11488795469E+02  0.94153410237E+01  0.14931513969E+02  0.51100000000E-03 0.  1.
        -12    1    3    3    0    0  0.50718682887E+01  0.23343428618E+02 -0.75561953051E+01  0.25054652164E+02  0.00000000000E+00 0.  1.
</event>
<event>
 7    1  0.9868142E-013  0.5052884E+02  0.7816164E-02  0.1300439E+00
        -11   -1    0    0    0    0  0.00000000000E+00  0.00000000000E+00  0.45593999997E+02  0.45594000000E+02  0.51100000000E-03 0. -1.
         11   -1    0    0    0    0 -0.00000000000E+00 -0.00000000000E+00 -0.45593999997E+02  0.45594000000E+02  0.51100000000E-03 0.  1.
    9900012    2    1    2    0    0  0.68288138992E+01 -0.26673031889E+02  0.29917951097E+02  0.50528842024E+02  0.29999945816E+02 0.  0.
        -12    1    1    2    0    0 -0.68288138992E+01  0.26673031889E+02 -0.29917951097E+02  0.40659157976E+02  0.00000000000E+00 0.  1.
         11    1    3    3    0    0  0.74295216663E+01  0.17450087493E+01  0.98416603423E+01  0.12453960265E+02  0.51100000000E-03 0. -1.
        -11    1    3    3    0    0 -0.74548457730E+01 -0.20827188879E+02  0.13479207994E+02  0.25904354277E+02  0.51100000000E-03 0.  1.
         12    1    3    3    0    0  0.68541380059E+01 -0.75908517598E+01  0.65970827614E+01  0.12170527483E+02  0.00000000000E+00 0. -1.
</event>
<event>
 7    1  0.9868142E-013  0.5052887E+02  0.7816164E-02  0.1300439E+00
        -11   -1    0    0    0    0  0.00000000000E+00  0.00000000000E+00  0.45593999997E+02  0.45594000000E+02  0.51100000000E-03 0.  1.
         11   -1    0    0    0    0 -0.00000000000E+00 -0.00000000000E+00 -0.45593999997E+02  0.45594000000E+02  0.51100000000E-03 0. -1.
    9900012    2    1    2    0    0  0.34514145380E+02  0.17546838918E+02 -0.12411555377E+02  0.50528874405E+02  0.30000044241E+02 0.  0.
        -12    1    1    2    0    0 -0.34514145380E+02 -0.17546838918E+02  0.12411555377E+02  0.40659125595E+02  0.00000000000E+00 0.  1.
         11    1    3    3    0    0  0.21531025007E+01  0.28474185835E+01 -0.40930777398E+01  0.54311074941E+01  0.51100000000E-03 0. -1.
        -11    1    3    3    0    0  0.19587427488E+02  0.20799096521E+02  0.21121222173E+00  0.28571215279E+02  0.51100000000E-03 0.  1.
        -12    1    3    3    0    0  0.12773615391E+02 -0.60996761864E+01 -0.85296898587E+01  0.16526551631E+02  0.00000000000E+00 0.  1.
</event>
<event>
 7    1  0.9868142E-013  0.5052899E+02  0.7816164E-02  0.1300438E+00
        -11   -1    0    0    0    0  0.00000000000E+00  0.00000000000E+00  0.45593999997E+02  0.45594000000E+02  0.51100000000E-03 0. -1.
         11   -1    0    0    0    0 -0.00000000000E+00 -0.00000000000E+00 -0.45593999997E+02  0.45594000000E+02  0.51100000000E-03 0.  1.
    9900012    2    1    2    0    0 -0.30201212424E+02  0.96191380421E+01  0.25465946063E+02  0.50528985533E+02  0.30000382022E+02 0.  0.
        -12    1    1    2    0    0  0.30201212424E+02 -0.96191380421E+01 -0.25465946063E+02  0.40659014467E+02  0.00000000000E+00 0.  1.
         11    1    3    3    0    0 -0.32933093691E+02  0.12426541431E+02  0.16201211933E+02  0.38749023992E+02  0.51100000000E-03 0. -1.
        -11    1    3    3    0    0  0.46011046635E+01 -0.25679420747E+01  0.58015506193E+01  0.78372495477E+01  0.51100000000E-03 0.  1.
        -12    1    3    3    0    0 -0.18692233966E+01 -0.23946131373E+00  0.34631835106E+01  0.39427119924E+01  0.00000000000E+00 0.  1.
</event>
<event>
 7    1  0.9868142E-013  0.5052886E+02  0.7816164E-02  0.1300439E+00
        -11   -1    0    0    0    0  0.00000000000E+00  0.00000000000E+00  0.45593999997E+02  0.45594000000E+02  0.51100000000E-03 0.  1.
         11   -1    0    0    0    0 -0.00000000000E+00 -0.00000000000E+00 -0.45593999997E+02  0.45594000000E+02  0.51100000000E-03 0. -1.
    9900012    2    1    2    0    0  0.27257009039E+02  0.30155581998E+02 -0.92863086645E+00  0.50528855608E+02  0.29999987106E+02 0.  0.
        -12    1    1    2    0    0 -0.27257009039E+02 -0.30155581998E+02  0.92863086645E+00  0.40659144392E+02  0.00000000000E+00 0.  1.
         11    1    3    3    0    0  0.18701217042E+02  0.25804030727E+02  0.29119568734E-01  0.31868234479E+02  0.51100000000E-03 0. -1.
        -11    1    3    3    0    0  0.47501456373E+01 -0.54859642358E+01 -0.31104477151E+01  0.78952246594E+01  0.51100000000E-03 0.  1.
        -12    1    3    3    0    0  0.38056463594E+01  0.98375155074E+01  0.21526972800E+01  0.10765396470E+02  0.00000000000E+00 0.  1.
</event>
<event>
 7    1  0.9868142E-013  0.5052886E+02  0.7816164E-02  0.1300439E+00
        -11   -1    0    0    0    0  0.00000000000E+00  0.00000000000E+00  0.45593999997E+02  0.45594000000E+02  0.51100000000E-03 0. -1.
         11   -1    0    0    0    0 -0.00000000000E+00 -0.00000000000E+00 -0.45593999997E+02  0.45594000000E+02  0.51100000000E-03 0.  1.
    9900012    2    1    2    0    0  0.35134149784E+02  0.15438006130E+02 -0.13432233631E+02  0.50528863085E+02  0.30000009833E+02 0.  0.
        -12    1    1    2    0    0 -0.35134149784E+02 -0.15438006130E+02  0.13432233631E+02  0.40659136915E+02  0.00000000000E+00 0.  1.
         11    1    3    3    0    0 -0.14232436472E+01  0.99015920644E+00  0.31832362573E+01  0.36247801402E+01  0.51100000000E-03 0. -1.
        -11    1    3    3    0    0  0.13490813647E+02  0.72006473096E+01 -0.16809978892E+02  0.22725025086E+02  0.51100000000E-03 0.  1.
         12    1    3    3    0    0  0.23066579785E+02  0.72471996145E+01  0.19450900375E+00  0.24179057859E+02  0.00000000000E+00 0. -1.
</event>
<event>
 7    1  0.9868142E-013  0.5052886E+02  0.7816164E-02  0.1300439E+00
        -11   -1    0    0    0    0  0.00000000000E+00  0.00000000000E+00  0.45593999997E+02  0.45594000000E+02  0.51100000000E-03 0.  1.
         11   -1    0    0    0    0 -0.00000000000E+00 -0.00000000000E+00 -0.45593999997E+02  0.45594000000E+02  0.51100000000E-03 0. -1.
    9900012    2    1    2    0    0  0.33922743124E+01 -0.33089458394E+02 -0.23382593349E+02  0.50528862606E+02  0.30000008378E+02 0.  0.
        -12    1    1    2    0    0 -0.33922743124E+01  0.33089458394E+02  0.23382593349E+02  0.40659137394E+02  0.00000000000E+00 0.  1.
         11    1    3    3    0    0 -0.19891031047E+01 -0.89151216613E+01 -0.38890134178E+01  0.99277565956E+01  0.51100000000E-03 0. -1.
        -11    1    3    3    0    0  0.57394598169E+01 -0.43282521999E+01 -0.19466918936E+02  0.20751773399E+02  0.51100000000E-03 0.  1.
        -12    1    3    3    0    0 -0.35808239981E+00 -0.19846084533E+02 -0.26660995418E-01  0.19849332611E+02  0.00000000000E+00 0.  1.
</event>
<event>
 7    1  0.9868142E-013  0.5052886E+02  0.7816164E-02  0.1300439E+00
        -11   -1    0    0    0    0  0.00000000000E+00  0.00000000000E+00  0.45593999997E+02  0.45594000000E+02  0.51100000000E-03 0. -1.
         11   -1    0    0    0    0 -0.00000000000E+00 -0.00000000000E+00 -0.45593999997E+02  0.45594000000E+02  0.51100000000E-03 0.  1.
    9900012    2    1    2    0    0 -0.26885301210E+00 -0.66726988181E+00  0.40652774397E+02  0.50528860840E+02  0.30000003009E+02 0.  0.
        -12    1    1    2    0    0  0.26885301210E+00  0.66726988181E+00 -0.40652774397E+02  0.40659139160E+02  0.00000000000E+00 0.  1.
         11    1    3    3    0    0 -0.74745792450E+01  0.32024048650E+01  0.98372014840E+01  0.12763042941E+02  0.51100000000E-03 0.  1.
        -11    1    3    3    0    0  0.50391337034E+01 -0.12016686093E+02  0.15206871872E+02  0.20026047177E+02  0.51100000000E-03 0. -1.
         12    1    3    3    0    0  0.21665925295E+01  0.81470113465E+01  0.15608701041E+02  0.17739770722E+02  0.00000000000E+00 0. -1.
</event>
<event>
 7    1  0.9868142E-013  0.5052886E+02  0.7816164E-02  0.1300439E+00
        -11   -1    0    0    0    0  0.00000000000E+00  0.00000000000E+00  0.45593999997E+02  0.45594000000E+02  0.51100000000E-03 0.  1.
         11   -1    0    0    0    0 -0.00000000000E+00 -0.00000000000E+00 -0.45593999997E+02  0.45594000000E+02  0.51100000000E-03 0. -1.
    9900012    2    1    2    0    0 -0.16153662081E+02 -0.17258601926E+02 -0.33081194422E+02  0.50528861256E+02  0.30000004272E+02 0.  0.
        -12    1    1    2    0    0  0.16153662081E+02  0.17258601926E+02  0.33081194422E+02  0.40659138744E+02  0.00000000000E+00 0.  1.
         11    1    3    3    0    0 -0.10919891275E+02 -0.51541619576E+01 -0.20776514761E+02  0.24030667424E+02  0.51100000000E-03 0. -1.
        -11    1    3    3    0    0  0.46860373044E+01 -0.12691118354E+02 -0.69109561183E+01  0.15191601147E+02  0.51100000000E-03 0.  1.
         12    1    3    3    0    0 -0.99198081107E+01  0.58667838557E+00 -0.53937235420E+01  0.11306592684E+02  0.00000000000E+00 0. -1.
</event>
<event>
 7    1  0.9868142E-013  0.5052887E+02  0.7816164E-02  0.1300439E+00
        -11   -1    0    0    0    0  0.00000000000E+00  0.00000000000E+00  0.45593999997E+02  0.45594000000E+02  0.51100000000E-03 0.  1.
         11   -1    0    0    0    0 -0.00000000000E+00 -0.00000000000E+00 -0.45593999997E+02  0.45594000000E+02  0.51100000000E-03 0. -1.
    9900012    2    1    2    0    0 -0.12544802886E+02  0.20031763682E+02 -0.33083553409E+02  0.50528866440E+02  0.30000020032E+02 0.  0.
        -12    1    1    2    0    0  0.12544802886E+02 -0.20031763682E+02  0.33083553409E+02  0.40659133560E+02  0.00000000000E+00 0.  1.
         11    1    3    3    0    0  0.38910621136E+01  0.35416524919E+01 -0.18625365740E+02  0.19354273842E+02  0.51100000000E-03 0. -1.
        -11    1    3    3    0    0 -0.90316745676E+01  0.16695689752E+02 -0.14300322240E+02  0.23765866663E+02  0.51100000000E-03 0.  1.
        -12    1    3    3    0    0 -0.74041904324E+01 -0.20557856273E+00 -0.15786542958E+00  0.74087259362E+01  0.00000000000E+00 0.  1.
</event>
<event>
 7    1  0.9868142E-013  0.5052885E+02  0.7816164E-02  0.1300439E+00
        -11   -1    0    0    0    0  0.00000000000E+00  0.00000000000E+00  0.45593999997E+02  0.45594000000E+02  0.51100000000E-03 0.  1.
         11   -1    0    0    0    0 -0.00000000000E+00 -0.00000000000E+00 -0.45593999997E+02  0.45594000000E+02  0.51100000000E-03 0. -1.
    9900012    2    1    2    0    0  0.18343203875E+02  0.21025916481E+01 -0.36225300699E+02  0.50528850589E+02  0.29999971852E+02 0.  0.
        -12    1    1    2    0    0 -0.18343203875E+02 -0.21025916481E+01  0.36225300699E+02  0.40659149411E+02  0.00000000000E+00 0.  1.
         11    1    3    3    0    0  0.19303640946E+02 -0.10185893621E+02 -0.17606819553E+02  0.28042522670E+02  0.51100000000E-03 0. -1.
        -11    1    3    3    0    0 -0.99714939858E+00  0.16909465062E+01 -0.22419953657E+01  0.29799581358E+01  0.51100000000E-03 0.  1.
         12    1    3    3    0    0  0.36712327331E-01  0.10597538763E+02 -0.16376485781E+02  0.19506369784E+02  0.00000000000E+00 0. -1.
</event>
<event>
 7    1  0.9868142E-013  0.5052886E+02  0.7816164E-02  0.1300439E+00
        -11   -1    0    0    0    0  0.00000000000E+00  0.00000000000E+00  0.45593999997E+02  0.45594000000E+02  0.51100000000E-03 0.  1.
         11   -1    0    0    0    0 -0.00000000000E+00 -0.00000000000E+00 -0.45593999997E+02  0.45594000000E+02  0.51100000000E-03 0. -1.
    9900012    2    1    2    0    0 -0.12700574973E+02  0.35617993674E+02  0.14940531957E+02  0.50528861135E+02  0.30000003907E+02 0.  0.
        -12    1    1    2    0    0  0.12700574973E+02 -0.35617993674E+02 -0.14940531957E+02  0.40659138865E+02  0.00000000000E+00 0.  1.
         11    1    3    3    0    0 -0.46510543729E+01  0.28110842958E+02  0.54431420358E+01  0.29008267684E+02  0.51100000000E-03 0. -1.
        -11    1    3    3    0    0  0.22137943940E+01 -0.35695143747E+00 -0.28606777904E+01  0.36348009064E+01  0.51100000000E-03 0.  1.
         12    1    3    3    0    0 -0.10263314994E+02  0.78641021545E+01  0.12358067712E+02  0.17885792545E+02  0.00000000000E+00 0. -1.
</event>
<event>
 7    1  0.9868142E-013  0.5052886E+02  0.7816164E-02  0.1300439E+00
        -11   -1    0    0    0    0  0.00000000000E+00  0.00000000000E+00  0.45593999997E+02  0.45594000000E+02  0.51100000000E-03 0.  1.
         11   -1    0    0    0    0 -0.00000000000E+00 -0.00000000000E+00 -0.45593999997E+02  0.45594000000E+02  0.51100000000E-03 0. -1.
    9900012    2    1    2    0    0  0.21473769261E+02  0.16038692703E+02 -0.30574549281E+02  0.50528862114E+02  0.30000006881E+02 0.  0.
        -12    1    1    2    0    0 -0.21473769261E+02 -0.16038692703E+02  0.30574549281E+02  0.40659137886E+02  0.00000000000E+00 0.  1.
         11    1    3    3    0    0  0.12101505349E+02  0.35718002781E+01 -0.31065376009E+02  0.33530013060E+02  0.51100000000E-03 0. -1.
        -11    1    3    3    0    0  0.89879873064E+01  0.68090718171E+01 -0.25702934027E+00  0.11278893526E+02  0.51100000000E-03 0.  1.
         12    1    3    3    0    0  0.38427660641E+00  0.56578206081E+01  0.74785606891E+00  0.57199555281E+01  0.00000000000E+00 0. -1.
</event>
<event>
 7    1  0.9868142E-013  0.5052886E+02  0.7816164E-02  0.1300439E+00
        -11   -1    0    0    0    0  0.00000000000E+00  0.00000000000E+00  0.45593999997E+02  0.45594000000E+02  0.51100000000E-03 0.  1.
         11   -1    0    0    0    0 -0.00000000000E+00 -0.00000000000E+00 -0.45593999997E+02  0.45594000000E+02  0.51100000000E-03 0. -1.
    9900012    2    1    2    0    0 -0.20322518586E+02 -0.27944033659E+02 -0.21431101782E+02  0.50528857087E+02  0.29999991602E+02 0.  0.
        -12    1    1    2    0    0  0.20322518586E+02  0.27944033659E+02  0.21431101782E+02  0.40659142913E+02  0.00000000000E+00 0.  1.
         11    1    3    3    0    0 -0.10486366457E+02 -0.27650960919E+02 -0.14140764556E+02  0.32779578150E+02  0.51100000000E-03 0. -1.
        -11    1    3    3    0    0  0.25209516907E+01  0.22936432446E+00  0.11451707773E+01  0.27783487525E+01  0.51100000000E-03 0.  1.
         12    1    3    3    0    0 -0.12357103820E+02 -0.52243706393E+00 -0.84355080033E+01  0.14970930184E+02  0.00000000000E+00 0. -1.
</event>
<event>
 7    1  0.9868142E-013  0.5052886E+02  0.7816164E-02  0.1300439E+00
        -11   -1    0    0    0    0  0.00000000000E+00  0.00000000000E+00  0.45593999997E+02  0.45594000000E+02  0.51100000000E-03 0.  1.
         11   -1    0    0    0    0 -0.00000000000E+00 -0.00000000000E+00 -0.45593999997E+02  0.45594000000E+02  0.51100000000E-03 0. -1.
    9900012    2    1    2    0    0  0.28978348275E+02 -0.20357827353E+02 -0.19974475455E+02  0.50528862368E+02  0.30000007654E+02 0.  0.
        -12    1    1    2    0    0 -0.28978348275E+02  0.20357827353E+02  0.19974475455E+02  0.40659137632E+02  0.00000000000E+00 0.  1.
         11    1    3    3    0    0  0.29340445828E+02 -0.13547648895E+02 -0.20321709550E+02  0.38175547557E+02  0.51100000000E-03 0. -1.
        -11    1    3    3    0    0 -0.50689652047E+01 -0.28769102684E+01  0.17013144192E+01  0.60716959700E+01  0.51100000000E-03 0.  1.
        -12    1    3    3    0    0  0.47068676520E+01 -0.39332681896E+01 -0.13540803241E+01  0.62816188414E+01  0.00000000000E+00 0.  1.
</event>
<event>
 7    1  0.9868142E-013  0.5052885E+02  0.7816164E-02  0.1300439E+00
        -11   -1    0    0    0    0  0.00000000000E+00  0.00000000000E+00  0.45593999997E+02  0.45594000000E+02  0.51100000000E-03 0.  1.
         11   -1    0    0    0    0 -0.00000000000E+00 -0.00000000000E+00 -0.45593999997E+02  0.45594000000E+02  0.51100000000E-03 0. -1.
    9900012    2    1    2    0    0 -0.29853504468E+02  0.90984666396E+01 -0.26060556296E+02  0.50528850739E+02  0.29999972306E+02 0.  0.
        -12    1    1    2    0    0  0.29853504468E+02 -0.90984666396E+01  0.26060556296E+02  0.40659149261E+02  0.00000000000E+00 0.  1.
         11    1    3    3    0    0 -0.63186376984E+01  0.73620388192E+01 -0.34894964833E+01  0.10310256248E+02  0.51100000000E-03 0. -1.
        -11    1    3    3    0    0 -0.83918002607E+01 -0.10392085904E+02 -0.12781059044E+02  0.18487109877E+02  0.51100000000E-03 0.  1.
        -12    1    3    3    0    0 -0.15143066509E+02  0.12128513725E+02 -0.97900007686E+01  0.21731484614E+02  0.00000000000E+00 0.  1.
</event>
<event>
 7    1  0.9868142E-013  0.5052883E+02  0.7816164E-02  0.1300439E+00
        -11   -1    0    0    0    0  0.00000000000E+00  0.00000000000E+00  0.45593999997E+02  0.45594000000E+02  0.51100000000E-03 0.  1.
         11   -1    0    0    0    0 -0.00000000000E+00 -0.00000000000E+00 -0.45593999997E+02  0.45594000000E+02  0.51100000000E-03 0. -1.
    9900012    2    1    2    0    0  0.80937359936E+01  0.20922361739E+02 -0.33910392138E+02  0.50528825414E+02  0.29999895328E+02 0.  0.
        -12    1    1    2    0    0 -0.80937359936E+01 -0.20922361739E+02  0.33910392138E+02  0.40659174586E+02  0.00000000000E+00 0.  1.
         11    1    3    3    0    0 -0.73663334323E+01  0.26633617220E+01 -0.96569856582E+00  0.78923341211E+01  0.51100000000E-03 0. -1.
        -11    1    3    3    0    0  0.17239321318E+02  0.18476620783E+02 -0.30901731802E+02  0.39918626526E+02  0.51100000000E-03 0.  1.
        -12    1    3    3    0    0 -0.17792518926E+01 -0.21762076638E+00 -0.20429617704E+01  0.27178647668E+01  0.00000000000E+00 0.  1.
</event>
<event>
 7    1  0.9868142E-013  0.5052886E+02  0.7816164E-02  0.1300439E+00
        -11   -1    0    0    0    0  0.00000000000E+00  0.00000000000E+00  0.45593999997E+02  0.45594000000E+02  0.51100000000E-03 0.  1.
         11   -1    0    0    0    0 -0.00000000000E+00 -0.00000000000E+00 -0.45593999997E+02  0.45594000000E+02  0.51100000000E-03 0. -1.
    9900012    2    1    2    0    0 -0.24477345449E+02  0.32456409597E+02 -0.77891747114E+00  0.50528859865E+02  0.30000000044E+02 0.  0.
        -12    1    1    2    0    0  0.24477345449E+02 -0.32456409597E+02  0.77891747114E+00  0.40659140135E+02  0.00000000000E+00 0.  1.
         11    1    3    3    0    0 -0.20651590221E+02  0.30200479033E+02  0.49137193453E+01  0.36914790404E+02  0.51100000000E-03 0. -1.
        -11    1    3    3    0    0  0.11637712456E+01 -0.29811922396E+01 -0.55175514899E+01  0.63784986781E+01  0.51100000000E-03 0.  1.
        -12    1    3    3    0    0 -0.49895264727E+01  0.52371228030E+01 -0.17508532653E+00  0.72355707824E+01  0.00000000000E+00 0.  1.
</event>
<event>
 7    1  0.9868142E-013  0.5052887E+02  0.7816164E-02  0.1300439E+00
        -11   -1    0    0    0    0  0.00000000000E+00  0.00000000000E+00  0.45593999997E+02  0.45594000000E+02  0.51100000000E-03 0. -1.
         11   -1    0    0    0    0 -0.00000000000E+00 -0.00000000000E+00 -0.45593999997E+02  0.45594000000E+02  0.51100000000E-03 0.  1.
    9900012    2    1    2    0    0 -0.26621837042E+02  0.28182234782E+02 -0.12255785893E+02  0.50528869996E+02  0.30000030841E+02 0.  0.
        -12    1    1    2    0    0  0.26621837042E+02 -0.28182234782E+02  0.12255785893E+02  0.40659130004E+02  0.00000000000E+00 0.  1.
         11    1    3    3    0    0 -0.26951958841E+02  0.32379853848E+02 -0.11590253489E+02  0.43694358867E+02  0.51100000000E-03 0. -1.
        -11    1    3    3    0    0  0.17716798186E+01 -0.48511894215E+01 -0.13905545164E+00  0.51664518640E+01  0.51100000000E-03 0.  1.
        -12    1    3    3    0    0 -0.14415580193E+01  0.65357035584E+00 -0.52647695212E+00  0.16680592657E+01  0.00000000000E+00 0.  1.
</event>
<event>
 7    1  0.9868142E-013  0.5052886E+02  0.7816164E-02  0.1300439E+00
        -11   -1    0    0    0    0  0.00000000000E+00  0.00000000000E+00  0.45593999997E+02  0.45594000000E+02  0.51100000000E-03 0. -1.
         11   -1    0    0    0    0 -0.00000000000E+00 -0.00000000000E+00 -0.45593999997E+02  0.45594000000E+02  0.51100000000E-03 0.  1.
    9900012    2    1    2    0    0  0.36277924906E+01  0.39227186791E+02 -0.10061448050E+02  0.50528858362E+02  0.29999995477E+02 0.  0.
        -12    1    1    2    0    0 -0.36277924906E+01 -0.39227186791E+02  0.10061448050E+02  0.40659141638E+02  0.00000000000E+00 0.  1.
         11    1    3    3    0    0  0.56838231344E+01  0.21464163498E+02 -0.13226642181E+02  0.25844926461E+02  0.51100000000E-03 0. -1.
        -11    1    3    3    0    0 -0.62425379977E+01  0.37693361007E+01 -0.41048190651E+01  0.83681966463E+01  0.51100000000E-03 0.  1.
        -12    1    3    3    0    0  0.41865073539E+01  0.13993687192E+02  0.72700131964E+01  0.16315735255E+02  0.00000000000E+00 0.  1.
</event>
<event>
 7    1  0.9868142E-013  0.5052886E+02  0.7816164E-02  0.1300439E+00
        -11   -1    0    0    0    0  0.00000000000E+00  0.00000000000E+00  0.45593999997E+02  0.45594000000E+02  0.51100000000E-03 0.  1.
         11   -1    0    0    0    0 -0.00000000000E+00 -0.00000000000E+00 -0.45593999997E+02  0.45594000000E+02  0.51100000000E-03 0. -1.
    9900012    2    1    2    0    0 -0.27521200076E+02 -0.13925797966E+02 -0.26491906555E+02  0.50528863075E+02  0.30000009802E+02 0.  0.
        -12    1    1    2    0    0  0.27521200076E+02  0.13925797966E+02  0.26491906555E+02  0.40659136925E+02  0.00000000000E+00 0.  1.
         11    1    3    3    0    0 -0.16416884331E+02 -0.13431585808E+02 -0.45139629228E+01  0.21686342476E+02  0.51100000000E-03 0. -1.
        -11    1    3    3    0    0 -0.13741063664E+02  0.29867340072E+01 -0.18623153969E+02  0.23335793851E+02  0.51100000000E-03 0.  1.
        -12    1    3    3    0    0  0.26367479187E+01 -0.34809461650E+01 -0.33547896631E+01  0.55067267477E+01  0.00000000000E+00 0.  1.
</event>
<event>
 7    1  0.9868142E-013  0.5052886E+02  0.7816164E-02  0.1300439E+00
        -11   -1    0    0    0    0  0.00000000000E+00  0.00000000000E+00  0.45593999997E+02  0.45594000000E+02  0.51100000000E-03 0.  1.
         11   -1    0    0    0    0 -0.00000000000E+00 -0.00000000000E+00 -0.45593999997E+02  0.45594000000E+02  0.51100000000E-03 0. -1.
    9900012    2    1    2    0    0  0.59037293550E+01  0.33963290788E+02 -0.21559374520E+02  0.50528858702E+02  0.29999996509E+02 0.  0.
        -12    1    1    2    0    0 -0.59037293550E+01 -0.33963290788E+02  0.21559374520E+02  0.40659141298E+02  0.00000000000E+00 0.  1.
         11    1    3    3    0    0 -0.45676106682E+01  0.13898136033E+02  0.26533474642E+01  0.14868137256E+02  0.51100000000E-03 0. -1.
        -11    1    3    3    0    0  0.13479603853E+02  0.14941330259E+02 -0.17226418616E+02  0.26489480337E+02  0.51100000000E-03 0.  1.
         12    1    3    3    0    0 -0.30082638298E+01  0.51238244956E+01 -0.69863033675E+01  0.91712411087E+01  0.00000000000E+00 0. -1.
</event>
<event>
 7    1  0.9868142E-013  0.5052886E+02  0.7816164E-02  0.1300439E+00
        -11   -1    0    0    0    0  0.00000000000E+00  0.00000000000E+00  0.45593999997E+02  0.45594000000E+02  0.51100000000E-03 0.  1.
         11   -1    0    0    0    0 -0.00000000000E+00 -0.00000000000E+00 -0.45593999997E+02  0.45594000000E+02  0.51100000000E-03 0. -1.
    9900012    2    1    2    0    0 -0.21194315282E+02 -0.33365817146E+02 -0.95230702996E+01  0.50528860535E+02  0.30000002083E+02 0.  0.
        -12    1    1    2    0    0  0.21194315282E+02  0.33365817146E+02  0.95230702996E+01  0.40659139465E+02  0.00000000000E+00 0.  1.
         11    1    3    3    0    0  0.74782309268E+00 -0.20906428405E+01 -0.86509418754E+01  0.89313393428E+01  0.51100000000E-03 0. -1.
        -11    1    3    3    0    0 -0.17865652229E+01 -0.77263123097E+01  0.58820077711E+01  0.98734863591E+01  0.51100000000E-03 0.  1.
         12    1    3    3    0    0 -0.20155573152E+02 -0.23548861995E+02 -0.67541361954E+01  0.31724034833E+02  0.00000000000E+00 0. -1.
</event>
<event>
 7    1  0.9868142E-013  0.5052886E+02  0.7816164E-02  0.1300439E+00
        -11   -1    0    0    0    0  0.00000000000E+00  0.00000000000E+00  0.45593999997E+02  0.45594000000E+02  0.51100000000E-03 0. -1.
         11   -1    0    0    0    0 -0.00000000000E+00 -0.00000000000E+00 -0.45593999997E+02  0.45594000000E+02  0.51100000000E-03 0.  1.
    9900012    2    1    2    0    0 -0.23537481129E+02 -0.32416196270E+02  0.69528845700E+01  0.50528863236E+02  0.30000010293E+02 0.  0.
        -12    1    1    2    0    0  0.23537481129E+02  0.32416196270E+02 -0.69528845700E+01  0.40659136764E+02  0.00000000000E+00 0.  1.
         11    1    3    3    0    0  0.18023280444E+01 -0.14966005536E+02 -0.52147797957E+01  0.15950662578E+02  0.51100000000E-03 0. -1.
        -11    1    3    3    0    0 -0.98070765039E+01 -0.58110700482E+01  0.97845165376E+01  0.15022784322E+02  0.51100000000E-03 0.  1.
         12    1    3    3    0    0 -0.15532732669E+02 -0.11639120685E+02  0.23831478280E+01  0.19555416336E+02  0.00000000000E+00 0. -1.
</event>
<event>
 7    1  0.9868142E-013  0.5052882E+02  0.7816164E-02  0.1300439E+00
        -11   -1    0    0    0    0  0.00000000000E+00  0.00000000000E+00  0.45593999997E+02  0.45594000000E+02  0.51100000000E-03 0.  1.
         11   -1    0    0    0    0 -0.00000000000E+00 -0.00000000000E+00 -0.45593999997E+02  0.45594000000E+02  0.51100000000E-03 0. -1.
    9900012    2    1    2    0    0  0.38261344133E+02 -0.10304740410E+02 -0.91131995064E+01  0.50528824713E+02  0.29999893198E+02 0.  0.
        -12    1    1    2    0    0 -0.38261344133E+02  0.10304740410E+02  0.91131995064E+01  0.40659175287E+02  0.00000000000E+00 0.  1.
         11    1    3    3    0    0  0.89005364453E+01 -0.11881591680E+02 -0.11872669429E+02  0.19009262203E+02  0.51100000000E-03 0.  1.
        -11    1    3    3    0    0  0.16957910580E+01 -0.19879828835E+00  0.33842682180E+01  0.37905803915E+01  0.51100000000E-03 0. -1.
         12    1    3    3    0    0  0.27665016629E+02  0.17756495586E+01 -0.62479829571E+00  0.27728982119E+02  0.00000000000E+00 0. -1.
</event>
<event>
 7    1  0.9868142E-013  0.5052884E+02  0.7816164E-02  0.1300439E+00
        -11   -1    0    0    0    0  0.00000000000E+00  0.00000000000E+00  0.45593999997E+02  0.45594000000E+02  0.51100000000E-03 0. -1.
         11   -1    0    0    0    0 -0.00000000000E+00 -0.00000000000E+00 -0.45593999997E+02  0.45594000000E+02  0.51100000000E-03 0.  1.
    9900012    2    1    2    0    0 -0.16840378648E+02  0.20424060415E+02 -0.30861404643E+02  0.50528844901E+02  0.29999954560E+02 0.  0.
        -12    1    1    2    0    0  0.16840378648E+02 -0.20424060415E+02  0.30861404643E+02  0.40659155099E+02  0.00000000000E+00 0.  1.
         11    1    3    3    0    0  0.69678402630E+01  0.10464535056E+02 -0.12358793305E+02  0.17629437429E+02  0.51100000000E-03 0. -1.
        -11    1    3    3    0    0 -0.12343824957E+02  0.15800872939E+01 -0.53570050563E+01  0.13548586415E+02  0.51100000000E-03 0.  1.
        -12    1    3    3    0    0 -0.11464393954E+02  0.83794380653E+01 -0.13145606282E+02  0.19350821056E+02  0.00000000000E+00 0.  1.
</event>
<event>
 7    1  0.9868142E-013  0.5052886E+02  0.7816164E-02  0.1300439E+00
        -11   -1    0    0    0    0  0.00000000000E+00  0.00000000000E+00  0.45593999997E+02  0.45594000000E+02  0.51100000000E-03 0.  1.
         11   -1    0    0    0    0 -0.00000000000E+00 -0.00000000000E+00 -0.45593999997E+02  0.45594000000E+02  0.51100000000E-03 0. -1.
    9900012    2    1    2    0    0 -0.28671262096E+02  0.21288376143E+02 -0.19440407039E+02  0.50528860132E+02  0.30000000858E+02 0.  0.
        -12    1    1    2    0    0  0.28671262096E+02 -0.21288376143E+02  0.19440407039E+02  0.40659139868E+02  0.00000000000E+00 0.  1.
         11    1    3    3    0    0 -0.97590968176E+01 -0.85441358374E+00 -0.25069619196E+01  0.10112114101E+02  0.51100000000E-03 0. -1.
        -11    1    3    3    0    0 -0.48159106956E+01  0.20744240209E+02 -0.49529403748E+01  0.21864311476E+02  0.51100000000E-03 0.  1.
        -12    1    3    3    0    0 -0.14096254582E+02  0.13985495178E+01 -0.11980504744E+02  0.18552434555E+02  0.00000000000E+00 0.  1.
</event>
<event>
 7    1  0.9868142E-013  0.5052886E+02  0.7816164E-02  0.1300439E+00
        -11   -1    0    0    0    0  0.00000000000E+00  0.00000000000E+00  0.45593999997E+02  0.45594000000E+02  0.51100000000E-03 0.  1.
         11   -1    0    0    0    0 -0.00000000000E+00 -0.00000000000E+00 -0.45593999997E+02  0.45594000000E+02  0.51100000000E-03 0. -1.
    9900012    2    1    2    0    0 -0.36530417429E+01  0.36454677458E+01 -0.40330279579E+02  0.50528860807E+02  0.30000002907E+02 0.  0.
        -12    1    1    2    0    0  0.36530417429E+01 -0.36454677458E+01  0.40330279579E+02  0.40659139193E+02  0.00000000000E+00 0.  1.
         11    1    3    3    0    0  0.14507991129E+01  0.82377825055E+01 -0.17462848835E+02  0.19362772745E+02  0.51100000000E-03 0. -1.
        -11    1    3    3    0    0 -0.89585679879E+01 -0.10307011251E+02 -0.11412739339E+02  0.17797220030E+02  0.51100000000E-03 0.  1.
        -12    1    3    3    0    0  0.38547271322E+01  0.57146964918E+01 -0.11454691404E+02  0.13368868031E+02  0.00000000000E+00 0.  1.
</event>
<event>
 7    1  0.9868142E-013  0.5052889E+02  0.7816164E-02  0.1300439E+00
        -11   -1    0    0    0    0  0.00000000000E+00  0.00000000000E+00  0.45593999997E+02  0.45594000000E+02  0.51100000000E-03 0. -1.
         11   -1    0    0    0    0 -0.00000000000E+00 -0.00000000000E+00 -0.45593999997E+02  0.45594000000E+02  0.51100000000E-03 0.  1.
    9900012    2    1    2    0    0  0.92488097032E+00  0.40244391467E+02 -0.57181047579E+01  0.50528890672E+02  0.30000093686E+02 0.  0.
        -12    1    1    2    0    0 -0.92488097032E+00 -0.40244391467E+02  0.57181047579E+01  0.40659109328E+02  0.00000000000E+00 0.  1.
         11    1    3    3    0    0  0.30223076303E+01  0.90194321713E+01  0.10886306332E+02  0.14456699690E+02  0.51100000000E-03 0. -1.
        -11    1    3    3    0    0  0.75467607450E+00  0.12102407937E+02 -0.97481728700E+01  0.15558428212E+02  0.51100000000E-03 0.  1.
         12    1    3    3    0    0 -0.28521027345E+01  0.19122551358E+02 -0.68562382198E+01  0.20513762770E+02  0.00000000000E+00 0. -1.
</event>
<event>
 7    1  0.9868142E-013  0.5052885E+02  0.7816164E-02  0.1300439E+00
        -11   -1    0    0    0    0  0.00000000000E+00  0.00000000000E+00  0.45593999997E+02  0.45594000000E+02  0.51100000000E-03 0. -1.
         11   -1    0    0    0    0 -0.00000000000E+00 -0.00000000000E+00 -0.45593999997E+02  0.45594000000E+02  0.51100000000E-03 0.  1.
    9900012    2    1    2    0    0 -0.16489968058E+02  0.33940778180E+02 -0.15141689739E+02  0.50528852958E+02  0.29999979052E+02 0.  0.
        -12    1    1    2    0    0  0.16489968058E+02 -0.33940778180E+02  0.15141689739E+02  0.40659147042E+02  0.00000000000E+00 0.  1.
         11    1    3    3    0    0 -0.15925216204E+02  0.73077255442E+01 -0.54418732963E+00  0.17530302447E+02  0.51100000000E-03 0. -1.
        -11    1    3    3    0    0  0.59796377457E+01  0.14323158271E+02 -0.92385232841E+01  0.18062647734E+02  0.51100000000E-03 0.  1.
         12    1    3    3    0    0 -0.65443895998E+01  0.12309894364E+02 -0.53589791257E+01  0.14935902777E+02  0.00000000000E+00 0. -1.
</event>
<event>
 7    1  0.9868142E-013  0.5052885E+02  0.7816164E-02  0.1300439E+00
        -11   -1    0    0    0    0  0.00000000000E+00  0.00000000000E+00  0.45593999997E+02  0.45594000000E+02  0.51100000000E-03 0.  1.
         11   -1    0    0    0    0 -0.00000000000E+00 -0.00000000000E+00 -0.45593999997E+02  0.45594000000E+02  0.51100000000E-03 0. -1.
    9900012    2    1    2    0    0  0.23727285362E+02 -0.22612983693E+02 -0.24058989390E+02  0.50528854994E+02  0.29999985239E+02 0.  0.
        -12    1    1    2    0    0 -0.23727285362E+02  0.22612983693E+02  0.24058989390E+02  0.40659145006E+02  0.00000000000E+00 0.  1.
         11    1    3    3    0    0  0.76076249919E+01 -0.30324470271E+01 -0.12565900703E+02  0.14999118432E+02  0.51100000000E-03 0. -1.
        -11    1    3    3    0    0  0.40901025124E+01 -0.19319249921E+02 -0.13518416191E+01  0.19793681621E+02  0.51100000000E-03 0.  1.
        -12    1    3    3    0    0  0.12029557858E+02 -0.26128674494E+00 -0.10141247067E+02  0.15736054941E+02  0.00000000000E+00 0.  1.
</event>
<event>
 7    1  0.9868142E-013  0.5052885E+02  0.7816164E-02  0.1300439E+00
        -11   -1    0    0    0    0  0.00000000000E+00  0.00000000000E+00  0.45593999997E+02  0.45594000000E+02  0.51100000000E-03 0. -1.
         11   -1    0    0    0    0 -0.00000000000E+00 -0.00000000000E+00 -0.45593999997E+02  0.45594000000E+02  0.51100000000E-03 0.  1.
    9900012    2    1    2    0    0  0.13952410537E+02  0.33478536909E+02  0.18376181746E+02  0.50528852825E+02  0.29999978648E+02 0.  0.
        -12    1    1    2    0    0 -0.13952410537E+02 -0.33478536909E+02 -0.18376181746E+02  0.40659147175E+02  0.00000000000E+00 0.  1.
         11    1    3    3    0    0  0.85167901105E+01  0.96469914696E+01 -0.60543062705E+01  0.14221630809E+02  0.51100000000E-03 0.  1.
        -11    1    3    3    0    0  0.45405495066E+01  0.40789028605E+01  0.10411948568E+02  0.12069080810E+02  0.51100000000E-03 0. -1.
         12    1    3    3    0    0  0.89507091991E+00  0.19752642579E+02  0.14018539449E+02  0.24238141206E+02  0.00000000000E+00 0. -1.
</event>
<event>
 7    1  0.9868142E-013  0.5052886E+02  0.7816164E-02  0.1300439E+00
        -11   -1    0    0    0    0  0.00000000000E+00  0.00000000000E+00  0.45593999997E+02  0.45594000000E+02  0.51100000000E-03 0.  1.
         11   -1    0    0    0    0 -0.00000000000E+00 -0.00000000000E+00 -0.45593999997E+02  0.45594000000E+02  0.51100000000E-03 0. -1.
    9900012    2    1    2    0    0  0.19484605963E+02  0.13859532566E+02 -0.32885085306E+02  0.50528863904E+02  0.30000012324E+02 0.  0.
        -12    1    1    2    0    0 -0.19484605963E+02 -0.13859532566E+02  0.32885085306E+02  0.40659136096E+02  0.00000000000E+00 0.  1.
         11    1    3    3    0    0 -0.12878112307E+01  0.10416797860E+02 -0.15790501228E+02  0.18960697896E+02  0.51100000000E-03 0. -1.
        -11    1    3    3    0    0  0.50502021232E+01 -0.22178843722E+01  0.22927163593E+01  0.59732822751E+01  0.51100000000E-03 0.  1.
        -12    1    3    3    0    0  0.15722215070E+02  0.56606190780E+01 -0.19387300437E+02  0.25594883733E+02  0.00000000000E+00 0.  1.
</event>
<event>
 7    1  0.9868142E-013  0.5052883E+02  0.7816164E-02  0.1300439E+00
        -11   -1    0    0    0    0  0.00000000000E+00  0.00000000000E+00  0.45593999997E+02  0.45594000000E+02  0.51100000000E-03 0. -1.
         11   -1    0    0    0    0 -0.00000000000E+00 -0.00000000000E+00 -0.45593999997E+02  0.45594000000E+02  0.51100000000E-03 0.  1.
    9900012    2    1    2    0    0  0.30146729716E+02  0.26617033625E+02  0.59896821528E+01  0.50528830261E+02  0.29999910060E+02 0.  0.
        -12    1    1    2    0    0 -0.30146729716E+02 -0.26617033625E+02 -0.59896821528E+01  0.40659169739E+02  0.00000000000E+00 0.  1.
         11    1    3    3    0    0 -0.82267243267E+00  0.66970740270E+01  0.25711313322E+01  0.72206860507E+01  0.51100000000E-03 0. -1.
        -11    1    3    3    0    0  0.24863419961E+02  0.99771436943E+01  0.11458723436E+02  0.29138211879E+02  0.51100000000E-03 0.  1.
        -12    1    3    3    0    0  0.61059821881E+01  0.99428159040E+01 -0.80401726153E+01  0.14169932331E+02  0.00000000000E+00 0.  1.
</event>
<event>
 7    1  0.9868142E-013  0.5052886E+02  0.7816164E-02  0.1300439E+00
        -11   -1    0    0    0    0  0.00000000000E+00  0.00000000000E+00  0.45593999997E+02  0.45594000000E+02  0.51100000000E-03 0. -1.
         11   -1    0    0    0    0 -0.00000000000E+00 -0.00000000000E+00 -0.45593999997E+02  0.45594000000E+02  0.51100000000E-03 0.  1.
    9900012    2    1    2    0    0  0.23731788264E+02 -0.16002147542E+01  0.32975857062E+02  0.50528860678E+02  0.30000002516E+02 0.  0.
        -12    1    1    2    0    0 -0.23731788264E+02  0.16002147542E+01 -0.32975857062E+02  0.40659139322E+02  0.00000000000E+00 0.  1.
         11    1    3    3    0    0  0.87765694276E+01  0.35297435753E+01 -0.53339687315E+00  0.94747967319E+01  0.51100000000E-03 0. -1.
        -11    1    3    3    0    0  0.39996359099E+01  0.31784757148E+01  0.23495113076E+02  0.24044128888E+02  0.51100000000E-03 0.  1.
        -12    1    3    3    0    0  0.10955582926E+02 -0.83084340443E+01  0.10014140859E+02  0.17009935058E+02  0.00000000000E+00 0.  1.
</event>
<event>
 7    1  0.9868142E-013  0.5052886E+02  0.7816164E-02  0.1300439E+00
        -11   -1    0    0    0    0  0.00000000000E+00  0.00000000000E+00  0.45593999997E+02  0.45594000000E+02  0.51100000000E-03 0.  1.
         11   -1    0    0    0    0 -0.00000000000E+00 -0.00000000000E+00 -0.45593999997E+02  0.45594000000E+02  0.51100000000E-03 0. -1.
    9900012    2    1    2    0    0  0.33074663092E+02  0.22088289822E+02 -0.84462895181E+01  0.50528859668E+02  0.29999999446E+02 0.  0.
        -12    1    1    2    0    0 -0.33074663092E+02 -0.22088289822E+02  0.84462895181E+01  0.40659140332E+02  0.00000000000E+00 0.  1.
         11    1    3    3    0    0  0.96168805140E+01  0.18710744072E+02 -0.15975293536E+01  0.21098067088E+02  0.51100000000E-03 0. -1.
        -11    1    3    3    0    0  0.17721695012E+02 -0.38678032731E+01 -0.85193640360E+01  0.20039908685E+02  0.51100000000E-03 0.  1.
        -12    1    3    3    0    0  0.57360875664E+01  0.72453490235E+01  0.16706038715E+01  0.93908838954E+01  0.00000000000E+00 0.  1.
</event>
<event>
 7    1  0.9868142E-013  0.5052885E+02  0.7816164E-02  0.1300439E+00
        -11   -1    0    0    0    0  0.00000000000E+00  0.00000000000E+00  0.45593999997E+02  0.45594000000E+02  0.51100000000E-03 0.  1.
         11   -1    0    0    0    0 -0.00000000000E+00 -0.00000000000E+00 -0.45593999997E+02  0.45594000000E+02  0.51100000000E-03 0. -1.
    9900012    2    1    2    0    0 -0.23165547271E+02 -0.32821971148E+02  0.62643225326E+01  0.50528854569E+02  0.29999983947E+02 0.  0.
        -12    1    1    2    0    0  0.23165547271E+02  0.32821971148E+02 -0.62643225326E+01  0.40659145431E+02  0.00000000000E+00 0.  1.
         11    1    3    3    0    0 -0.96235296007E+01 -0.17498779533E+02  0.91102038492E+01  0.21950294339E+02  0.51100000000E-03 0. -1.
        -11    1    3    3    0    0  0.33908821661E+00 -0.92426883248E+01 -0.83450314468E+01  0.12457199460E+02  0.51100000000E-03 0.  1.
        -12    1    3    3    0    0 -0.13881105887E+02 -0.60805032902E+01  0.54991501301E+01  0.16121360770E+02  0.00000000000E+00 0.  1.
</event>
<event>
 7    1  0.9868142E-013  0.5052886E+02  0.7816164E-02  0.1300439E+00
        -11   -1    0    0    0    0  0.00000000000E+00  0.00000000000E+00  0.45593999997E+02  0.45594000000E+02  0.51100000000E-03 0.  1.
         11   -1    0    0    0    0 -0.00000000000E+00 -0.00000000000E+00 -0.45593999997E+02  0.45594000000E+02  0.51100000000E-03 0. -1.
    9900012    2    1    2    0    0  0.40405993412E+02  0.42026320509E+01  0.16909929043E+01  0.50528857402E+02  0.29999992560E+02 0.  0.
        -12    1    1    2    0    0 -0.40405993412E+02 -0.42026320509E+01 -0.16909929043E+01  0.40659142598E+02  0.00000000000E+00 0.  1.
         11    1    3    3    0    0  0.28405747240E+02  0.11805359357E+02  0.47409964157E+01  0.31124428237E+02  0.51100000000E-03 0. -1.
        -11    1    3    3    0    0  0.14503701614E+02 -0.65523387257E+01 -0.89859981590E+00  0.15940451223E+02  0.51100000000E-03 0.  1.
         12    1    3    3    0    0 -0.25034554424E+01 -0.10503885804E+01 -0.21514036956E+01  0.34639779421E+01  0.00000000000E+00 0. -1.
</event>
<event>
 7    1  0.9868142E-013  0.5052886E+02  0.7816164E-02  0.1300439E+00
        -11   -1    0    0    0    0  0.00000000000E+00  0.00000000000E+00  0.45593999997E+02  0.45594000000E+02  0.51100000000E-03 0. -1.
         11   -1    0    0    0    0 -0.00000000000E+00 -0.00000000000E+00 -0.45593999997E+02  0.45594000000E+02  0.51100000000E-03 0.  1.
    9900012    2    1    2    0    0  0.54902093985E+01 -0.12870303366E+02  0.38175622615E+02  0.50528864864E+02  0.30000015240E+02 0.  0.
        -12    1    1    2    0    0 -0.54902093985E+01  0.12870303366E+02 -0.38175622615E+02  0.40659135136E+02  0.00000000000E+00 0.  1.
         11    1    3    3    0    0  0.32723282084E+01 -0.69474713958E+01  0.82372630429E+01  0.11261793525E+02  0.51100000000E-03 0. -1.
        -11    1    3    3    0    0 -0.96242164249E+01  0.22738189364E+01  0.18094025234E+02  0.20620124727E+02  0.51100000000E-03 0.  1.
        -12    1    3    3    0    0  0.11842097615E+02 -0.81966509068E+01  0.11844334338E+02  0.18646946612E+02  0.00000000000E+00 0.  1.
</event>
<event>
 7    1  0.9868142E-013  0.5052887E+02  0.7816164E-02  0.1300439E+00
        -11   -1    0    0    0    0  0.00000000000E+00  0.00000000000E+00  0.45593999997E+02  0.45594000000E+02  0.51100000000E-03 0.  1.
         11   -1    0    0    0    0 -0.00000000000E+00 -0.00000000000E+00 -0.45593999997E+02  0.45594000000E+02  0.51100000000E-03 0. -1.
    9900012    2    1    2    0    0  0.16332365346E+02  0.36016400333E+02  0.94465739426E+01  0.50528868061E+02  0.30000024959E+02 0.  0.
        -12    1    1    2    0    0 -0.16332365346E+02 -0.36016400333E+02 -0.94465739426E+01  0.40659131939E+02  0.00000000000E+00 0.  1.
         11    1    3    3    0    0  0.18667762872E+02  0.38046634783E+02  0.34044758082E+01  0.42516140990E+02  0.51100000000E-03 0. -1.
        -11    1    3    3    0    0  0.15104799476E+00 -0.90888140545E+00  0.50137567172E+01  0.50977090528E+01  0.51100000000E-03 0.  1.
         12    1    3    3    0    0 -0.24864455208E+01 -0.11213530440E+01  0.10283414172E+01  0.29150180183E+01  0.00000000000E+00 0. -1.
</event>
<event>
 7    1  0.9868142E-013  0.5052886E+02  0.7816164E-02  0.1300439E+00
        -11   -1    0    0    0    0  0.00000000000E+00  0.00000000000E+00  0.45593999997E+02  0.45594000000E+02  0.51100000000E-03 0.  1.
         11   -1    0    0    0    0 -0.00000000000E+00 -0.00000000000E+00 -0.45593999997E+02  0.45594000000E+02  0.51100000000E-03 0. -1.
    9900012    2    1    2    0    0  0.22113131915E+02  0.15378292648E+02 -0.30457893134E+02  0.50528859059E+02  0.29999997596E+02 0.  0.
        -12    1    1    2    0    0 -0.22113131915E+02 -0.15378292648E+02  0.30457893134E+02  0.40659140941E+02  0.00000000000E+00 0.  1.
         11    1    3    3    0    0  0.12771474538E+02  0.64139292547E+01 -0.33911855906E+02  0.36800312792E+02  0.51100000000E-03 0. -1.
        -11    1    3    3    0    0  0.75512510068E+01  0.64257782272E+01  0.37662601593E+01  0.10606447730E+02  0.51100000000E-03 0.  1.
         12    1    3    3    0    0  0.17904063706E+01  0.25385851661E+01 -0.31229738729E+00  0.31220985371E+01  0.00000000000E+00 0. -1.
</event>
<event>
 7    1  0.9868142E-013  0.5052887E+02  0.7816164E-02  0.1300439E+00
        -11   -1    0    0    0    0  0.00000000000E+00  0.00000000000E+00  0.45593999997E+02  0.45594000000E+02  0.51100000000E-03 0.  1.
         11   -1    0    0    0    0 -0.00000000000E+00 -0.00000000000E+00 -0.45593999997E+02  0.45594000000E+02  0.51100000000E-03 0. -1.
    9900012    2    1    2    0    0  0.96512681361E+01  0.39446886446E+02  0.19902947416E+01  0.50528866954E+02  0.30000021593E+02 0.  0.
        -12    1    1    2    0    0 -0.96512681361E+01 -0.39446886446E+02 -0.19902947416E+01  0.40659133046E+02  0.00000000000E+00 0.  1.
         11    1    3    3    0    0  0.19706624386E+02  0.23937331375E+02  0.57446610505E+01  0.31533284144E+02  0.51100000000E-03 0. -1.
        -11    1    3    3    0    0 -0.26711300056E+01  0.28567703638E+01 -0.17596662981E+00  0.39149759813E+01  0.51100000000E-03 0.  1.
         12    1    3    3    0    0 -0.73842262443E+01  0.12652784706E+02 -0.35783996791E+01  0.15080606829E+02  0.00000000000E+00 0. -1.
</event>
<event>
 7    1  0.9868142E-013  0.5052883E+02  0.7816164E-02  0.1300439E+00
        -11   -1    0    0    0    0  0.00000000000E+00  0.00000000000E+00  0.45593999997E+02  0.45594000000E+02  0.51100000000E-03 0. -1.
         11   -1    0    0    0    0 -0.00000000000E+00 -0.00000000000E+00 -0.45593999997E+02  0.45594000000E+02  0.51100000000E-03 0.  1.
    9900012    2    1    2    0    0 -0.75782138677E+00  0.37693288235E+02  0.15225311440E+02  0.50528826624E+02  0.29999899005E+02 0.  0.
        -12    1    1    2    0    0  0.75782138677E+00 -0.37693288235E+02 -0.15225311440E+02  0.40659173376E+02  0.00000000000E+00 0.  1.
         11    1    3    3    0    0  0.77464877303E+01  0.71911259810E-01  0.38180709900E+01  0.86366029046E+01  0.51100000000E-03 0. -1.
        -11    1    3    3    0    0 -0.64097464248E+01  0.22190678645E+02  0.91670463866E+00  0.23116042386E+02  0.51100000000E-03 0.  1.
         12    1    3    3    0    0 -0.20945626923E+01  0.15430698330E+02  0.10490535811E+02  0.18776181333E+02  0.00000000000E+00 0. -1.
</event>
<event>
 7    1  0.9868142E-013  0.5052886E+02  0.7816164E-02  0.1300439E+00
        -11   -1    0    0    0    0  0.00000000000E+00  0.00000000000E+00  0.45593999997E+02  0.45594000000E+02  0.51100000000E-03 0.  1.
         11   -1    0    0    0    0 -0.00000000000E+00 -0.00000000000E+00 -0.45593999997E+02  0.45594000000E+02  0.51100000000E-03 0. -1.
    9900012    2    1    2    0    0  0.35663410339E+02 -0.13425785708E+02 -0.14178681546E+02  0.50528861184E+02  0.30000004055E+02 0.  0.
        -12    1    1    2    0    0 -0.35663410339E+02  0.13425785708E+02  0.14178681546E+02  0.40659138816E+02  0.00000000000E+00 0.  1.
         11    1    3    3    0    0  0.16520997348E+02 -0.41123008277E+01 -0.16837440526E+01  0.17108166639E+02  0.51100000000E-03 0. -1.
        -11    1    3    3    0    0 -0.15705102202E+01  0.11353456126E+01 -0.98872638733E+01  0.10075390770E+02  0.51100000000E-03 0.  1.
        -12    1    3    3    0    0  0.20712923211E+02 -0.10448830493E+02 -0.26076736196E+01  0.23345303775E+02  0.00000000000E+00 0.  1.
</event>
<event>
 7    1  0.9868142E-013  0.5052886E+02  0.7816164E-02  0.1300439E+00
        -11   -1    0    0    0    0  0.00000000000E+00  0.00000000000E+00  0.45593999997E+02  0.45594000000E+02  0.51100000000E-03 0.  1.
         11   -1    0    0    0    0 -0.00000000000E+00 -0.00000000000E+00 -0.45593999997E+02  0.45594000000E+02  0.51100000000E-03 0. -1.
    9900012    2    1    2    0    0 -0.93912022710E+01  0.12256981523E+02 -0.37612997376E+02  0.50528857759E+02  0.29999993645E+02 0.  0.
        -12    1    1    2    0    0  0.93912022710E+01 -0.12256981523E+02  0.37612997376E+02  0.40659142241E+02  0.00000000000E+00 0.  1.
         11    1    3    3    0    0  0.68309592400E+00 -0.44048441748E+01 -0.14604504875E+02  0.15269604944E+02  0.51100000000E-03 0. -1.
        -11    1    3    3    0    0 -0.44443378773E+01  0.19528930469E+02 -0.14811972582E+02  0.24910355205E+02  0.51100000000E-03 0.  1.
        -12    1    3    3    0    0 -0.56299603177E+01 -0.28671047714E+01 -0.81965199194E+01  0.10348897610E+02  0.00000000000E+00 0.  1.
</event>
<event>
 7    1  0.9868142E-013  0.5052887E+02  0.7816164E-02  0.1300439E+00
        -11   -1    0    0    0    0  0.00000000000E+00  0.00000000000E+00  0.45593999997E+02  0.45594000000E+02  0.51100000000E-03 0.  1.
         11   -1    0    0    0    0 -0.00000000000E+00 -0.00000000000E+00 -0.45593999997E+02  0.45594000000E+02  0.51100000000E-03 0. -1.
    9900012    2    1    2    0    0  0.32013129073E+02 -0.78898735209E+01 -0.23792324743E+02  0.50528865062E+02  0.30000015842E+02 0.  0.
        -12    1    1    2    0    0 -0.32013129073E+02  0.78898735209E+01  0.23792324743E+02  0.40659134938E+02  0.00000000000E+00 0.  1.
         11    1    3    3    0    0  0.22890906633E+02 -0.10532265785E+02 -0.50823496669E+01  0.25705106641E+02  0.51100000000E-03 0. -1.
        -11    1    3    3    0    0  0.14673734164E+00 -0.44572961678E+01 -0.79515000768E+01  0.91167633899E+01  0.51100000000E-03 0.  1.
         12    1    3    3    0    0  0.89754850987E+01  0.70996884317E+01 -0.10758474999E+02  0.15706995031E+02  0.00000000000E+00 0. -1.
</event>
<event>
 7    1  0.9868142E-013  0.5052885E+02  0.7816164E-02  0.1300439E+00
        -11   -1    0    0    0    0  0.00000000000E+00  0.00000000000E+00  0.45593999997E+02  0.45594000000E+02  0.51100000000E-03 0.  1.
         11   -1    0    0    0    0 -0.00000000000E+00 -0.00000000000E+00 -0.45593999997E+02  0.45594000000E+02  0.51100000000E-03 0. -1.
    9900012    2    1    2    0    0  0.37744930162E+02 -0.53282633552E+01 -0.14145539685E+02  0.50528850522E+02  0.29999971646E+02 0.  0.
        -12    1    1    2    0    0 -0.37744930162E+02  0.53282633552E+01  0.14145539685E+02  0.40659149478E+02  0.00000000000E+00 0.  1.
         11    1    3    3    0    0  0.72355696335E+01  0.80094447023E+00 -0.10879799447E+02  0.13090646135E+02  0.51100000000E-03 0. -1.
        -11    1    3    3    0    0  0.20193597096E+02 -0.56173542941E+01  0.77411995034E+01  0.22344176041E+02  0.51100000000E-03 0.  1.
        -12    1    3    3    0    0  0.10315763433E+02 -0.51185353130E+00 -0.11006939742E+02  0.15094028346E+02  0.00000000000E+00 0.  1.
</event>
<event>
 7    1  0.9868142E-013  0.5052883E+02  0.7816164E-02  0.1300439E+00
        -11   -1    0    0    0    0  0.00000000000E+00  0.00000000000E+00  0.45593999997E+02  0.45594000000E+02  0.51100000000E-03 0.  1.
         11   -1    0    0    0    0 -0.00000000000E+00 -0.00000000000E+00 -0.45593999997E+02  0.45594000000E+02  0.51100000000E-03 0. -1.
    9900012    2    1    2    0    0  0.73962438350E+01 -0.39872120557E+02 -0.29457986791E+01  0.50528829443E+02  0.29999907574E+02 0.  0.
        -12    1    1    2    0    0 -0.73962438350E+01  0.39872120557E+02  0.29457986791E+01  0.40659170557E+02  0.00000000000E+00 0.  1.
         11    1    3    3    0    0 -0.12886552755E+01 -0.36292780885E+02  0.16607640643E+01  0.36353606621E+02  0.51100000000E-03 0. -1.
        -11    1    3    3    0    0 -0.20124091254E+01  0.28090614158E+00 -0.62482251788E+00  0.21258180045E+01  0.51100000000E-03 0.  1.
         12    1    3    3    0    0  0.10697308236E+02 -0.38602458131E+01 -0.39817402255E+01  0.12049404817E+02  0.00000000000E+00 0. -1.
</event>
<event>
 7    1  0.9868142E-013  0.5052886E+02  0.7816164E-02  0.1300439E+00
        -11   -1    0    0    0    0  0.00000000000E+00  0.00000000000E+00  0.45593999997E+02  0.45594000000E+02  0.51100000000E-03 0.  1.
         11   -1    0    0    0    0 -0.00000000000E+00 -0.00000000000E+00 -0.45593999997E+02  0.45594000000E+02  0.51100000000E-03 0. -1.
    9900012    2    1    2    0    0  0.14054271983E+02  0.33853569945E+02 -0.17594858176E+02  0.50528858430E+02  0.29999995685E+02 0.  0.
        -12    1    1    2    0    0 -0.14054271983E+02 -0.33853569945E+02  0.17594858176E+02  0.40659141570E+02  0.00000000000E+00 0.  1.
         11    1    3    3    0    0 -0.15818648173E+01  0.24649746067E+02 -0.38747731130E+01  0.25002522761E+02  0.51100000000E-03 0. -1.
        -11    1    3    3    0    0  0.11794238825E+02  0.42441583612E+00 -0.61141609750E+01  0.13291620028E+02  0.51100000000E-03 0.  1.
        -12    1    3    3    0    0  0.38418979751E+01  0.87794080415E+01 -0.76059240877E+01  0.12234715642E+02  0.00000000000E+00 0.  1.
</event>
<event>
 7    1  0.9868142E-013  0.5052886E+02  0.7816164E-02  0.1300439E+00
        -11   -1    0    0    0    0  0.00000000000E+00  0.00000000000E+00  0.45593999997E+02  0.45594000000E+02  0.51100000000E-03 0.  1.
         11   -1    0    0    0    0 -0.00000000000E+00 -0.00000000000E+00 -0.45593999997E+02  0.45594000000E+02  0.51100000000E-03 0. -1.
    9900012    2    1    2    0    0  0.40078774932E+02  0.65414273714E+01  0.20167842663E+01  0.50528857229E+02  0.29999992032E+02 0.  0.
        -12    1    1    2    0    0 -0.40078774932E+02 -0.65414273714E+01 -0.20167842663E+01  0.40659142771E+02  0.00000000000E+00 0.  1.
         11    1    3    3    0    0  0.17580030841E+01  0.83841101545E+00  0.81227184563E+01  0.83529673324E+01  0.51100000000E-03 0.  1.
        -11    1    3    3    0    0  0.13167851286E+02  0.89251689164E+01 -0.54287060737E+01  0.16808384740E+02  0.51100000000E-03 0. -1.
        -12    1    3    3    0    0  0.25152920562E+02 -0.32221525605E+01 -0.67722811625E+00  0.25367505156E+02  0.00000000000E+00 0.  1.
</event>
<event>
 7    1  0.9868142E-013  0.5052887E+02  0.7816164E-02  0.1300439E+00
        -11   -1    0    0    0    0  0.00000000000E+00  0.00000000000E+00  0.45593999997E+02  0.45594000000E+02  0.51100000000E-03 0.  1.
         11   -1    0    0    0    0 -0.00000000000E+00 -0.00000000000E+00 -0.45593999997E+02  0.45594000000E+02  0.51100000000E-03 0. -1.
    9900012    2    1    2    0    0  0.73223624878E+01 -0.36834341647E+02  0.15581376576E+02  0.50528868025E+02  0.30000024849E+02 0.  0.
        -12    1    1    2    0    0 -0.73223624878E+01  0.36834341647E+02 -0.15581376576E+02  0.40659131975E+02  0.00000000000E+00 0.  1.
         11    1    3    3    0    0  0.52893681658E+01 -0.29875922654E+02  0.11410161434E+02  0.32415119223E+02  0.51100000000E-03 0. -1.
        -11    1    3    3    0    0 -0.43377222948E+01  0.27180305010E+01  0.40507585913E+01  0.65277997777E+01  0.51100000000E-03 0.  1.
        -12    1    3    3    0    0  0.63707166168E+01 -0.96764494937E+01  0.12045655088E+00  0.11585949024E+02  0.00000000000E+00 0.  1.
</event>
<event>
 7    1  0.9868142E-013  0.5052886E+02  0.7816164E-02  0.1300439E+00
        -11   -1    0    0    0    0  0.00000000000E+00  0.00000000000E+00  0.45593999997E+02  0.45594000000E+02  0.51100000000E-03 0.  1.
         11   -1    0    0    0    0 -0.00000000000E+00 -0.00000000000E+00 -0.45593999997E+02  0.45594000000E+02  0.51100000000E-03 0. -1.
    9900012    2    1    2    0    0 -0.33238993133E+02  0.16311462217E+02 -0.16800920190E+02  0.50528863470E+02  0.30000011003E+02 0.  0.
        -12    1    1    2    0    0  0.33238993133E+02 -0.16311462217E+02  0.16800920190E+02  0.40659136530E+02  0.00000000000E+00 0.  1.
         11    1    3    3    0    0 -0.94328153021E+01  0.15128048230E+01 -0.19019888137E+02  0.21284330573E+02  0.51100000000E-03 0. -1.
        -11    1    3    3    0    0 -0.24097955244E+02  0.14200768484E+02  0.30981632504E+01  0.28141995101E+02  0.51100000000E-03 0.  1.
        -12    1    3    3    0    0  0.29177741340E+00  0.59788890965E+00 -0.87919530403E+00  0.11025377952E+01  0.00000000000E+00 0.  1.
</event>
<event>
 7    1  0.9868142E-013  0.5052886E+02  0.7816164E-02  0.1300439E+00
        -11   -1    0    0    0    0  0.00000000000E+00  0.00000000000E+00  0.45593999997E+02  0.45594000000E+02  0.51100000000E-03 0. -1.
         11   -1    0    0    0    0 -0.00000000000E+00 -0.00000000000E+00 -0.45593999997E+02  0.45594000000E+02  0.51100000000E-03 0.  1.
    9900012    2    1    2    0    0 -0.67529965290E+01  0.38688146966E+02  0.10525670111E+02  0.50528863154E+02  0.30000010044E+02 0.  0.
        -12    1    1    2    0    0  0.67529965290E+01 -0.38688146966E+02 -0.10525670111E+02  0.40659136846E+02  0.00000000000E+00 0.  1.
         11    1    3    3    0    0 -0.55136929341E+01  0.18677467461E+02  0.15641264007E+02  0.24977945082E+02  0.51100000000E-03 0. -1.
        -11    1    3    3    0    0  0.40180667842E+01  0.13253368948E+01 -0.44330114736E+01  0.61280477767E+01  0.51100000000E-03 0.  1.
         12    1    3    3    0    0 -0.52573703792E+01  0.18685342609E+02 -0.68258242240E+00  0.19422870295E+02  0.00000000000E+00 0. -1.
</event>
<event>
 7    1  0.9868142E-013  0.5052887E+02  0.7816164E-02  0.1300439E+00
        -11   -1    0    0    0    0  0.00000000000E+00  0.00000000000E+00  0.45593999997E+02  0.45594000000E+02  0.51100000000E-03 0.  1.
         11   -1    0    0    0    0 -0.00000000000E+00 -0.00000000000E+00 -0.45593999997E+02  0.45594000000E+02  0.51100000000E-03 0. -1.
    9900012    2    1    2    0    0  0.57309301957E+01 -0.24143641468E+02 -0.32208790391E+02  0.50528866184E+02  0.30000019252E+02 0.  0.
        -12    1    1    2    0    0 -0.57309301957E+01  0.24143641468E+02  0.32208790391E+02  0.40659133816E+02  0.00000000000E+00 0.  1.
         11    1    3    3    0    0  0.93496191468E+01  0.10680900170E+01 -0.15841284988E+02  0.18425593743E+02  0.51100000000E-03 0. -1.
        -11    1    3    3    0    0 -0.63451523019E+01 -0.10357828114E+02 -0.99184401001E+01  0.15681868998E+02  0.51100000000E-03 0.  1.
         12    1    3    3    0    0  0.27264633508E+01 -0.14853903371E+02 -0.64490653031E+01  0.16421403443E+02  0.00000000000E+00 0. -1.
</event>
<event>
 7    1  0.9868142E-013  0.5052886E+02  0.7816164E-02  0.1300439E+00
        -11   -1    0    0    0    0  0.00000000000E+00  0.00000000000E+00  0.45593999997E+02  0.45594000000E+02  0.51100000000E-03 0.  1.
         11   -1    0    0    0    0 -0.00000000000E+00 -0.00000000000E+00 -0.45593999997E+02  0.45594000000E+02  0.51100000000E-03 0. -1.
    9900012    2    1    2    0    0 -0.21404599522E+01  0.16261726949E+02 -0.37204037489E+02  0.50528859113E+02  0.29999997761E+02 0.  0.
        -12    1    1    2    0    0  0.21404599522E+01 -0.16261726949E+02  0.37204037489E+02  0.40659140887E+02  0.00000000000E+00 0.  1.
         11    1    3    3    0    0 -0.61285137187E+01  0.13603676013E+02 -0.31867266773E+02  0.35187233101E+02  0.51100000000E-03 0. -1.
        -11    1    3    3    0    0  0.81533856313E+01  0.12035536825E+00 -0.63802920331E+01  0.10353758224E+02  0.51100000000E-03 0.  1.
        -12    1    3    3    0    0 -0.41653318648E+01  0.25376955674E+01  0.10435213170E+01  0.49878677885E+01  0.00000000000E+00 0.  1.
</event>
<event>
 7    1  0.9868142E-013  0.5052885E+02  0.7816164E-02  0.1300439E+00
        -11   -1    0    0    0    0  0.00000000000E+00  0.00000000000E+00  0.45593999997E+02  0.45594000000E+02  0.51100000000E-03 0.  1.
         11   -1    0    0    0    0 -0.00000000000E+00 -0.00000000000E+00 -0.45593999997E+02  0.45594000000E+02  0.51100000000E-03 0. -1.
    9900012    2    1    2    0    0 -0.20937715784E+02  0.61662513531E+01 -0.34303880078E+02  0.50528846217E+02  0.29999958560E+02 0.  0.
        -12    1    1    2    0    0  0.20937715784E+02 -0.61662513531E+01  0.34303880078E+02  0.40659153783E+02  0.00000000000E+00 0.  1.
         11    1    3    3    0    0 -0.30656486476E+01  0.40851324599E+01 -0.44683324292E+01  0.67861995111E+01  0.51100000000E-03 0. -1.
        -11    1    3    3    0    0 -0.13347460191E+02 -0.81102328874E+01 -0.48049278969E+01  0.16340682464E+02  0.51100000000E-03 0.  1.
        -12    1    3    3    0    0 -0.45246069450E+01  0.10191351781E+02 -0.25030619752E+02  0.27401964241E+02  0.00000000000E+00 0.  1.
</event>
<event>
 7    1  0.9868142E-013  0.5052887E+02  0.7816164E-02  0.1300439E+00
        -11   -1    0    0    0    0  0.00000000000E+00  0.00000000000E+00  0.45593999997E+02  0.45594000000E+02  0.51100000000E-03 0. -1.
         11   -1    0    0    0    0 -0.00000000000E+00 -0.00000000000E+00 -0.45593999997E+02  0.45594000000E+02  0.51100000000E-03 0.  1.
    9900012    2    1    2    0    0  0.53529045381E+01 -0.38938203641E+02  0.10408036362E+02  0.50528874202E+02  0.30000043623E+02 0.  0.
        -12    1    1    2    0    0 -0.53529045381E+01  0.38938203641E+02 -0.10408036362E+02  0.40659125798E+02  0.00000000000E+00 0.  1.
         11    1    3    3    0    0 -0.44886183583E+01 -0.18766185057E+02  0.98343476914E+01  0.21657141805E+02  0.51100000000E-03 0. -1.
        -11    1    3    3    0    0  0.75077209252E+01 -0.18158206508E+00  0.39164818811E+01  0.84698096863E+01  0.51100000000E-03 0.  1.
         12    1    3    3    0    0  0.23338019713E+01 -0.19990436518E+02 -0.33427932102E+01  0.20401922711E+02  0.00000000000E+00 0. -1.
</event>
<event>
 7    1  0.9868142E-013  0.5052888E+02  0.7816164E-02  0.1300439E+00
        -11   -1    0    0    0    0  0.00000000000E+00  0.00000000000E+00  0.45593999997E+02  0.45594000000E+02  0.51100000000E-03 0.  1.
         11   -1    0    0    0    0 -0.00000000000E+00 -0.00000000000E+00 -0.45593999997E+02  0.45594000000E+02  0.51100000000E-03 0. -1.
    9900012    2    1    2    0    0 -0.27732840485E+02  0.12477171369E+02 -0.26988399066E+02  0.50528881332E+02  0.30000065297E+02 0.  0.
        -12    1    1    2    0    0  0.27732840485E+02 -0.12477171369E+02  0.26988399066E+02  0.40659118668E+02  0.00000000000E+00 0.  1.
         11    1    3    3    0    0 -0.70646638601E+01  0.11540289106E+02 -0.21592951896E+02  0.25482215758E+02  0.51100000000E-03 0. -1.
        -11    1    3    3    0    0 -0.15174136161E+02 -0.52937157611E+01 -0.25874102094E+01  0.16277976737E+02  0.51100000000E-03 0.  1.
        -12    1    3    3    0    0 -0.54940404633E+01  0.62305980238E+01 -0.28080369602E+01  0.87686888368E+01  0.00000000000E+00 0.  1.
</event>
<event>
 7    1  0.9868142E-013  0.5052886E+02  0.7816164E-02  0.1300439E+00
        -11   -1    0    0    0    0  0.00000000000E+00  0.00000000000E+00  0.45593999997E+02  0.45594000000E+02  0.51100000000E-03 0. -1.
         11   -1    0    0    0    0 -0.00000000000E+00 -0.00000000000E+00 -0.45593999997E+02  0.45594000000E+02  0.51100000000E-03 0.  1.
    9900012    2    1    2    0    0 -0.64827474543E+01 -0.95524847941E+01  0.38985765045E+02  0.50528857652E+02  0.29999993320E+02 0.  0.
        -12    1    1    2    0    0  0.64827474543E+01  0.95524847941E+01 -0.38985765045E+02  0.40659142348E+02  0.00000000000E+00 0.  1.
         11    1    3    3    0    0 -0.14980139881E+02 -0.31289697475E+01  0.31446094082E+02  0.34972158581E+02  0.51100000000E-03 0. -1.
        -11    1    3    3    0    0  0.85480696876E+01 -0.81894775798E+01  0.64520026307E+01  0.13482039038E+02  0.51100000000E-03 0.  1.
         12    1    3    3    0    0 -0.50677261427E-01  0.17659625332E+01  0.10876683326E+01  0.20746600337E+01  0.00000000000E+00 0. -1.
</event>
<event>
 7    1  0.9868142E-013  0.5052886E+02  0.7816164E-02  0.1300439E+00
        -11   -1    0    0    0    0  0.00000000000E+00  0.00000000000E+00  0.45593999997E+02  0.45594000000E+02  0.51100000000E-03 0.  1.
         11   -1    0    0    0    0 -0.00000000000E+00 -0.00000000000E+00 -0.45593999997E+02  0.45594000000E+02  0.51100000000E-03 0. -1.
    9900012    2    1    2    0    0 -0.78608414415E+01 -0.33134071250E+02 -0.22215006017E+02  0.50528855910E+02  0.29999988025E+02 0.  0.
        -12    1    1    2    0    0  0.78608414415E+01  0.33134071250E+02  0.22215006017E+02  0.40659144090E+02  0.00000000000E+00 0.  1.
         11    1    3    3    0    0  0.40659930501E+01 -0.67636722553E+01 -0.15407231488E+02  0.17310758049E+02  0.51100000000E-03 0.  1.
        -11    1    3    3    0    0 -0.11273414958E+02 -0.25609125436E+02 -0.10122117916E+02  0.29755242593E+02  0.51100000000E-03 0. -1.
         12    1    3    3    0    0 -0.65341953332E+00 -0.76127355920E+00  0.33143433871E+01  0.34628552679E+01  0.00000000000E+00 0. -1.
</event>
<event>
 7    1  0.9868142E-013  0.5052875E+02  0.7816164E-02  0.1300439E+00
        -11   -1    0    0    0    0  0.00000000000E+00  0.00000000000E+00  0.45593999997E+02  0.45594000000E+02  0.51100000000E-03 0.  1.
         11   -1    0    0    0    0 -0.00000000000E+00 -0.00000000000E+00 -0.45593999997E+02  0.45594000000E+02  0.51100000000E-03 0. -1.
    9900012    2    1    2    0    0 -0.27016848797E+02  0.29484885389E+02 -0.73420674365E+01  0.50528750873E+02  0.29999668751E+02 0.  0.
        -12    1    1    2    0    0  0.27016848797E+02 -0.29484885389E+02  0.73420674365E+01  0.40659249127E+02  0.00000000000E+00 0.  1.
         11    1    3    3    0    0 -0.78431129155E+01  0.10207319137E+02 -0.24026543471E+01  0.13094904824E+02  0.51100000000E-03 0. -1.
        -11    1    3    3    0    0 -0.15943441381E+01 -0.53202859101E+01  0.28073701716E+01  0.62232389427E+01  0.51100000000E-03 0.  1.
        -12    1    3    3    0    0 -0.17579391744E+02  0.24597852162E+02 -0.77467832609E+01  0.31210607107E+02  0.00000000000E+00 0.  1.
</event>
<event>
 7    1  0.9868142E-013  0.5052886E+02  0.7816164E-02  0.1300439E+00
        -11   -1    0    0    0    0  0.00000000000E+00  0.00000000000E+00  0.45593999997E+02  0.45594000000E+02  0.51100000000E-03 0. -1.
         11   -1    0    0    0    0 -0.00000000000E+00 -0.00000000000E+00 -0.45593999997E+02  0.45594000000E+02  0.51100000000E-03 0.  1.
    9900012    2    1    2    0    0 -0.37569306366E+02  0.10734353758E+02 -0.11246625992E+02  0.50528859237E+02  0.29999998135E+02 0.  0.
        -12    1    1    2    0    0  0.37569306366E+02 -0.10734353758E+02  0.11246625992E+02  0.40659140763E+02  0.00000000000E+00 0.  1.
         11    1    3    3    0    0 -0.27490101014E+02 -0.13903609155E+01 -0.69281953194E+01  0.28383774377E+02  0.51100000000E-03 0. -1.
        -11    1    3    3    0    0 -0.75966922888E+01  0.15082353693E+02 -0.77660747231E+00  0.16905331883E+02  0.51100000000E-03 0.  1.
        -12    1    3    3    0    0 -0.24825130632E+01 -0.29576390193E+01 -0.35418232001E+01  0.52397529768E+01  0.00000000000E+00 0.  1.
</event>
<event>
 7    1  0.9868142E-013  0.5052887E+02  0.7816164E-02  0.1300439E+00
        -11   -1    0    0    0    0  0.00000000000E+00  0.00000000000E+00  0.45593999997E+02  0.45594000000E+02  0.51100000000E-03 0.  1.
         11   -1    0    0    0    0 -0.00000000000E+00 -0.00000000000E+00 -0.45593999997E+02  0.45594000000E+02  0.51100000000E-03 0. -1.
    9900012    2    1    2    0    0  0.24774595674E+02  0.19493318918E+02 -0.25678690507E+02  0.50528865486E+02  0.30000017130E+02 0.  0.
        -12    1    1    2    0    0 -0.24774595674E+02 -0.19493318918E+02  0.25678690507E+02  0.40659134514E+02  0.00000000000E+00 0.  1.
         11    1    3    3    0    0  0.65174477768E+01 -0.77433994664E+00 -0.15442713656E+02  0.16779574881E+02  0.51100000000E-03 0. -1.
        -11    1    3    3    0    0  0.11775617979E+02  0.21290258182E+02 -0.11744872407E+02  0.27016333954E+02  0.51100000000E-03 0.  1.
        -12    1    3    3    0    0  0.64815299190E+01 -0.10225993168E+01  0.15088955555E+01  0.67329566500E+01  0.00000000000E+00 0.  1.
</event>
<event>
 7    1  0.9868142E-013  0.5052886E+02  0.7816164E-02  0.1300439E+00
        -11   -1    0    0    0    0  0.00000000000E+00  0.00000000000E+00  0.45593999997E+02  0.45594000000E+02  0.51100000000E-03 0.  1.
         11   -1    0    0    0    0 -0.00000000000E+00 -0.00000000000E+00 -0.45593999997E+02  0.45594000000E+02  0.51100000000E-03 0. -1.
    9900012    2    1    2    0    0  0.37124889969E+02  0.52435313001E-01  0.16580275235E+02  0.50528859189E+02  0.29999997989E+02 0.  0.
        -12    1    1    2    0    0 -0.37124889969E+02 -0.52435313001E-01 -0.16580275235E+02  0.40659140811E+02  0.00000000000E+00 0.  1.
         11    1    3    3    0    0 -0.28240852082E+01  0.29861668561E+01 -0.15360890445E+01  0.43877351299E+01  0.51100000000E-03 0. -1.
        -11    1    3    3    0    0  0.38607424064E+02 -0.58569943741E+01  0.17782268568E+02  0.42907419540E+02  0.51100000000E-03 0.  1.
        -12    1    3    3    0    0  0.13415511133E+01  0.29232628309E+01  0.33409571223E+00  0.32337045185E+01  0.00000000000E+00 0.  1.
</event>
<event>
 7    1  0.9868142E-013  0.5052886E+02  0.7816164E-02  0.1300439E+00
        -11   -1    0    0    0    0  0.00000000000E+00  0.00000000000E+00  0.45593999997E+02  0.45594000000E+02  0.51100000000E-03 0. -1.
         11   -1    0    0    0    0 -0.00000000000E+00 -0.00000000000E+00 -0.45593999997E+02  0.45594000000E+02  0.51100000000E-03 0.  1.
    9900012    2    1    2    0    0 -0.33682561475E+02 -0.21698541150E+02  0.69154934474E+01  0.50528859759E+02  0.29999999723E+02 0.  0.
        -12    1    1    2    0    0  0.33682561475E+02  0.21698541150E+02 -0.69154934474E+01  0.40659140241E+02  0.00000000000E+00 0.  1.
         11    1    3    3    0    0 -0.11845132258E+02 -0.19675651887E+02  0.12428671272E+02  0.26113412363E+02  0.51100000000E-03 0. -1.
        -11    1    3    3    0    0 -0.32175729444E+01  0.25293823187E+01 -0.30186564993E+01  0.50855518765E+01  0.51100000000E-03 0.  1.
         12    1    3    3    0    0 -0.18619856272E+02 -0.45522715816E+01 -0.24945213249E+01  0.19329895520E+02  0.00000000000E+00 0. -1.
</event>
<event>
 7    1  0.9868142E-013  0.5052885E+02  0.7816164E-02  0.1300439E+00
        -11   -1    0    0    0    0  0.00000000000E+00  0.00000000000E+00  0.45593999997E+02  0.45594000000E+02  0.51100000000E-03 0.  1.
         11   -1    0    0    0    0 -0.00000000000E+00 -0.00000000000E+00 -0.45593999997E+02  0.45594000000E+02  0.51100000000E-03 0. -1.
    9900012    2    1    2    0    0 -0.88366996251E+01 -0.63112564422E+01 -0.39182228380E+02  0.50528852949E+02  0.29999979023E+02 0.  0.
        -12    1    1    2    0    0  0.88366996251E+01  0.63112564422E+01  0.39182228380E+02  0.40659147051E+02  0.00000000000E+00 0.  1.
         11    1    3    3    0    0 -0.14638765951E+02  0.29534267419E+00 -0.10603166944E+02  0.18077827452E+02  0.51100000000E-03 0. -1.
        -11    1    3    3    0    0 -0.29867855769E+01 -0.57425643657E+01 -0.13615351520E+02  0.15075666846E+02  0.51100000000E-03 0.  1.
         12    1    3    3    0    0  0.87888519030E+01 -0.86403475067E+00 -0.14963709915E+02  0.17375358651E+02  0.00000000000E+00 0. -1.
</event>
<event>
 7    1  0.1184752E-012  0.5052883E+02  0.7816164E-02  0.1300439E+00
        -11   -1    0    0    0    0  0.00000000000E+00  0.00000000000E+00  0.45593999997E+02  0.45594000000E+02  0.51100000000E-03 0. -1.
         11   -1    0    0    0    0 -0.00000000000E+00 -0.00000000000E+00 -0.45593999997E+02  0.45594000000E+02  0.51100000000E-03 0.  1.
    9900012    2    1    2    0    0 -0.57357712789E+01 -0.27946829354E+02  0.28969700702E+02  0.50528832499E+02  0.29999916864E+02 0.  0.
        -12    1    1    2    0    0  0.57357712789E+01  0.27946829354E+02 -0.28969700702E+02  0.40659167501E+02  0.00000000000E+00 0.  1.
         11    1    3    3    0    0  0.47690129147E+01 -0.91465026472E+01  0.18179717250E+02  0.20902251419E+02  0.51100000000E-03 0. -1.
        -11    1    3    3    0    0 -0.99106180419E+01 -0.21921081705E+02  0.10979016516E+02  0.26444148257E+02  0.51100000000E-03 0.  1.
        -12    1    3    3    0    0 -0.59416615170E+00  0.31207549982E+01 -0.18903306362E+00  0.31824328232E+01  0.00000000000E+00 0.  1.
</event>
<event>
 7    1  0.9868142E-013  0.5052886E+02  0.7816164E-02  0.1300439E+00
        -11   -1    0    0    0    0  0.00000000000E+00  0.00000000000E+00  0.45593999997E+02  0.45594000000E+02  0.51100000000E-03 0. -1.
         11   -1    0    0    0    0 -0.00000000000E+00 -0.00000000000E+00 -0.45593999997E+02  0.45594000000E+02  0.51100000000E-03 0.  1.
    9900012    2    1    2    0    0 -0.10725753255E+02 -0.27464217948E+02  0.27997148407E+02  0.50528863643E+02  0.30000011529E+02 0.  0.
        -12    1    1    2    0    0  0.10725753255E+02  0.27464217948E+02 -0.27997148407E+02  0.40659136357E+02  0.00000000000E+00 0.  1.
         11    1    3    3    0    0 -0.13130160706E+02 -0.17655627195E+01  0.10898960999E+02  0.17155339781E+02  0.51100000000E-03 0. -1.
        -11    1    3    3    0    0  0.56547641751E+00 -0.26528571127E+02  0.15082353213E+02  0.30521504358E+02  0.51100000000E-03 0.  1.
        -12    1    3    3    0    0  0.18389310335E+01  0.82991589851E+00  0.20158341954E+01  0.28520195034E+01  0.00000000000E+00 0.  1.
</event>
<event>
 7    1  0.9868142E-013  0.5052886E+02  0.7816164E-02  0.1300439E+00
        -11   -1    0    0    0    0  0.00000000000E+00  0.00000000000E+00  0.45593999997E+02  0.45594000000E+02  0.51100000000E-03 0.  1.
         11   -1    0    0    0    0 -0.00000000000E+00 -0.00000000000E+00 -0.45593999997E+02  0.45594000000E+02  0.51100000000E-03 0. -1.
    9900012    2    1    2    0    0 -0.14312018430E+02  0.15444588653E+02 -0.34782129112E+02  0.50528859628E+02  0.29999999325E+02 0.  0.
        -12    1    1    2    0    0  0.14312018430E+02 -0.15444588653E+02  0.34782129112E+02  0.40659140372E+02  0.00000000000E+00 0.  1.
         11    1    3    3    0    0 -0.17049621089E+02  0.13295662210E+02 -0.26271990714E+02  0.34024722031E+02  0.51100000000E-03 0. -1.
        -11    1    3    3    0    0  0.21225017932E+01  0.58732477127E+01 -0.10515222542E+02  0.12229879718E+02  0.51100000000E-03 0.  1.
         12    1    3    3    0    0  0.61510086605E+00 -0.37243212699E+01  0.20050841436E+01  0.42742578794E+01  0.00000000000E+00 0. -1.
</event>
<event>
 7    1  0.9868142E-013  0.5052886E+02  0.7816164E-02  0.1300439E+00
        -11   -1    0    0    0    0  0.00000000000E+00  0.00000000000E+00  0.45593999997E+02  0.45594000000E+02  0.51100000000E-03 0. -1.
         11   -1    0    0    0    0 -0.00000000000E+00 -0.00000000000E+00 -0.45593999997E+02  0.45594000000E+02  0.51100000000E-03 0.  1.
    9900012    2    1    2    0    0 -0.12956059382E+02  0.16901593298E+02  0.34635852042E+02  0.50528861084E+02  0.30000003750E+02 0.  0.
        -12    1    1    2    0    0  0.12956059382E+02 -0.16901593298E+02 -0.34635852042E+02  0.40659138916E+02  0.00000000000E+00 0.  1.
         11    1    3    3    0    0  0.22738272716E+01  0.23556364117E+01  0.11498313271E+02  0.11955355357E+02  0.51100000000E-03 0. -1.
        -11    1    3    3    0    0 -0.75358002737E+01  0.15216450114E+02  0.33167081218E+01  0.17301132704E+02  0.51100000000E-03 0.  1.
        -12    1    3    3    0    0 -0.76940863796E+01 -0.67049322726E+00  0.19820830649E+02  0.21272373022E+02  0.00000000000E+00 0.  1.
</event>
<event>
 7    1  0.9868142E-013  0.5052886E+02  0.7816164E-02  0.1300439E+00
        -11   -1    0    0    0    0  0.00000000000E+00  0.00000000000E+00  0.45593999997E+02  0.45594000000E+02  0.51100000000E-03 0. -1.
         11   -1    0    0    0    0 -0.00000000000E+00 -0.00000000000E+00 -0.45593999997E+02  0.45594000000E+02  0.51100000000E-03 0.  1.
    9900012    2    1    2    0    0  0.66500384842E+01  0.25046969534E+02  0.31330367694E+02  0.50528860382E+02  0.30000001617E+02 0.  0.
        -12    1    1    2    0    0 -0.66500384842E+01 -0.25046969534E+02 -0.31330367694E+02  0.40659139618E+02  0.00000000000E+00 0.  1.
         11    1    3    3    0    0 -0.45638052691E+01  0.27388439752E+02  0.19699221226E+02  0.34044298609E+02  0.51100000000E-03 0. -1.
        -11    1    3    3    0    0  0.57943198592E+01 -0.56010304577E-01  0.55266788707E+01  0.80075876134E+01  0.51100000000E-03 0.  1.
         12    1    3    3    0    0  0.54195238942E+01 -0.22854599140E+01  0.61044675972E+01  0.84769741596E+01  0.00000000000E+00 0. -1.
</event>
<event>
 7    1  0.9868142E-013  0.5052888E+02  0.7816164E-02  0.1300439E+00
        -11   -1    0    0    0    0  0.00000000000E+00  0.00000000000E+00  0.45593999997E+02  0.45594000000E+02  0.51100000000E-03 0.  1.
         11   -1    0    0    0    0 -0.00000000000E+00 -0.00000000000E+00 -0.45593999997E+02  0.45594000000E+02  0.51100000000E-03 0. -1.
    9900012    2    1    2    0    0  0.29410617631E+02 -0.21941970430E+02  0.17513706960E+02  0.50528875227E+02  0.30000046740E+02 0.  0.
        -12    1    1    2    0    0 -0.29410617631E+02  0.21941970430E+02 -0.17513706960E+02  0.40659124773E+02  0.00000000000E+00 0.  1.
         11    1    3    3    0    0  0.23680780965E+02 -0.21846146277E+02  0.16960597528E+02  0.36410099740E+02  0.51100000000E-03 0. -1.
        -11    1    3    3    0    0  0.85966550390E+01  0.29922631063E+01  0.25541816064E+01  0.94540975400E+01  0.51100000000E-03 0.  1.
         12    1    3    3    0    0 -0.28668183728E+01 -0.30880872596E+01 -0.20010721747E+01  0.46646779475E+01  0.00000000000E+00 0. -1.
</event>
<event>
 7    1  0.9868142E-013  0.5052886E+02  0.7816164E-02  0.1300439E+00
        -11   -1    0    0    0    0  0.00000000000E+00  0.00000000000E+00  0.45593999997E+02  0.45594000000E+02  0.51100000000E-03 0.  1.
         11   -1    0    0    0    0 -0.00000000000E+00 -0.00000000000E+00 -0.45593999997E+02  0.45594000000E+02  0.51100000000E-03 0. -1.
    9900012    2    1    2    0    0 -0.37384866057E+02 -0.14612306899E+02 -0.64821242778E+01  0.50528860091E+02  0.30000000732E+02 0.  0.
        -12    1    1    2    0    0  0.37384866057E+02  0.14612306899E+02  0.64821242778E+01  0.40659139909E+02  0.00000000000E+00 0.  1.
         11    1    3    3    0    0 -0.24666019050E+02 -0.36459792988E+01  0.75153090131E+00  0.24945349462E+02  0.51100000000E-03 0. -1.
        -11    1    3    3    0    0 -0.11749513585E+02 -0.15748916362E+02 -0.60960930376E+01  0.20572840996E+02  0.51100000000E-03 0.  1.
        -12    1    3    3    0    0 -0.96933342280E+00  0.47825887619E+01 -0.11375621415E+01  0.50106696334E+01  0.00000000000E+00 0.  1.
</event>
<event>
 7    1  0.9868142E-013  0.5052886E+02  0.7816164E-02  0.1300439E+00
        -11   -1    0    0    0    0  0.00000000000E+00  0.00000000000E+00  0.45593999997E+02  0.45594000000E+02  0.51100000000E-03 0.  1.
         11   -1    0    0    0    0 -0.00000000000E+00 -0.00000000000E+00 -0.45593999997E+02  0.45594000000E+02  0.51100000000E-03 0. -1.
    9900012    2    1    2    0    0 -0.40174241421E+02  0.21140617342E+01 -0.58929281718E+01  0.50528861628E+02  0.30000005404E+02 0.  0.
        -12    1    1    2    0    0  0.40174241421E+02 -0.21140617342E+01  0.58929281718E+01  0.40659138372E+02  0.00000000000E+00 0.  1.
         11    1    3    3    0    0 -0.38520499890E+01  0.68594195674E+01 -0.46160064658E+01  0.91212631731E+01  0.51100000000E-03 0. -1.
        -11    1    3    3    0    0 -0.38426067862E+02 -0.32973713197E+01 -0.34205954500E-01  0.38567298573E+02  0.51100000000E-03 0.  1.
        -12    1    3    3    0    0  0.21038764301E+01 -0.14479865136E+01 -0.12427157515E+01  0.28402998813E+01  0.00000000000E+00 0.  1.
</event>
<event>
 7    1  0.9868142E-013  0.5052886E+02  0.7816164E-02  0.1300439E+00
        -11   -1    0    0    0    0  0.00000000000E+00  0.00000000000E+00  0.45593999997E+02  0.45594000000E+02  0.51100000000E-03 0.  1.
         11   -1    0    0    0    0 -0.00000000000E+00 -0.00000000000E+00 -0.45593999997E+02  0.45594000000E+02  0.51100000000E-03 0. -1.
    9900012    2    1    2    0    0  0.13711230610E+02  0.32200029675E+02 -0.20696029545E+02  0.50528863329E+02  0.30000010574E+02 0.  0.
        -12    1    1    2    0    0 -0.13711230610E+02 -0.32200029675E+02  0.20696029545E+02  0.40659136671E+02  0.00000000000E+00 0.  1.
         11    1    3    3    0    0  0.21292540917E+01  0.22399667897E+02 -0.20517662872E+02  0.30450834716E+02  0.51100000000E-03 0. -1.
        -11    1    3    3    0    0  0.14475751985E+02  0.76728949380E+01  0.63333150931E+00  0.16395786694E+02  0.51100000000E-03 0.  1.
        -12    1    3    3    0    0 -0.28937754669E+01  0.21274668398E+01 -0.81169818276E+00  0.36822419187E+01  0.00000000000E+00 0.  1.
</event>
<event>
 7    1  0.9868142E-013  0.5052885E+02  0.7816164E-02  0.1300439E+00
        -11   -1    0    0    0    0  0.00000000000E+00  0.00000000000E+00  0.45593999997E+02  0.45594000000E+02  0.51100000000E-03 0.  1.
         11   -1    0    0    0    0 -0.00000000000E+00 -0.00000000000E+00 -0.45593999997E+02  0.45594000000E+02  0.51100000000E-03 0. -1.
    9900012    2    1    2    0    0 -0.24226681711E+02  0.37154350144E+01 -0.32441175200E+02  0.50528850816E+02  0.29999972539E+02 0.  0.
        -12    1    1    2    0    0  0.24226681711E+02 -0.37154350144E+01  0.32441175200E+02  0.40659149184E+02  0.00000000000E+00 0.  1.
         11    1    3    3    0    0 -0.10457820380E+02 -0.89943239726E+01 -0.10460736306E+02  0.17311582110E+02  0.51100000000E-03 0. -1.
        -11    1    3    3    0    0  0.65787201826E+00  0.72962340435E+01 -0.14147400478E+02  0.15931627894E+02  0.51100000000E-03 0.  1.
         12    1    3    3    0    0 -0.14426733349E+02  0.54135249435E+01 -0.78330384158E+01  0.17285640811E+02  0.00000000000E+00 0. -1.
</event>
<event>
 7    1  0.9868142E-013  0.5052889E+02  0.7816164E-02  0.1300439E+00
        -11   -1    0    0    0    0  0.00000000000E+00  0.00000000000E+00  0.45593999997E+02  0.45594000000E+02  0.51100000000E-03 0. -1.
         11   -1    0    0    0    0 -0.00000000000E+00 -0.00000000000E+00 -0.45593999997E+02  0.45594000000E+02  0.51100000000E-03 0.  1.
    9900012    2    1    2    0    0  0.37106329049E+02 -0.18787074068E+01  0.16515266148E+02  0.50528890161E+02  0.30000092132E+02 0.  0.
        -12    1    1    2    0    0 -0.37106329049E+02  0.18787074068E+01 -0.16515266148E+02  0.40659109839E+02  0.00000000000E+00 0.  1.
         11    1    3    3    0    0  0.26788540101E+02 -0.18033108933E+01  0.18933758165E+02  0.32853690956E+02  0.51100000000E-03 0. -1.
        -11    1    3    3    0    0  0.10939869697E+00  0.41283269448E+01 -0.48505262554E+01  0.63704518406E+01  0.51100000000E-03 0.  1.
        -12    1    3    3    0    0  0.10208390251E+02 -0.42037234583E+01  0.24320342382E+01  0.11304747364E+02  0.00000000000E+00 0.  1.
</event>
<event>
 7    1  0.9868142E-013  0.5052885E+02  0.7816164E-02  0.1300439E+00
        -11   -1    0    0    0    0  0.00000000000E+00  0.00000000000E+00  0.45593999997E+02  0.45594000000E+02  0.51100000000E-03 0.  1.
         11   -1    0    0    0    0 -0.00000000000E+00 -0.00000000000E+00 -0.45593999997E+02  0.45594000000E+02  0.51100000000E-03 0. -1.
    9900012    2    1    2    0    0 -0.83807990660E+01  0.12373951827E+02 -0.37812885441E+02  0.50528846268E+02  0.29999958716E+02 0.  0.
        -12    1    1    2    0    0  0.83807990660E+01 -0.12373951827E+02  0.37812885441E+02  0.40659153732E+02  0.00000000000E+00 0.  1.
         11    1    3    3    0    0 -0.62820154784E+01  0.47952442664E+01 -0.31256489168E+00  0.79092213977E+01  0.51100000000E-03 0. -1.
        -11    1    3    3    0    0  0.63400184155E+01  0.52910838235E+00 -0.25760236257E+02  0.26534233765E+02  0.51100000000E-03 0.  1.
         12    1    3    3    0    0 -0.84388020031E+01  0.70495991782E+01 -0.11740084293E+02  0.16085391106E+02  0.00000000000E+00 0. -1.
</event>
<event>
 7    1  0.9868142E-013  0.5052886E+02  0.7816164E-02  0.1300439E+00
        -11   -1    0    0    0    0  0.00000000000E+00  0.00000000000E+00  0.45593999997E+02  0.45594000000E+02  0.51100000000E-03 0.  1.
         11   -1    0    0    0    0 -0.00000000000E+00 -0.00000000000E+00 -0.45593999997E+02  0.45594000000E+02  0.51100000000E-03 0. -1.
    9900012    2    1    2    0    0  0.18780699340E+02  0.26229666882E+02 -0.24747834478E+02  0.50528863218E+02  0.30000010239E+02 0.  0.
        -12    1    1    2    0    0 -0.18780699340E+02 -0.26229666882E+02  0.24747834478E+02  0.40659136782E+02  0.00000000000E+00 0.  1.
         11    1    3    3    0    0 -0.34503413684E+01  0.84298697070E+01  0.56755325575E+00  0.91263177566E+01  0.51100000000E-03 0. -1.
        -11    1    3    3    0    0  0.24255384581E+02  0.15630491817E+02 -0.19358164446E+02  0.34747294666E+02  0.51100000000E-03 0.  1.
         12    1    3    3    0    0 -0.20243438725E+01  0.21693053578E+01 -0.59572232884E+01  0.66552507960E+01  0.00000000000E+00 0. -1.
</event>
<event>
 7    1  0.9868142E-013  0.5052885E+02  0.7816164E-02  0.1300439E+00
        -11   -1    0    0    0    0  0.00000000000E+00  0.00000000000E+00  0.45593999997E+02  0.45594000000E+02  0.51100000000E-03 0. -1.
         11   -1    0    0    0    0 -0.00000000000E+00 -0.00000000000E+00 -0.45593999997E+02  0.45594000000E+02  0.51100000000E-03 0.  1.
    9900012    2    1    2    0    0 -0.96330512018E+01 -0.39347732229E+02  0.34823330522E+01  0.50528851577E+02  0.29999974853E+02 0.  0.
        -12    1    1    2    0    0  0.96330512018E+01  0.39347732229E+02 -0.34823330522E+01  0.40659148423E+02  0.00000000000E+00 0.  1.
         11    1    3    3    0    0 -0.17873933126E+02 -0.15974934863E+02  0.64891866009E+01  0.24835168054E+02  0.51100000000E-03 0. -1.
        -11    1    3    3    0    0  0.47806415465E+01 -0.11574592833E+02 -0.45026414385E+01  0.13307874099E+02  0.51100000000E-03 0.  1.
         12    1    3    3    0    0  0.34602403779E+01 -0.11798204532E+02  0.14957878898E+01  0.12385809423E+02  0.00000000000E+00 0. -1.
</event>
<event>
 7    1  0.9868142E-013  0.5052890E+02  0.7816164E-02  0.1300439E+00
        -11   -1    0    0    0    0  0.00000000000E+00  0.00000000000E+00  0.45593999997E+02  0.45594000000E+02  0.51100000000E-03 0.  1.
         11   -1    0    0    0    0 -0.00000000000E+00 -0.00000000000E+00 -0.45593999997E+02  0.45594000000E+02  0.51100000000E-03 0. -1.
    9900012    2    1    2    0    0  0.23215757267E+02 -0.33197382276E+02  0.34821143760E+01  0.50528896518E+02  0.30000111454E+02 0.  0.
        -12    1    1    2    0    0 -0.23215757267E+02  0.33197382276E+02 -0.34821143760E+01  0.40659103482E+02  0.00000000000E+00 0.  1.
         11    1    3    3    0    0  0.19915466025E+02 -0.10763366514E+02 -0.57004749156E+01  0.23344619514E+02  0.51100000000E-03 0. -1.
        -11    1    3    3    0    0  0.15622115464E+01 -0.68551689427E+01  0.91112181720E+01  0.11508611688E+02  0.51100000000E-03 0.  1.
        -12    1    3    3    0    0  0.17380796958E+01 -0.15578846820E+02  0.71371119631E-01  0.15675665316E+02  0.00000000000E+00 0.  1.
</event>
<event>
 7    1  0.9868142E-013  0.5052886E+02  0.7816164E-02  0.1300439E+00
        -11   -1    0    0    0    0  0.00000000000E+00  0.00000000000E+00  0.45593999997E+02  0.45594000000E+02  0.51100000000E-03 0.  1.
         11   -1    0    0    0    0 -0.00000000000E+00 -0.00000000000E+00 -0.45593999997E+02  0.45594000000E+02  0.51100000000E-03 0. -1.
    9900012    2    1    2    0    0 -0.34533746441E-02  0.34612905953E+02 -0.21333365875E+02  0.50528858715E+02  0.29999996551E+02 0.  0.
        -12    1    1    2    0    0  0.34533746441E-02 -0.34612905953E+02  0.21333365875E+02  0.40659141285E+02  0.00000000000E+00 0.  1.
         11    1    3    3    0    0  0.42932134115E+01  0.18122447192E+02 -0.26336650809E+02  0.32256378434E+02  0.51100000000E-03 0. -1.
        -11    1    3    3    0    0 -0.34657747708E+01  0.52422403128E+01  0.21004721063E+01  0.66260592806E+01  0.51100000000E-03 0.  1.
         12    1    3    3    0    0 -0.83089201531E+00  0.11248218448E+02  0.29028128272E+01  0.11646421000E+02  0.00000000000E+00 0. -1.
</event>
<event>
 7    1  0.9868142E-013  0.5052899E+02  0.7816164E-02  0.1300438E+00
        -11   -1    0    0    0    0  0.00000000000E+00  0.00000000000E+00  0.45593999997E+02  0.45594000000E+02  0.51100000000E-03 0. -1.
         11   -1    0    0    0    0 -0.00000000000E+00 -0.00000000000E+00 -0.45593999997E+02  0.45594000000E+02  0.51100000000E-03 0.  1.
    9900012    2    1    2    0    0 -0.55283662955E+01 -0.35709082251E+02  0.18640108521E+02  0.50528990731E+02  0.30000397822E+02 0.  0.
        -12    1    1    2    0    0  0.55283662955E+01  0.35709082251E+02 -0.18640108521E+02  0.40659009269E+02  0.00000000000E+00 0.  1.
         11    1    3    3    0    0 -0.32361378479E+01 -0.29773432152E+01 -0.10135781100E+01  0.45127044704E+01  0.51100000000E-03 0. -1.
        -11    1    3    3    0    0  0.11210954740E+02 -0.13459742193E+02  0.12145144240E+02  0.21315597457E+02  0.51100000000E-03 0.  1.
        -12    1    3    3    0    0 -0.13503183188E+02 -0.19271996843E+02  0.75085423915E+01  0.24700688803E+02  0.00000000000E+00 0.  1.
</event>
<event>
 7    1  0.9868142E-013  0.5052886E+02  0.7816164E-02  0.1300439E+00
        -11   -1    0    0    0    0  0.00000000000E+00  0.00000000000E+00  0.45593999997E+02  0.45594000000E+02  0.51100000000E-03 0. -1.
         11   -1    0    0    0    0 -0.00000000000E+00 -0.00000000000E+00 -0.45593999997E+02  0.45594000000E+02  0.51100000000E-03 0.  1.
    9900012    2    1    2    0    0  0.14397646656E+02  0.45370476613E+01  0.37752991549E+02  0.50528863245E+02  0.30000010320E+02 0.  0.
        -12    1    1    2    0    0 -0.14397646656E+02 -0.45370476613E+01 -0.37752991549E+02  0.40659136755E+02  0.00000000000E+00 0.  1.
         11    1    3    3    0    0 -0.17364065610E+01  0.98036617117E+01  0.27745856083E+02  0.29478117660E+02  0.51100000000E-03 0. -1.
        -11    1    3    3    0    0  0.88201732696E+01 -0.27160611323E+01  0.95663216244E+01  0.13292364510E+02  0.51100000000E-03 0.  1.
        -12    1    3    3    0    0  0.73138799475E+01 -0.25505529181E+01  0.44081384184E+00  0.77583810758E+01  0.00000000000E+00 0.  1.
</event>
<event>
 7    1  0.9868142E-013  0.5052887E+02  0.7816164E-02  0.1300439E+00
        -11   -1    0    0    0    0  0.00000000000E+00  0.00000000000E+00  0.45593999997E+02  0.45594000000E+02  0.51100000000E-03 0.  1.
         11   -1    0    0    0    0 -0.00000000000E+00 -0.00000000000E+00 -0.45593999997E+02  0.45594000000E+02  0.51100000000E-03 0. -1.
    9900012    2    1    2    0    0 -0.24620154680E+01 -0.29515064852E+02 -0.27856138417E+02  0.50528867927E+02  0.30000024552E+02 0.  0.
        -12    1    1    2    0    0  0.24620154680E+01  0.29515064852E+02  0.27856138417E+02  0.40659132073E+02  0.00000000000E+00 0.  1.
         11    1    3    3    0    0  0.90528098318E+01 -0.27654625435E+02 -0.23657868429E+02  0.37502352095E+02  0.51100000000E-03 0. -1.
        -11    1    3    3    0    0 -0.93697719589E+01 -0.21549803243E+01 -0.48458587581E+01  0.10766564639E+02  0.51100000000E-03 0.  1.
         12    1    3    3    0    0 -0.21450533409E+01  0.29454090787E+00  0.64758876941E+00  0.22599511933E+01  0.00000000000E+00 0. -1.
</event>
<event>
 7    1  0.9868142E-013  0.5052887E+02  0.7816164E-02  0.1300439E+00
        -11   -1    0    0    0    0  0.00000000000E+00  0.00000000000E+00  0.45593999997E+02  0.45594000000E+02  0.51100000000E-03 0. -1.
         11   -1    0    0    0    0 -0.00000000000E+00 -0.00000000000E+00 -0.45593999997E+02  0.45594000000E+02  0.51100000000E-03 0.  1.
    9900012    2    1    2    0    0 -0.66230834419E+01 -0.39066611534E+02 -0.91159043660E+01  0.50528867159E+02  0.30000022215E+02 0.  0.
        -12    1    1    2    0    0  0.66230834419E+01  0.39066611534E+02  0.91159043660E+01  0.40659132841E+02  0.00000000000E+00 0.  1.
         11    1    3    3    0    0 -0.11761743011E+01 -0.21779064226E+02 -0.16854473244E+02  0.27564184972E+02  0.51100000000E-03 0. -1.
        -11    1    3    3    0    0 -0.16726691121E+01 -0.17030373674E+02  0.84980013961E+01  0.19106215675E+02  0.51100000000E-03 0.  1.
        -12    1    3    3    0    0 -0.37742400287E+01 -0.25717363356E+00 -0.75943251790E+00  0.38584665116E+01  0.00000000000E+00 0.  1.
</event>
<event>
 7    1  0.9868142E-013  0.5052886E+02  0.7816164E-02  0.1300439E+00
        -11   -1    0    0    0    0  0.00000000000E+00  0.00000000000E+00  0.45593999997E+02  0.45594000000E+02  0.51100000000E-03 0. -1.
         11   -1    0    0    0    0 -0.00000000000E+00 -0.00000000000E+00 -0.45593999997E+02  0.45594000000E+02  0.51100000000E-03 0.  1.
    9900012    2    1    2    0    0  0.30781325283E+02  0.49523723027E+01  0.26098842764E+02  0.50528861160E+02  0.30000003982E+02 0.  0.
        -12    1    1    2    0    0 -0.30781325283E+02 -0.49523723027E+01 -0.26098842764E+02  0.40659138840E+02  0.00000000000E+00 0.  1.
         11    1    3    3    0    0  0.22069456588E+02  0.42283038798E+00  0.28493405276E+02  0.36043221889E+02  0.51100000000E-03 0. -1.
        -11    1    3    3    0    0  0.61273051611E+01  0.78779938236E+01 -0.99305938410E+00  0.10029597321E+02  0.51100000000E-03 0.  1.
         12    1    3    3    0    0  0.25845635335E+01 -0.33484519088E+01 -0.14015031278E+01  0.44560419501E+01  0.00000000000E+00 0. -1.
</event>
<event>
 7    1  0.9868142E-013  0.5052884E+02  0.7816164E-02  0.1300439E+00
        -11   -1    0    0    0    0  0.00000000000E+00  0.00000000000E+00  0.45593999997E+02  0.45594000000E+02  0.51100000000E-03 0.  1.
         11   -1    0    0    0    0 -0.00000000000E+00 -0.00000000000E+00 -0.45593999997E+02  0.45594000000E+02  0.51100000000E-03 0. -1.
    9900012    2    1    2    0    0  0.88650675085E+01 -0.39289936237E+02  0.55568382595E+01  0.50528844046E+02  0.29999951963E+02 0.  0.
        -12    1    1    2    0    0 -0.88650675085E+01  0.39289936237E+02 -0.55568382595E+01  0.40659155954E+02  0.00000000000E+00 0.  1.
         11    1    3    3    0    0 -0.66978349668E+01 -0.19270295445E+02  0.68136585073E+00  0.20412484892E+02  0.51100000000E-03 0. -1.
        -11    1    3    3    0    0  0.11330921189E+02 -0.10782312326E+02  0.10172214051E+02  0.18658027040E+02  0.51100000000E-03 0.  1.
        -12    1    3    3    0    0  0.42319812862E+01 -0.92373284661E+01 -0.52967416425E+01  0.11458332114E+02  0.00000000000E+00 0.  1.
</event>
<event>
 7    1  0.9868142E-013  0.5052885E+02  0.7816164E-02  0.1300439E+00
        -11   -1    0    0    0    0  0.00000000000E+00  0.00000000000E+00  0.45593999997E+02  0.45594000000E+02  0.51100000000E-03 0.  1.
         11   -1    0    0    0    0 -0.00000000000E+00 -0.00000000000E+00 -0.45593999997E+02  0.45594000000E+02  0.51100000000E-03 0. -1.
    9900012    2    1    2    0    0 -0.18482710483E+02 -0.19142005937E+02 -0.30743126038E+02  0.50528846336E+02  0.29999958923E+02 0.  0.
        -12    1    1    2    0    0  0.18482710483E+02  0.19142005937E+02  0.30743126038E+02  0.40659153664E+02  0.00000000000E+00 0.  1.
         11    1    3    3    0    0 -0.76327726269E+01 -0.17284744896E+02 -0.27197183399E+02  0.33116588128E+02  0.51100000000E-03 0. -1.
        -11    1    3    3    0    0 -0.13616951694E+02 -0.31382382915E+01 -0.32645166341E+01  0.14350156170E+02  0.51100000000E-03 0.  1.
         12    1    3    3    0    0  0.27670138378E+01  0.12809772506E+01 -0.28142600442E+00  0.30621020380E+01  0.00000000000E+00 0. -1.
</event>
<event>
 7    1  0.9868142E-013  0.5052892E+02  0.7816164E-02  0.1300439E+00
        -11   -1    0    0    0    0  0.00000000000E+00  0.00000000000E+00  0.45593999997E+02  0.45594000000E+02  0.51100000000E-03 0. -1.
         11   -1    0    0    0    0 -0.00000000000E+00 -0.00000000000E+00 -0.45593999997E+02  0.45594000000E+02  0.51100000000E-03 0.  1.
    9900012    2    1    2    0    0 -0.68449543728E+01  0.15850994817E+02  0.36811045182E+02  0.50528923713E+02  0.30000194119E+02 0.  0.
        -12    1    1    2    0    0  0.68449543728E+01 -0.15850994817E+02 -0.36811045182E+02  0.40659076287E+02  0.00000000000E+00 0.  1.
         11    1    3    3    0    0 -0.58967746135E+01  0.53678781775E+01  0.29684480230E+02  0.30736857903E+02  0.51100000000E-03 0.  1.
        -11    1    3    3    0    0  0.38582919665E+01  0.80163370417E+01 -0.20625399114E+01  0.91324776272E+01  0.51100000000E-03 0. -1.
         12    1    3    3    0    0 -0.48064717257E+01  0.24667795976E+01  0.91891048637E+01  0.10659588183E+02  0.00000000000E+00 0. -1.
</event>
<event>
 7    1  0.9868142E-013  0.5052885E+02  0.7816164E-02  0.1300439E+00
        -11   -1    0    0    0    0  0.00000000000E+00  0.00000000000E+00  0.45593999997E+02  0.45594000000E+02  0.51100000000E-03 0.  1.
         11   -1    0    0    0    0 -0.00000000000E+00 -0.00000000000E+00 -0.45593999997E+02  0.45594000000E+02  0.51100000000E-03 0. -1.
    9900012    2    1    2    0    0 -0.29921656134E+02  0.19243143184E+01 -0.27461940150E+02  0.50528847916E+02  0.29999963727E+02 0.  0.
        -12    1    1    2    0    0  0.29921656134E+02 -0.19243143184E+01  0.27461940150E+02  0.40659152084E+02  0.00000000000E+00 0.  1.
         11    1    3    3    0    0 -0.21371307135E+02 -0.11605751192E+02 -0.14607565343E+02  0.28369123971E+02  0.51100000000E-03 0. -1.
        -11    1    3    3    0    0 -0.97547130576E+01  0.10444060938E+02 -0.82948570320E+01  0.16523846076E+02  0.51100000000E-03 0.  1.
         12    1    3    3    0    0  0.12043640592E+01  0.30860045727E+01 -0.45595177751E+01  0.56358778688E+01  0.00000000000E+00 0. -1.
</event>
<event>
 7    1  0.9868142E-013  0.5052886E+02  0.7816164E-02  0.1300439E+00
        -11   -1    0    0    0    0  0.00000000000E+00  0.00000000000E+00  0.45593999997E+02  0.45594000000E+02  0.51100000000E-03 0. -1.
         11   -1    0    0    0    0 -0.00000000000E+00 -0.00000000000E+00 -0.45593999997E+02  0.45594000000E+02  0.51100000000E-03 0.  1.
    9900012    2    1    2    0    0 -0.46628831541E+01  0.39079527507E+02  0.10208500108E+02  0.50528862971E+02  0.30000009487E+02 0.  0.
        -12    1    1    2    0    0  0.46628831541E+01 -0.39079527507E+02 -0.10208500108E+02  0.40659137029E+02  0.00000000000E+00 0.  1.
         11    1    3    3    0    0 -0.91643034173E+01  0.35493450065E+01  0.41770705093E+01  0.10678493592E+02  0.51100000000E-03 0. -1.
        -11    1    3    3    0    0  0.52865695018E+01  0.11957795446E+02  0.92929936469E+01  0.16040461970E+02  0.51100000000E-03 0.  1.
        -12    1    3    3    0    0 -0.78514923864E+00  0.23572387055E+02 -0.32615640482E+01  0.23809907409E+02  0.00000000000E+00 0.  1.
</event>
<event>
 7    1  0.9868142E-013  0.5052884E+02  0.7816164E-02  0.1300439E+00
        -11   -1    0    0    0    0  0.00000000000E+00  0.00000000000E+00  0.45593999997E+02  0.45594000000E+02  0.51100000000E-03 0. -1.
         11   -1    0    0    0    0 -0.00000000000E+00 -0.00000000000E+00 -0.45593999997E+02  0.45594000000E+02  0.51100000000E-03 0.  1.
    9900012    2    1    2    0    0  0.36188939036E+02 -0.11509128276E+02  0.14528167483E+02  0.50528843680E+02  0.29999950850E+02 0.  0.
        -12    1    1    2    0    0 -0.36188939036E+02  0.11509128276E+02 -0.14528167483E+02  0.40659156320E+02  0.00000000000E+00 0.  1.
         11    1    3    3    0    0  0.16559751059E+02 -0.28354607114E+01  0.17601264280E+01  0.16892697769E+02  0.51100000000E-03 0. -1.
        -11    1    3    3    0    0  0.14202998430E+02 -0.82079027349E+01  0.19170292011E+02  0.25230832879E+02  0.51100000000E-03 0.  1.
        -12    1    3    3    0    0  0.54261895470E+01 -0.46576482951E+00 -0.64022509559E+01  0.84053130327E+01  0.00000000000E+00 0.  1.
</event>
<event>
 7    1  0.9868142E-013  0.5052886E+02  0.7816164E-02  0.1300439E+00
        -11   -1    0    0    0    0  0.00000000000E+00  0.00000000000E+00  0.45593999997E+02  0.45594000000E+02  0.51100000000E-03 0.  1.
         11   -1    0    0    0    0 -0.00000000000E+00 -0.00000000000E+00 -0.45593999997E+02  0.45594000000E+02  0.51100000000E-03 0. -1.
    9900012    2    1    2    0    0 -0.38779032521E+02 -0.11050332508E+02 -0.52194658620E+01  0.50528855448E+02  0.29999986620E+02 0.  0.
        -12    1    1    2    0    0  0.38779032521E+02  0.11050332508E+02  0.52194658620E+01  0.40659144552E+02  0.00000000000E+00 0.  1.
         11    1    3    3    0    0 -0.28144408798E+02 -0.11771323236E+02 -0.90699573456E+01  0.31826654299E+02  0.51100000000E-03 0. -1.
        -11    1    3    3    0    0  0.27505993233E+01 -0.26856185109E+01  0.29779072268E+01  0.48627435811E+01  0.51100000000E-03 0.  1.
         12    1    3    3    0    0 -0.13385223046E+02  0.34066092393E+01  0.87258425682E+00  0.13839457568E+02  0.00000000000E+00 0. -1.
</event>
<event>
 7    1  0.9868142E-013  0.5052886E+02  0.7816164E-02  0.1300439E+00
        -11   -1    0    0    0    0  0.00000000000E+00  0.00000000000E+00  0.45593999997E+02  0.45594000000E+02  0.51100000000E-03 0.  1.
         11   -1    0    0    0    0 -0.00000000000E+00 -0.00000000000E+00 -0.45593999997E+02  0.45594000000E+02  0.51100000000E-03 0. -1.
    9900012    2    1    2    0    0 -0.24524329218E+01  0.26656682223E+02 -0.30603466703E+02  0.50528864390E+02  0.30000013799E+02 0.  0.
        -12    1    1    2    0    0  0.24524329218E+01 -0.26656682223E+02  0.30603466703E+02  0.40659135610E+02  0.00000000000E+00 0.  1.
         11    1    3    3    0    0 -0.22131594045E+01  0.66664617450E+01 -0.49398677444E+01  0.85873209058E+01  0.51100000000E-03 0. -1.
        -11    1    3    3    0    0  0.96052923962E+01 -0.12455969780E+01 -0.88700526428E+01  0.13133582451E+02  0.51100000000E-03 0.  1.
        -12    1    3    3    0    0 -0.98445659134E+01  0.21235817456E+02 -0.16793546315E+02  0.28807961033E+02  0.00000000000E+00 0.  1.
</event>
<event>
 7    1  0.9868142E-013  0.5052886E+02  0.7816164E-02  0.1300439E+00
        -11   -1    0    0    0    0  0.00000000000E+00  0.00000000000E+00  0.45593999997E+02  0.45594000000E+02  0.51100000000E-03 0.  1.
         11   -1    0    0    0    0 -0.00000000000E+00 -0.00000000000E+00 -0.45593999997E+02  0.45594000000E+02  0.51100000000E-03 0. -1.
    9900012    2    1    2    0    0 -0.25759247117E+02 -0.29912838168E+02  0.97390370305E+01  0.50528861524E+02  0.30000005089E+02 0.  0.
        -12    1    1    2    0    0  0.25759247117E+02  0.29912838168E+02 -0.97390370305E+01  0.40659138476E+02  0.00000000000E+00 0.  1.
         11    1    3    3    0    0 -0.12906972330E+02 -0.90519969921E+01 -0.88212761667E+01  0.18064979871E+02  0.51100000000E-03 0. -1.
        -11    1    3    3    0    0 -0.63858351068E+01 -0.16513771453E+02  0.82306646471E+01  0.19525044901E+02  0.51100000000E-03 0.  1.
         12    1    3    3    0    0 -0.64664396803E+01 -0.43470697230E+01  0.10329648550E+02  0.12938836752E+02  0.00000000000E+00 0. -1.
</event>
<event>
 7    1  0.9868142E-013  0.5052886E+02  0.7816164E-02  0.1300439E+00
        -11   -1    0    0    0    0  0.00000000000E+00  0.00000000000E+00  0.45593999997E+02  0.45594000000E+02  0.51100000000E-03 0. -1.
         11   -1    0    0    0    0 -0.00000000000E+00 -0.00000000000E+00 -0.45593999997E+02  0.45594000000E+02  0.51100000000E-03 0.  1.
    9900012    2    1    2    0    0  0.37761000699E+02 -0.98820958823E+01 -0.11384929852E+02  0.50528860553E+02  0.30000002137E+02 0.  0.
        -12    1    1    2    0    0 -0.37761000699E+02  0.98820958823E+01  0.11384929852E+02  0.40659139447E+02  0.00000000000E+00 0.  1.
         11    1    3    3    0    0  0.13743020553E+02 -0.37187666714E+01 -0.15279270798E+01  0.14319022345E+02  0.51100000000E-03 0. -1.
        -11    1    3    3    0    0  0.54279057110E+01 -0.83747179306E+00 -0.15188033645E+02  0.16150538248E+02  0.51100000000E-03 0.  1.
        -12    1    3    3    0    0  0.18590074435E+02 -0.53258574178E+01  0.53310308734E+01  0.20059299961E+02  0.00000000000E+00 0.  1.
</event>
<event>
 7    1  0.9868142E-013  0.5052892E+02  0.7816164E-02  0.1300439E+00
        -11   -1    0    0    0    0  0.00000000000E+00  0.00000000000E+00  0.45593999997E+02  0.45594000000E+02  0.51100000000E-03 0.  1.
         11   -1    0    0    0    0 -0.00000000000E+00 -0.00000000000E+00 -0.45593999997E+02  0.45594000000E+02  0.51100000000E-03 0. -1.
    9900012    2    1    2    0    0 -0.17859986460E+02 -0.16003376860E+02 -0.32834032415E+02  0.50528918949E+02  0.30000179637E+02 0.  0.
        -12    1    1    2    0    0  0.17859986460E+02  0.16003376860E+02  0.32834032415E+02  0.40659081051E+02  0.00000000000E+00 0.  1.
         11    1    3    3    0    0 -0.14528976484E+02 -0.23356470496E+02 -0.22605781369E+02  0.35603893372E+02  0.51100000000E-03 0. -1.
        -11    1    3    3    0    0 -0.46702806971E+01  0.79589956186E+01 -0.77830278410E+01  0.12071978118E+02  0.51100000000E-03 0.  1.
        -12    1    3    3    0    0  0.13392707214E+01 -0.60590198270E+00 -0.24452232056E+01  0.28530474590E+01  0.00000000000E+00 0.  1.
</event>
<event>
 7    1  0.9868142E-013  0.5052883E+02  0.7816164E-02  0.1300439E+00
        -11   -1    0    0    0    0  0.00000000000E+00  0.00000000000E+00  0.45593999997E+02  0.45594000000E+02  0.51100000000E-03 0.  1.
         11   -1    0    0    0    0 -0.00000000000E+00 -0.00000000000E+00 -0.45593999997E+02  0.45594000000E+02  0.51100000000E-03 0. -1.
    9900012    2    1    2    0    0 -0.16746681819E+02  0.12424228938E+02 -0.34904943718E+02  0.50528832367E+02  0.29999916464E+02 0.  0.
        -12    1    1    2    0    0  0.16746681819E+02 -0.12424228938E+02  0.34904943718E+02  0.40659167633E+02  0.00000000000E+00 0.  1.
         11    1    3    3    0    0 -0.12703403994E+02  0.77968395834E+01 -0.21832471097E+02  0.26435278984E+02  0.51100000000E-03 0. -1.
        -11    1    3    3    0    0  0.68710243281E+01  0.53574113298E+01 -0.29745920986E+01  0.92065753616E+01  0.51100000000E-03 0.  1.
        -12    1    3    3    0    0 -0.10914302153E+02 -0.73002197537E+00 -0.10097880522E+02  0.14886978022E+02  0.00000000000E+00 0.  1.
</event>
<event>
 7    1  0.9868142E-013  0.5052885E+02  0.7816164E-02  0.1300439E+00
        -11   -1    0    0    0    0  0.00000000000E+00  0.00000000000E+00  0.45593999997E+02  0.45594000000E+02  0.51100000000E-03 0.  1.
         11   -1    0    0    0    0 -0.00000000000E+00 -0.00000000000E+00 -0.45593999997E+02  0.45594000000E+02  0.51100000000E-03 0. -1.
    9900012    2    1    2    0    0 -0.24866252728E+02  0.20123294357E+02 -0.25097592790E+02  0.50528847718E+02  0.29999963122E+02 0.  0.
        -12    1    1    2    0    0  0.24866252728E+02 -0.20123294357E+02  0.25097592790E+02  0.40659152282E+02  0.00000000000E+00 0.  1.
         11    1    3    3    0    0 -0.57428816039E+01  0.67079959680E+01 -0.99941317843E+01  0.13336437658E+02  0.51100000000E-03 0. -1.
        -11    1    3    3    0    0 -0.16323036690E+02 -0.23703761151E+01 -0.13043674299E+02  0.21028496123E+02  0.51100000000E-03 0.  1.
        -12    1    3    3    0    0 -0.28003344339E+01  0.15785674504E+02 -0.20597867066E+01  0.16163913937E+02  0.00000000000E+00 0.  1.
</event>
<event>
 7    1  0.9868142E-013  0.5052886E+02  0.7816164E-02  0.1300439E+00
        -11   -1    0    0    0    0  0.00000000000E+00  0.00000000000E+00  0.45593999997E+02  0.45594000000E+02  0.51100000000E-03 0.  1.
         11   -1    0    0    0    0 -0.00000000000E+00 -0.00000000000E+00 -0.45593999997E+02  0.45594000000E+02  0.51100000000E-03 0. -1.
    9900012    2    1    2    0    0  0.23386712434E+02 -0.25299747025E+02 -0.21590514790E+02  0.50528857769E+02  0.29999993676E+02 0.  0.
        -12    1    1    2    0    0 -0.23386712434E+02  0.25299747025E+02  0.21590514790E+02  0.40659142231E+02  0.00000000000E+00 0.  1.
         11    1    3    3    0    0 -0.16764933856E+01 -0.90894000401E+01 -0.21259358019E+00  0.92451619484E+01  0.51100000000E-03 0. -1.
        -11    1    3    3    0    0  0.14294555827E+02 -0.53135113227E+01 -0.21007354708E+02  0.25959134827E+02  0.51100000000E-03 0.  1.
         12    1    3    3    0    0  0.10768649993E+02 -0.10896835662E+02 -0.37056650137E+00  0.15324560994E+02  0.00000000000E+00 0. -1.
</event>
<event>
 7    1  0.9868142E-013  0.5052886E+02  0.7816164E-02  0.1300439E+00
        -11   -1    0    0    0    0  0.00000000000E+00  0.00000000000E+00  0.45593999997E+02  0.45594000000E+02  0.51100000000E-03 0. -1.
         11   -1    0    0    0    0 -0.00000000000E+00 -0.00000000000E+00 -0.45593999997E+02  0.45594000000E+02  0.51100000000E-03 0.  1.
    9900012    2    1    2    0    0  0.38177942661E+02 -0.12639814951E+02 -0.59870876572E+01  0.50528862694E+02  0.30000008645E+02 0.  0.
        -12    1    1    2    0    0 -0.38177942661E+02  0.12639814951E+02  0.59870876572E+01  0.40659137306E+02  0.00000000000E+00 0.  1.
         11    1    3    3    0    0  0.28356064799E+02 -0.99503081498E+01  0.79366933075E+01  0.31081604593E+02  0.51100000000E-03 0. -1.
        -11    1    3    3    0    0  0.38822861804E+01  0.25224000708E+01 -0.90433283373E+01  0.10159548995E+02  0.51100000000E-03 0.  1.
        -12    1    3    3    0    0  0.59395916823E+01 -0.52119068719E+01 -0.48804526273E+01  0.92877091062E+01  0.00000000000E+00 0.  1.
</event>
<event>
 7    1  0.9868142E-013  0.5052889E+02  0.7816164E-02  0.1300439E+00
        -11   -1    0    0    0    0  0.00000000000E+00  0.00000000000E+00  0.45593999997E+02  0.45594000000E+02  0.51100000000E-03 0.  1.
         11   -1    0    0    0    0 -0.00000000000E+00 -0.00000000000E+00 -0.45593999997E+02  0.45594000000E+02  0.51100000000E-03 0. -1.
    9900012    2    1    2    0    0 -0.17793055223E+02 -0.18635906831E+02 -0.31452717995E+02  0.50528889006E+02  0.30000088622E+02 0.  0.
        -12    1    1    2    0    0  0.17793055223E+02  0.18635906831E+02  0.31452717995E+02  0.40659110994E+02  0.00000000000E+00 0.  1.
         11    1    3    3    0    0 -0.62591715917E+00 -0.70750035798E+01 -0.23784407877E+02  0.24822278426E+02  0.51100000000E-03 0. -1.
        -11    1    3    3    0    0 -0.17719021348E+02 -0.13651230405E+02 -0.71580060198E+01  0.23485247701E+02  0.51100000000E-03 0.  1.
        -12    1    3    3    0    0  0.55188328449E+00  0.20903271536E+01 -0.51030409788E+00  0.22213628792E+01  0.00000000000E+00 0.  1.
</event>
<event>
 7    1  0.9868142E-013  0.5052886E+02  0.7816164E-02  0.1300439E+00
        -11   -1    0    0    0    0  0.00000000000E+00  0.00000000000E+00  0.45593999997E+02  0.45594000000E+02  0.51100000000E-03 0.  1.
         11   -1    0    0    0    0 -0.00000000000E+00 -0.00000000000E+00 -0.45593999997E+02  0.45594000000E+02  0.51100000000E-03 0. -1.
    9900012    2    1    2    0    0  0.32048825634E+02  0.18830674987E+02 -0.16475556901E+02  0.50528861787E+02  0.30000005888E+02 0.  0.
        -12    1    1    2    0    0 -0.32048825634E+02 -0.18830674987E+02  0.16475556901E+02  0.40659138213E+02  0.00000000000E+00 0.  1.
         11    1    3    3    0    0  0.12325539980E+02  0.13910557562E+02 -0.87149519595E+01  0.20527370397E+02  0.51100000000E-03 0. -1.
        -11    1    3    3    0    0  0.12034742099E+02 -0.67407600105E+01 -0.81628332293E+01  0.16028247237E+02  0.51100000000E-03 0.  1.
        -12    1    3    3    0    0  0.76885435546E+01  0.11660877436E+02  0.40222828754E+00  0.13973244153E+02  0.00000000000E+00 0.  1.
</event>
<event>
 7    1  0.9868142E-013  0.5052887E+02  0.7816164E-02  0.1300439E+00
        -11   -1    0    0    0    0  0.00000000000E+00  0.00000000000E+00  0.45593999997E+02  0.45594000000E+02  0.51100000000E-03 0.  1.
         11   -1    0    0    0    0 -0.00000000000E+00 -0.00000000000E+00 -0.45593999997E+02  0.45594000000E+02  0.51100000000E-03 0. -1.
    9900012    2    1    2    0    0 -0.14092611360E+01  0.53051301538E+01 -0.40286900284E+02  0.50528871168E+02  0.30000034402E+02 0.  0.
        -12    1    1    2    0    0  0.14092611360E+01 -0.53051301538E+01  0.40286900284E+02  0.40659128832E+02  0.00000000000E+00 0.  1.
         11    1    3    3    0    0  0.75022019017E+00  0.85708975491E+00 -0.10754657685E+02  0.10814809076E+02  0.51100000000E-03 0. -1.
        -11    1    3    3    0    0 -0.13294438504E+02  0.66408410564E+01 -0.13539370611E+02  0.20103666877E+02  0.51100000000E-03 0.  1.
        -12    1    3    3    0    0  0.11134957178E+02 -0.21928006575E+01 -0.15992871988E+02  0.19610395215E+02  0.00000000000E+00 0.  1.
</event>
<event>
 7    1  0.9868142E-013  0.5052886E+02  0.7816164E-02  0.1300439E+00
        -11   -1    0    0    0    0  0.00000000000E+00  0.00000000000E+00  0.45593999997E+02  0.45594000000E+02  0.51100000000E-03 0.  1.
         11   -1    0    0    0    0 -0.00000000000E+00 -0.00000000000E+00 -0.45593999997E+02  0.45594000000E+02  0.51100000000E-03 0. -1.
    9900012    2    1    2    0    0  0.33395808011E+02 -0.99214206297E+01 -0.20963097742E+02  0.50528855309E+02  0.29999986198E+02 0.  0.
        -12    1    1    2    0    0 -0.33395808011E+02  0.99214206297E+01  0.20963097742E+02  0.40659144691E+02  0.00000000000E+00 0.  1.
         11    1    3    3    0    0  0.12195800169E+02  0.26197486015E+00 -0.15781779214E+02  0.19946697171E+02  0.51100000000E-03 0. -1.
        -11    1    3    3    0    0  0.87381042945E+01 -0.14517975489E+02 -0.27879952239E+01  0.17172623463E+02  0.51100000000E-03 0.  1.
         12    1    3    3    0    0  0.12461903547E+02  0.43345799991E+01 -0.23933233043E+01  0.13409534676E+02  0.00000000000E+00 0. -1.
</event>
<event>
 7    1  0.9868142E-013  0.5052886E+02  0.7816164E-02  0.1300439E+00
        -11   -1    0    0    0    0  0.00000000000E+00  0.00000000000E+00  0.45593999997E+02  0.45594000000E+02  0.51100000000E-03 0.  1.
         11   -1    0    0    0    0 -0.00000000000E+00 -0.00000000000E+00 -0.45593999997E+02  0.45594000000E+02  0.51100000000E-03 0. -1.
    9900012    2    1    2    0    0 -0.45255581659E+01  0.40200949002E+02 -0.40704162466E+01  0.50528864916E+02  0.30000015399E+02 0.  0.
        -12    1    1    2    0    0  0.45255581659E+01 -0.40200949002E+02  0.40704162466E+01  0.40659135084E+02  0.00000000000E+00 0.  1.
         11    1    3    3    0    0 -0.11441987033E+01  0.40637054434E+02 -0.76563185039E+01  0.41367844965E+02  0.51100000000E-03 0. -1.
        -11    1    3    3    0    0 -0.56733608556E+01 -0.91721475820E+00  0.13080385202E+01  0.58940029981E+01  0.51100000000E-03 0.  1.
         12    1    3    3    0    0  0.22920013930E+01  0.48110932578E+00  0.22778637371E+01  0.32670169533E+01  0.00000000000E+00 0. -1.
</event>
<event>
 7    1  0.9868142E-013  0.5052884E+02  0.7816164E-02  0.1300439E+00
        -11   -1    0    0    0    0  0.00000000000E+00  0.00000000000E+00  0.45593999997E+02  0.45594000000E+02  0.51100000000E-03 0.  1.
         11   -1    0    0    0    0 -0.00000000000E+00 -0.00000000000E+00 -0.45593999997E+02  0.45594000000E+02  0.51100000000E-03 0. -1.
    9900012    2    1    2    0    0 -0.11119419654E+02 -0.34679986689E+02  0.18078293332E+02  0.50528835474E+02  0.29999925906E+02 0.  0.
        -12    1    1    2    0    0  0.11119419654E+02  0.34679986689E+02 -0.18078293332E+02  0.40659164526E+02  0.00000000000E+00 0.  1.
         11    1    3    3    0    0  0.53006807950E+01 -0.12894246147E+02  0.11451282677E+01  0.13988213596E+02  0.51100000000E-03 0. -1.
        -11    1    3    3    0    0 -0.15534661628E+02 -0.13321908034E+02  0.18843705776E+02  0.27818774114E+02  0.51100000000E-03 0.  1.
        -12    1    3    3    0    0 -0.88543882120E+00 -0.84638325069E+01 -0.19105407109E+01  0.87218477640E+01  0.00000000000E+00 0.  1.
</event>
<event>
 7    1  0.9868142E-013  0.5052885E+02  0.7816164E-02  0.1300439E+00
        -11   -1    0    0    0    0  0.00000000000E+00  0.00000000000E+00  0.45593999997E+02  0.45594000000E+02  0.51100000000E-03 0.  1.
         11   -1    0    0    0    0 -0.00000000000E+00 -0.00000000000E+00 -0.45593999997E+02  0.45594000000E+02  0.51100000000E-03 0. -1.
    9900012    2    1    2    0    0 -0.65675082267E+01  0.10411743104E+02 -0.38750875115E+02  0.50528845054E+02  0.29999955026E+02 0.  0.
        -12    1    1    2    0    0  0.65675082267E+01 -0.10411743104E+02  0.38750875115E+02  0.40659154946E+02  0.00000000000E+00 0.  1.
         11    1    3    3    0    0 -0.90828976397E+01  0.45310282652E+00 -0.24545987640E+02  0.26176513159E+02  0.51100000000E-03 0. -1.
        -11    1    3    3    0    0  0.69873999111E+01  0.86021463715E+01 -0.15899987192E+02  0.19381183470E+02  0.51100000000E-03 0.  1.
         12    1    3    3    0    0 -0.44720104981E+01  0.13564939056E+01  0.16950997174E+01  0.49711484250E+01  0.00000000000E+00 0. -1.
</event>
<event>
 7    1  0.9868142E-013  0.5052885E+02  0.7816164E-02  0.1300439E+00
        -11   -1    0    0    0    0  0.00000000000E+00  0.00000000000E+00  0.45593999997E+02  0.45594000000E+02  0.51100000000E-03 0.  1.
         11   -1    0    0    0    0 -0.00000000000E+00 -0.00000000000E+00 -0.45593999997E+02  0.45594000000E+02  0.51100000000E-03 0. -1.
    9900012    2    1    2    0    0 -0.32021938262E+02 -0.22447524582E+02 -0.11129718036E+02  0.50528849573E+02  0.29999968761E+02 0.  0.
        -12    1    1    2    0    0  0.32021938262E+02  0.22447524582E+02  0.11129718036E+02  0.40659150427E+02  0.00000000000E+00 0.  1.
         11    1    3    3    0    0 -0.11528559189E+02 -0.12751127769E+02 -0.12111748609E+01  0.17232698023E+02  0.51100000000E-03 0. -1.
        -11    1    3    3    0    0 -0.12478497206E+02  0.17824229350E+01 -0.13876939744E+02  0.18747249957E+02  0.51100000000E-03 0.  1.
        -12    1    3    3    0    0 -0.80148818669E+01 -0.11478819748E+02  0.39583965682E+01  0.14548901592E+02  0.00000000000E+00 0.  1.
</event>
<event>
 7    1  0.9868142E-013  0.5052886E+02  0.7816164E-02  0.1300439E+00
        -11   -1    0    0    0    0  0.00000000000E+00  0.00000000000E+00  0.45593999997E+02  0.45594000000E+02  0.51100000000E-03 0.  1.
         11   -1    0    0    0    0 -0.00000000000E+00 -0.00000000000E+00 -0.45593999997E+02  0.45594000000E+02  0.51100000000E-03 0. -1.
    9900012    2    1    2    0    0  0.12909099236E+02  0.32749745818E+01 -0.38416085640E+02  0.50528856656E+02  0.29999990291E+02 0.  0.
        -12    1    1    2    0    0 -0.12909099236E+02 -0.32749745818E+01  0.38416085640E+02  0.40659143344E+02  0.00000000000E+00 0.  1.
         11    1    3    3    0    0  0.94953463775E+01  0.64260613670E+01 -0.13004031949E+01  0.11538930464E+02  0.51100000000E-03 0. -1.
        -11    1    3    3    0    0 -0.16179156069E+01 -0.17351150040E+01 -0.30338601424E+02  0.30431217715E+02  0.51100000000E-03 0.  1.
        -12    1    3    3    0    0  0.50316684654E+01 -0.14159717812E+01 -0.67770810211E+01  0.85587084771E+01  0.00000000000E+00 0.  1.
</event>
<event>
 7    1  0.9868142E-013  0.5052886E+02  0.7816164E-02  0.1300439E+00
        -11   -1    0    0    0    0  0.00000000000E+00  0.00000000000E+00  0.45593999997E+02  0.45594000000E+02  0.51100000000E-03 0. -1.
         11   -1    0    0    0    0 -0.00000000000E+00 -0.00000000000E+00 -0.45593999997E+02  0.45594000000E+02  0.51100000000E-03 0.  1.
    9900012    2    1    2    0    0  0.37719510173E+02  0.22585882642E+01 -0.15010091995E+02  0.50528861663E+02  0.30000005510E+02 0.  0.
        -12    1    1    2    0    0 -0.37719510173E+02 -0.22585882642E+01  0.15010091995E+02  0.40659138337E+02  0.00000000000E+00 0.  1.
         11    1    3    3    0    0  0.13078256681E+02 -0.31886794171E+01 -0.14935601371E+02  0.20106731778E+02  0.51100000000E-03 0. -1.
        -11    1    3    3    0    0  0.90524413722E+01  0.56067013457E+01  0.75644976055E+01  0.13061524377E+02  0.51100000000E-03 0.  1.
         12    1    3    3    0    0  0.15588812120E+02 -0.15943366441E+00 -0.76389882293E+01  0.17360605507E+02  0.00000000000E+00 0. -1.
</event>
<event>
 7    1  0.9868142E-013  0.5052886E+02  0.7816164E-02  0.1300439E+00
        -11   -1    0    0    0    0  0.00000000000E+00  0.00000000000E+00  0.45593999997E+02  0.45594000000E+02  0.51100000000E-03 0.  1.
         11   -1    0    0    0    0 -0.00000000000E+00 -0.00000000000E+00 -0.45593999997E+02  0.45594000000E+02  0.51100000000E-03 0. -1.
    9900012    2    1    2    0    0 -0.33547974386E+02 -0.11468885692E+02 -0.19903867298E+02  0.50528857635E+02  0.29999993268E+02 0.  0.
        -12    1    1    2    0    0  0.33547974386E+02  0.11468885692E+02  0.19903867298E+02  0.40659142365E+02  0.00000000000E+00 0.  1.
         11    1    3    3    0    0 -0.33136914968E+01 -0.73377791188E+01 -0.91599135048E+01  0.12195391318E+02  0.51100000000E-03 0. -1.
        -11    1    3    3    0    0 -0.20898774627E+02  0.35019733837E+01  0.13781200064E+01  0.21234919673E+02  0.51100000000E-03 0.  1.
        -12    1    3    3    0    0 -0.93355082617E+01 -0.76330799571E+01 -0.12122073800E+02  0.17098546644E+02  0.00000000000E+00 0.  1.
</event>
<event>
 7    1  0.9868142E-013  0.5052886E+02  0.7816164E-02  0.1300439E+00
        -11   -1    0    0    0    0  0.00000000000E+00  0.00000000000E+00  0.45593999997E+02  0.45594000000E+02  0.51100000000E-03 0.  1.
         11   -1    0    0    0    0 -0.00000000000E+00 -0.00000000000E+00 -0.45593999997E+02  0.45594000000E+02  0.51100000000E-03 0. -1.
    9900012    2    1    2    0    0  0.15104890890E+02  0.25693177106E+02 -0.27656264314E+02  0.50528855464E+02  0.29999986667E+02 0.  0.
        -12    1    1    2    0    0 -0.15104890890E+02 -0.25693177106E+02  0.27656264314E+02  0.40659144536E+02  0.00000000000E+00 0.  1.
         11    1    3    3    0    0  0.44221846150E+01  0.10138796145E+02 -0.10719602868E+02  0.15403272053E+02  0.51100000000E-03 0. -1.
        -11    1    3    3    0    0  0.67965046646E+01 -0.27119591266E+01  0.29090592106E+01  0.78746316556E+01  0.51100000000E-03 0.  1.
        -12    1    3    3    0    0  0.38862016108E+01  0.18266340088E+02 -0.19845720656E+02  0.27250951755E+02  0.00000000000E+00 0.  1.
</event>
<event>
 7    1  0.9868142E-013  0.5052885E+02  0.7816164E-02  0.1300439E+00
        -11   -1    0    0    0    0  0.00000000000E+00  0.00000000000E+00  0.45593999997E+02  0.45594000000E+02  0.51100000000E-03 0.  1.
         11   -1    0    0    0    0 -0.00000000000E+00 -0.00000000000E+00 -0.45593999997E+02  0.45594000000E+02  0.51100000000E-03 0. -1.
    9900012    2    1    2    0    0 -0.52273424280E+01  0.38756383709E+02 -0.11125836151E+02  0.50528848298E+02  0.29999964887E+02 0.  0.
        -12    1    1    2    0    0  0.52273424280E+01 -0.38756383709E+02  0.11125836151E+02  0.40659151702E+02  0.00000000000E+00 0.  1.
         11    1    3    3    0    0 -0.39291217026E+01  0.22837806655E+02 -0.21221880059E+02  0.31422469726E+02  0.51100000000E-03 0. -1.
        -11    1    3    3    0    0 -0.48832897124E+00  0.29833193920E+01  0.32879782093E+01  0.44664819204E+01  0.51100000000E-03 0.  1.
         12    1    3    3    0    0 -0.80989175410E+00  0.12935257662E+02  0.68080656983E+01  0.14639896652E+02  0.00000000000E+00 0. -1.
</event>
<event>
 7    1  0.9868142E-013  0.5052892E+02  0.7816164E-02  0.1300439E+00
        -11   -1    0    0    0    0  0.00000000000E+00  0.00000000000E+00  0.45593999997E+02  0.45594000000E+02  0.51100000000E-03 0.  1.
         11   -1    0    0    0    0 -0.00000000000E+00 -0.00000000000E+00 -0.45593999997E+02  0.45594000000E+02  0.51100000000E-03 0. -1.
    9900012    2    1    2    0    0  0.18239056004E+02  0.21169117105E+02 -0.29535846116E+02  0.50528918743E+02  0.30000179010E+02 0.  0.
        -12    1    1    2    0    0 -0.18239056004E+02 -0.21169117105E+02  0.29535846116E+02  0.40659081257E+02  0.00000000000E+00 0.  1.
         11    1    3    3    0    0  0.42750798716E+01  0.38065854468E+01 -0.20761565023E+01  0.60890743759E+01  0.51100000000E-03 0. -1.
        -11    1    3    3    0    0  0.17967584386E+02  0.81978919877E+01 -0.28181632853E+02  0.34412845744E+02  0.51100000000E-03 0.  1.
        -12    1    3    3    0    0 -0.40036082533E+01  0.91646396707E+01  0.72194323931E+00  0.10026998623E+02  0.00000000000E+00 0.  1.
</event>
<event>
 7    1  0.9868142E-013  0.5052887E+02  0.7816164E-02  0.1300439E+00
        -11   -1    0    0    0    0  0.00000000000E+00  0.00000000000E+00  0.45593999997E+02  0.45594000000E+02  0.51100000000E-03 0. -1.
         11   -1    0    0    0    0 -0.00000000000E+00 -0.00000000000E+00 -0.45593999997E+02  0.45594000000E+02  0.51100000000E-03 0.  1.
    9900012    2    1    2    0    0 -0.20447772356E+01 -0.38359665829E+02 -0.13323642681E+02  0.50528873955E+02  0.30000042874E+02 0.  0.
        -12    1    1    2    0    0  0.20447772356E+01  0.38359665829E+02  0.13323642681E+02  0.40659126045E+02  0.00000000000E+00 0.  1.
         11    1    3    3    0    0 -0.59724857809E+01 -0.14541927928E+02  0.67527144727E+01  0.17109570634E+02  0.51100000000E-03 0. -1.
        -11    1    3    3    0    0  0.70826544742E+01 -0.13988969967E+02 -0.82369079128E+01  0.17711632544E+02  0.51100000000E-03 0.  1.
        -12    1    3    3    0    0 -0.31549459289E+01 -0.98287679334E+01 -0.11839449241E+02  0.15707670777E+02  0.00000000000E+00 0.  1.
</event>
<event>
 7    1  0.9868142E-013  0.5052885E+02  0.7816164E-02  0.1300439E+00
        -11   -1    0    0    0    0  0.00000000000E+00  0.00000000000E+00  0.45593999997E+02  0.45594000000E+02  0.51100000000E-03 0. -1.
         11   -1    0    0    0    0 -0.00000000000E+00 -0.00000000000E+00 -0.45593999997E+02  0.45594000000E+02  0.51100000000E-03 0.  1.
    9900012    2    1    2    0    0 -0.30508955948E+02 -0.62389634821E+01  0.26142784924E+02  0.50528852666E+02  0.29999978162E+02 0.  0.
        -12    1    1    2    0    0  0.30508955948E+02  0.62389634821E+01 -0.26142784924E+02  0.40659147334E+02  0.00000000000E+00 0.  1.
         11    1    3    3    0    0 -0.19000857339E+02 -0.12379643801E+02  0.16639986697E+02  0.28127874392E+02  0.51100000000E-03 0. -1.
        -11    1    3    3    0    0  0.31325873701E+01  0.22949226095E+01 -0.95932773228E+00  0.40000104217E+01  0.51100000000E-03 0.  1.
         12    1    3    3    0    0 -0.14640685979E+02  0.38457577098E+01  0.10462125959E+02  0.18400967852E+02  0.00000000000E+00 0. -1.
</event>
<event>
 7    1  0.9868142E-013  0.5052885E+02  0.7816164E-02  0.1300439E+00
        -11   -1    0    0    0    0  0.00000000000E+00  0.00000000000E+00  0.45593999997E+02  0.45594000000E+02  0.51100000000E-03 0.  1.
         11   -1    0    0    0    0 -0.00000000000E+00 -0.00000000000E+00 -0.45593999997E+02  0.45594000000E+02  0.51100000000E-03 0. -1.
    9900012    2    1    2    0    0  0.28812025323E+00 -0.30549017649E+02 -0.26829845609E+02  0.50528854559E+02  0.29999983916E+02 0.  0.
        -12    1    1    2    0    0 -0.28812025323E+00  0.30549017649E+02  0.26829845609E+02  0.40659145441E+02  0.00000000000E+00 0.  1.
         11    1    3    3    0    0  0.35212380724E+01 -0.29657446825E+01 -0.41924036679E+01  0.62266369623E+01  0.51100000000E-03 0. -1.
        -11    1    3    3    0    0 -0.11724678601E+02 -0.25856787034E+02 -0.21391765904E+02  0.35547843434E+02  0.51100000000E-03 0.  1.
        -12    1    3    3    0    0  0.84915607820E+01 -0.17264859321E+01 -0.12456760375E+01  0.87543741626E+01  0.00000000000E+00 0.  1.
</event>
<event>
 7    1  0.9868142E-013  0.5052886E+02  0.7816164E-02  0.1300439E+00
        -11   -1    0    0    0    0  0.00000000000E+00  0.00000000000E+00  0.45593999997E+02  0.45594000000E+02  0.51100000000E-03 0.  1.
         11   -1    0    0    0    0 -0.00000000000E+00 -0.00000000000E+00 -0.45593999997E+02  0.45594000000E+02  0.51100000000E-03 0. -1.
    9900012    2    1    2    0    0 -0.10493820280E+01  0.29909103433E+02 -0.27522898741E+02  0.50528860487E+02  0.30000001937E+02 0.  0.
        -12    1    1    2    0    0  0.10493820280E+01 -0.29909103433E+02  0.27522898741E+02  0.40659139513E+02  0.00000000000E+00 0.  1.
         11    1    3    3    0    0 -0.21903075020E+01 -0.48795584645E+00 -0.12327587949E+02  0.12530162520E+02  0.51100000000E-03 0. -1.
        -11    1    3    3    0    0 -0.59718575416E+01  0.20457928685E+02 -0.45530616287E+01  0.21792666176E+02  0.51100000000E-03 0.  1.
         12    1    3    3    0    0  0.71127830156E+01  0.99391305940E+01 -0.10642249163E+02  0.16206031792E+02  0.00000000000E+00 0. -1.
</event>
<event>
 7    1  0.9868142E-013  0.5052887E+02  0.7816164E-02  0.1300439E+00
        -11   -1    0    0    0    0  0.00000000000E+00  0.00000000000E+00  0.45593999997E+02  0.45594000000E+02  0.51100000000E-03 0.  1.
         11   -1    0    0    0    0 -0.00000000000E+00 -0.00000000000E+00 -0.45593999997E+02  0.45594000000E+02  0.51100000000E-03 0. -1.
    9900012    2    1    2    0    0  0.86670947009E+01  0.38507042570E+02 -0.97598132474E+01  0.50528870488E+02  0.30000032336E+02 0.  0.
        -12    1    1    2    0    0 -0.86670947009E+01 -0.38507042570E+02  0.97598132474E+01  0.40659129512E+02  0.00000000000E+00 0.  1.
         11    1    3    3    0    0  0.16145288733E+02  0.10930895200E+02 -0.95298118000E+01  0.21701892345E+02  0.51100000000E-03 0. -1.
        -11    1    3    3    0    0 -0.19729547133E+01  0.80274939665E+01 -0.17904478194E+01  0.84580679435E+01  0.51100000000E-03 0.  1.
         12    1    3    3    0    0 -0.55052393191E+01  0.19548653403E+02  0.15604463720E+01  0.20368910200E+02  0.00000000000E+00 0. -1.
</event>
<event>
 7    1  0.9868142E-013  0.5052887E+02  0.7816164E-02  0.1300439E+00
        -11   -1    0    0    0    0  0.00000000000E+00  0.00000000000E+00  0.45593999997E+02  0.45594000000E+02  0.51100000000E-03 0.  1.
         11   -1    0    0    0    0 -0.00000000000E+00 -0.00000000000E+00 -0.45593999997E+02  0.45594000000E+02  0.51100000000E-03 0. -1.
    9900012    2    1    2    0    0  0.22748077284E+02 -0.21559795754E+02 -0.25901061157E+02  0.50528870863E+02  0.30000033476E+02 0.  0.
        -12    1    1    2    0    0 -0.22748077284E+02  0.21559795754E+02  0.25901061157E+02  0.40659129137E+02  0.00000000000E+00 0.  1.
         11    1    3    3    0    0  0.10843131519E+02  0.30790303554E+01 -0.10109455838E+02  0.15141169924E+02  0.51100000000E-03 0. -1.
        -11    1    3    3    0    0  0.73558456154E+01 -0.10573234000E+02  0.11163053356E+01  0.12928568358E+02  0.51100000000E-03 0.  1.
         12    1    3    3    0    0  0.45491001500E+01 -0.14065592110E+02 -0.16907910655E+02  0.22459132581E+02  0.00000000000E+00 0. -1.
</event>
<event>
 7    1  0.9868142E-013  0.5052886E+02  0.7816164E-02  0.1300439E+00
        -11   -1    0    0    0    0  0.00000000000E+00  0.00000000000E+00  0.45593999997E+02  0.45594000000E+02  0.51100000000E-03 0. -1.
         11   -1    0    0    0    0 -0.00000000000E+00 -0.00000000000E+00 -0.45593999997E+02  0.45594000000E+02  0.51100000000E-03 0.  1.
    9900012    2    1    2    0    0  0.39972300230E+02  0.36921091825E+01  0.64613662466E+01  0.50528859458E+02  0.29999998808E+02 0.  0.
        -12    1    1    2    0    0 -0.39972300230E+02 -0.36921091825E+01 -0.64613662466E+01  0.40659140542E+02  0.00000000000E+00 0.  1.
         11    1    3    3    0    0  0.17171576811E+02 -0.57971836883E+01  0.13999098525E+02  0.22900767425E+02  0.51100000000E-03 0. -1.
        -11    1    3    3    0    0 -0.44835569748E+00  0.15164853992E+00  0.10429141997E+01  0.11452905309E+01  0.51100000000E-03 0.  1.
         12    1    3    3    0    0  0.23249079116E+02  0.93376443309E+01 -0.85806464779E+01  0.26482801502E+02  0.00000000000E+00 0. -1.
</event>
<event>
 7    1  0.9868142E-013  0.5052886E+02  0.7816164E-02  0.1300439E+00
        -11   -1    0    0    0    0  0.00000000000E+00  0.00000000000E+00  0.45593999997E+02  0.45594000000E+02  0.51100000000E-03 0.  1.
         11   -1    0    0    0    0 -0.00000000000E+00 -0.00000000000E+00 -0.45593999997E+02  0.45594000000E+02  0.51100000000E-03 0. -1.
    9900012    2    1    2    0    0  0.20497883846E+02 -0.29422299875E+02 -0.19165874474E+02  0.50528859374E+02  0.29999998554E+02 0.  0.
        -12    1    1    2    0    0 -0.20497883846E+02  0.29422299875E+02  0.19165874474E+02  0.40659140626E+02  0.00000000000E+00 0.  1.
         11    1    3    3    0    0  0.52336821329E+01 -0.12237284350E+02  0.43821017905E+01  0.14012329332E+02  0.51100000000E-03 0. -1.
        -11    1    3    3    0    0  0.59521099034E+01  0.13573391705E+01 -0.10063650530E+02  0.11770600842E+02  0.51100000000E-03 0.  1.
        -12    1    3    3    0    0  0.93120918093E+01 -0.18542354695E+02 -0.13484325734E+02  0.24745929201E+02  0.00000000000E+00 0.  1.
</event>
<event>
 7    1  0.9868142E-013  0.5052893E+02  0.7816164E-02  0.1300439E+00
        -11   -1    0    0    0    0  0.00000000000E+00  0.00000000000E+00  0.45593999997E+02  0.45594000000E+02  0.51100000000E-03 0.  1.
         11   -1    0    0    0    0 -0.00000000000E+00 -0.00000000000E+00 -0.45593999997E+02  0.45594000000E+02  0.51100000000E-03 0. -1.
    9900012    2    1    2    0    0 -0.82070691957E+01 -0.25797617299E+02 -0.30336235093E+02  0.50528927178E+02  0.30000204650E+02 0.  0.
        -12    1    1    2    0    0  0.82070691957E+01  0.25797617299E+02  0.30336235093E+02  0.40659072822E+02  0.00000000000E+00 0.  1.
         11    1    3    3    0    0 -0.35962647264E+01 -0.30197452060E+02 -0.25423942901E+02  0.39638316107E+02  0.51100000000E-03 0. -1.
        -11    1    3    3    0    0  0.20006739133E+01  0.74708607631E+00 -0.73192775858E+00  0.22575544772E+01  0.51100000000E-03 0.  1.
         12    1    3    3    0    0 -0.66114783826E+01  0.36527486844E+01 -0.41803644337E+01  0.86330565939E+01  0.00000000000E+00 0. -1.
</event>
<event>
 7    1  0.9868142E-013  0.5052886E+02  0.7816164E-02  0.1300439E+00
        -11   -1    0    0    0    0  0.00000000000E+00  0.00000000000E+00  0.45593999997E+02  0.45594000000E+02  0.51100000000E-03 0.  1.
         11   -1    0    0    0    0 -0.00000000000E+00 -0.00000000000E+00 -0.45593999997E+02  0.45594000000E+02  0.51100000000E-03 0. -1.
    9900012    2    1    2    0    0  0.12221576569E+01 -0.15134872778E+02 -0.37717471558E+02  0.50528859526E+02  0.29999999016E+02 0.  0.
        -12    1    1    2    0    0 -0.12221576569E+01  0.15134872778E+02  0.37717471558E+02  0.40659140474E+02  0.00000000000E+00 0.  1.
         11    1    3    3    0    0  0.38862454099E+01 -0.58915182943E+01 -0.29200302536E+00  0.70638627695E+01  0.51100000000E-03 0.  1.
        -11    1    3    3    0    0  0.33503329546E+01 -0.11284199016E+02 -0.34536893048E+02  0.36487735747E+02  0.51100000000E-03 0. -1.
         12    1    3    3    0    0 -0.60144207077E+01  0.20408445325E+01 -0.28885754852E+01  0.69772610091E+01  0.00000000000E+00 0. -1.
</event>
<event>
 7    1  0.9868142E-013  0.5052887E+02  0.7816164E-02  0.1300439E+00
        -11   -1    0    0    0    0  0.00000000000E+00  0.00000000000E+00  0.45593999997E+02  0.45594000000E+02  0.51100000000E-03 0.  1.
         11   -1    0    0    0    0 -0.00000000000E+00 -0.00000000000E+00 -0.45593999997E+02  0.45594000000E+02  0.51100000000E-03 0. -1.
    9900012    2    1    2    0    0  0.91667867817E+01 -0.23763467883E+01 -0.39540967956E+02  0.50528866329E+02  0.30000019695E+02 0.  0.
        -12    1    1    2    0    0 -0.91667867817E+01  0.23763467883E+01  0.39540967956E+02  0.40659133671E+02  0.00000000000E+00 0.  1.
         11    1    3    3    0    0  0.70960302033E+01  0.19636949360E+01 -0.32916875534E+02  0.33730259970E+02  0.51100000000E-03 0. -1.
        -11    1    3    3    0    0 -0.21006710616E+01 -0.87713142660E+01 -0.22261596151E+01  0.92900247446E+01  0.51100000000E-03 0.  1.
        -12    1    3    3    0    0  0.41714276400E+01  0.44312725417E+01 -0.43979328063E+01  0.75085816146E+01  0.00000000000E+00 0.  1.
</event>
<event>
 7    1  0.9868142E-013  0.5052886E+02  0.7816164E-02  0.1300439E+00
        -11   -1    0    0    0    0  0.00000000000E+00  0.00000000000E+00  0.45593999997E+02  0.45594000000E+02  0.51100000000E-03 0.  1.
         11   -1    0    0    0    0 -0.00000000000E+00 -0.00000000000E+00 -0.45593999997E+02  0.45594000000E+02  0.51100000000E-03 0. -1.
    9900012    2    1    2    0    0  0.21177534299E+02  0.67416016534E+01 -0.34047439100E+02  0.50528864974E+02  0.30000015574E+02 0.  0.
        -12    1    1    2    0    0 -0.21177534299E+02 -0.67416016534E+01  0.34047439100E+02  0.40659135026E+02  0.00000000000E+00 0.  1.
         11    1    3    3    0    0 -0.40461771967E+01  0.38603225851E-01 -0.92315678118E+01  0.10079428785E+02  0.51100000000E-03 0. -1.
        -11    1    3    3    0    0  0.14034280528E+02 -0.48480405825E+01 -0.68956680198E+01  0.16371156499E+02  0.51100000000E-03 0.  1.
        -12    1    3    3    0    0  0.11189430968E+02  0.11551039010E+02 -0.17920203268E+02  0.24078279689E+02  0.00000000000E+00 0.  1.
</event>
<event>
 7    1  0.9868142E-013  0.5052887E+02  0.7816164E-02  0.1300439E+00
        -11   -1    0    0    0    0  0.00000000000E+00  0.00000000000E+00  0.45593999997E+02  0.45594000000E+02  0.51100000000E-03 0.  1.
         11   -1    0    0    0    0 -0.00000000000E+00 -0.00000000000E+00 -0.45593999997E+02  0.45594000000E+02  0.51100000000E-03 0. -1.
    9900012    2    1    2    0    0  0.16685441516E+02  0.36806460377E+02 -0.44772344934E+01  0.50528866797E+02  0.30000021118E+02 0.  0.
        -12    1    1    2    0    0 -0.16685441516E+02 -0.36806460377E+02  0.44772344934E+01  0.40659133203E+02  0.00000000000E+00 0.  1.
         11    1    3    3    0    0  0.17494409088E+01  0.33264704799E+01 -0.11029486775E+02  0.11652275663E+02  0.51100000000E-03 0. -1.
        -11    1    3    3    0    0  0.10086552720E+02  0.12845281402E+02  0.67670805421E+01  0.17678607960E+02  0.51100000000E-03 0.  1.
        -12    1    3    3    0    0  0.48494478870E+01  0.20634708495E+02 -0.21482826054E+00  0.21197983175E+02  0.00000000000E+00 0.  1.
</event>
<event>
 7    1  0.9868142E-013  0.5052886E+02  0.7816164E-02  0.1300439E+00
        -11   -1    0    0    0    0  0.00000000000E+00  0.00000000000E+00  0.45593999997E+02  0.45594000000E+02  0.51100000000E-03 0.  1.
         11   -1    0    0    0    0 -0.00000000000E+00 -0.00000000000E+00 -0.45593999997E+02  0.45594000000E+02  0.51100000000E-03 0. -1.
    9900012    2    1    2    0    0  0.11451857205E+02  0.38579270924E+02 -0.58017378198E+01  0.50528864001E+02  0.30000012617E+02 0.  0.
        -12    1    1    2    0    0 -0.11451857205E+02 -0.38579270924E+02  0.58017378198E+01  0.40659135999E+02  0.00000000000E+00 0.  1.
         11    1    3    3    0    0 -0.52816559716E+01  0.67347596801E+01  0.56937493036E+01  0.10279672132E+02  0.51100000000E-03 0. -1.
        -11    1    3    3    0    0  0.13607904016E+02  0.31006107615E+02 -0.67845035450E+01  0.34533798659E+02  0.51100000000E-03 0.  1.
        -12    1    3    3    0    0  0.31256091606E+01  0.83840362841E+00 -0.47109835784E+01  0.57153932100E+01  0.00000000000E+00 0.  1.
</event>
<event>
 7    1  0.9868142E-013  0.5052886E+02  0.7816164E-02  0.1300439E+00
        -11   -1    0    0    0    0  0.00000000000E+00  0.00000000000E+00  0.45593999997E+02  0.45594000000E+02  0.51100000000E-03 0. -1.
         11   -1    0    0    0    0 -0.00000000000E+00 -0.00000000000E+00 -0.45593999997E+02  0.45594000000E+02  0.51100000000E-03 0.  1.
    9900012    2    1    2    0    0 -0.12253990507E+02  0.38239460002E+02  0.63834938848E+01  0.50528861067E+02  0.30000003699E+02 0.  0.
        -12    1    1    2    0    0  0.12253990507E+02 -0.38239460002E+02 -0.63834938848E+01  0.40659138933E+02  0.00000000000E+00 0.  1.
         11    1    3    3    0    0 -0.67742054834E+01  0.19661093929E+02  0.63634786585E+01  0.21747237418E+02  0.51100000000E-03 0. -1.
        -11    1    3    3    0    0 -0.99303285828E+00 -0.23932066339E+01  0.59846444508E+01  0.65214662243E+01  0.51100000000E-03 0.  1.
        -12    1    3    3    0    0 -0.44867521656E+01  0.20971572707E+02 -0.59646292245E+01  0.22260157425E+02  0.00000000000E+00 0.  1.
</event>
<event>
 7    1  0.9868142E-013  0.5052887E+02  0.7816164E-02  0.1300439E+00
        -11   -1    0    0    0    0  0.00000000000E+00  0.00000000000E+00  0.45593999997E+02  0.45594000000E+02  0.51100000000E-03 0. -1.
         11   -1    0    0    0    0 -0.00000000000E+00 -0.00000000000E+00 -0.45593999997E+02  0.45594000000E+02  0.51100000000E-03 0.  1.
    9900012    2    1    2    0    0 -0.12148435040E+02  0.45785727408E+01  0.38530729122E+02  0.50528869550E+02  0.30000029485E+02 0.  0.
        -12    1    1    2    0    0  0.12148435040E+02 -0.45785727408E+01 -0.38530729122E+02  0.40659130450E+02  0.00000000000E+00 0.  1.
         11    1    3    3    0    0  0.87171149286E+01  0.29660952182E+01  0.14459832218E+02  0.17142711616E+02  0.51100000000E-03 0. -1.
        -11    1    3    3    0    0 -0.50973010818E+01  0.42402121902E+01  0.10493146460E+02  0.12412413167E+02  0.51100000000E-03 0.  1.
         12    1    3    3    0    0 -0.15768248887E+02 -0.26277346677E+01  0.13577750444E+02  0.20973744767E+02  0.00000000000E+00 0. -1.
</event>
<event>
 7    1  0.9868142E-013  0.5052887E+02  0.7816164E-02  0.1300439E+00
        -11   -1    0    0    0    0  0.00000000000E+00  0.00000000000E+00  0.45593999997E+02  0.45594000000E+02  0.51100000000E-03 0.  1.
         11   -1    0    0    0    0 -0.00000000000E+00 -0.00000000000E+00 -0.45593999997E+02  0.45594000000E+02  0.51100000000E-03 0. -1.
    9900012    2    1    2    0    0 -0.45762961604E+01  0.31632952668E+02 -0.25131223375E+02  0.50528873480E+02  0.30000041430E+02 0.  0.
        -12    1    1    2    0    0  0.45762961604E+01 -0.31632952668E+02  0.25131223375E+02  0.40659126520E+02  0.00000000000E+00 0.  1.
         11    1    3    3    0    0 -0.73364322447E+01  0.18901998419E+02 -0.17352081913E+02  0.26687141647E+02  0.51100000000E-03 0. -1.
        -11    1    3    3    0    0 -0.46615180860E+01 -0.26199076780E+01 -0.75315863972E+00  0.54000847498E+01  0.51100000000E-03 0.  1.
        -12    1    3    3    0    0  0.74216541702E+01  0.15350861928E+02 -0.70259828219E+01  0.18441647084E+02  0.00000000000E+00 0.  1.
</event>
<event>
 7    1  0.9868142E-013  0.5052885E+02  0.7816164E-02  0.1300439E+00
        -11   -1    0    0    0    0  0.00000000000E+00  0.00000000000E+00  0.45593999997E+02  0.45594000000E+02  0.51100000000E-03 0. -1.
         11   -1    0    0    0    0 -0.00000000000E+00 -0.00000000000E+00 -0.45593999997E+02  0.45594000000E+02  0.51100000000E-03 0.  1.
    9900012    2    1    2    0    0 -0.84401812823E+01 -0.12614345467E+02  0.37720124920E+02  0.50528853481E+02  0.29999980641E+02 0.  0.
        -12    1    1    2    0    0  0.84401812823E+01  0.12614345467E+02 -0.37720124920E+02  0.40659146519E+02  0.00000000000E+00 0.  1.
         11    1    3    3    0    0  0.41314680061E+01  0.55039152019E-02  0.25259704779E+02  0.25595346139E+02  0.51100000000E-03 0. -1.
        -11    1    3    3    0    0 -0.85494133784E+01 -0.13476547502E+02  0.55596760986E+01  0.16900289946E+02  0.51100000000E-03 0.  1.
        -12    1    3    3    0    0 -0.40222359099E+01  0.85669811946E+00  0.69007440425E+01  0.80332173955E+01  0.00000000000E+00 0.  1.
</event>
<event>
 7    1  0.9868142E-013  0.5052887E+02  0.7816164E-02  0.1300439E+00
        -11   -1    0    0    0    0  0.00000000000E+00  0.00000000000E+00  0.45593999997E+02  0.45594000000E+02  0.51100000000E-03 0.  1.
         11   -1    0    0    0    0 -0.00000000000E+00 -0.00000000000E+00 -0.45593999997E+02  0.45594000000E+02  0.51100000000E-03 0. -1.
    9900012    2    1    2    0    0 -0.74608287196E+01 -0.11578499885E+02 -0.38254926411E+02  0.50528867945E+02  0.30000024605E+02 0.  0.
        -12    1    1    2    0    0  0.74608287196E+01  0.11578499885E+02  0.38254926411E+02  0.40659132055E+02  0.00000000000E+00 0.  1.
         11    1    3    3    0    0 -0.10459581314E+02  0.25857724100E+01 -0.17362890480E+02  0.20434261090E+02  0.51100000000E-03 0. -1.
        -11    1    3    3    0    0  0.30133591285E+01 -0.14643610251E+02 -0.23275478822E+02  0.27663397641E+02  0.51100000000E-03 0.  1.
        -12    1    3    3    0    0 -0.14606533902E-01  0.47933795559E+00  0.23834428906E+01  0.24312092134E+01  0.00000000000E+00 0.  1.
</event>
<event>
 7    1  0.1211982E-012  0.5052886E+02  0.7816164E-02  0.1300439E+00
        -11   -1    0    0    0    0  0.00000000000E+00  0.00000000000E+00  0.45593999997E+02  0.45594000000E+02  0.51100000000E-03 0. -1.
         11   -1    0    0    0    0 -0.00000000000E+00 -0.00000000000E+00 -0.45593999997E+02  0.45594000000E+02  0.51100000000E-03 0.  1.
    9900012    2    1    2    0    0  0.32877583266E+02  0.79908704155E+01  0.22547194980E+02  0.50528862123E+02  0.30000006910E+02 0.  0.
        -12    1    1    2    0    0 -0.32877583266E+02 -0.79908704155E+01 -0.22547194980E+02  0.40659137877E+02  0.00000000000E+00 0.  1.
         11    1    3    3    0    0  0.28793259413E+02 -0.32895082585E+01  0.15591435465E+02  0.32908441354E+02  0.51100000000E-03 0. -1.
        -11    1    3    3    0    0 -0.16181268869E+01  0.69223307996E+01  0.76096228062E+01  0.10413614062E+02  0.51100000000E-03 0.  1.
        -12    1    3    3    0    0  0.57024507397E+01  0.43580478745E+01 -0.65386329135E+00  0.72068067075E+01  0.00000000000E+00 0.  1.
</event>
<event>
 7    1  0.9868142E-013  0.5052889E+02  0.7816164E-02  0.1300439E+00
        -11   -1    0    0    0    0  0.00000000000E+00  0.00000000000E+00  0.45593999997E+02  0.45594000000E+02  0.51100000000E-03 0.  1.
         11   -1    0    0    0    0 -0.00000000000E+00 -0.00000000000E+00 -0.45593999997E+02  0.45594000000E+02  0.51100000000E-03 0. -1.
    9900012    2    1    2    0    0 -0.18313764151E+02  0.29821348622E+02 -0.20699194164E+02  0.50528887490E+02  0.30000084016E+02 0.  0.
        -12    1    1    2    0    0  0.18313764151E+02 -0.29821348622E+02  0.20699194164E+02  0.40659112510E+02  0.00000000000E+00 0.  1.
         11    1    3    3    0    0 -0.34531764699E+01 -0.43965564699E+01 -0.99426960824E+01  0.11406635883E+02  0.51100000000E-03 0.  1.
        -11    1    3    3    0    0 -0.11201871625E+02  0.25287687891E+02 -0.57454502943E+01  0.28248173146E+02  0.51100000000E-03 0. -1.
        -12    1    3    3    0    0 -0.36587160564E+01  0.89302172010E+01 -0.50110477876E+01  0.10874078461E+02  0.00000000000E+00 0.  1.
</event>
<event>
 7    1  0.9868142E-013  0.5052888E+02  0.7816164E-02  0.1300439E+00
        -11   -1    0    0    0    0  0.00000000000E+00  0.00000000000E+00  0.45593999997E+02  0.45594000000E+02  0.51100000000E-03 0.  1.
         11   -1    0    0    0    0 -0.00000000000E+00 -0.00000000000E+00 -0.45593999997E+02  0.45594000000E+02  0.51100000000E-03 0. -1.
    9900012    2    1    2    0    0  0.20727190461E+02 -0.29039278534E+02 -0.19500466019E+02  0.50528876828E+02  0.30000051606E+02 0.  0.
        -12    1    1    2    0    0 -0.20727190461E+02  0.29039278534E+02  0.19500466019E+02  0.40659123172E+02  0.00000000000E+00 0.  1.
         11    1    3    3    0    0  0.13530822737E+02 -0.26908561062E+01 -0.58551863547E+01  0.14986896878E+02  0.51100000000E-03 0. -1.
        -11    1    3    3    0    0 -0.59589240567E+01 -0.84779360770E+01 -0.22805459263E+01  0.10610611011E+02  0.51100000000E-03 0.  1.
         12    1    3    3    0    0  0.13155291781E+02 -0.17870486350E+02 -0.11364733738E+02  0.24931368939E+02  0.00000000000E+00 0. -1.
</event>
<event>
 7    1  0.9868142E-013  0.5052886E+02  0.7816164E-02  0.1300439E+00
        -11   -1    0    0    0    0  0.00000000000E+00  0.00000000000E+00  0.45593999997E+02  0.45594000000E+02  0.51100000000E-03 0.  1.
         11   -1    0    0    0    0 -0.00000000000E+00 -0.00000000000E+00 -0.45593999997E+02  0.45594000000E+02  0.51100000000E-03 0. -1.
    9900012    2    1    2    0    0  0.15395998610E+01  0.37364745613E+01 -0.40457806060E+02  0.50528859809E+02  0.29999999876E+02 0.  0.
        -12    1    1    2    0    0 -0.15395998610E+01 -0.37364745613E+01  0.40457806060E+02  0.40659140191E+02  0.00000000000E+00 0.  1.
         11    1    3    3    0    0 -0.67778218536E+01 -0.86876978448E+01 -0.23319892863E+02  0.25792098913E+02  0.51100000000E-03 0. -1.
        -11    1    3    3    0    0 -0.98795867031E+00  0.26142737022E+01  0.13860226279E+00  0.27981601406E+01  0.51100000000E-03 0.  1.
         12    1    3    3    0    0  0.93053803849E+01  0.98098987040E+01 -0.17276515460E+02  0.21938600756E+02  0.00000000000E+00 0. -1.
</event>
<event>
 7    1  0.9868142E-013  0.5052886E+02  0.7816164E-02  0.1300439E+00
        -11   -1    0    0    0    0  0.00000000000E+00  0.00000000000E+00  0.45593999997E+02  0.45594000000E+02  0.51100000000E-03 0.  1.
         11   -1    0    0    0    0 -0.00000000000E+00 -0.00000000000E+00 -0.45593999997E+02  0.45594000000E+02  0.51100000000E-03 0. -1.
    9900012    2    1    2    0    0  0.20637534749E+02 -0.17480305151E+02 -0.30359463658E+02  0.50528856596E+02  0.29999990110E+02 0.  0.
        -12    1    1    2    0    0 -0.20637534749E+02  0.17480305151E+02  0.30359463658E+02  0.40659143404E+02  0.00000000000E+00 0.  1.
         11    1    3    3    0    0  0.24401197128E+01 -0.20880866901E+02 -0.13905927425E+02  0.25205943834E+02  0.51100000000E-03 0. -1.
        -11    1    3    3    0    0  0.92625796438E+01  0.14381394094E+01 -0.48711138458E+01  0.10563681980E+02  0.51100000000E-03 0.  1.
         12    1    3    3    0    0  0.89348353920E+01  0.19624223399E+01 -0.11582422388E+02  0.14759230782E+02  0.00000000000E+00 0. -1.
</event>
<event>
 7    1  0.9868142E-013  0.5052889E+02  0.7816164E-02  0.1300439E+00
        -11   -1    0    0    0    0  0.00000000000E+00  0.00000000000E+00  0.45593999997E+02  0.45594000000E+02  0.51100000000E-03 0.  1.
         11   -1    0    0    0    0 -0.00000000000E+00 -0.00000000000E+00 -0.45593999997E+02  0.45594000000E+02  0.51100000000E-03 0. -1.
    9900012    2    1    2    0    0 -0.23305331597E+02  0.12230871368E+02 -0.30990811405E+02  0.50528891711E+02  0.30000096846E+02 0.  0.
        -12    1    1    2    0    0  0.23305331597E+02 -0.12230871368E+02  0.30990811405E+02  0.40659108289E+02  0.00000000000E+00 0.  1.
         11    1    3    3    0    0 -0.54768451141E+01 -0.93709150386E+01 -0.95358970976E+01  0.14447948463E+02  0.51100000000E-03 0. -1.
        -11    1    3    3    0    0 -0.78173780205E+01  0.82323082746E+01 -0.43042195823E+01  0.12141194551E+02  0.51100000000E-03 0.  1.
         12    1    3    3    0    0 -0.10011108463E+02  0.13369478132E+02 -0.17150694725E+02  0.23939748698E+02  0.00000000000E+00 0. -1.
</event>
<event>
 7    1  0.9868142E-013  0.5052886E+02  0.7816164E-02  0.1300439E+00
        -11   -1    0    0    0    0  0.00000000000E+00  0.00000000000E+00  0.45593999997E+02  0.45594000000E+02  0.51100000000E-03 0.  1.
         11   -1    0    0    0    0 -0.00000000000E+00 -0.00000000000E+00 -0.45593999997E+02  0.45594000000E+02  0.51100000000E-03 0. -1.
    9900012    2    1    2    0    0 -0.10043685785E+02  0.13141223694E+02 -0.37142944947E+02  0.50528859040E+02  0.29999997538E+02 0.  0.
        -12    1    1    2    0    0  0.10043685785E+02 -0.13141223694E+02  0.37142944947E+02  0.40659140960E+02  0.00000000000E+00 0.  1.
         11    1    3    3    0    0 -0.10154301602E+02  0.36442126756E+01 -0.27882394539E+02  0.29896790004E+02  0.51100000000E-03 0. -1.
        -11    1    3    3    0    0  0.35564390664E+01  0.27836350453E+01  0.35633056598E+01  0.57527411192E+01  0.51100000000E-03 0.  1.
         12    1    3    3    0    0 -0.34458232493E+01  0.67133759726E+01 -0.12823856068E+02  0.14879327917E+02  0.00000000000E+00 0. -1.
</event>
<event>
 7    1  0.9868142E-013  0.5052886E+02  0.7816164E-02  0.1300439E+00
        -11   -1    0    0    0    0  0.00000000000E+00  0.00000000000E+00  0.45593999997E+02  0.45594000000E+02  0.51100000000E-03 0.  1.
         11   -1    0    0    0    0 -0.00000000000E+00 -0.00000000000E+00 -0.45593999997E+02  0.45594000000E+02  0.51100000000E-03 0. -1.
    9900012    2    1    2    0    0  0.12377582125E+02 -0.25645491988E+02 -0.29021880810E+02  0.50528863704E+02  0.30000011715E+02 0.  0.
        -12    1    1    2    0    0 -0.12377582125E+02  0.25645491988E+02  0.29021880810E+02  0.40659136296E+02  0.00000000000E+00 0.  1.
         11    1    3    3    0    0  0.24207916952E+01 -0.21993459810E+02 -0.27219013413E+02  0.35077730803E+02  0.51100000000E-03 0. -1.
        -11    1    3    3    0    0  0.11235307361E+02 -0.39739469239E+01 -0.42655206886E+01  0.12657766495E+02  0.51100000000E-03 0.  1.
        -12    1    3    3    0    0 -0.12785169312E+01  0.32191474589E+00  0.24626532908E+01  0.27933664059E+01  0.00000000000E+00 0.  1.
</event>
<event>
 7    1  0.9868142E-013  0.5052884E+02  0.7816164E-02  0.1300439E+00
        -11   -1    0    0    0    0  0.00000000000E+00  0.00000000000E+00  0.45593999997E+02  0.45594000000E+02  0.51100000000E-03 0.  1.
         11   -1    0    0    0    0 -0.00000000000E+00 -0.00000000000E+00 -0.45593999997E+02  0.45594000000E+02  0.51100000000E-03 0. -1.
    9900012    2    1    2    0    0  0.26374597756E+02 -0.18665221846E+02  0.24681116338E+02  0.50528838461E+02  0.29999934986E+02 0.  0.
        -12    1    1    2    0    0 -0.26374597756E+02  0.18665221846E+02 -0.24681116338E+02  0.40659161539E+02  0.00000000000E+00 0.  1.
         11    1    3    3    0    0  0.28308390823E+02 -0.15570728480E+02  0.11515900731E+02  0.34299104161E+02  0.51100000000E-03 0. -1.
        -11    1    3    3    0    0  0.28862085575E+01  0.10823561993E+01  0.49156817151E+01  0.58022083524E+01  0.51100000000E-03 0.  1.
         12    1    3    3    0    0 -0.48200016240E+01 -0.41768495652E+01  0.82495338920E+01  0.10427525947E+02  0.00000000000E+00 0. -1.
</event>
<event>
 7    1  0.9868142E-013  0.5052887E+02  0.7816164E-02  0.1300439E+00
        -11   -1    0    0    0    0  0.00000000000E+00  0.00000000000E+00  0.45593999997E+02  0.45594000000E+02  0.51100000000E-03 0. -1.
         11   -1    0    0    0    0 -0.00000000000E+00 -0.00000000000E+00 -0.45593999997E+02  0.45594000000E+02  0.51100000000E-03 0.  1.
    9900012    2    1    2    0    0  0.20212200503E+01 -0.13481402098E+02  0.38305761013E+02  0.50528869908E+02  0.30000030573E+02 0.  0.
        -12    1    1    2    0    0 -0.20212200503E+01  0.13481402098E+02 -0.38305761013E+02  0.40659130092E+02  0.00000000000E+00 0.  1.
         11    1    3    3    0    0  0.71412827756E+01 -0.23683243045E+01  0.27830111330E+02  0.28829186193E+02  0.51100000000E-03 0.  1.
        -11    1    3    3    0    0 -0.81703829930E+01 -0.12823798192E+02  0.99285172041E+01  0.18159857170E+02  0.51100000000E-03 0. -1.
        -12    1    3    3    0    0  0.30503202677E+01  0.17107203982E+01  0.54713247952E+00  0.35398265447E+01  0.00000000000E+00 0.  1.
</event>
<event>
 7    1  0.9868142E-013  0.5052886E+02  0.7816164E-02  0.1300439E+00
        -11   -1    0    0    0    0  0.00000000000E+00  0.00000000000E+00  0.45593999997E+02  0.45594000000E+02  0.51100000000E-03 0.  1.
         11   -1    0    0    0    0 -0.00000000000E+00 -0.00000000000E+00 -0.45593999997E+02  0.45594000000E+02  0.51100000000E-03 0. -1.
    9900012    2    1    2    0    0 -0.27706331042E+02  0.23198475643E+02 -0.18637483265E+02  0.50528857924E+02  0.29999994145E+02 0.  0.
        -12    1    1    2    0    0  0.27706331042E+02 -0.23198475643E+02  0.18637483265E+02  0.40659142076E+02  0.00000000000E+00 0.  1.
         11    1    3    3    0    0  0.23029615166E+01  0.22339945518E+01 -0.18139737075E+01  0.36857650871E+01  0.51100000000E-03 0. -1.
        -11    1    3    3    0    0 -0.19584574599E+02  0.18698200136E+02 -0.22090789410E+02  0.34945403525E+02  0.51100000000E-03 0.  1.
        -12    1    3    3    0    0 -0.10424717959E+02  0.22662809549E+01  0.52672798525E+01  0.11897689311E+02  0.00000000000E+00 0.  1.
</event>
<event>
 7    1  0.9868142E-013  0.5052884E+02  0.7816164E-02  0.1300439E+00
        -11   -1    0    0    0    0  0.00000000000E+00  0.00000000000E+00  0.45593999997E+02  0.45594000000E+02  0.51100000000E-03 0. -1.
         11   -1    0    0    0    0 -0.00000000000E+00 -0.00000000000E+00 -0.45593999997E+02  0.45594000000E+02  0.51100000000E-03 0.  1.
    9900012    2    1    2    0    0 -0.28518564071E+02 -0.22663883207E+02  0.18061202021E+02  0.50528842149E+02  0.29999946197E+02 0.  0.
        -12    1    1    2    0    0  0.28518564071E+02  0.22663883207E+02 -0.18061202021E+02  0.40659157851E+02  0.00000000000E+00 0.  1.
         11    1    3    3    0    0 -0.57132721846E+01 -0.11070350608E+02  0.11331354387E+02  0.16840241511E+02  0.51100000000E-03 0. -1.
        -11    1    3    3    0    0 -0.18045634068E+02 -0.12625579270E+02 -0.35549767592E+01  0.22308922450E+02  0.51100000000E-03 0.  1.
        -12    1    3    3    0    0 -0.47596578176E+01  0.10320466715E+01  0.10284824394E+02  0.11379678189E+02  0.00000000000E+00 0.  1.
</event>
<event>
 7    1  0.9868142E-013  0.5052886E+02  0.7816164E-02  0.1300439E+00
        -11   -1    0    0    0    0  0.00000000000E+00  0.00000000000E+00  0.45593999997E+02  0.45594000000E+02  0.51100000000E-03 0. -1.
         11   -1    0    0    0    0 -0.00000000000E+00 -0.00000000000E+00 -0.45593999997E+02  0.45594000000E+02  0.51100000000E-03 0.  1.
    9900012    2    1    2    0    0  0.36325654456E+02 -0.12451094850E+02  0.13363498974E+02  0.50528855402E+02  0.29999986480E+02 0.  0.
        -12    1    1    2    0    0 -0.36325654456E+02  0.12451094850E+02 -0.13363498974E+02  0.40659144598E+02  0.00000000000E+00 0.  1.
         11    1    3    3    0    0  0.28771728195E+02 -0.15197906141E+01  0.18491371363E+02  0.34235258462E+02  0.51100000000E-03 0. -1.
        -11    1    3    3    0    0  0.89771115206E+01 -0.75773584715E+01 -0.45820933989E+01  0.12609538962E+02  0.51100000000E-03 0.  1.
         12    1    3    3    0    0 -0.14231852602E+01 -0.33539457646E+01 -0.54577899004E+00  0.36840579776E+01  0.00000000000E+00 0. -1.
</event>
<event>
 7    1  0.9868142E-013  0.5052887E+02  0.7816164E-02  0.1300439E+00
        -11   -1    0    0    0    0  0.00000000000E+00  0.00000000000E+00  0.45593999997E+02  0.45594000000E+02  0.51100000000E-03 0.  1.
         11   -1    0    0    0    0 -0.00000000000E+00 -0.00000000000E+00 -0.45593999997E+02  0.45594000000E+02  0.51100000000E-03 0. -1.
    9900012    2    1    2    0    0 -0.22636512977E+02  0.27088079853E+02 -0.20173961524E+02  0.50528874168E+02  0.30000043521E+02 0.  0.
        -12    1    1    2    0    0  0.22636512977E+02 -0.27088079853E+02  0.20173961524E+02  0.40659125832E+02  0.00000000000E+00 0.  1.
         11    1    3    3    0    0 -0.34635374266E+01  0.21081873475E+02 -0.16836748452E+01  0.21430731252E+02  0.51100000000E-03 0. -1.
        -11    1    3    3    0    0 -0.11435182628E+02  0.10928847296E+01 -0.44254909720E+01  0.12310270889E+02  0.51100000000E-03 0.  1.
        -12    1    3    3    0    0 -0.77377929223E+01  0.49133216480E+01 -0.14064795707E+02  0.16787872027E+02  0.00000000000E+00 0.  1.
</event>
<event>
 7    1  0.9868142E-013  0.5052887E+02  0.7816164E-02  0.1300439E+00
        -11   -1    0    0    0    0  0.00000000000E+00  0.00000000000E+00  0.45593999997E+02  0.45594000000E+02  0.51100000000E-03 0.  1.
         11   -1    0    0    0    0 -0.00000000000E+00 -0.00000000000E+00 -0.45593999997E+02  0.45594000000E+02  0.51100000000E-03 0. -1.
    9900012    2    1    2    0    0  0.43122688686E+01 -0.16229878287E+02 -0.37029182559E+02  0.50528868517E+02  0.30000026343E+02 0.  0.
        -12    1    1    2    0    0 -0.43122688686E+01  0.16229878287E+02  0.37029182559E+02  0.40659131483E+02  0.00000000000E+00 0.  1.
         11    1    3    3    0    0  0.13329007004E+02 -0.61046441799E+01 -0.26039509433E+02  0.29882857294E+02  0.51100000000E-03 0. -1.
        -11    1    3    3    0    0 -0.63267342016E+01 -0.91210107032E+01 -0.13034697762E+02  0.17120857102E+02  0.51100000000E-03 0.  1.
         12    1    3    3    0    0 -0.26900039341E+01 -0.10042234034E+01  0.20450246362E+01  0.35251541203E+01  0.00000000000E+00 0. -1.
</event>
<event>
 7    1  0.9868142E-013  0.5052885E+02  0.7816164E-02  0.1300439E+00
        -11   -1    0    0    0    0  0.00000000000E+00  0.00000000000E+00  0.45593999997E+02  0.45594000000E+02  0.51100000000E-03 0. -1.
         11   -1    0    0    0    0 -0.00000000000E+00 -0.00000000000E+00 -0.45593999997E+02  0.45594000000E+02  0.51100000000E-03 0.  1.
    9900012    2    1    2    0    0 -0.77211578552E+01  0.29333467440E+02  0.27075773600E+02  0.50528854575E+02  0.29999983965E+02 0.  0.
        -12    1    1    2    0    0  0.77211578552E+01 -0.29333467440E+02 -0.27075773600E+02  0.40659145425E+02  0.00000000000E+00 0.  1.
         11    1    3    3    0    0 -0.65231644168E+01 -0.13098773731E+01  0.81346471876E+01  0.10509040768E+02  0.51100000000E-03 0. -1.
        -11    1    3    3    0    0  0.53746465241E+01  0.24924129021E+02  0.18096660189E+02  0.31266405981E+02  0.51100000000E-03 0.  1.
         12    1    3    3    0    0 -0.65726399625E+01  0.57192157925E+01  0.84446622306E+00  0.87534078255E+01  0.00000000000E+00 0. -1.
</event>
<event>
 7    1  0.9868142E-013  0.5052886E+02  0.7816164E-02  0.1300439E+00
        -11   -1    0    0    0    0  0.00000000000E+00  0.00000000000E+00  0.45593999997E+02  0.45594000000E+02  0.51100000000E-03 0.  1.
         11   -1    0    0    0    0 -0.00000000000E+00 -0.00000000000E+00 -0.45593999997E+02  0.45594000000E+02  0.51100000000E-03 0. -1.
    9900012    2    1    2    0    0  0.28150962406E+02  0.28955161984E+02  0.47209912667E+01  0.50528857750E+02  0.29999993617E+02 0.  0.
        -12    1    1    2    0    0 -0.28150962406E+02 -0.28955161984E+02 -0.47209912667E+01  0.40659142250E+02  0.00000000000E+00 0.  1.
         11    1    3    3    0    0  0.20851587758E+02  0.20056333922E+02  0.13052308029E+02  0.31739691044E+02  0.51100000000E-03 0. -1.
        -11    1    3    3    0    0 -0.30507173497E+01  0.31456156949E+01 -0.46479940284E+01  0.63879279268E+01  0.51100000000E-03 0.  1.
        -12    1    3    3    0    0  0.10350091998E+02  0.57532123677E+01 -0.36833227334E+01  0.12401238780E+02  0.00000000000E+00 0.  1.
</event>
<event>
 7    1  0.9868142E-013  0.5052886E+02  0.7816164E-02  0.1300439E+00
        -11   -1    0    0    0    0  0.00000000000E+00  0.00000000000E+00  0.45593999997E+02  0.45594000000E+02  0.51100000000E-03 0. -1.
         11   -1    0    0    0    0 -0.00000000000E+00 -0.00000000000E+00 -0.45593999997E+02  0.45594000000E+02  0.51100000000E-03 0.  1.
    9900012    2    1    2    0    0 -0.27726858473E+02 -0.19750294336E+02  0.22233145445E+02  0.50528861254E+02  0.30000004269E+02 0.  0.
        -12    1    1    2    0    0  0.27726858473E+02  0.19750294336E+02 -0.22233145445E+02  0.40659138746E+02  0.00000000000E+00 0.  1.
         11    1    3    3    0    0 -0.93921193226E+01  0.53237866913E+01  0.40182584522E+01  0.11519592500E+02  0.51100000000E-03 0.  1.
        -11    1    3    3    0    0 -0.17136453457E+02 -0.22394792808E+02  0.94093157790E+01  0.29727428508E+02  0.51100000000E-03 0. -1.
         12    1    3    3    0    0 -0.11982856937E+01 -0.26792882193E+01  0.88055712140E+01  0.92818402469E+01  0.00000000000E+00 0. -1.
</event>
<event>
 7    1  0.9868142E-013  0.5052888E+02  0.7816164E-02  0.1300439E+00
        -11   -1    0    0    0    0  0.00000000000E+00  0.00000000000E+00  0.45593999997E+02  0.45594000000E+02  0.51100000000E-03 0.  1.
         11   -1    0    0    0    0 -0.00000000000E+00 -0.00000000000E+00 -0.45593999997E+02  0.45594000000E+02  0.51100000000E-03 0. -1.
    9900012    2    1    2    0    0 -0.31972966613E+02 -0.24218247186E+02 -0.66610663559E+01  0.50528881763E+02  0.30000066606E+02 0.  0.
        -12    1    1    2    0    0  0.31972966613E+02  0.24218247186E+02  0.66610663559E+01  0.40659118237E+02  0.00000000000E+00 0.  1.
         11    1    3    3    0    0 -0.25949305096E+02 -0.13146470338E+02  0.40154287672E+01  0.29365281980E+02  0.51100000000E-03 0.  1.
        -11    1    3    3    0    0 -0.53472160896E+01  0.47355992664E+00 -0.74023228753E+01  0.91439249300E+01  0.51100000000E-03 0. -1.
         12    1    3    3    0    0 -0.67644542773E+00 -0.11545336775E+02 -0.32741722477E+01  0.12019674853E+02  0.00000000000E+00 0. -1.
</event>
<event>
 7    1  0.9868142E-013  0.5052886E+02  0.7816164E-02  0.1300439E+00
        -11   -1    0    0    0    0  0.00000000000E+00  0.00000000000E+00  0.45593999997E+02  0.45594000000E+02  0.51100000000E-03 0. -1.
         11   -1    0    0    0    0 -0.00000000000E+00 -0.00000000000E+00 -0.45593999997E+02  0.45594000000E+02  0.51100000000E-03 0.  1.
    9900012    2    1    2    0    0 -0.23282417929E+02 -0.23373926840E+02 -0.23764562718E+02  0.50528857342E+02  0.29999992376E+02 0.  0.
        -12    1    1    2    0    0  0.23282417929E+02  0.23373926840E+02  0.23764562718E+02  0.40659142658E+02  0.00000000000E+00 0.  1.
         11    1    3    3    0    0 -0.37137153563E+01  0.55821245162E+01 -0.65632180278E+01  0.93823039283E+01  0.51100000000E-03 0. -1.
        -11    1    3    3    0    0 -0.18253760392E+02 -0.24634686072E+02 -0.19233104186E+02  0.36193643409E+02  0.51100000000E-03 0.  1.
        -12    1    3    3    0    0 -0.13149421804E+01 -0.43213652850E+01  0.20317594963E+01  0.49529100047E+01  0.00000000000E+00 0.  1.
</event>
<event>
 7    1  0.9868142E-013  0.5052886E+02  0.7816164E-02  0.1300439E+00
        -11   -1    0    0    0    0  0.00000000000E+00  0.00000000000E+00  0.45593999997E+02  0.45594000000E+02  0.51100000000E-03 0.  1.
         11   -1    0    0    0    0 -0.00000000000E+00 -0.00000000000E+00 -0.45593999997E+02  0.45594000000E+02  0.51100000000E-03 0. -1.
    9900012    2    1    2    0    0  0.30063770713E+02  0.11239960756E+02 -0.24959945909E+02  0.50528856784E+02  0.29999990681E+02 0.  0.
        -12    1    1    2    0    0 -0.30063770713E+02 -0.11239960756E+02  0.24959945909E+02  0.40659143216E+02  0.00000000000E+00 0.  1.
         11    1    3    3    0    0  0.20683204312E+02  0.32047264782E+01 -0.27334163243E+02  0.34427048855E+02  0.51100000000E-03 0. -1.
        -11    1    3    3    0    0  0.81175212380E+01  0.75462974077E+01  0.57343957145E+01  0.12478944270E+02  0.51100000000E-03 0.  1.
        -12    1    3    3    0    0  0.12630451629E+01  0.48893687067E+00 -0.33601783803E+01  0.36228636594E+01  0.00000000000E+00 0.  1.
</event>
<event>
 7    1  0.9868142E-013  0.5052886E+02  0.7816164E-02  0.1300439E+00
        -11   -1    0    0    0    0  0.00000000000E+00  0.00000000000E+00  0.45593999997E+02  0.45594000000E+02  0.51100000000E-03 0.  1.
         11   -1    0    0    0    0 -0.00000000000E+00 -0.00000000000E+00 -0.45593999997E+02  0.45594000000E+02  0.51100000000E-03 0. -1.
    9900012    2    1    2    0    0 -0.34807723209E+02  0.18259108399E+02 -0.10401587032E+02  0.50528860224E+02  0.30000001138E+02 0.  0.
        -12    1    1    2    0    0  0.34807723209E+02 -0.18259108399E+02  0.10401587032E+02  0.40659139776E+02  0.00000000000E+00 0.  1.
         11    1    3    3    0    0 -0.22898966794E+02  0.77362614750E+00 -0.37269509632E+01  0.23213171722E+02  0.51100000000E-03 0. -1.
        -11    1    3    3    0    0  0.22695971899E+00  0.49855418589E+01 -0.84393686793E+01  0.98045949589E+01  0.51100000000E-03 0.  1.
         12    1    3    3    0    0 -0.12135716134E+02  0.12499940393E+02  0.17647326103E+01  0.17511093543E+02  0.00000000000E+00 0. -1.
</event>
<event>
 7    1  0.9868142E-013  0.5052887E+02  0.7816164E-02  0.1300439E+00
        -11   -1    0    0    0    0  0.00000000000E+00  0.00000000000E+00  0.45593999997E+02  0.45594000000E+02  0.51100000000E-03 0. -1.
         11   -1    0    0    0    0 -0.00000000000E+00 -0.00000000000E+00 -0.45593999997E+02  0.45594000000E+02  0.51100000000E-03 0.  1.
    9900012    2    1    2    0    0  0.37628960887E+02  0.17264500571E+01  0.15305077682E+02  0.50528871503E+02  0.30000035422E+02 0.  0.
        -12    1    1    2    0    0 -0.37628960887E+02 -0.17264500571E+01 -0.15305077682E+02  0.40659128497E+02  0.00000000000E+00 0.  1.
         11    1    3    3    0    0  0.29822563708E+02  0.49060479495E+00 -0.32562507906E+01  0.30003819234E+02  0.51100000000E-03 0.  1.
        -11    1    3    3    0    0  0.43705927199E+01 -0.81469703750E+00  0.12453919804E+02  0.13223688243E+02  0.51100000000E-03 0. -1.
        -12    1    3    3    0    0  0.34358044597E+01  0.20505422996E+01  0.61074086682E+01  0.73013640266E+01  0.00000000000E+00 0.  1.
</event>
<event>
 7    1  0.9868142E-013  0.5052886E+02  0.7816164E-02  0.1300439E+00
        -11   -1    0    0    0    0  0.00000000000E+00  0.00000000000E+00  0.45593999997E+02  0.45594000000E+02  0.51100000000E-03 0.  1.
         11   -1    0    0    0    0 -0.00000000000E+00 -0.00000000000E+00 -0.45593999997E+02  0.45594000000E+02  0.51100000000E-03 0. -1.
    9900012    2    1    2    0    0  0.15024529104E+02 -0.75426129189E+01 -0.37020777677E+02  0.50528862475E+02  0.30000007980E+02 0.  0.
        -12    1    1    2    0    0 -0.15024529104E+02  0.75426129189E+01  0.37020777677E+02  0.40659137525E+02  0.00000000000E+00 0.  1.
         11    1    3    3    0    0  0.16786786139E+02 -0.71927035384E+01 -0.23691911243E+02  0.29913840136E+02  0.51100000000E-03 0. -1.
        -11    1    3    3    0    0 -0.10584225198E+01  0.76361339800E+01 -0.65964834303E+01  0.10146151699E+02  0.51100000000E-03 0.  1.
        -12    1    3    3    0    0 -0.70383451506E+00 -0.79860433606E+01 -0.67323830031E+01  0.10468870640E+02  0.00000000000E+00 0.  1.
</event>
<event>
 7    1  0.9868142E-013  0.5052887E+02  0.7816164E-02  0.1300439E+00
        -11   -1    0    0    0    0  0.00000000000E+00  0.00000000000E+00  0.45593999997E+02  0.45594000000E+02  0.51100000000E-03 0.  1.
         11   -1    0    0    0    0 -0.00000000000E+00 -0.00000000000E+00 -0.45593999997E+02  0.45594000000E+02  0.51100000000E-03 0. -1.
    9900012    2    1    2    0    0 -0.14597827135E+02  0.35145823718E+02  0.14312224006E+02  0.50528865259E+02  0.30000016443E+02 0.  0.
        -12    1    1    2    0    0  0.14597827135E+02 -0.35145823718E+02 -0.14312224006E+02  0.40659134741E+02  0.00000000000E+00 0.  1.
         11    1    3    3    0    0  0.44534916617E+01  0.43500182850E+01  0.16888779235E+00  0.62277419991E+01  0.51100000000E-03 0. -1.
        -11    1    3    3    0    0 -0.22673955446E+02  0.21000684239E+02  0.71177075564E+01  0.31714330439E+02  0.51100000000E-03 0.  1.
        -12    1    3    3    0    0  0.36226366497E+01  0.97951211940E+01  0.70256286571E+01  0.12586792821E+02  0.00000000000E+00 0.  1.
</event>
<event>
 7    1  0.9868142E-013  0.5052887E+02  0.7816164E-02  0.1300439E+00
        -11   -1    0    0    0    0  0.00000000000E+00  0.00000000000E+00  0.45593999997E+02  0.45594000000E+02  0.51100000000E-03 0.  1.
         11   -1    0    0    0    0 -0.00000000000E+00 -0.00000000000E+00 -0.45593999997E+02  0.45594000000E+02  0.51100000000E-03 0. -1.
    9900012    2    1    2    0    0  0.26911869397E+02 -0.30337081103E+02 -0.29287571594E+01  0.50528870363E+02  0.30000031957E+02 0.  0.
        -12    1    1    2    0    0 -0.26911869397E+02  0.30337081103E+02  0.29287571594E+01  0.40659129637E+02  0.00000000000E+00 0.  1.
         11    1    3    3    0    0  0.79754059151E+01 -0.10192396997E+02 -0.14304129121E+02  0.19289898036E+02  0.51100000000E-03 0. -1.
        -11    1    3    3    0    0  0.16916685387E+02 -0.14602386962E+02  0.11897446969E+02  0.25317053425E+02  0.51100000000E-03 0.  1.
         12    1    3    3    0    0  0.20197780951E+01 -0.55422971435E+01 -0.52207500746E+00  0.59219189031E+01  0.00000000000E+00 0. -1.
</event>
<event>
 7    1  0.9868142E-013  0.5052886E+02  0.7816164E-02  0.1300439E+00
        -11   -1    0    0    0    0  0.00000000000E+00  0.00000000000E+00  0.45593999997E+02  0.45594000000E+02  0.51100000000E-03 0. -1.
         11   -1    0    0    0    0 -0.00000000000E+00 -0.00000000000E+00 -0.45593999997E+02  0.45594000000E+02  0.51100000000E-03 0.  1.
    9900012    2    1    2    0    0 -0.11215047885E+02 -0.38952512809E+02  0.31765092020E+01  0.50528858791E+02  0.29999996780E+02 0.  0.
        -12    1    1    2    0    0  0.11215047885E+02  0.38952512809E+02 -0.31765092020E+01  0.40659141209E+02  0.00000000000E+00 0.  1.
         11    1    3    3    0    0  0.82760440979E+00 -0.25343530182E+02  0.10151628921E+02  0.27313641668E+02  0.51100000000E-03 0. -1.
        -11    1    3    3    0    0 -0.73548753025E+01 -0.61621369511E+00  0.69951623867E+00  0.74137192597E+01  0.51100000000E-03 0.  1.
         12    1    3    3    0    0 -0.46877769925E+01 -0.12992768931E+02 -0.76746359572E+01  0.15801497863E+02  0.00000000000E+00 0. -1.
</event>
<event>
 7    1  0.9868142E-013  0.5052886E+02  0.7816164E-02  0.1300439E+00
        -11   -1    0    0    0    0  0.00000000000E+00  0.00000000000E+00  0.45593999997E+02  0.45594000000E+02  0.51100000000E-03 0. -1.
         11   -1    0    0    0    0 -0.00000000000E+00 -0.00000000000E+00 -0.45593999997E+02  0.45594000000E+02  0.51100000000E-03 0.  1.
    9900012    2    1    2    0    0  0.11161692273E+02 -0.19742314140E+02  0.33746452314E+02  0.50528863440E+02  0.30000010913E+02 0.  0.
        -12    1    1    2    0    0 -0.11161692273E+02  0.19742314140E+02 -0.33746452314E+02  0.40659136560E+02  0.00000000000E+00 0.  1.
         11    1    3    3    0    0  0.13371262012E+01 -0.21034429803E+02  0.13827950291E+02  0.25208081108E+02  0.51100000000E-03 0. -1.
        -11    1    3    3    0    0  0.11861947873E+02 -0.31423735128E+00  0.19296123455E+02  0.22652702556E+02  0.51100000000E-03 0.  1.
        -12    1    3    3    0    0 -0.20373818010E+01  0.16063530145E+01  0.62237856816E+00  0.26680797762E+01  0.00000000000E+00 0.  1.
</event>
<event>
 7    1  0.9868142E-013  0.5052884E+02  0.7816164E-02  0.1300439E+00
        -11   -1    0    0    0    0  0.00000000000E+00  0.00000000000E+00  0.45593999997E+02  0.45594000000E+02  0.51100000000E-03 0. -1.
         11   -1    0    0    0    0 -0.00000000000E+00 -0.00000000000E+00 -0.45593999997E+02  0.45594000000E+02  0.51100000000E-03 0.  1.
    9900012    2    1    2    0    0 -0.85541733503E+01 -0.35700666189E+02  0.17477283806E+02  0.50528844853E+02  0.29999954415E+02 0.  0.
        -12    1    1    2    0    0  0.85541733503E+01  0.35700666189E+02 -0.17477283806E+02  0.40659155147E+02  0.00000000000E+00 0.  1.
         11    1    3    3    0    0 -0.80761491327E+01 -0.88725712781E+01  0.35036391344E+01  0.12498887684E+02  0.51100000000E-03 0. -1.
        -11    1    3    3    0    0  0.48197537466E+01 -0.22239453281E+02  0.40644042261E+00  0.22759360766E+02  0.51100000000E-03 0.  1.
        -12    1    3    3    0    0 -0.52977779642E+01 -0.45886416304E+01  0.13567204249E+02  0.15270596403E+02  0.00000000000E+00 0.  1.
</event>
<event>
 7    1  0.9868142E-013  0.5052885E+02  0.7816164E-02  0.1300439E+00
        -11   -1    0    0    0    0  0.00000000000E+00  0.00000000000E+00  0.45593999997E+02  0.45594000000E+02  0.51100000000E-03 0.  1.
         11   -1    0    0    0    0 -0.00000000000E+00 -0.00000000000E+00 -0.45593999997E+02  0.45594000000E+02  0.51100000000E-03 0. -1.
    9900012    2    1    2    0    0  0.16431928858E+02  0.29777295256E+02 -0.22281620200E+02  0.50528853458E+02  0.29999980572E+02 0.  0.
        -12    1    1    2    0    0 -0.16431928858E+02 -0.29777295256E+02  0.22281620200E+02  0.40659146542E+02  0.00000000000E+00 0.  1.
         11    1    3    3    0    0 -0.53254633742E+01  0.16087568038E+02 -0.15137930138E+02  0.22722837293E+02  0.51100000000E-03 0. -1.
        -11    1    3    3    0    0  0.23695684415E+01 -0.97346280164E+00 -0.56802185378E+00  0.26239537939E+01  0.51100000000E-03 0.  1.
         12    1    3    3    0    0  0.19387823790E+02  0.14663190020E+02 -0.65756682082E+01  0.25182062371E+02  0.00000000000E+00 0. -1.
</event>
<event>
 7    1  0.9868142E-013  0.5052886E+02  0.7816164E-02  0.1300439E+00
        -11   -1    0    0    0    0  0.00000000000E+00  0.00000000000E+00  0.45593999997E+02  0.45594000000E+02  0.51100000000E-03 0.  1.
         11   -1    0    0    0    0 -0.00000000000E+00 -0.00000000000E+00 -0.45593999997E+02  0.45594000000E+02  0.51100000000E-03 0. -1.
    9900012    2    1    2    0    0 -0.94384385703E+01 -0.34227191283E+02 -0.19813653964E+02  0.50528860447E+02  0.30000001815E+02 0.  0.
        -12    1    1    2    0    0  0.94384385703E+01  0.34227191283E+02  0.19813653964E+02  0.40659139553E+02  0.00000000000E+00 0.  1.
         11    1    3    3    0    0  0.43308673013E+00 -0.17923836472E+02  0.36560227912E+01  0.18298032160E+02  0.51100000000E-03 0.  1.
        -11    1    3    3    0    0 -0.28177827418E+00 -0.10457515415E+02 -0.14378053929E+02  0.17781098468E+02  0.51100000000E-03 0. -1.
        -12    1    3    3    0    0 -0.95897470262E+01 -0.58458393956E+01 -0.90916228254E+01  0.14449729820E+02  0.00000000000E+00 0.  1.
</event>
<event>
 7    1  0.9868142E-013  0.5052887E+02  0.7816164E-02  0.1300439E+00
        -11   -1    0    0    0    0  0.00000000000E+00  0.00000000000E+00  0.45593999997E+02  0.45594000000E+02  0.51100000000E-03 0.  1.
         11   -1    0    0    0    0 -0.00000000000E+00 -0.00000000000E+00 -0.45593999997E+02  0.45594000000E+02  0.51100000000E-03 0. -1.
    9900012    2    1    2    0    0  0.18837532809E+02  0.30244260002E+01 -0.35904944892E+02  0.50528869873E+02  0.30000030466E+02 0.  0.
        -12    1    1    2    0    0 -0.18837532809E+02 -0.30244260002E+01  0.35904944892E+02  0.40659130127E+02  0.00000000000E+00 0.  1.
         11    1    3    3    0    0  0.92799702710E+01  0.12082481410E+02 -0.20535352679E+02  0.25569609211E+02  0.51100000000E-03 0. -1.
        -11    1    3    3    0    0  0.12187045723E+02 -0.55457367407E+01 -0.61201510036E+01  0.14721940362E+02  0.51100000000E-03 0.  1.
         12    1    3    3    0    0 -0.26294831844E+01 -0.35123186697E+01 -0.92494412093E+01  0.10237320301E+02  0.00000000000E+00 0. -1.
</event>
<event>
 7    1  0.9868142E-013  0.5052886E+02  0.7816164E-02  0.1300439E+00
        -11   -1    0    0    0    0  0.00000000000E+00  0.00000000000E+00  0.45593999997E+02  0.45594000000E+02  0.51100000000E-03 0.  1.
         11   -1    0    0    0    0 -0.00000000000E+00 -0.00000000000E+00 -0.45593999997E+02  0.45594000000E+02  0.51100000000E-03 0. -1.
    9900012    2    1    2    0    0 -0.35373726979E+02  0.18793830958E+02 -0.69754471854E+01  0.50528861963E+02  0.30000006423E+02 0.  0.
        -12    1    1    2    0    0  0.35373726979E+02 -0.18793830958E+02  0.69754471854E+01  0.40659138037E+02  0.00000000000E+00 0.  1.
         11    1    3    3    0    0 -0.29448219935E+02  0.16214379105E+02 -0.69761679691E+01  0.34333229777E+02  0.51100000000E-03 0. -1.
        -11    1    3    3    0    0 -0.51778489128E+01 -0.56251312382E+01 -0.15795378411E+01  0.78068662639E+01  0.51100000000E-03 0.  1.
        -12    1    3    3    0    0 -0.74765813152E+00  0.82045830912E+01  0.15802586248E+01  0.83887659225E+01  0.00000000000E+00 0.  1.
</event>
<event>
 7    1  0.9868142E-013  0.5052889E+02  0.7816164E-02  0.1300439E+00
        -11   -1    0    0    0    0  0.00000000000E+00  0.00000000000E+00  0.45593999997E+02  0.45594000000E+02  0.51100000000E-03 0. -1.
         11   -1    0    0    0    0 -0.00000000000E+00 -0.00000000000E+00 -0.45593999997E+02  0.45594000000E+02  0.51100000000E-03 0.  1.
    9900012    2    1    2    0    0  0.35366434068E+02  0.54180307945E+01  0.19313820035E+02  0.50528888343E+02  0.30000086607E+02 0.  0.
        -12    1    1    2    0    0 -0.35366434068E+02 -0.54180307945E+01 -0.19313820035E+02  0.40659111657E+02  0.00000000000E+00 0.  1.
         11    1    3    3    0    0  0.95563427352E+00 -0.49793338035E+01  0.74967363615E+01  0.90503070847E+01  0.51100000000E-03 0. -1.
        -11    1    3    3    0    0  0.27970883420E+02  0.89045694026E+00  0.10624795589E+02  0.29934086163E+02  0.51100000000E-03 0.  1.
        -12    1    3    3    0    0  0.64399163751E+01  0.95069076577E+01  0.11922880836E+01  0.11544495095E+02  0.00000000000E+00 0.  1.
</event>
<event>
 7    1  0.9868142E-013  0.5052886E+02  0.7816164E-02  0.1300439E+00
        -11   -1    0    0    0    0  0.00000000000E+00  0.00000000000E+00  0.45593999997E+02  0.45594000000E+02  0.51100000000E-03 0.  1.
         11   -1    0    0    0    0 -0.00000000000E+00 -0.00000000000E+00 -0.45593999997E+02  0.45594000000E+02  0.51100000000E-03 0. -1.
    9900012    2    1    2    0    0  0.52366161513E+01  0.13269535531E+02 -0.38074441842E+02  0.50528857812E+02  0.29999993804E+02 0.  0.
        -12    1    1    2    0    0 -0.52366161513E+01 -0.13269535531E+02  0.38074441842E+02  0.40659142188E+02  0.00000000000E+00 0.  1.
         11    1    3    3    0    0  0.26093518278E+01  0.36123122573E+01 -0.12823041992E+01  0.46370056206E+01  0.51100000000E-03 0. -1.
        -11    1    3    3    0    0  0.65048647845E+01  0.63525858421E+01 -0.39211503056E+02  0.40251839523E+02  0.51100000000E-03 0.  1.
        -12    1    3    3    0    0 -0.38776004610E+01  0.33046374321E+01  0.24193654140E+01  0.56400126684E+01  0.00000000000E+00 0.  1.
</event>
<event>
 7    1  0.9868142E-013  0.5052892E+02  0.7816164E-02  0.1300439E+00
        -11   -1    0    0    0    0  0.00000000000E+00  0.00000000000E+00  0.45593999997E+02  0.45594000000E+02  0.51100000000E-03 0.  1.
         11   -1    0    0    0    0 -0.00000000000E+00 -0.00000000000E+00 -0.45593999997E+02  0.45594000000E+02  0.51100000000E-03 0. -1.
    9900012    2    1    2    0    0 -0.31787679096E+02  0.79961019885E-01 -0.25351486351E+02  0.50528919879E+02  0.30000182464E+02 0.  0.
        -12    1    1    2    0    0  0.31787679096E+02 -0.79961019885E-01  0.25351486351E+02  0.40659080121E+02  0.00000000000E+00 0.  1.
         11    1    3    3    0    0 -0.31468234424E+02  0.20336941061E+01 -0.18318551556E+02  0.36468548379E+02  0.51100000000E-03 0. -1.
        -11    1    3    3    0    0 -0.26009455637E+01  0.43991683888E+01 -0.14823718294E+01  0.53211866008E+01  0.51100000000E-03 0.  1.
         12    1    3    3    0    0  0.22815008921E+01 -0.63529014750E+01 -0.55505629653E+01  0.87391848993E+01  0.00000000000E+00 0. -1.
</event>
<event>
 7    1  0.9868142E-013  0.5052889E+02  0.7816164E-02  0.1300439E+00
        -11   -1    0    0    0    0  0.00000000000E+00  0.00000000000E+00  0.45593999997E+02  0.45594000000E+02  0.51100000000E-03 0. -1.
         11   -1    0    0    0    0 -0.00000000000E+00 -0.00000000000E+00 -0.45593999997E+02  0.45594000000E+02  0.51100000000E-03 0.  1.
    9900012    2    1    2    0    0  0.25091698446E+02 -0.12355620580E+02  0.29511165446E+02  0.50528885686E+02  0.30000078531E+02 0.  0.
        -12    1    1    2    0    0 -0.25091698446E+02  0.12355620580E+02 -0.29511165446E+02  0.40659114314E+02  0.00000000000E+00 0.  1.
         11    1    3    3    0    0 -0.38672459456E+01  0.30686890596E+01 -0.15024856364E+01  0.51604173374E+01  0.51100000000E-03 0.  1.
        -11    1    3    3    0    0  0.11059051864E+02 -0.68324476724E+01  0.95555073173E+01  0.16133588865E+02  0.51100000000E-03 0. -1.
         12    1    3    3    0    0  0.17899892528E+02 -0.85918619671E+01  0.21458143765E+02  0.29234879483E+02  0.00000000000E+00 0. -1.
</event>
<event>
 7    1  0.9868142E-013  0.5052886E+02  0.7816164E-02  0.1300439E+00
        -11   -1    0    0    0    0  0.00000000000E+00  0.00000000000E+00  0.45593999997E+02  0.45594000000E+02  0.51100000000E-03 0. -1.
         11   -1    0    0    0    0 -0.00000000000E+00 -0.00000000000E+00 -0.45593999997E+02  0.45594000000E+02  0.51100000000E-03 0.  1.
    9900012    2    1    2    0    0  0.18565140505E+02  0.29293769784E+02  0.21222063055E+02  0.50528863875E+02  0.30000012233E+02 0.  0.
        -12    1    1    2    0    0 -0.18565140505E+02 -0.29293769784E+02 -0.21222063055E+02  0.40659136125E+02  0.00000000000E+00 0.  1.
         11    1    3    3    0    0  0.19008316752E+02  0.10157634963E+02  0.22329325490E+02  0.31033730534E+02  0.51100000000E-03 0. -1.
        -11    1    3    3    0    0 -0.19384018606E+01  0.10414385071E+02 -0.14774478156E+00  0.10594274254E+02  0.51100000000E-03 0.  1.
        -12    1    3    3    0    0  0.14952256144E+01  0.87217497504E+01 -0.95951765416E+00  0.89008590864E+01  0.00000000000E+00 0.  1.
</event>
<event>
 7    1  0.9868142E-013  0.5052886E+02  0.7816164E-02  0.1300439E+00
        -11   -1    0    0    0    0  0.00000000000E+00  0.00000000000E+00  0.45593999997E+02  0.45594000000E+02  0.51100000000E-03 0.  1.
         11   -1    0    0    0    0 -0.00000000000E+00 -0.00000000000E+00 -0.45593999997E+02  0.45594000000E+02  0.51100000000E-03 0. -1.
    9900012    2    1    2    0    0 -0.38920240246E+02  0.11556486204E+02 -0.21974049681E+01  0.50528855115E+02  0.29999985608E+02 0.  0.
        -12    1    1    2    0    0  0.38920240246E+02 -0.11556486204E+02  0.21974049681E+01  0.40659144885E+02  0.00000000000E+00 0.  1.
         11    1    3    3    0    0 -0.17639274065E+02  0.15299356210E+02 -0.61420308076E+01  0.24144126256E+02  0.51100000000E-03 0. -1.
        -11    1    3    3    0    0 -0.17308974730E+02 -0.80819615026E+01 -0.34218783044E+00  0.19105910099E+02  0.51100000000E-03 0.  1.
        -12    1    3    3    0    0 -0.39719914509E+01  0.43390914967E+01  0.42868136699E+01  0.72788187602E+01  0.00000000000E+00 0.  1.
</event>
<event>
 7    1  0.9868142E-013  0.5052885E+02  0.7816164E-02  0.1300439E+00
        -11   -1    0    0    0    0  0.00000000000E+00  0.00000000000E+00  0.45593999997E+02  0.45594000000E+02  0.51100000000E-03 0. -1.
         11   -1    0    0    0    0 -0.00000000000E+00 -0.00000000000E+00 -0.45593999997E+02  0.45594000000E+02  0.51100000000E-03 0.  1.
    9900012    2    1    2    0    0  0.14538310069E+02 -0.28430434364E+02  0.25169706779E+02  0.50528853462E+02  0.29999980584E+02 0.  0.
        -12    1    1    2    0    0 -0.14538310069E+02  0.28430434364E+02 -0.25169706779E+02  0.40659146538E+02  0.00000000000E+00 0.  1.
         11    1    3    3    0    0  0.14392476551E+02 -0.21638353554E+02  0.85996258234E+01  0.27373623991E+02  0.51100000000E-03 0. -1.
        -11    1    3    3    0    0  0.97073204332E+00 -0.92746920325E+01  0.17927575681E+02  0.20207924264E+02  0.51100000000E-03 0.  1.
        -12    1    3    3    0    0 -0.82489852599E+00  0.24826112221E+01 -0.13574947252E+01  0.29473052077E+01  0.00000000000E+00 0.  1.
</event>
<event>
 7    1  0.9868142E-013  0.5052887E+02  0.7816164E-02  0.1300439E+00
        -11   -1    0    0    0    0  0.00000000000E+00  0.00000000000E+00  0.45593999997E+02  0.45594000000E+02  0.51100000000E-03 0.  1.
         11   -1    0    0    0    0 -0.00000000000E+00 -0.00000000000E+00 -0.45593999997E+02  0.45594000000E+02  0.51100000000E-03 0. -1.
    9900012    2    1    2    0    0 -0.29324486017E+02  0.70676757214E+01 -0.27263302664E+02  0.50528865818E+02  0.30000018141E+02 0.  0.
        -12    1    1    2    0    0  0.29324486017E+02 -0.70676757214E+01  0.27263302664E+02  0.40659134182E+02  0.00000000000E+00 0.  1.
         11    1    3    3    0    0 -0.12345827627E+02  0.51787909274E+01 -0.24690749256E+02  0.28086872990E+02  0.51100000000E-03 0. -1.
        -11    1    3    3    0    0 -0.46246718936E+00 -0.24929471858E+01  0.34874007855E+01  0.43116848299E+01  0.51100000000E-03 0.  1.
         12    1    3    3    0    0 -0.16516191201E+02  0.43818319799E+01 -0.60599541937E+01  0.18130307998E+02  0.00000000000E+00 0. -1.
</event>
<event>
 7    1  0.9868142E-013  0.5052887E+02  0.7816164E-02  0.1300439E+00
        -11   -1    0    0    0    0  0.00000000000E+00  0.00000000000E+00  0.45593999997E+02  0.45594000000E+02  0.51100000000E-03 0. -1.
         11   -1    0    0    0    0 -0.00000000000E+00 -0.00000000000E+00 -0.45593999997E+02  0.45594000000E+02  0.51100000000E-03 0.  1.
    9900012    2    1    2    0    0  0.64818977970E+01 -0.16644211269E+02  0.36525610580E+02  0.50528868233E+02  0.30000025481E+02 0.  0.
        -12    1    1    2    0    0 -0.64818977970E+01  0.16644211269E+02 -0.36525610580E+02  0.40659131767E+02  0.00000000000E+00 0.  1.
         11    1    3    3    0    0  0.24249010692E+01  0.77073666913E+01  0.14413856204E+02  0.16524009726E+02  0.51100000000E-03 0.  1.
        -11    1    3    3    0    0 -0.19460931644E+00 -0.11254741073E+01  0.42420655051E+01  0.43931406492E+01  0.51100000000E-03 0. -1.
         12    1    3    3    0    0  0.42516060442E+01 -0.23226103853E+02  0.17869688871E+02  0.29611717858E+02  0.00000000000E+00 0. -1.
</event>
<event>
 7    1  0.9868142E-013  0.5052886E+02  0.7816164E-02  0.1300439E+00
        -11   -1    0    0    0    0  0.00000000000E+00  0.00000000000E+00  0.45593999997E+02  0.45594000000E+02  0.51100000000E-03 0.  1.
         11   -1    0    0    0    0 -0.00000000000E+00 -0.00000000000E+00 -0.45593999997E+02  0.45594000000E+02  0.51100000000E-03 0. -1.
    9900012    2    1    2    0    0 -0.17059879813E+02 -0.17962282458E+02 -0.32241004296E+02  0.50528862671E+02  0.30000008574E+02 0.  0.
        -12    1    1    2    0    0  0.17059879813E+02  0.17962282458E+02  0.32241004296E+02  0.40659137329E+02  0.00000000000E+00 0.  1.
         11    1    3    3    0    0 -0.67621481936E+01 -0.15320227063E+02 -0.29761573451E+02  0.34149484037E+02  0.51100000000E-03 0. -1.
        -11    1    3    3    0    0 -0.11865539969E+02 -0.24842961139E+01 -0.52351964343E+01  0.13204925138E+02  0.51100000000E-03 0.  1.
         12    1    3    3    0    0  0.15678083495E+01 -0.15775928131E+00  0.27557655894E+01  0.31744534956E+01  0.00000000000E+00 0. -1.
</event>
<event>
 7    1  0.9868142E-013  0.5052887E+02  0.7816164E-02  0.1300439E+00
        -11   -1    0    0    0    0  0.00000000000E+00  0.00000000000E+00  0.45593999997E+02  0.45594000000E+02  0.51100000000E-03 0.  1.
         11   -1    0    0    0    0 -0.00000000000E+00 -0.00000000000E+00 -0.45593999997E+02  0.45594000000E+02  0.51100000000E-03 0. -1.
    9900012    2    1    2    0    0  0.34256129726E+02  0.11117409530E+02 -0.18870240907E+02  0.50528865597E+02  0.30000017469E+02 0.  0.
        -12    1    1    2    0    0 -0.34256129726E+02 -0.11117409530E+02  0.18870240907E+02  0.40659134403E+02  0.00000000000E+00 0.  1.
         11    1    3    3    0    0  0.27242085051E+02  0.12526371522E+02 -0.24189419355E+02  0.38524916488E+02  0.51100000000E-03 0. -1.
        -11    1    3    3    0    0  0.78417129775E+01 -0.34322911887E+01  0.44883968184E+01  0.96653396985E+01  0.51100000000E-03 0.  1.
        -12    1    3    3    0    0 -0.82766830213E+00  0.20233291971E+01  0.83078162986E+00  0.23386094105E+01  0.00000000000E+00 0.  1.
</event>
<event>
 7    1  0.9868142E-013  0.5052886E+02  0.7816164E-02  0.1300439E+00
        -11   -1    0    0    0    0  0.00000000000E+00  0.00000000000E+00  0.45593999997E+02  0.45594000000E+02  0.51100000000E-03 0. -1.
         11   -1    0    0    0    0 -0.00000000000E+00 -0.00000000000E+00 -0.45593999997E+02  0.45594000000E+02  0.51100000000E-03 0.  1.
    9900012    2    1    2    0    0  0.23563993962E+02  0.15619864288E+02 -0.29221971815E+02  0.50528860701E+02  0.30000002585E+02 0.  0.
        -12    1    1    2    0    0 -0.23563993962E+02 -0.15619864288E+02  0.29221971815E+02  0.40659139299E+02  0.00000000000E+00 0.  1.
         11    1    3    3    0    0  0.22315793318E+02  0.26753055778E+01 -0.12962451142E+02  0.25945655344E+02  0.51100000000E-03 0. -1.
        -11    1    3    3    0    0 -0.19626888428E+01  0.81231725363E+01 -0.16801603123E+02  0.18765179118E+02  0.51100000000E-03 0.  1.
        -12    1    3    3    0    0  0.32108894867E+01  0.48213861735E+01  0.54208245061E+00  0.58180262386E+01  0.00000000000E+00 0.  1.
</event>
<event>
 7    1  0.9868142E-013  0.5052886E+02  0.7816164E-02  0.1300439E+00
        -11   -1    0    0    0    0  0.00000000000E+00  0.00000000000E+00  0.45593999997E+02  0.45594000000E+02  0.51100000000E-03 0.  1.
         11   -1    0    0    0    0 -0.00000000000E+00 -0.00000000000E+00 -0.45593999997E+02  0.45594000000E+02  0.51100000000E-03 0. -1.
    9900012    2    1    2    0    0 -0.60170431799E+01  0.34092829172E+02 -0.21322285942E+02  0.50528859732E+02  0.29999999641E+02 0.  0.
        -12    1    1    2    0    0  0.60170431799E+01 -0.34092829172E+02  0.21322285942E+02  0.40659140268E+02  0.00000000000E+00 0.  1.
         11    1    3    3    0    0  0.96297596241E+00  0.27046654864E+02 -0.18411379096E+02  0.32732670874E+02  0.51100000000E-03 0. -1.
        -11    1    3    3    0    0  0.21293914105E+01 -0.29896201561E+01 -0.20762185477E+01  0.42169681260E+01  0.51100000000E-03 0.  1.
        -12    1    3    3    0    0 -0.91094105529E+01  0.10035794463E+02 -0.83468829801E+00  0.13579220732E+02  0.00000000000E+00 0.  1.
</event>
<event>
 7    1  0.9868142E-013  0.5052884E+02  0.7816164E-02  0.1300439E+00
        -11   -1    0    0    0    0  0.00000000000E+00  0.00000000000E+00  0.45593999997E+02  0.45594000000E+02  0.51100000000E-03 0. -1.
         11   -1    0    0    0    0 -0.00000000000E+00 -0.00000000000E+00 -0.45593999997E+02  0.45594000000E+02  0.51100000000E-03 0.  1.
    9900012    2    1    2    0    0  0.36584393001E+02  0.13634922972E+02  0.11350687128E+02  0.50528843172E+02  0.29999949305E+02 0.  0.
        -12    1    1    2    0    0 -0.36584393001E+02 -0.13634922972E+02 -0.11350687128E+02  0.40659156828E+02  0.00000000000E+00 0.  1.
         11    1    3    3    0    0  0.90468803434E+01  0.21174877813E+01 -0.95414069780E+00  0.93402453493E+01  0.51100000000E-03 0. -1.
        -11    1    3    3    0    0  0.21938504590E+02  0.10811027849E+02  0.20036062754E+02  0.31616769565E+02  0.51100000000E-03 0.  1.
        -12    1    3    3    0    0  0.55990080677E+01  0.70640734135E+00 -0.77312349281E+01  0.95718282573E+01  0.00000000000E+00 0.  1.
</event>
<event>
 7    1  0.9868142E-013  0.5052886E+02  0.7816164E-02  0.1300439E+00
        -11   -1    0    0    0    0  0.00000000000E+00  0.00000000000E+00  0.45593999997E+02  0.45594000000E+02  0.51100000000E-03 0.  1.
         11   -1    0    0    0    0 -0.00000000000E+00 -0.00000000000E+00 -0.45593999997E+02  0.45594000000E+02  0.51100000000E-03 0. -1.
    9900012    2    1    2    0    0 -0.32752294567E+02 -0.10712875037E+02 -0.21579781417E+02  0.50528862565E+02  0.30000008252E+02 0.  0.
        -12    1    1    2    0    0  0.32752294567E+02  0.10712875037E+02  0.21579781417E+02  0.40659137435E+02  0.00000000000E+00 0.  1.
         11    1    3    3    0    0  0.14280717859E+01  0.87299555673E+00 -0.40959621455E+01  0.44247504366E+01  0.51100000000E-03 0.  1.
        -11    1    3    3    0    0 -0.28591110193E+02 -0.84899244876E+01 -0.22999671803E+02  0.37663182329E+02  0.51100000000E-03 0. -1.
        -12    1    3    3    0    0 -0.55892561607E+01 -0.30959461060E+01  0.55158525316E+01  0.84409297990E+01  0.00000000000E+00 0.  1.
</event>
<event>
 7    1  0.9868142E-013  0.5052885E+02  0.7816164E-02  0.1300439E+00
        -11   -1    0    0    0    0  0.00000000000E+00  0.00000000000E+00  0.45593999997E+02  0.45594000000E+02  0.51100000000E-03 0. -1.
         11   -1    0    0    0    0 -0.00000000000E+00 -0.00000000000E+00 -0.45593999997E+02  0.45594000000E+02  0.51100000000E-03 0.  1.
    9900012    2    1    2    0    0  0.34226376290E+02  0.15264591393E+02  0.15770669929E+02  0.50528848332E+02  0.29999964988E+02 0.  0.
        -12    1    1    2    0    0 -0.34226376290E+02 -0.15264591393E+02 -0.15770669929E+02  0.40659151668E+02  0.00000000000E+00 0.  1.
         11    1    3    3    0    0  0.21494840448E+02  0.14592997098E+02 -0.71050223696E+00  0.25990162444E+02  0.51100000000E-03 0. -1.
        -11    1    3    3    0    0  0.79641889447E+01  0.29848990321E+01  0.17203131637E+02  0.19190770338E+02  0.51100000000E-03 0.  1.
         12    1    3    3    0    0  0.47673468978E+01 -0.23133047364E+01 -0.72195947089E+00  0.53479155495E+01  0.00000000000E+00 0. -1.
</event>
<event>
 7    1  0.9868142E-013  0.5052887E+02  0.7816164E-02  0.1300439E+00
        -11   -1    0    0    0    0  0.00000000000E+00  0.00000000000E+00  0.45593999997E+02  0.45594000000E+02  0.51100000000E-03 0.  1.
         11   -1    0    0    0    0 -0.00000000000E+00 -0.00000000000E+00 -0.45593999997E+02  0.45594000000E+02  0.51100000000E-03 0. -1.
    9900012    2    1    2    0    0  0.47270933589E+01  0.14999782689E+02 -0.37494349870E+02  0.50528866161E+02  0.30000019184E+02 0.  0.
        -12    1    1    2    0    0 -0.47270933589E+01 -0.14999782689E+02  0.37494349870E+02  0.40659133839E+02  0.00000000000E+00 0.  1.
         11    1    3    3    0    0 -0.23875454197E+01  0.74189772145E+01 -0.29518944321E+02  0.30530471174E+02  0.51100000000E-03 0. -1.
        -11    1    3    3    0    0 -0.22179251169E+01  0.40662876955E+01  0.27229753634E+01  0.53729398413E+01  0.51100000000E-03 0.  1.
         12    1    3    3    0    0  0.93325638954E+01  0.35145177790E+01 -0.10698380913E+02  0.14625455146E+02  0.00000000000E+00 0. -1.
</event>
<event>
 7    1  0.9868142E-013  0.5052886E+02  0.7816164E-02  0.1300439E+00
        -11   -1    0    0    0    0  0.00000000000E+00  0.00000000000E+00  0.45593999997E+02  0.45594000000E+02  0.51100000000E-03 0.  1.
         11   -1    0    0    0    0 -0.00000000000E+00 -0.00000000000E+00 -0.45593999997E+02  0.45594000000E+02  0.51100000000E-03 0. -1.
    9900012    2    1    2    0    0  0.23562608055E+02  0.33120163807E+02  0.10119140693E+01  0.50528859342E+02  0.29999998457E+02 0.  0.
        -12    1    1    2    0    0 -0.23562608055E+02 -0.33120163807E+02 -0.10119140693E+01  0.40659140658E+02  0.00000000000E+00 0.  1.
         11    1    3    3    0    0 -0.42764961796E+01  0.12128685389E+02 -0.38527963713E+01  0.13425254894E+02  0.51100000000E-03 0. -1.
        -11    1    3    3    0    0  0.21725515909E+02  0.18985206765E+02 -0.29889785628E+00  0.28853517249E+02  0.51100000000E-03 0.  1.
        -12    1    3    3    0    0  0.61135883253E+01  0.20062716529E+01  0.51636082969E+01  0.82500871996E+01  0.00000000000E+00 0.  1.
</event>
<event>
 7    1  0.9868142E-013  0.5052887E+02  0.7816164E-02  0.1300439E+00
        -11   -1    0    0    0    0  0.00000000000E+00  0.00000000000E+00  0.45593999997E+02  0.45594000000E+02  0.51100000000E-03 0.  1.
         11   -1    0    0    0    0 -0.00000000000E+00 -0.00000000000E+00 -0.45593999997E+02  0.45594000000E+02  0.51100000000E-03 0. -1.
    9900012    2    1    2    0    0  0.37699183524E+02 -0.11331808276E-01 -0.15229449938E+02  0.50528871724E+02  0.30000036092E+02 0.  0.
        -12    1    1    2    0    0 -0.37699183524E+02  0.11331808276E-01  0.15229449938E+02  0.40659128276E+02  0.00000000000E+00 0.  1.
         11    1    3    3    0    0  0.72120450398E+01 -0.22400298828E+01 -0.40967850776E+01  0.85915642211E+01  0.51100000000E-03 0. -1.
        -11    1    3    3    0    0  0.14152091053E+02  0.12790959397E+02  0.84226520600E+00  0.19094494871E+02  0.51100000000E-03 0.  1.
        -12    1    3    3    0    0  0.16335047431E+02 -0.10562261322E+02 -0.11974930067E+02  0.22842812631E+02  0.00000000000E+00 0.  1.
</event>
<event>
 7    1  0.9868142E-013  0.5052886E+02  0.7816164E-02  0.1300439E+00
        -11   -1    0    0    0    0  0.00000000000E+00  0.00000000000E+00  0.45593999997E+02  0.45594000000E+02  0.51100000000E-03 0. -1.
         11   -1    0    0    0    0 -0.00000000000E+00 -0.00000000000E+00 -0.45593999997E+02  0.45594000000E+02  0.51100000000E-03 0.  1.
    9900012    2    1    2    0    0 -0.18727789638E+02  0.35490500236E+02  0.65467644106E+01  0.50528857904E+02  0.29999994084E+02 0.  0.
        -12    1    1    2    0    0  0.18727789638E+02 -0.35490500236E+02 -0.65467644106E+01  0.40659142096E+02  0.00000000000E+00 0.  1.
         11    1    3    3    0    0 -0.47408340778E+01  0.17399479419E+02 -0.79444595720E+01  0.19706136861E+02  0.51100000000E-03 0. -1.
        -11    1    3    3    0    0  0.88743768108E+00 -0.18431602606E+01  0.24423624735E+01  0.31858939244E+01  0.51100000000E-03 0.  1.
         12    1    3    3    0    0 -0.14874393241E+02  0.19934181078E+02  0.12048861509E+02  0.27636827119E+02  0.00000000000E+00 0. -1.
</event>
<event>
 7    1  0.9868142E-013  0.5052886E+02  0.7816164E-02  0.1300439E+00
        -11   -1    0    0    0    0  0.00000000000E+00  0.00000000000E+00  0.45593999997E+02  0.45594000000E+02  0.51100000000E-03 0.  1.
         11   -1    0    0    0    0 -0.00000000000E+00 -0.00000000000E+00 -0.45593999997E+02  0.45594000000E+02  0.51100000000E-03 0. -1.
    9900012    2    1    2    0    0  0.60547729137E+00  0.32291682146E+02 -0.24699120977E+02  0.50528856925E+02  0.29999991109E+02 0.  0.
        -12    1    1    2    0    0 -0.60547729137E+00 -0.32291682146E+02  0.24699120977E+02  0.40659143075E+02  0.00000000000E+00 0.  1.
         11    1    3    3    0    0  0.13914113266E+02  0.13176639415E+02 -0.11760419303E+02  0.22484079628E+02  0.51100000000E-03 0. -1.
        -11    1    3    3    0    0 -0.82019239506E+01  0.46552356422E+01 -0.36293375239E+01  0.10105190077E+02  0.51100000000E-03 0.  1.
         12    1    3    3    0    0 -0.51067120242E+01  0.14459807088E+02 -0.93093641504E+01  0.17939587220E+02  0.00000000000E+00 0. -1.
</event>
<event>
 7    1  0.9868142E-013  0.5052886E+02  0.7816164E-02  0.1300439E+00
        -11   -1    0    0    0    0  0.00000000000E+00  0.00000000000E+00  0.45593999997E+02  0.45594000000E+02  0.51100000000E-03 0. -1.
         11   -1    0    0    0    0 -0.00000000000E+00 -0.00000000000E+00 -0.45593999997E+02  0.45594000000E+02  0.51100000000E-03 0.  1.
    9900012    2    1    2    0    0 -0.29158690060E+02  0.65496274338E+01  0.27568804298E+02  0.50528858396E+02  0.29999995582E+02 0.  0.
        -12    1    1    2    0    0  0.29158690060E+02 -0.65496274338E+01 -0.27568804298E+02  0.40659141604E+02  0.00000000000E+00 0.  1.
         11    1    3    3    0    0 -0.26471027947E+02  0.29335387801E+01  0.23558561968E+02  0.35557373534E+02  0.51100000000E-03 0. -1.
        -11    1    3    3    0    0 -0.66077664634E+00  0.73590445425E+01 -0.19553699114E+01  0.76430121095E+01  0.51100000000E-03 0.  1.
        -12    1    3    3    0    0 -0.20268854662E+01 -0.37429558888E+01  0.59656122416E+01  0.73284727533E+01  0.00000000000E+00 0.  1.
</event>
<event>
 7    1  0.9868142E-013  0.5052884E+02  0.7816164E-02  0.1300439E+00
        -11   -1    0    0    0    0  0.00000000000E+00  0.00000000000E+00  0.45593999997E+02  0.45594000000E+02  0.51100000000E-03 0. -1.
         11   -1    0    0    0    0 -0.00000000000E+00 -0.00000000000E+00 -0.45593999997E+02  0.45594000000E+02  0.51100000000E-03 0.  1.
    9900012    2    1    2    0    0 -0.39527121011E+02  0.53500796103E+01  0.78835556101E+01  0.50528842405E+02  0.29999946975E+02 0.  0.
        -12    1    1    2    0    0  0.39527121011E+02 -0.53500796103E+01 -0.78835556101E+01  0.40659157595E+02  0.00000000000E+00 0.  1.
         11    1    3    3    0    0 -0.27043740130E+02 -0.91060024223E+00 -0.56042133634E+01  0.27633318308E+02  0.51100000000E-03 0. -1.
        -11    1    3    3    0    0 -0.11022170743E+02  0.97513126051E+01  0.10780048676E+02  0.18242417470E+02  0.51100000000E-03 0.  1.
        -12    1    3    3    0    0 -0.14612101375E+01 -0.34906327525E+01  0.27077202974E+01  0.46531066276E+01  0.00000000000E+00 0.  1.
</event>
<event>
 7    1  0.9868142E-013  0.5052885E+02  0.7816164E-02  0.1300439E+00
        -11   -1    0    0    0    0  0.00000000000E+00  0.00000000000E+00  0.45593999997E+02  0.45594000000E+02  0.51100000000E-03 0. -1.
         11   -1    0    0    0    0 -0.00000000000E+00 -0.00000000000E+00 -0.45593999997E+02  0.45594000000E+02  0.51100000000E-03 0.  1.
    9900012    2    1    2    0    0 -0.69751454163E+01  0.13303330218E+02  0.37782738892E+02  0.50528848427E+02  0.29999965278E+02 0.  0.
        -12    1    1    2    0    0  0.69751454163E+01 -0.13303330218E+02 -0.37782738892E+02  0.40659151573E+02  0.00000000000E+00 0.  1.
         11    1    3    3    0    0  0.67960063756E+01  0.32330492042E+01  0.14469280894E+02  0.16309457369E+02  0.51100000000E-03 0. -1.
        -11    1    3    3    0    0 -0.11815697386E+02  0.14455193825E+02  0.22681047280E+02  0.29376746573E+02  0.51100000000E-03 0.  1.
        -12    1    3    3    0    0 -0.19554544064E+01 -0.43849128104E+01  0.63241071705E+00  0.48426444847E+01  0.00000000000E+00 0.  1.
</event>
<event>
 7    1  0.9868142E-013  0.5052886E+02  0.7816164E-02  0.1300439E+00
        -11   -1    0    0    0    0  0.00000000000E+00  0.00000000000E+00  0.45593999997E+02  0.45594000000E+02  0.51100000000E-03 0. -1.
         11   -1    0    0    0    0 -0.00000000000E+00 -0.00000000000E+00 -0.45593999997E+02  0.45594000000E+02  0.51100000000E-03 0.  1.
    9900012    2    1    2    0    0  0.11193810406E+02  0.32606807569E+02  0.21555981564E+02  0.50528860407E+02  0.30000001693E+02 0.  0.
        -12    1    1    2    0    0 -0.11193810406E+02 -0.32606807569E+02 -0.21555981564E+02  0.40659139593E+02  0.00000000000E+00 0.  1.
         11    1    3    3    0    0 -0.23806923618E+01  0.12444620698E+02  0.64034567948E+01  0.14196497442E+02  0.51100000000E-03 0. -1.
        -11    1    3    3    0    0  0.87035777488E+01 -0.12572176540E+01 -0.12977868127E+01  0.88891570315E+01  0.51100000000E-03 0.  1.
        -12    1    3    3    0    0  0.48709250193E+01  0.21419404526E+02  0.16450311582E+02  0.27443205934E+02  0.00000000000E+00 0.  1.
</event>
<event>
 7    1  0.9868142E-013  0.5052886E+02  0.7816164E-02  0.1300439E+00
        -11   -1    0    0    0    0  0.00000000000E+00  0.00000000000E+00  0.45593999997E+02  0.45594000000E+02  0.51100000000E-03 0.  1.
         11   -1    0    0    0    0 -0.00000000000E+00 -0.00000000000E+00 -0.45593999997E+02  0.45594000000E+02  0.51100000000E-03 0. -1.
    9900012    2    1    2    0    0  0.27031674207E+01  0.51549339240E+01 -0.40240338880E+02  0.50528864113E+02  0.30000012959E+02 0.  0.
        -12    1    1    2    0    0 -0.27031674207E+01 -0.51549339240E+01  0.40240338880E+02  0.40659135887E+02  0.00000000000E+00 0.  1.
         11    1    3    3    0    0  0.39690295944E+01  0.91944495711E+01 -0.38233053901E+02  0.39522873247E+02  0.51100000000E-03 0. -1.
        -11    1    3    3    0    0 -0.58574604677E+00 -0.37379722154E+01  0.36753750968E+01  0.52748381092E+01  0.51100000000E-03 0.  1.
        -12    1    3    3    0    0 -0.68011612695E+00 -0.30154343180E+00 -0.56826600756E+01  0.57311527568E+01  0.00000000000E+00 0.  1.
</event>
<event>
 7    1  0.9868142E-013  0.5052886E+02  0.7816164E-02  0.1300439E+00
        -11   -1    0    0    0    0  0.00000000000E+00  0.00000000000E+00  0.45593999997E+02  0.45594000000E+02  0.51100000000E-03 0.  1.
         11   -1    0    0    0    0 -0.00000000000E+00 -0.00000000000E+00 -0.45593999997E+02  0.45594000000E+02  0.51100000000E-03 0. -1.
    9900012    2    1    2    0    0  0.23798816136E+02 -0.14903498888E+02 -0.29405233084E+02  0.50528860052E+02  0.30000000615E+02 0.  0.
        -12    1    1    2    0    0 -0.23798816136E+02  0.14903498888E+02  0.29405233084E+02  0.40659139948E+02  0.00000000000E+00 0.  1.
         11    1    3    3    0    0  0.27931578811E+02 -0.13348130846E+02 -0.14935036891E+02  0.34371514647E+02  0.51100000000E-03 0. -1.
        -11    1    3    3    0    0 -0.22889552327E+01 -0.36121962910E+01 -0.10330972885E+02  0.11181067888E+02  0.51100000000E-03 0.  1.
         12    1    3    3    0    0 -0.18438074420E+01  0.20568282496E+01 -0.41392233084E+01  0.49762775172E+01  0.00000000000E+00 0. -1.
</event>
<event>
 7    1  0.9868142E-013  0.5052886E+02  0.7816164E-02  0.1300439E+00
        -11   -1    0    0    0    0  0.00000000000E+00  0.00000000000E+00  0.45593999997E+02  0.45594000000E+02  0.51100000000E-03 0. -1.
         11   -1    0    0    0    0 -0.00000000000E+00 -0.00000000000E+00 -0.45593999997E+02  0.45594000000E+02  0.51100000000E-03 0.  1.
    9900012    2    1    2    0    0  0.59743567565E+01  0.30431819353E+02  0.26294045198E+02  0.50528863503E+02  0.30000011104E+02 0.  0.
        -12    1    1    2    0    0 -0.59743567565E+01 -0.30431819353E+02 -0.26294045198E+02  0.40659136497E+02  0.00000000000E+00 0.  1.
         11    1    3    3    0    0  0.57332428995E+01  0.15834286520E+02  0.24635359427E+01  0.17019509785E+02  0.51100000000E-03 0. -1.
        -11    1    3    3    0    0 -0.40688849800E+01  0.38670715807E+01  0.20815454223E+02  0.21559063114E+02  0.51100000000E-03 0.  1.
        -12    1    3    3    0    0  0.43099988370E+01  0.10730461252E+02  0.30150550331E+01  0.11950290604E+02  0.00000000000E+00 0.  1.
</event>
<event>
 7    1  0.9868142E-013  0.5052887E+02  0.7816164E-02  0.1300439E+00
        -11   -1    0    0    0    0  0.00000000000E+00  0.00000000000E+00  0.45593999997E+02  0.45594000000E+02  0.51100000000E-03 0.  1.
         11   -1    0    0    0    0 -0.00000000000E+00 -0.00000000000E+00 -0.45593999997E+02  0.45594000000E+02  0.51100000000E-03 0. -1.
    9900012    2    1    2    0    0  0.46357090519E+00  0.16150263064E+02 -0.37311115369E+02  0.50528865416E+02  0.30000016920E+02 0.  0.
        -12    1    1    2    0    0 -0.46357090519E+00 -0.16150263064E+02  0.37311115369E+02  0.40659134584E+02  0.00000000000E+00 0.  1.
         11    1    3    3    0    0  0.52338039871E+01  0.14071266773E+02 -0.39918989734E+02  0.42648786552E+02  0.51100000000E-03 0. -1.
        -11    1    3    3    0    0 -0.43493508265E+01  0.33653834106E+01  0.70412198121E+00  0.55442263786E+01  0.51100000000E-03 0.  1.
         12    1    3    3    0    0 -0.42088225543E+00 -0.12863871203E+01  0.19037523833E+01  0.23358524853E+01  0.00000000000E+00 0. -1.
</event>
<event>
 7    1  0.9868142E-013  0.5052887E+02  0.7816164E-02  0.1300439E+00
        -11   -1    0    0    0    0  0.00000000000E+00  0.00000000000E+00  0.45593999997E+02  0.45594000000E+02  0.51100000000E-03 0.  1.
         11   -1    0    0    0    0 -0.00000000000E+00 -0.00000000000E+00 -0.45593999997E+02  0.45594000000E+02  0.51100000000E-03 0. -1.
    9900012    2    1    2    0    0  0.23358272287E+02 -0.11661593812E+02 -0.31169911351E+02  0.50528867839E+02  0.30000024283E+02 0.  0.
        -12    1    1    2    0    0 -0.23358272287E+02  0.11661593812E+02  0.31169911351E+02  0.40659132161E+02  0.00000000000E+00 0.  1.
         11    1    3    3    0    0 -0.10762158279E+01  0.39138537758E+01 -0.10013395265E+02  0.10804840437E+02  0.51100000000E-03 0. -1.
        -11    1    3    3    0    0  0.18993486656E+02 -0.18915689154E+02 -0.14402584051E+02  0.30430088057E+02  0.51100000000E-03 0.  1.
        -12    1    3    3    0    0  0.54410014592E+01  0.33402415669E+01 -0.67539320356E+01  0.92939393448E+01  0.00000000000E+00 0.  1.
</event>
<event>
 7    1  0.9868142E-013  0.5052888E+02  0.7816164E-02  0.1300439E+00
        -11   -1    0    0    0    0  0.00000000000E+00  0.00000000000E+00  0.45593999997E+02  0.45594000000E+02  0.51100000000E-03 0.  1.
         11   -1    0    0    0    0 -0.00000000000E+00 -0.00000000000E+00 -0.45593999997E+02  0.45594000000E+02  0.51100000000E-03 0. -1.
    9900012    2    1    2    0    0 -0.24314299828E+02  0.31111560930E+02  0.96979305101E+01  0.50528877336E+02  0.30000053150E+02 0.  0.
        -12    1    1    2    0    0  0.24314299828E+02 -0.31111560930E+02 -0.96979305101E+01  0.40659122664E+02  0.00000000000E+00 0.  1.
         11    1    3    3    0    0 -0.72540309891E+01  0.84031415181E+01  0.86502851121E+01  0.14073421252E+02  0.51100000000E-03 0. -1.
        -11    1    3    3    0    0 -0.15911566922E+02  0.19154372894E+02 -0.84131874209E+01  0.26284019588E+02  0.51100000000E-03 0.  1.
        -12    1    3    3    0    0 -0.11487019169E+01  0.35540465183E+01  0.94608328190E+01  0.10171436495E+02  0.00000000000E+00 0.  1.
</event>
<event>
 7    1  0.9868142E-013  0.5052886E+02  0.7816164E-02  0.1300439E+00
        -11   -1    0    0    0    0  0.00000000000E+00  0.00000000000E+00  0.45593999997E+02  0.45594000000E+02  0.51100000000E-03 0.  1.
         11   -1    0    0    0    0 -0.00000000000E+00 -0.00000000000E+00 -0.45593999997E+02  0.45594000000E+02  0.51100000000E-03 0. -1.
    9900012    2    1    2    0    0 -0.13353059219E+02  0.37534224476E+02 -0.81267029364E+01  0.50528862058E+02  0.30000006712E+02 0.  0.
        -12    1    1    2    0    0  0.13353059219E+02 -0.37534224476E+02  0.81267029364E+01  0.40659137942E+02  0.00000000000E+00 0.  1.
         11    1    3    3    0    0 -0.47133624603E+01  0.28496546729E+02 -0.87816510460E+01  0.30189176148E+02  0.51100000000E-03 0. -1.
        -11    1    3    3    0    0 -0.20374745531E+01 -0.19341874582E+01  0.58744583576E+01  0.65116545466E+01  0.51100000000E-03 0.  1.
         12    1    3    3    0    0 -0.66022222060E+01  0.10971865206E+02 -0.52195102480E+01  0.13828031363E+02  0.00000000000E+00 0. -1.
</event>
<event>
 7    1  0.9868142E-013  0.5052886E+02  0.7816164E-02  0.1300439E+00
        -11   -1    0    0    0    0  0.00000000000E+00  0.00000000000E+00  0.45593999997E+02  0.45594000000E+02  0.51100000000E-03 0.  1.
         11   -1    0    0    0    0 -0.00000000000E+00 -0.00000000000E+00 -0.45593999997E+02  0.45594000000E+02  0.51100000000E-03 0. -1.
    9900012    2    1    2    0    0 -0.33676547293E+02  0.11465536995E+02 -0.19687492763E+02  0.50528858993E+02  0.29999997394E+02 0.  0.
        -12    1    1    2    0    0  0.33676547293E+02 -0.11465536995E+02  0.19687492763E+02  0.40659141007E+02  0.00000000000E+00 0.  1.
         11    1    3    3    0    0 -0.11960105244E+02 -0.94914864739E+01 -0.35188727072E+01  0.15668915034E+02  0.51100000000E-03 0. -1.
        -11    1    3    3    0    0 -0.12600616030E+02  0.16248404993E+02 -0.97377431357E+01  0.22751040213E+02  0.51100000000E-03 0.  1.
         12    1    3    3    0    0 -0.91158260192E+01  0.47086184756E+01 -0.64308769199E+01  0.12108903746E+02  0.00000000000E+00 0. -1.
</event>
<event>
 7    1  0.9868142E-013  0.5052890E+02  0.7816164E-02  0.1300439E+00
        -11   -1    0    0    0    0  0.00000000000E+00  0.00000000000E+00  0.45593999997E+02  0.45594000000E+02  0.51100000000E-03 0.  1.
         11   -1    0    0    0    0 -0.00000000000E+00 -0.00000000000E+00 -0.45593999997E+02  0.45594000000E+02  0.51100000000E-03 0. -1.
    9900012    2    1    2    0    0 -0.15922773048E+01 -0.94107152715E+01 -0.39522972966E+02  0.50528901375E+02  0.30000126220E+02 0.  0.
        -12    1    1    2    0    0  0.15922773048E+01  0.94107152715E+01  0.39522972966E+02  0.40659098625E+02  0.00000000000E+00 0.  1.
         11    1    3    3    0    0 -0.19790232403E+01 -0.38991299152E+01 -0.15459586520E+02  0.16066068676E+02  0.51100000000E-03 0. -1.
        -11    1    3    3    0    0 -0.91886833321E+00  0.34162489711E+01  0.37899797628E+01  0.51844983277E+01  0.51100000000E-03 0.  1.
        -12    1    3    3    0    0  0.13056142687E+01 -0.89278343274E+01 -0.27853366209E+02  0.29278334371E+02  0.00000000000E+00 0.  1.
</event>
<event>
 7    1  0.9868142E-013  0.5052886E+02  0.7816164E-02  0.1300439E+00
        -11   -1    0    0    0    0  0.00000000000E+00  0.00000000000E+00  0.45593999997E+02  0.45594000000E+02  0.51100000000E-03 0.  1.
         11   -1    0    0    0    0 -0.00000000000E+00 -0.00000000000E+00 -0.45593999997E+02  0.45594000000E+02  0.51100000000E-03 0. -1.
    9900012    2    1    2    0    0 -0.14805590430E+02 -0.18789951122E+02 -0.32877012846E+02  0.50528859026E+02  0.29999997494E+02 0.  0.
        -12    1    1    2    0    0  0.14805590430E+02  0.18789951122E+02  0.32877012846E+02  0.40659140974E+02  0.00000000000E+00 0.  1.
         11    1    3    3    0    0  0.44270595437E+01 -0.17774486506E+01 -0.21505761928E+02  0.22028526421E+02  0.51100000000E-03 0. -1.
        -11    1    3    3    0    0 -0.33531320742E+01 -0.28635371597E+01 -0.57554620274E-01  0.44098358889E+01  0.51100000000E-03 0.  1.
         12    1    3    3    0    0 -0.15879517899E+02 -0.14148965312E+02 -0.11313696297E+02  0.24090496716E+02  0.00000000000E+00 0. -1.
</event>
<event>
 7    1  0.9868142E-013  0.5052886E+02  0.7816164E-02  0.1300439E+00
        -11   -1    0    0    0    0  0.00000000000E+00  0.00000000000E+00  0.45593999997E+02  0.45594000000E+02  0.51100000000E-03 0.  1.
         11   -1    0    0    0    0 -0.00000000000E+00 -0.00000000000E+00 -0.45593999997E+02  0.45594000000E+02  0.51100000000E-03 0. -1.
    9900012    2    1    2    0    0  0.95466973012E+01  0.32070656270E+02 -0.23097601150E+02  0.50528860784E+02  0.30000002838E+02 0.  0.
        -12    1    1    2    0    0 -0.95466973012E+01 -0.32070656270E+02  0.23097601150E+02  0.40659139216E+02  0.00000000000E+00 0.  1.
         11    1    3    3    0    0  0.17700974765E+02  0.18570153731E+02 -0.22667760346E+02  0.34234521708E+02  0.51100000000E-03 0. -1.
        -11    1    3    3    0    0 -0.37262205747E+01  0.49996949724E+01 -0.20698681520E+01  0.65700855410E+01  0.51100000000E-03 0.  1.
         12    1    3    3    0    0 -0.44280568893E+01  0.85008075662E+01  0.16400273478E+01  0.97242535340E+01  0.00000000000E+00 0. -1.
</event>
<event>
 7    1  0.9868142E-013  0.5052886E+02  0.7816164E-02  0.1300439E+00
        -11   -1    0    0    0    0  0.00000000000E+00  0.00000000000E+00  0.45593999997E+02  0.45594000000E+02  0.51100000000E-03 0.  1.
         11   -1    0    0    0    0 -0.00000000000E+00 -0.00000000000E+00 -0.45593999997E+02  0.45594000000E+02  0.51100000000E-03 0. -1.
    9900012    2    1    2    0    0 -0.24800612450E+02 -0.10818362323E+02 -0.30348942076E+02  0.50528860482E+02  0.30000001920E+02 0.  0.
        -12    1    1    2    0    0  0.24800612450E+02  0.10818362323E+02  0.30348942076E+02  0.40659139518E+02  0.00000000000E+00 0.  1.
         11    1    3    3    0    0 -0.23438591757E+02 -0.14878067023E+02 -0.14431549414E+02  0.31288881103E+02  0.51100000000E-03 0.  1.
        -11    1    3    3    0    0 -0.53926844131E+00  0.18023990124E+01 -0.16628337163E+02  0.16734427081E+02  0.51100000000E-03 0. -1.
        -12    1    3    3    0    0 -0.82275225112E+00  0.22573056878E+01  0.71094450100E+00  0.25055522981E+01  0.00000000000E+00 0.  1.
</event>
<event>
 7    1  0.9868142E-013  0.5052886E+02  0.7816164E-02  0.1300439E+00
        -11   -1    0    0    0    0  0.00000000000E+00  0.00000000000E+00  0.45593999997E+02  0.45594000000E+02  0.51100000000E-03 0. -1.
         11   -1    0    0    0    0 -0.00000000000E+00 -0.00000000000E+00 -0.45593999997E+02  0.45594000000E+02  0.51100000000E-03 0.  1.
    9900012    2    1    2    0    0 -0.19687974394E+02  0.73337932686E+01  0.34810407384E+02  0.50528864229E+02  0.30000013310E+02 0.  0.
        -12    1    1    2    0    0  0.19687974394E+02 -0.73337932686E+01 -0.34810407384E+02  0.40659135771E+02  0.00000000000E+00 0.  1.
         11    1    3    3    0    0 -0.10852115740E+02 -0.22428133437E+01  0.30147116594E+02  0.32119266289E+02  0.51100000000E-03 0. -1.
        -11    1    3    3    0    0 -0.67878024537E+01  0.96361142960E+01 -0.15304492833E+01  0.11885757702E+02  0.51100000000E-03 0.  1.
        -12    1    3    3    0    0 -0.20480562004E+01 -0.59507683622E-01  0.61937400730E+01  0.65238402384E+01  0.00000000000E+00 0.  1.
</event>
<event>
 7    1  0.9868142E-013  0.5052885E+02  0.7816164E-02  0.1300439E+00
        -11   -1    0    0    0    0  0.00000000000E+00  0.00000000000E+00  0.45593999997E+02  0.45594000000E+02  0.51100000000E-03 0. -1.
         11   -1    0    0    0    0 -0.00000000000E+00 -0.00000000000E+00 -0.45593999997E+02  0.45594000000E+02  0.51100000000E-03 0.  1.
    9900012    2    1    2    0    0  0.24476780052E+02  0.11316527526E+02  0.30430077474E+02  0.50528853771E+02  0.29999981524E+02 0.  0.
        -12    1    1    2    0    0 -0.24476780052E+02 -0.11316527526E+02 -0.30430077474E+02  0.40659146229E+02  0.00000000000E+00 0.  1.
         11    1    3    3    0    0  0.37230692528E+01  0.47710823092E+01  0.14217158381E+02  0.15451603922E+02  0.51100000000E-03 0. -1.
        -11    1    3    3    0    0 -0.20114022065E+00 -0.34821618019E+01 -0.32527553757E+01  0.47693108515E+01  0.51100000000E-03 0.  1.
        -12    1    3    3    0    0  0.20954851020E+02  0.10027607018E+02  0.19465674469E+02  0.30307938998E+02  0.00000000000E+00 0.  1.
</event>
<event>
 7    1  0.9868142E-013  0.5052886E+02  0.7816164E-02  0.1300439E+00
        -11   -1    0    0    0    0  0.00000000000E+00  0.00000000000E+00  0.45593999997E+02  0.45594000000E+02  0.51100000000E-03 0.  1.
         11   -1    0    0    0    0 -0.00000000000E+00 -0.00000000000E+00 -0.45593999997E+02  0.45594000000E+02  0.51100000000E-03 0. -1.
    9900012    2    1    2    0    0  0.14328447232E+02  0.37413291253E+02 -0.69359090233E+01  0.50528860850E+02  0.30000003039E+02 0.  0.
        -12    1    1    2    0    0 -0.14328447232E+02 -0.37413291253E+02  0.69359090233E+01  0.40659139150E+02  0.00000000000E+00 0.  1.
         11    1    3    3    0    0  0.43914269379E+01  0.35874752579E+02  0.17757315379E+01  0.36186126152E+02  0.51100000000E-03 0. -1.
        -11    1    3    3    0    0  0.87391582535E+01  0.26494862102E+01 -0.88324791396E+01  0.12704540612E+02  0.51100000000E-03 0.  1.
        -12    1    3    3    0    0  0.11978620410E+01 -0.11109475364E+01  0.12083857839E+00  0.16381940849E+01  0.00000000000E+00 0.  1.
</event>
<event>
 7    1  0.9868142E-013  0.5052886E+02  0.7816164E-02  0.1300439E+00
        -11   -1    0    0    0    0  0.00000000000E+00  0.00000000000E+00  0.45593999997E+02  0.45594000000E+02  0.51100000000E-03 0.  1.
         11   -1    0    0    0    0 -0.00000000000E+00 -0.00000000000E+00 -0.45593999997E+02  0.45594000000E+02  0.51100000000E-03 0. -1.
    9900012    2    1    2    0    0 -0.34396310874E+02 -0.23747774894E+01 -0.21550399132E+02  0.50528862372E+02  0.30000007667E+02 0.  0.
        -12    1    1    2    0    0  0.34396310874E+02  0.23747774894E+01  0.21550399132E+02  0.40659137628E+02  0.00000000000E+00 0.  1.
         11    1    3    3    0    0 -0.15091132318E+02 -0.29985499355E+01 -0.22521244864E+02  0.27275264377E+02  0.51100000000E-03 0. -1.
        -11    1    3    3    0    0 -0.10198488958E+02  0.50874690110E+01  0.48622520719E+01  0.12390843936E+02  0.51100000000E-03 0.  1.
        -12    1    3    3    0    0 -0.91066895979E+01 -0.44636965649E+01 -0.38914063402E+01  0.10862754060E+02  0.00000000000E+00 0.  1.
</event>
<event>
 7    1  0.9868142E-013  0.5052886E+02  0.7816164E-02  0.1300439E+00
        -11   -1    0    0    0    0  0.00000000000E+00  0.00000000000E+00  0.45593999997E+02  0.45594000000E+02  0.51100000000E-03 0.  1.
         11   -1    0    0    0    0 -0.00000000000E+00 -0.00000000000E+00 -0.45593999997E+02  0.45594000000E+02  0.51100000000E-03 0. -1.
    9900012    2    1    2    0    0 -0.80615001915E+01 -0.12544099388E+02 -0.37826229051E+02  0.50528858113E+02  0.29999994721E+02 0.  0.
        -12    1    1    2    0    0  0.80615001915E+01  0.12544099388E+02  0.37826229051E+02  0.40659141887E+02  0.00000000000E+00 0.  1.
         11    1    3    3    0    0 -0.17277708352E+00 -0.28030859481E+01 -0.98379312119E+01  0.10230935126E+02  0.51100000000E-03 0. -1.
        -11    1    3    3    0    0  0.44546050434E+00 -0.12771369664E+02 -0.21225477752E+01  0.12954208871E+02  0.51100000000E-03 0.  1.
        -12    1    3    3    0    0 -0.83341836123E+01  0.30303562243E+01 -0.25865750063E+02  0.27343714116E+02  0.00000000000E+00 0.  1.
</event>
<event>
 7    1  0.1075914E-012  0.5052886E+02  0.7816164E-02  0.1300439E+00
        -11   -1    0    0    0    0  0.00000000000E+00  0.00000000000E+00  0.45593999997E+02  0.45594000000E+02  0.51100000000E-03 0.  1.
         11   -1    0    0    0    0 -0.00000000000E+00 -0.00000000000E+00 -0.45593999997E+02  0.45594000000E+02  0.51100000000E-03 0. -1.
    9900012    2    1    2    0    0 -0.27051089256E+02 -0.20672344236E+02 -0.22227432441E+02  0.50528855898E+02  0.29999987987E+02 0.  0.
        -12    1    1    2    0    0  0.27051089256E+02  0.20672344236E+02  0.22227432441E+02  0.40659144102E+02  0.00000000000E+00 0.  1.
         11    1    3    3    0    0 -0.20100717855E+02 -0.73594985020E+01 -0.15493035168E+02  0.26424140770E+02  0.51100000000E-03 0. -1.
        -11    1    3    3    0    0 -0.16359153516E+01 -0.13027739578E+01  0.56675773550E+01  0.60410986053E+01  0.51100000000E-03 0.  1.
        -12    1    3    3    0    0 -0.53144560500E+01 -0.12010071776E+02 -0.12401974629E+02  0.18063616522E+02  0.00000000000E+00 0.  1.
</event>
<event>
 7    1  0.9868142E-013  0.5052885E+02  0.7816164E-02  0.1300439E+00
        -11   -1    0    0    0    0  0.00000000000E+00  0.00000000000E+00  0.45593999997E+02  0.45594000000E+02  0.51100000000E-03 0. -1.
         11   -1    0    0    0    0 -0.00000000000E+00 -0.00000000000E+00 -0.45593999997E+02  0.45594000000E+02  0.51100000000E-03 0.  1.
    9900012    2    1    2    0    0 -0.11787862958E+02  0.24476588897E+01  0.38835826331E+02  0.50528853993E+02  0.29999982198E+02 0.  0.
        -12    1    1    2    0    0  0.11787862958E+02 -0.24476588897E+01 -0.38835826331E+02  0.40659146007E+02  0.00000000000E+00 0.  1.
         11    1    3    3    0    0  0.10946681326E+01  0.72066608802E+01  0.10110835078E+02  0.12464479355E+02  0.51100000000E-03 0. -1.
        -11    1    3    3    0    0 -0.27176023018E+01 -0.82153654476E+01  0.14781870966E+01  0.87785322841E+01  0.51100000000E-03 0.  1.
        -12    1    3    3    0    0 -0.10164928788E+02  0.34563634571E+01  0.27246804157E+02  0.29285842354E+02  0.00000000000E+00 0.  1.
</event>
<event>
 7    1  0.9868142E-013  0.5052886E+02  0.7816164E-02  0.1300439E+00
        -11   -1    0    0    0    0  0.00000000000E+00  0.00000000000E+00  0.45593999997E+02  0.45594000000E+02  0.51100000000E-03 0.  1.
         11   -1    0    0    0    0 -0.00000000000E+00 -0.00000000000E+00 -0.45593999997E+02  0.45594000000E+02  0.51100000000E-03 0. -1.
    9900012    2    1    2    0    0 -0.14061965654E+02 -0.31682712965E+02 -0.21251655741E+02  0.50528855265E+02  0.29999986062E+02 0.  0.
        -12    1    1    2    0    0  0.14061965654E+02  0.31682712965E+02  0.21251655741E+02  0.40659144735E+02  0.00000000000E+00 0.  1.
         11    1    3    3    0    0  0.31479600796E+01 -0.19519246840E+01 -0.14293489473E+02  0.14765618992E+02  0.51100000000E-03 0. -1.
        -11    1    3    3    0    0 -0.41309019359E+01 -0.36734798724E+01  0.81882553864E+00  0.55883164460E+01  0.51100000000E-03 0.  1.
         12    1    3    3    0    0 -0.13079023798E+02 -0.26057308409E+02 -0.77769918068E+01  0.30174919827E+02  0.00000000000E+00 0. -1.
</event>
<event>
 7    1  0.9868142E-013  0.5052886E+02  0.7816164E-02  0.1300439E+00
        -11   -1    0    0    0    0  0.00000000000E+00  0.00000000000E+00  0.45593999997E+02  0.45594000000E+02  0.51100000000E-03 0.  1.
         11   -1    0    0    0    0 -0.00000000000E+00 -0.00000000000E+00 -0.45593999997E+02  0.45594000000E+02  0.51100000000E-03 0. -1.
    9900012    2    1    2    0    0  0.11089563579E+02  0.38262546977E+02 -0.81341680485E+01  0.50528860666E+02  0.30000002482E+02 0.  0.
        -12    1    1    2    0    0 -0.11089563579E+02 -0.38262546977E+02  0.81341680485E+01  0.40659139334E+02  0.00000000000E+00 0.  1.
         11    1    3    3    0    0 -0.62107230452E+00  0.26514403465E+02 -0.12228576373E+02  0.29205092061E+02  0.51100000000E-03 0. -1.
        -11    1    3    3    0    0  0.87041100031E+01  0.10934776133E+02  0.81741904727E+01  0.16190992872E+02  0.51100000000E-03 0.  1.
         12    1    3    3    0    0  0.30065258802E+01  0.81336737866E+00 -0.40797821479E+01  0.51327757340E+01  0.00000000000E+00 0. -1.
</event>
<event>
 7    1  0.9868142E-013  0.5052885E+02  0.7816164E-02  0.1300439E+00
        -11   -1    0    0    0    0  0.00000000000E+00  0.00000000000E+00  0.45593999997E+02  0.45594000000E+02  0.51100000000E-03 0.  1.
         11   -1    0    0    0    0 -0.00000000000E+00 -0.00000000000E+00 -0.45593999997E+02  0.45594000000E+02  0.51100000000E-03 0. -1.
    9900012    2    1    2    0    0 -0.64179833053E+01 -0.34137922518E+02 -0.21132390368E+02  0.50528853597E+02  0.29999980993E+02 0.  0.
        -12    1    1    2    0    0  0.64179833053E+01  0.34137922518E+02  0.21132390368E+02  0.40659146403E+02  0.00000000000E+00 0.  1.
         11    1    3    3    0    0  0.20568504971E+01 -0.19729790697E+02 -0.17193409229E+02  0.26250878006E+02  0.51100000000E-03 0. -1.
        -11    1    3    3    0    0 -0.10257000421E+02 -0.35204514073E+01  0.29912522216E+01  0.11249321129E+02  0.51100000000E-03 0.  1.
        -12    1    3    3    0    0  0.17821666187E+01 -0.10887680414E+02 -0.69302333604E+01  0.13028654462E+02  0.00000000000E+00 0.  1.
</event>
<event>
 7    1  0.9868142E-013  0.5052896E+02  0.7816164E-02  0.1300438E+00
        -11   -1    0    0    0    0  0.00000000000E+00  0.00000000000E+00  0.45593999997E+02  0.45594000000E+02  0.51100000000E-03 0.  1.
         11   -1    0    0    0    0 -0.00000000000E+00 -0.00000000000E+00 -0.45593999997E+02  0.45594000000E+02  0.51100000000E-03 0. -1.
    9900012    2    1    2    0    0 -0.15269796375E+02 -0.32972963936E+02 -0.18242114239E+02  0.50528957168E+02  0.30000295807E+02 0.  0.
        -12    1    1    2    0    0  0.15269796375E+02  0.32972963936E+02  0.18242114239E+02  0.40659042832E+02  0.00000000000E+00 0.  1.
         11    1    3    3    0    0  0.51597194007E+01 -0.26023640873E+01 -0.57765230884E+01  0.81708764762E+01  0.51100000000E-03 0.  1.
        -11    1    3    3    0    0 -0.13015094514E+02 -0.29601529390E+02 -0.69232627289E+01  0.33069242424E+02  0.51100000000E-03 0. -1.
        -12    1    3    3    0    0 -0.74144212625E+01 -0.76907045860E+00 -0.55423284216E+01  0.92888382675E+01  0.00000000000E+00 0.  1.
</event>
<event>
 7    1  0.9868142E-013  0.5052885E+02  0.7816164E-02  0.1300439E+00
        -11   -1    0    0    0    0  0.00000000000E+00  0.00000000000E+00  0.45593999997E+02  0.45594000000E+02  0.51100000000E-03 0.  1.
         11   -1    0    0    0    0 -0.00000000000E+00 -0.00000000000E+00 -0.45593999997E+02  0.45594000000E+02  0.51100000000E-03 0. -1.
    9900012    2    1    2    0    0 -0.55045709810E+01 -0.35062976035E+02 -0.19835668484E+02  0.50528851776E+02  0.29999975458E+02 0.  0.
        -12    1    1    2    0    0  0.55045709810E+01  0.35062976035E+02  0.19835668484E+02  0.40659148224E+02  0.00000000000E+00 0.  1.
         11    1    3    3    0    0  0.79104228234E+01 -0.36724629990E+01 -0.84121874947E+01  0.12117205636E+02  0.51100000000E-03 0. -1.
        -11    1    3    3    0    0 -0.54996292179E+01 -0.20789854672E+02 -0.92917214366E+00  0.21525039837E+02  0.51100000000E-03 0.  1.
         12    1    3    3    0    0 -0.79153645865E+01 -0.10600658363E+02 -0.10494308846E+02  0.16886606303E+02  0.00000000000E+00 0. -1.
</event>
<event>
 7    1  0.9868142E-013  0.5052886E+02  0.7816164E-02  0.1300439E+00
        -11   -1    0    0    0    0  0.00000000000E+00  0.00000000000E+00  0.45593999997E+02  0.45594000000E+02  0.51100000000E-03 0. -1.
         11   -1    0    0    0    0 -0.00000000000E+00 -0.00000000000E+00 -0.45593999997E+02  0.45594000000E+02  0.51100000000E-03 0.  1.
    9900012    2    1    2    0    0 -0.12984497877E+02  0.17676394599E+02  0.34236140484E+02  0.50528862941E+02  0.30000009396E+02 0.  0.
        -12    1    1    2    0    0  0.12984497877E+02 -0.17676394599E+02 -0.34236140484E+02  0.40659137059E+02  0.00000000000E+00 0.  1.
         11    1    3    3    0    0 -0.15426558094E+02  0.18205277204E+02  0.22943429296E+02  0.33103047606E+02  0.51100000000E-03 0. -1.
        -11    1    3    3    0    0 -0.43471931185E+00 -0.40560553806E+01  0.12130278895E+02  0.12797821396E+02  0.51100000000E-03 0.  1.
         12    1    3    3    0    0  0.28767795285E+01  0.35271727750E+01 -0.83756770699E+00  0.46279939395E+01  0.00000000000E+00 0. -1.
</event>
<event>
 7    1  0.9868142E-013  0.5052886E+02  0.7816164E-02  0.1300439E+00
        -11   -1    0    0    0    0  0.00000000000E+00  0.00000000000E+00  0.45593999997E+02  0.45594000000E+02  0.51100000000E-03 0. -1.
         11   -1    0    0    0    0 -0.00000000000E+00 -0.00000000000E+00 -0.45593999997E+02  0.45594000000E+02  0.51100000000E-03 0.  1.
    9900012    2    1    2    0    0 -0.28757421834E+00 -0.38084722252E+02 -0.14235053943E+02  0.50528861682E+02  0.30000005570E+02 0.  0.
        -12    1    1    2    0    0  0.28757421834E+00  0.38084722252E+02  0.14235053943E+02  0.40659138318E+02  0.00000000000E+00 0.  1.
         11    1    3    3    0    0 -0.73515636092E+01 -0.28245550945E+02 -0.17247133229E+02  0.33901625928E+02  0.51100000000E-03 0. -1.
        -11    1    3    3    0    0 -0.86069241619E-02  0.21376362951E+01  0.15519622308E+01  0.26416188287E+01  0.51100000000E-03 0.  1.
        -12    1    3    3    0    0  0.70725963151E+01 -0.11976807602E+02  0.14601170553E+01  0.13985616926E+02  0.00000000000E+00 0.  1.
</event>
<event>
 7    1  0.9868142E-013  0.5052890E+02  0.7816164E-02  0.1300439E+00
        -11   -1    0    0    0    0  0.00000000000E+00  0.00000000000E+00  0.45593999997E+02  0.45594000000E+02  0.51100000000E-03 0.  1.
         11   -1    0    0    0    0 -0.00000000000E+00 -0.00000000000E+00 -0.45593999997E+02  0.45594000000E+02  0.51100000000E-03 0. -1.
    9900012    2    1    2    0    0  0.22457624543E+02 -0.31534254686E+02 -0.12426120893E+02  0.50528897708E+02  0.30000115074E+02 0.  0.
        -12    1    1    2    0    0 -0.22457624543E+02  0.31534254686E+02  0.12426120893E+02  0.40659102292E+02  0.00000000000E+00 0.  1.
         11    1    3    3    0    0  0.49073040206E+01 -0.10413542551E+02 -0.58473858862E+01  0.12911832681E+02  0.51100000000E-03 0. -1.
        -11    1    3    3    0    0 -0.59839393332E+01 -0.27359644452E+01  0.13535554079E+01  0.67175251315E+01  0.51100000000E-03 0.  1.
        -12    1    3    3    0    0  0.23534259856E+02 -0.18384747690E+02 -0.79322904149E+01  0.30899539896E+02  0.00000000000E+00 0.  1.
</event>
<event>
 7    1  0.9868142E-013  0.5052886E+02  0.7816164E-02  0.1300439E+00
        -11   -1    0    0    0    0  0.00000000000E+00  0.00000000000E+00  0.45593999997E+02  0.45594000000E+02  0.51100000000E-03 0.  1.
         11   -1    0    0    0    0 -0.00000000000E+00 -0.00000000000E+00 -0.45593999997E+02  0.45594000000E+02  0.51100000000E-03 0. -1.
    9900012    2    1    2    0    0  0.11558627793E+01  0.18745006588E+02 -0.36061817481E+02  0.50528856246E+02  0.29999989046E+02 0.  0.
        -12    1    1    2    0    0 -0.11558627793E+01 -0.18745006588E+02  0.36061817481E+02  0.40659143754E+02  0.00000000000E+00 0.  1.
         11    1    3    3    0    0  0.29271545107E+01 -0.41315462820E+01 -0.45204520075E+00  0.50835276467E+01  0.51100000000E-03 0. -1.
        -11    1    3    3    0    0 -0.22449068588E+01  0.20583362246E+02 -0.17286101393E+02  0.26972647438E+02  0.51100000000E-03 0.  1.
         12    1    3    3    0    0  0.47361512735E+00  0.22931906236E+01 -0.18323670887E+02  0.18472681162E+02  0.00000000000E+00 0. -1.
</event>
<event>
 7    1  0.9868142E-013  0.5052886E+02  0.7816164E-02  0.1300439E+00
        -11   -1    0    0    0    0  0.00000000000E+00  0.00000000000E+00  0.45593999997E+02  0.45594000000E+02  0.51100000000E-03 0.  1.
         11   -1    0    0    0    0 -0.00000000000E+00 -0.00000000000E+00 -0.45593999997E+02  0.45594000000E+02  0.51100000000E-03 0. -1.
    9900012    2    1    2    0    0  0.39650133148E+02  0.75886434198E+01 -0.48420528372E+01  0.50528855355E+02  0.29999986337E+02 0.  0.
        -12    1    1    2    0    0 -0.39650133148E+02 -0.75886434198E+01  0.48420528372E+01  0.40659144645E+02  0.00000000000E+00 0.  1.
         11    1    3    3    0    0  0.32551301269E+02  0.76652575989E+01  0.82816451319E+01  0.34451836449E+02  0.51100000000E-03 0. -1.
        -11    1    3    3    0    0  0.52687769136E+01  0.22135952405E+01 -0.11190752816E+02  0.12565546661E+02  0.51100000000E-03 0.  1.
        -12    1    3    3    0    0  0.18300549654E+01 -0.22902094196E+01 -0.19329451532E+01  0.35114722450E+01  0.00000000000E+00 0.  1.
</event>
<event>
 7    1  0.9868142E-013  0.5052886E+02  0.7816164E-02  0.1300439E+00
        -11   -1    0    0    0    0  0.00000000000E+00  0.00000000000E+00  0.45593999997E+02  0.45594000000E+02  0.51100000000E-03 0.  1.
         11   -1    0    0    0    0 -0.00000000000E+00 -0.00000000000E+00 -0.45593999997E+02  0.45594000000E+02  0.51100000000E-03 0. -1.
    9900012    2    1    2    0    0  0.37935173412E+02  0.12115470908E+02 -0.82038572236E+01  0.50528864613E+02  0.30000014477E+02 0.  0.
        -12    1    1    2    0    0 -0.37935173412E+02 -0.12115470908E+02  0.82038572236E+01  0.40659135387E+02  0.00000000000E+00 0.  1.
         11    1    3    3    0    0  0.27480646863E+02  0.12561495331E+02 -0.26140888130E+01  0.30328379078E+02  0.51100000000E-03 0. -1.
        -11    1    3    3    0    0 -0.16230302259E+01 -0.35273930476E+01  0.31311773016E+01  0.49880858435E+01  0.51100000000E-03 0.  1.
         12    1    3    3    0    0  0.12077556775E+02  0.30813686247E+01 -0.87209457122E+01  0.15212399691E+02  0.00000000000E+00 0. -1.
</event>
<event>
 7    1  0.9868142E-013  0.5052886E+02  0.7816164E-02  0.1300439E+00
        -11   -1    0    0    0    0  0.00000000000E+00  0.00000000000E+00  0.45593999997E+02  0.45594000000E+02  0.51100000000E-03 0.  1.
         11   -1    0    0    0    0 -0.00000000000E+00 -0.00000000000E+00 -0.45593999997E+02  0.45594000000E+02  0.51100000000E-03 0. -1.
    9900012    2    1    2    0    0  0.22473404130E+02  0.20946332981E+02 -0.26633868512E+02  0.50528859447E+02  0.29999998776E+02 0.  0.
        -12    1    1    2    0    0 -0.22473404130E+02 -0.20946332981E+02  0.26633868512E+02  0.40659140553E+02  0.00000000000E+00 0.  1.
         11    1    3    3    0    0 -0.35993546140E+01  0.12323325611E+02 -0.12229366707E+02  0.17730682955E+02  0.51100000000E-03 0. -1.
        -11    1    3    3    0    0  0.18440677697E+02  0.10999070795E+02 -0.10586785806E+02  0.23939886930E+02  0.51100000000E-03 0.  1.
         12    1    3    3    0    0  0.76320810478E+01 -0.23760634245E+01 -0.38177159991E+01  0.88582895622E+01  0.00000000000E+00 0. -1.
</event>
<event>
 7    1  0.9868142E-013  0.5052885E+02  0.7816164E-02  0.1300439E+00
        -11   -1    0    0    0    0  0.00000000000E+00  0.00000000000E+00  0.45593999997E+02  0.45594000000E+02  0.51100000000E-03 0.  1.
         11   -1    0    0    0    0 -0.00000000000E+00 -0.00000000000E+00 -0.45593999997E+02  0.45594000000E+02  0.51100000000E-03 0. -1.
    9900012    2    1    2    0    0 -0.19788827015E+02  0.35080541347E+02 -0.55609548465E+01  0.50528852509E+02  0.29999977688E+02 0.  0.
        -12    1    1    2    0    0  0.19788827015E+02 -0.35080541347E+02  0.55609548465E+01  0.40659147491E+02  0.00000000000E+00 0.  1.
         11    1    3    3    0    0 -0.26733615873E+02  0.33107132380E+02 -0.23480760905E+01  0.42617858858E+02  0.51100000000E-03 0. -1.
        -11    1    3    3    0    0  0.44590486850E+01  0.11058059931E+01 -0.21376233670E+01  0.50670855519E+01  0.51100000000E-03 0.  1.
         12    1    3    3    0    0  0.24857401725E+01  0.86760297398E+00 -0.10752553889E+01  0.28439080993E+01  0.00000000000E+00 0. -1.
</event>
<event>
 7    1  0.9868142E-013  0.5052885E+02  0.7816164E-02  0.1300439E+00
        -11   -1    0    0    0    0  0.00000000000E+00  0.00000000000E+00  0.45593999997E+02  0.45594000000E+02  0.51100000000E-03 0.  1.
         11   -1    0    0    0    0 -0.00000000000E+00 -0.00000000000E+00 -0.45593999997E+02  0.45594000000E+02  0.51100000000E-03 0. -1.
    9900012    2    1    2    0    0  0.15826654460E+02  0.36148436055E+02  0.97966203633E+01  0.50528853536E+02  0.29999980809E+02 0.  0.
        -12    1    1    2    0    0 -0.15826654460E+02 -0.36148436055E+02 -0.97966203633E+01  0.40659146464E+02  0.00000000000E+00 0.  1.
         11    1    3    3    0    0  0.11926067187E+02  0.31315270721E+02  0.11946128789E+02  0.35575093144E+02  0.51100000000E-03 0. -1.
        -11    1    3    3    0    0 -0.29837066590E+01  0.66038758273E+01 -0.29010915051E+01  0.78057679668E+01  0.51100000000E-03 0.  1.
         12    1    3    3    0    0  0.68842939324E+01 -0.17707104935E+01  0.75158307929E+00  0.71479924261E+01  0.00000000000E+00 0. -1.
</event>
<event>
 7    1  0.9868142E-013  0.5052886E+02  0.7816164E-02  0.1300439E+00
        -11   -1    0    0    0    0  0.00000000000E+00  0.00000000000E+00  0.45593999997E+02  0.45594000000E+02  0.51100000000E-03 0.  1.
         11   -1    0    0    0    0 -0.00000000000E+00 -0.00000000000E+00 -0.45593999997E+02  0.45594000000E+02  0.51100000000E-03 0. -1.
    9900012    2    1    2    0    0 -0.68304564853E+01 -0.32042245632E+00 -0.40080019075E+02  0.50528859141E+02  0.29999997844E+02 0.  0.
        -12    1    1    2    0    0  0.68304564853E+01  0.32042245632E+00  0.40080019075E+02  0.40659140859E+02  0.00000000000E+00 0.  1.
         11    1    3    3    0    0 -0.97550542643E+01 -0.93114213700E+01 -0.35100876956E+02  0.37602329914E+02  0.51100000000E-03 0. -1.
        -11    1    3    3    0    0  0.34833735029E+01  0.98289082924E+00 -0.29291398956E+00  0.36312207602E+01  0.51100000000E-03 0.  1.
         12    1    3    3    0    0 -0.55877572392E+00  0.80081080844E+01 -0.46862281297E+01  0.92953084664E+01  0.00000000000E+00 0. -1.
</event>
<event>
 7    1  0.9868142E-013  0.5052887E+02  0.7816164E-02  0.1300439E+00
        -11   -1    0    0    0    0  0.00000000000E+00  0.00000000000E+00  0.45593999997E+02  0.45594000000E+02  0.51100000000E-03 0. -1.
         11   -1    0    0    0    0 -0.00000000000E+00 -0.00000000000E+00 -0.45593999997E+02  0.45594000000E+02  0.51100000000E-03 0.  1.
    9900012    2    1    2    0    0  0.20146064388E+02  0.17821577546E+02  0.30490862563E+02  0.50528865277E+02  0.30000016497E+02 0.  0.
        -12    1    1    2    0    0 -0.20146064388E+02 -0.17821577546E+02 -0.30490862563E+02  0.40659134723E+02  0.00000000000E+00 0.  1.
         11    1    3    3    0    0  0.10399021028E+02  0.13288140973E+02  0.60346002471E+01  0.17920120794E+02  0.51100000000E-03 0.  1.
        -11    1    3    3    0    0  0.12370353360E+02 -0.36400589325E+01  0.16119972847E+02  0.20642896989E+02  0.51100000000E-03 0. -1.
        -12    1    3    3    0    0 -0.26233099998E+01  0.81734955054E+01  0.83362894695E+01  0.11965847494E+02  0.00000000000E+00 0.  1.
</event>
<event>
 7    1  0.9868142E-013  0.5052886E+02  0.7816164E-02  0.1300439E+00
        -11   -1    0    0    0    0  0.00000000000E+00  0.00000000000E+00  0.45593999997E+02  0.45594000000E+02  0.51100000000E-03 0.  1.
         11   -1    0    0    0    0 -0.00000000000E+00 -0.00000000000E+00 -0.45593999997E+02  0.45594000000E+02  0.51100000000E-03 0. -1.
    9900012    2    1    2    0    0 -0.36032376428E+02  0.62508421600E+01 -0.17769651576E+02  0.50528859627E+02  0.29999999322E+02 0.  0.
        -12    1    1    2    0    0  0.36032376428E+02 -0.62508421600E+01  0.17769651576E+02  0.40659140373E+02  0.00000000000E+00 0.  1.
         11    1    3    3    0    0 -0.23543596836E+02  0.17190300733E+02 -0.15002391070E+02  0.32785349310E+02  0.51100000000E-03 0. -1.
        -11    1    3    3    0    0 -0.30392302610E+00 -0.16968648907E+01  0.99968536549E+00  0.19927595826E+01  0.51100000000E-03 0.  1.
         12    1    3    3    0    0 -0.12184856566E+02 -0.92425936825E+01 -0.37669458712E+01  0.15750750735E+02  0.00000000000E+00 0. -1.
</event>
<event>
 7    1  0.9868142E-013  0.5052886E+02  0.7816164E-02  0.1300439E+00
        -11   -1    0    0    0    0  0.00000000000E+00  0.00000000000E+00  0.45593999997E+02  0.45594000000E+02  0.51100000000E-03 0. -1.
         11   -1    0    0    0    0 -0.00000000000E+00 -0.00000000000E+00 -0.45593999997E+02  0.45594000000E+02  0.51100000000E-03 0.  1.
    9900012    2    1    2    0    0 -0.25880137517E+01  0.33944536247E+02  0.22231419053E+02  0.50528863888E+02  0.30000012275E+02 0.  0.
        -12    1    1    2    0    0  0.25880137517E+01 -0.33944536247E+02 -0.22231419053E+02  0.40659136112E+02  0.00000000000E+00 0.  1.
         11    1    3    3    0    0 -0.13047206351E+02  0.13184031950E+02  0.41693024708E+01  0.19011348594E+02  0.51100000000E-03 0. -1.
        -11    1    3    3    0    0  0.98411073245E+01  0.22056927602E+02  0.15881289093E+02  0.28906241404E+02  0.51100000000E-03 0.  1.
        -12    1    3    3    0    0  0.61808527514E+00 -0.12964233039E+01  0.21808274893E+01  0.26112738900E+01  0.00000000000E+00 0.  1.
</event>
<event>
 7    1  0.9868142E-013  0.5052886E+02  0.7816164E-02  0.1300439E+00
        -11   -1    0    0    0    0  0.00000000000E+00  0.00000000000E+00  0.45593999997E+02  0.45594000000E+02  0.51100000000E-03 0.  1.
         11   -1    0    0    0    0 -0.00000000000E+00 -0.00000000000E+00 -0.45593999997E+02  0.45594000000E+02  0.51100000000E-03 0. -1.
    9900012    2    1    2    0    0  0.31670248943E+02  0.21873234771E+01 -0.25404259407E+02  0.50528862674E+02  0.30000008583E+02 0.  0.
        -12    1    1    2    0    0 -0.31670248943E+02 -0.21873234771E+01  0.25404259407E+02  0.40659137326E+02  0.00000000000E+00 0.  1.
         11    1    3    3    0    0  0.29748776224E+01 -0.57485145944E+01 -0.32309512236E+01  0.72342493032E+01  0.51100000000E-03 0. -1.
        -11    1    3    3    0    0  0.22261716597E+02  0.11341414064E+02 -0.25131278638E+02  0.35437167847E+02  0.51100000000E-03 0.  1.
        -12    1    3    3    0    0  0.64336547236E+01 -0.34055759924E+01  0.29579704543E+01  0.78574455233E+01  0.00000000000E+00 0.  1.
</event>
<event>
 7    1  0.9868142E-013  0.5052885E+02  0.7816164E-02  0.1300439E+00
        -11   -1    0    0    0    0  0.00000000000E+00  0.00000000000E+00  0.45593999997E+02  0.45594000000E+02  0.51100000000E-03 0.  1.
         11   -1    0    0    0    0 -0.00000000000E+00 -0.00000000000E+00 -0.45593999997E+02  0.45594000000E+02  0.51100000000E-03 0. -1.
    9900012    2    1    2    0    0 -0.11188013472E+02 -0.23510220545E+02 -0.31229218818E+02  0.50528853138E+02  0.29999979599E+02 0.  0.
        -12    1    1    2    0    0  0.11188013472E+02  0.23510220545E+02  0.31229218818E+02  0.40659146862E+02  0.00000000000E+00 0.  1.
         11    1    3    3    0    0  0.28261010934E+01 -0.13421803338E+02 -0.82032462551E+01  0.15982018071E+02  0.51100000000E-03 0. -1.
        -11    1    3    3    0    0 -0.60916216908E+01 -0.15350251562E+01 -0.21958365749E+02  0.22839307863E+02  0.51100000000E-03 0.  1.
        -12    1    3    3    0    0 -0.79224928749E+01 -0.85533920508E+01 -0.10676068144E+01  0.11707527204E+02  0.00000000000E+00 0.  1.
</event>
<event>
 7    1  0.9868142E-013  0.5052882E+02  0.7816164E-02  0.1300439E+00
        -11   -1    0    0    0    0  0.00000000000E+00  0.00000000000E+00  0.45593999997E+02  0.45594000000E+02  0.51100000000E-03 0.  1.
         11   -1    0    0    0    0 -0.00000000000E+00 -0.00000000000E+00 -0.45593999997E+02  0.45594000000E+02  0.51100000000E-03 0. -1.
    9900012    2    1    2    0    0 -0.20833492954E+02 -0.33380438528E+02  0.10241116604E+02  0.50528824230E+02  0.29999891729E+02 0.  0.
        -12    1    1    2    0    0  0.20833492954E+02  0.33380438528E+02 -0.10241116604E+02  0.40659175770E+02  0.00000000000E+00 0.  1.
         11    1    3    3    0    0 -0.77402118540E+01 -0.20087892017E+01 -0.43975738403E+01  0.91260489558E+01  0.51100000000E-03 0. -1.
        -11    1    3    3    0    0 -0.10506674474E+02 -0.27029885023E+02  0.19047613297E+02  0.34696058356E+02  0.51100000000E-03 0.  1.
        -12    1    3    3    0    0 -0.25866066263E+01 -0.43417643035E+01 -0.44089228523E+01  0.67067169184E+01  0.00000000000E+00 0.  1.
</event>
<event>
 7    1  0.9868142E-013  0.5052886E+02  0.7816164E-02  0.1300439E+00
        -11   -1    0    0    0    0  0.00000000000E+00  0.00000000000E+00  0.45593999997E+02  0.45594000000E+02  0.51100000000E-03 0.  1.
         11   -1    0    0    0    0 -0.00000000000E+00 -0.00000000000E+00 -0.45593999997E+02  0.45594000000E+02  0.51100000000E-03 0. -1.
    9900012    2    1    2    0    0 -0.28367568091E+02 -0.14367845770E+02 -0.25337942916E+02  0.50528864954E+02  0.30000015515E+02 0.  0.
        -12    1    1    2    0    0  0.28367568091E+02  0.14367845770E+02  0.25337942916E+02  0.40659135046E+02  0.00000000000E+00 0.  1.
         11    1    3    3    0    0 -0.19126684119E+02 -0.65177361096E+01 -0.63321391490E+01  0.21175620790E+02  0.51100000000E-03 0. -1.
        -11    1    3    3    0    0  0.53463925406E+01 -0.24882020108E+01 -0.17958442833E+01  0.61644236872E+01  0.51100000000E-03 0.  1.
        -12    1    3    3    0    0 -0.14587276512E+02 -0.53619076492E+01 -0.17209959483E+02  0.23188820477E+02  0.00000000000E+00 0.  1.
</event>
<event>
 7    1  0.9868142E-013  0.5052886E+02  0.7816164E-02  0.1300439E+00
        -11   -1    0    0    0    0  0.00000000000E+00  0.00000000000E+00  0.45593999997E+02  0.45594000000E+02  0.51100000000E-03 0.  1.
         11   -1    0    0    0    0 -0.00000000000E+00 -0.00000000000E+00 -0.45593999997E+02  0.45594000000E+02  0.51100000000E-03 0. -1.
    9900012    2    1    2    0    0  0.13848630551E+02 -0.14995948350E+02 -0.35163934814E+02  0.50528863921E+02  0.30000012375E+02 0.  0.
        -12    1    1    2    0    0 -0.13848630551E+02  0.14995948350E+02  0.35163934814E+02  0.40659136079E+02  0.00000000000E+00 0.  1.
         11    1    3    3    0    0  0.77956323707E+01  0.16099735536E+01 -0.24658181658E+02  0.25911191054E+02  0.51100000000E-03 0. -1.
        -11    1    3    3    0    0 -0.17295640218E+01 -0.12616502880E+02 -0.29768232632E+01  0.13077806148E+02  0.51100000000E-03 0.  1.
         12    1    3    3    0    0  0.77825622020E+01 -0.39894190229E+01 -0.75289298934E+01  0.11539866720E+02  0.00000000000E+00 0. -1.
</event>
<event>
 7    1  0.9868142E-013  0.5052885E+02  0.7816164E-02  0.1300439E+00
        -11   -1    0    0    0    0  0.00000000000E+00  0.00000000000E+00  0.45593999997E+02  0.45594000000E+02  0.51100000000E-03 0.  1.
         11   -1    0    0    0    0 -0.00000000000E+00 -0.00000000000E+00 -0.45593999997E+02  0.45594000000E+02  0.51100000000E-03 0. -1.
    9900012    2    1    2    0    0 -0.17378302269E+01 -0.36869748952E+02 -0.17051919344E+02  0.50528851030E+02  0.29999973189E+02 0.  0.
        -12    1    1    2    0    0  0.17378302269E+01  0.36869748952E+02  0.17051919344E+02  0.40659148970E+02  0.00000000000E+00 0.  1.
         11    1    3    3    0    0 -0.43202413159E+01  0.85058550404E+00 -0.79801110022E+01  0.91142828898E+01  0.51100000000E-03 0. -1.
        -11    1    3    3    0    0  0.37076773689E+01 -0.38703999901E+02 -0.90465777153E+01  0.39919757619E+02  0.51100000000E-03 0.  1.
        -12    1    3    3    0    0 -0.11252662799E+01  0.98366544440E+00 -0.25230626739E-01  0.14948105203E+01  0.00000000000E+00 0.  1.
</event>
<event>
 7    1  0.9868142E-013  0.5052886E+02  0.7816164E-02  0.1300439E+00
        -11   -1    0    0    0    0  0.00000000000E+00  0.00000000000E+00  0.45593999997E+02  0.45594000000E+02  0.51100000000E-03 0.  1.
         11   -1    0    0    0    0 -0.00000000000E+00 -0.00000000000E+00 -0.45593999997E+02  0.45594000000E+02  0.51100000000E-03 0. -1.
    9900012    2    1    2    0    0 -0.18249583206E+02  0.25468222013E+02  0.25913084744E+02  0.50528861044E+02  0.30000003629E+02 0.  0.
        -12    1    1    2    0    0  0.18249583206E+02 -0.25468222013E+02 -0.25913084744E+02  0.40659138956E+02  0.00000000000E+00 0.  1.
         11    1    3    3    0    0 -0.41379862683E+01  0.19360601858E+02  0.68832688840E+01  0.20960325032E+02  0.51100000000E-03 0. -1.
        -11    1    3    3    0    0 -0.17287562069E+01 -0.52080086414E+01  0.71523925955E+01  0.90149138728E+01  0.51100000000E-03 0.  1.
        -12    1    3    3    0    0 -0.12382840731E+02  0.11315628796E+02  0.11877423265E+02  0.20553622139E+02  0.00000000000E+00 0.  1.
</event>
<event>
 7    1  0.9868142E-013  0.5052885E+02  0.7816164E-02  0.1300439E+00
        -11   -1    0    0    0    0  0.00000000000E+00  0.00000000000E+00  0.45593999997E+02  0.45594000000E+02  0.51100000000E-03 0.  1.
         11   -1    0    0    0    0 -0.00000000000E+00 -0.00000000000E+00 -0.45593999997E+02  0.45594000000E+02  0.51100000000E-03 0. -1.
    9900012    2    1    2    0    0 -0.14841827463E+01 -0.40015827080E+02  0.70496027478E+01  0.50528854483E+02  0.29999983686E+02 0.  0.
        -12    1    1    2    0    0  0.14841827463E+01  0.40015827080E+02 -0.70496027478E+01  0.40659145517E+02  0.00000000000E+00 0.  1.
         11    1    3    3    0    0 -0.58253093349E+01 -0.37081615759E+02  0.15144394541E+01  0.37566926721E+02  0.51100000000E-03 0. -1.
        -11    1    3    3    0    0  0.56996147546E+01 -0.90249171102E+00 -0.11145682153E+01  0.58772750665E+01  0.51100000000E-03 0.  1.
         12    1    3    3    0    0 -0.13584881661E+01 -0.20317196097E+01  0.66497315091E+01  0.70846526953E+01  0.00000000000E+00 0. -1.
</event>
<event>
 7    1  0.9868142E-013  0.5052886E+02  0.7816164E-02  0.1300439E+00
        -11   -1    0    0    0    0  0.00000000000E+00  0.00000000000E+00  0.45593999997E+02  0.45594000000E+02  0.51100000000E-03 0.  1.
         11   -1    0    0    0    0 -0.00000000000E+00 -0.00000000000E+00 -0.45593999997E+02  0.45594000000E+02  0.51100000000E-03 0. -1.
    9900012    2    1    2    0    0  0.26534049326E+02  0.28442582844E+02  0.11837616910E+02  0.50528862447E+02  0.30000007893E+02 0.  0.
        -12    1    1    2    0    0 -0.26534049326E+02 -0.28442582844E+02 -0.11837616910E+02  0.40659137553E+02  0.00000000000E+00 0.  1.
         11    1    3    3    0    0  0.17433978637E+02  0.23425326014E+02  0.17786289111E+02  0.34191250205E+02  0.51100000000E-03 0. -1.
        -11    1    3    3    0    0 -0.14634542162E+01 -0.20126962347E+01 -0.55330024376E+00  0.25492716209E+01  0.51100000000E-03 0.  1.
         12    1    3    3    0    0  0.10563524904E+02  0.70299530650E+01 -0.53953719574E+01  0.13788340620E+02  0.00000000000E+00 0. -1.
</event>
<event>
 7    1  0.9868142E-013  0.5052884E+02  0.7816164E-02  0.1300439E+00
        -11   -1    0    0    0    0  0.00000000000E+00  0.00000000000E+00  0.45593999997E+02  0.45594000000E+02  0.51100000000E-03 0.  1.
         11   -1    0    0    0    0 -0.00000000000E+00 -0.00000000000E+00 -0.45593999997E+02  0.45594000000E+02  0.51100000000E-03 0. -1.
    9900012    2    1    2    0    0  0.36061516857E+02  0.16044624821E+01 -0.18712573271E+02  0.50528835027E+02  0.29999924548E+02 0.  0.
        -12    1    1    2    0    0 -0.36061516857E+02 -0.16044624821E+01  0.18712573271E+02  0.40659164973E+02  0.00000000000E+00 0.  1.
         11    1    3    3    0    0  0.51572885797E+01  0.24523658010E+01 -0.12739799529E+02  0.13961168139E+02  0.51100000000E-03 0. -1.
        -11    1    3    3    0    0  0.27579719175E+02  0.25791575397E+01 -0.10843677111E+02  0.29746903989E+02  0.51100000000E-03 0.  1.
        -12    1    3    3    0    0  0.33245091026E+01 -0.34270608586E+01  0.48709033684E+01  0.68207628992E+01  0.00000000000E+00 0.  1.
</event>
<event>
 7    1  0.9868142E-013  0.5052885E+02  0.7816164E-02  0.1300439E+00
        -11   -1    0    0    0    0  0.00000000000E+00  0.00000000000E+00  0.45593999997E+02  0.45594000000E+02  0.51100000000E-03 0. -1.
         11   -1    0    0    0    0 -0.00000000000E+00 -0.00000000000E+00 -0.45593999997E+02  0.45594000000E+02  0.51100000000E-03 0.  1.
    9900012    2    1    2    0    0 -0.71494647207E+01 -0.12188715481E+02  0.38124617424E+02  0.50528854847E+02  0.29999984792E+02 0.  0.
        -12    1    1    2    0    0  0.71494647207E+01  0.12188715481E+02 -0.38124617424E+02  0.40659145153E+02  0.00000000000E+00 0.  1.
         11    1    3    3    0    0 -0.13551113181E+02  0.21706328314E+01  0.24903664914E+02  0.28434782253E+02  0.51100000000E-03 0. -1.
        -11    1    3    3    0    0 -0.44474721636E+00 -0.86640119790E+01  0.78132915553E+01  0.11675205730E+02  0.51100000000E-03 0.  1.
         12    1    3    3    0    0  0.68463956770E+01 -0.56953363338E+01  0.54076609544E+01  0.10418866863E+02  0.00000000000E+00 0. -1.
</event>
<event>
 7    1  0.9868142E-013  0.5052886E+02  0.7816164E-02  0.1300439E+00
        -11   -1    0    0    0    0  0.00000000000E+00  0.00000000000E+00  0.45593999997E+02  0.45594000000E+02  0.51100000000E-03 0.  1.
         11   -1    0    0    0    0 -0.00000000000E+00 -0.00000000000E+00 -0.45593999997E+02  0.45594000000E+02  0.51100000000E-03 0. -1.
    9900012    2    1    2    0    0  0.13018129036E+02  0.74906216469E+01 -0.37783392412E+02  0.50528857875E+02  0.29999993996E+02 0.  0.
        -12    1    1    2    0    0 -0.13018129036E+02 -0.74906216469E+01  0.37783392412E+02  0.40659142125E+02  0.00000000000E+00 0.  1.
         11    1    3    3    0    0  0.52443193574E+01  0.90607287336E+01 -0.35278253572E+02  0.36798843270E+02  0.51100000000E-03 0. -1.
        -11    1    3    3    0    0  0.10515873598E+02 -0.12837840653E+01 -0.11445686279E+01  0.10655596495E+02  0.51100000000E-03 0.  1.
        -12    1    3    3    0    0 -0.27420639196E+01 -0.28632302139E+00 -0.13605702121E+01  0.30744181098E+01  0.00000000000E+00 0.  1.
</event>
<event>
 7    1  0.9868142E-013  0.5052886E+02  0.7816164E-02  0.1300439E+00
        -11   -1    0    0    0    0  0.00000000000E+00  0.00000000000E+00  0.45593999997E+02  0.45594000000E+02  0.51100000000E-03 0.  1.
         11   -1    0    0    0    0 -0.00000000000E+00 -0.00000000000E+00 -0.45593999997E+02  0.45594000000E+02  0.51100000000E-03 0. -1.
    9900012    2    1    2    0    0 -0.36181761095E+00 -0.19523304842E+02 -0.35663363510E+02  0.50528857845E+02  0.29999993906E+02 0.  0.
        -12    1    1    2    0    0  0.36181761095E+00  0.19523304842E+02  0.35663363510E+02  0.40659142155E+02  0.00000000000E+00 0.  1.
         11    1    3    3    0    0 -0.45161509535E+01  0.70136024485E+01 -0.77335436340E+01  0.11375145544E+02  0.51100000000E-03 0. -1.
        -11    1    3    3    0    0  0.50443812295E+01 -0.22230144024E+02 -0.21300633680E+02  0.31198430742E+02  0.51100000000E-03 0.  1.
         12    1    3    3    0    0 -0.89004788697E+00 -0.43067632667E+01 -0.66291861956E+01  0.79552815596E+01  0.00000000000E+00 0. -1.
</event>
<event>
 7    1  0.9868142E-013  0.5052886E+02  0.7816164E-02  0.1300439E+00
        -11   -1    0    0    0    0  0.00000000000E+00  0.00000000000E+00  0.45593999997E+02  0.45594000000E+02  0.51100000000E-03 0.  1.
         11   -1    0    0    0    0 -0.00000000000E+00 -0.00000000000E+00 -0.45593999997E+02  0.45594000000E+02  0.51100000000E-03 0. -1.
    9900012    2    1    2    0    0 -0.26681590429E+02 -0.11950993654E+02 -0.28256548204E+02  0.50528855474E+02  0.29999986700E+02 0.  0.
        -12    1    1    2    0    0  0.26681590429E+02  0.11950993654E+02  0.28256548204E+02  0.40659144526E+02  0.00000000000E+00 0.  1.
         11    1    3    3    0    0 -0.22278838661E+02  0.12983024550E+01 -0.14740712992E+02  0.26745483004E+02  0.51100000000E-03 0. -1.
        -11    1    3    3    0    0 -0.80642629667E+00  0.63517379351E+00 -0.85409417265E+01  0.86024098343E+01  0.51100000000E-03 0.  1.
         12    1    3    3    0    0 -0.35963254721E+01 -0.13884469903E+02 -0.49748934850E+01  0.15180962636E+02  0.00000000000E+00 0. -1.
</event>
<event>
 7    1  0.9868142E-013  0.5052888E+02  0.7816164E-02  0.1300439E+00
        -11   -1    0    0    0    0  0.00000000000E+00  0.00000000000E+00  0.45593999997E+02  0.45594000000E+02  0.51100000000E-03 0. -1.
         11   -1    0    0    0    0 -0.00000000000E+00 -0.00000000000E+00 -0.45593999997E+02  0.45594000000E+02  0.51100000000E-03 0.  1.
    9900012    2    1    2    0    0 -0.27206732082E+02 -0.11796713624E+01  0.30192147907E+02  0.50528884290E+02  0.30000074287E+02 0.  0.
        -12    1    1    2    0    0  0.27206732082E+02  0.11796713624E+01 -0.30192147907E+02  0.40659115710E+02  0.00000000000E+00 0.  1.
         11    1    3    3    0    0 -0.17269839537E+02  0.11070362427E+02  0.12499051780E+02  0.24021377512E+02  0.51100000000E-03 0. -1.
        -11    1    3    3    0    0 -0.78561257538E+01 -0.87605563336E+01  0.43268578777E+01  0.12537454227E+02  0.51100000000E-03 0.  1.
        -12    1    3    3    0    0 -0.20807667912E+01 -0.34894774555E+01  0.13366238249E+02  0.13970052551E+02  0.00000000000E+00 0.  1.
</event>
<event>
 7    1  0.9868142E-013  0.5052886E+02  0.7816164E-02  0.1300439E+00
        -11   -1    0    0    0    0  0.00000000000E+00  0.00000000000E+00  0.45593999997E+02  0.45594000000E+02  0.51100000000E-03 0.  1.
         11   -1    0    0    0    0 -0.00000000000E+00 -0.00000000000E+00 -0.45593999997E+02  0.45594000000E+02  0.51100000000E-03 0. -1.
    9900012    2    1    2    0    0 -0.26716473060E+02  0.28771680993E+02 -0.10563451256E+02  0.50528855120E+02  0.29999985623E+02 0.  0.
        -12    1    1    2    0    0  0.26716473060E+02 -0.28771680993E+02  0.10563451256E+02  0.40659144880E+02  0.00000000000E+00 0.  1.
         11    1    3    3    0    0 -0.28371171190E+02  0.23076559654E+02 -0.11511047397E+02  0.38339994426E+02  0.51100000000E-03 0. -1.
        -11    1    3    3    0    0  0.12309185566E+01 -0.27855911384E+01 -0.14393651059E+01  0.33684492949E+01  0.51100000000E-03 0.  1.
         12    1    3    3    0    0  0.42377957409E+00  0.84807124777E+01  0.23869612460E+01  0.88204113990E+01  0.00000000000E+00 0. -1.
</event>
<event>
 7    1  0.9868142E-013  0.5052885E+02  0.7816164E-02  0.1300439E+00
        -11   -1    0    0    0    0  0.00000000000E+00  0.00000000000E+00  0.45593999997E+02  0.45594000000E+02  0.51100000000E-03 0.  1.
         11   -1    0    0    0    0 -0.00000000000E+00 -0.00000000000E+00 -0.45593999997E+02  0.45594000000E+02  0.51100000000E-03 0. -1.
    9900012    2    1    2    0    0 -0.19473024962E+02  0.23316295302E+02 -0.27024403342E+02  0.50528847233E+02  0.29999961648E+02 0.  0.
        -12    1    1    2    0    0  0.19473024962E+02 -0.23316295302E+02  0.27024403342E+02  0.40659152767E+02  0.00000000000E+00 0.  1.
         11    1    3    3    0    0 -0.20365720752E+02  0.24152241661E+02 -0.19068069002E+02  0.36901011026E+02  0.51100000000E-03 0. -1.
        -11    1    3    3    0    0  0.27377434081E+01 -0.31064533928E+01  0.95427242321E+00  0.42492267261E+01  0.51100000000E-03 0.  1.
         12    1    3    3    0    0 -0.18450476174E+01  0.22705070337E+01 -0.89106067627E+01  0.93786094801E+01  0.00000000000E+00 0. -1.
</event>
<event>
 7    1  0.9868142E-013  0.5052886E+02  0.7816164E-02  0.1300439E+00
        -11   -1    0    0    0    0  0.00000000000E+00  0.00000000000E+00  0.45593999997E+02  0.45594000000E+02  0.51100000000E-03 0. -1.
         11   -1    0    0    0    0 -0.00000000000E+00 -0.00000000000E+00 -0.45593999997E+02  0.45594000000E+02  0.51100000000E-03 0.  1.
    9900012    2    1    2    0    0  0.17145489305E+02  0.36239341360E+02 -0.67755423976E+01  0.50528860308E+02  0.30000001392E+02 0.  0.
        -12    1    1    2    0    0 -0.17145489305E+02 -0.36239341360E+02  0.67755423976E+01  0.40659139692E+02  0.00000000000E+00 0.  1.
         11    1    3    3    0    0  0.60761712262E+01  0.10397546199E+02 -0.79787611440E+01  0.14446087823E+02  0.51100000000E-03 0. -1.
        -11    1    3    3    0    0  0.44344577474E+01  0.12436344804E+02  0.11835418459E+02  0.17731447149E+02  0.51100000000E-03 0.  1.
        -12    1    3    3    0    0  0.66348603311E+01  0.13405450356E+02 -0.10632199713E+02  0.18351325337E+02  0.00000000000E+00 0.  1.
</event>
<event>
 7    1  0.9868142E-013  0.5052887E+02  0.7816164E-02  0.1300439E+00
        -11   -1    0    0    0    0  0.00000000000E+00  0.00000000000E+00  0.45593999997E+02  0.45594000000E+02  0.51100000000E-03 0. -1.
         11   -1    0    0    0    0 -0.00000000000E+00 -0.00000000000E+00 -0.45593999997E+02  0.45594000000E+02  0.51100000000E-03 0.  1.
    9900012    2    1    2    0    0 -0.24770348974E+02  0.28241716088E+02  0.15556349382E+02  0.50528871603E+02  0.30000035725E+02 0.  0.
        -12    1    1    2    0    0  0.24770348974E+02 -0.28241716088E+02 -0.15556349382E+02  0.40659128397E+02  0.00000000000E+00 0.  1.
         11    1    3    3    0    0 -0.24751390566E+02  0.18808229594E+02  0.10491976533E+02  0.32809486543E+02  0.51100000000E-03 0. -1.
        -11    1    3    3    0    0  0.20496199748E+01  0.24586583123E+01  0.89262352850E+01  0.94828065129E+01  0.51100000000E-03 0.  1.
         12    1    3    3    0    0 -0.20685783826E+01  0.69748281817E+01 -0.38618624356E+01  0.82365785470E+01  0.00000000000E+00 0. -1.
</event>
<event>
 7    1  0.9868142E-013  0.5052886E+02  0.7816164E-02  0.1300439E+00
        -11   -1    0    0    0    0  0.00000000000E+00  0.00000000000E+00  0.45593999997E+02  0.45594000000E+02  0.51100000000E-03 0.  1.
         11   -1    0    0    0    0 -0.00000000000E+00 -0.00000000000E+00 -0.45593999997E+02  0.45594000000E+02  0.51100000000E-03 0. -1.
    9900012    2    1    2    0    0 -0.64169833560E+01 -0.36726733473E+02 -0.16221438377E+02  0.50528859699E+02  0.29999999541E+02 0.  0.
        -12    1    1    2    0    0  0.64169833560E+01  0.36726733473E+02  0.16221438377E+02  0.40659140301E+02  0.00000000000E+00 0.  1.
         11    1    3    3    0    0  0.15067404182E+01 -0.79282766454E+01  0.37297292864E+01  0.88903722119E+01  0.51100000000E-03 0. -1.
        -11    1    3    3    0    0 -0.83268072936E+01 -0.10744480492E+02 -0.19250909446E+02  0.23566440026E+02  0.51100000000E-03 0.  1.
        -12    1    3    3    0    0  0.40308351948E+00 -0.18053976336E+02 -0.70025821707E+00  0.18072047461E+02  0.00000000000E+00 0.  1.
</event>
<event>
 7    1  0.9868142E-013  0.5052887E+02  0.7816164E-02  0.1300439E+00
        -11   -1    0    0    0    0  0.00000000000E+00  0.00000000000E+00  0.45593999997E+02  0.45594000000E+02  0.51100000000E-03 0. -1.
         11   -1    0    0    0    0 -0.00000000000E+00 -0.00000000000E+00 -0.45593999997E+02  0.45594000000E+02  0.51100000000E-03 0.  1.
    9900012    2    1    2    0    0  0.28078447276E+02 -0.20808544683E+02  0.20779080656E+02  0.50528869092E+02  0.30000028093E+02 0.  0.
        -12    1    1    2    0    0 -0.28078447276E+02  0.20808544683E+02 -0.20779080656E+02  0.40659130908E+02  0.00000000000E+00 0.  1.
         11    1    3    3    0    0 -0.43986942664E+01  0.22427343212E+01  0.58339922769E+01  0.76428943885E+01  0.51100000000E-03 0. -1.
        -11    1    3    3    0    0  0.24960720699E+02 -0.18581266429E+02  0.93017353033E+01  0.32478043657E+02  0.51100000000E-03 0.  1.
         12    1    3    3    0    0  0.75164208439E+01 -0.44700125755E+01  0.56433530763E+01  0.10407931047E+02  0.00000000000E+00 0. -1.
</event>
<event>
 7    1  0.9868142E-013  0.5052886E+02  0.7816164E-02  0.1300439E+00
        -11   -1    0    0    0    0  0.00000000000E+00  0.00000000000E+00  0.45593999997E+02  0.45594000000E+02  0.51100000000E-03 0.  1.
         11   -1    0    0    0    0 -0.00000000000E+00 -0.00000000000E+00 -0.45593999997E+02  0.45594000000E+02  0.51100000000E-03 0. -1.
    9900012    2    1    2    0    0  0.20157225273E+02 -0.15672911960E+02  0.31641926742E+02  0.50528862922E+02  0.30000009338E+02 0.  0.
        -12    1    1    2    0    0 -0.20157225273E+02  0.15672911960E+02 -0.31641926742E+02  0.40659137078E+02  0.00000000000E+00 0.  1.
         11    1    3    3    0    0  0.56155497701E+01  0.13011126225E+01  0.27837997778E+00  0.57710301464E+01  0.51100000000E-03 0. -1.
        -11    1    3    3    0    0  0.94245149720E+00 -0.17874942044E+02  0.14243647262E+02  0.22875385363E+02  0.51100000000E-03 0.  1.
        -12    1    3    3    0    0  0.13599224005E+02  0.90091746182E+00  0.17119899502E+02  0.21882447413E+02  0.00000000000E+00 0.  1.
</event>
<event>
 7    1  0.1508391E-012  0.5052886E+02  0.7816164E-02  0.1300439E+00
        -11   -1    0    0    0    0  0.00000000000E+00  0.00000000000E+00  0.45593999997E+02  0.45594000000E+02  0.51100000000E-03 0. -1.
         11   -1    0    0    0    0 -0.00000000000E+00 -0.00000000000E+00 -0.45593999997E+02  0.45594000000E+02  0.51100000000E-03 0.  1.
    9900012    2    1    2    0    0 -0.19428367165E+02  0.16062122224E+02  0.31901609480E+02  0.50528857013E+02  0.29999991377E+02 0.  0.
        -12    1    1    2    0    0  0.19428367165E+02 -0.16062122224E+02 -0.31901609480E+02  0.40659142987E+02  0.00000000000E+00 0.  1.
         11    1    3    3    0    0 -0.15206779465E+02  0.11145503835E+02  0.28183394647E+02  0.33908290012E+02  0.51100000000E-03 0. -1.
        -11    1    3    3    0    0  0.16478301741E+00 -0.49123799626E+01 -0.73984500083E+00  0.49705131754E+01  0.51100000000E-03 0.  1.
         12    1    3    3    0    0 -0.43863707173E+01  0.98289983520E+01  0.44580598332E+01  0.11650053826E+02  0.00000000000E+00 0. -1.
</event>
<event>
 7    1  0.9868142E-013  0.5052886E+02  0.7816164E-02  0.1300439E+00
        -11   -1    0    0    0    0  0.00000000000E+00  0.00000000000E+00  0.45593999997E+02  0.45594000000E+02  0.51100000000E-03 0.  1.
         11   -1    0    0    0    0 -0.00000000000E+00 -0.00000000000E+00 -0.45593999997E+02  0.45594000000E+02  0.51100000000E-03 0. -1.
    9900012    2    1    2    0    0 -0.23699846232E+02 -0.12317537022E+02 -0.30655525233E+02  0.50528860105E+02  0.30000000774E+02 0.  0.
        -12    1    1    2    0    0  0.23699846232E+02  0.12317537022E+02  0.30655525233E+02  0.40659139895E+02  0.00000000000E+00 0.  1.
         11    1    3    3    0    0 -0.11735612404E+02  0.24240798336E+01  0.59225199334E-01  0.11983499882E+02  0.51100000000E-03 0.  1.
        -11    1    3    3    0    0 -0.10051641418E+02 -0.14922493313E+02 -0.17187096604E+02  0.24881973229E+02  0.51100000000E-03 0. -1.
         12    1    3    3    0    0 -0.19125924097E+01  0.18087645711E+00 -0.13527653829E+02  0.13663386993E+02  0.00000000000E+00 0. -1.
</event>
<event>
 7    1  0.9868142E-013  0.5052883E+02  0.7816164E-02  0.1300439E+00
        -11   -1    0    0    0    0  0.00000000000E+00  0.00000000000E+00  0.45593999997E+02  0.45594000000E+02  0.51100000000E-03 0.  1.
         11   -1    0    0    0    0 -0.00000000000E+00 -0.00000000000E+00 -0.45593999997E+02  0.45594000000E+02  0.51100000000E-03 0. -1.
    9900012    2    1    2    0    0 -0.30239084827E+01  0.25137557157E+02 -0.31813952110E+02  0.50528826973E+02  0.29999900068E+02 0.  0.
        -12    1    1    2    0    0  0.30239084827E+01 -0.25137557157E+02  0.31813952110E+02  0.40659173027E+02  0.00000000000E+00 0.  1.
         11    1    3    3    0    0 -0.99045062292E+01  0.80694039179E+01 -0.27213383851E+01  0.13062166976E+02  0.51100000000E-03 0. -1.
        -11    1    3    3    0    0  0.69743235808E+01  0.33719493542E+01 -0.18801124661E+02  0.20334540089E+02  0.51100000000E-03 0.  1.
         12    1    3    3    0    0 -0.93725834334E-01  0.13696203885E+02 -0.10291489064E+02  0.17132119908E+02  0.00000000000E+00 0. -1.
</event>
<event>
 7    1  0.9868142E-013  0.5052887E+02  0.7816164E-02  0.1300439E+00
        -11   -1    0    0    0    0  0.00000000000E+00  0.00000000000E+00  0.45593999997E+02  0.45594000000E+02  0.51100000000E-03 0.  1.
         11   -1    0    0    0    0 -0.00000000000E+00 -0.00000000000E+00 -0.45593999997E+02  0.45594000000E+02  0.51100000000E-03 0. -1.
    9900012    2    1    2    0    0  0.26537737033E+02  0.18266961994E+02 -0.24803858089E+02  0.50528871093E+02  0.30000034175E+02 0.  0.
        -12    1    1    2    0    0 -0.26537737033E+02 -0.18266961994E+02  0.24803858089E+02  0.40659128907E+02  0.00000000000E+00 0.  1.
         11    1    3    3    0    0 -0.41422183887E+01  0.10433933700E+02 -0.71778671008E+01  0.13324665925E+02  0.51100000000E-03 0. -1.
        -11    1    3    3    0    0  0.99887173472E+01 -0.12899403921E+01 -0.42540793802E+01  0.10933234292E+02  0.51100000000E-03 0.  1.
         12    1    3    3    0    0  0.20691238074E+02  0.91229686863E+01 -0.13371911609E+02  0.26270970876E+02  0.00000000000E+00 0. -1.
</event>
<event>
 7    1  0.9868142E-013  0.5052886E+02  0.7816164E-02  0.1300439E+00
        -11   -1    0    0    0    0  0.00000000000E+00  0.00000000000E+00  0.45593999997E+02  0.45594000000E+02  0.51100000000E-03 0. -1.
         11   -1    0    0    0    0 -0.00000000000E+00 -0.00000000000E+00 -0.45593999997E+02  0.45594000000E+02  0.51100000000E-03 0.  1.
    9900012    2    1    2    0    0  0.30975964009E+00  0.39896118486E+02  0.78338503526E+01  0.50528862865E+02  0.30000009163E+02 0.  0.
        -12    1    1    2    0    0 -0.30975964009E+00 -0.39896118486E+02 -0.78338503526E+01  0.40659137135E+02  0.00000000000E+00 0.  1.
         11    1    3    3    0    0 -0.43521678423E+01  0.24010840641E+02  0.92661759083E+00  0.24419673495E+02  0.51100000000E-03 0. -1.
        -11    1    3    3    0    0  0.81680402358E+01  0.25569244959E+01 -0.30723312631E+01  0.90936221509E+01  0.51100000000E-03 0.  1.
        -12    1    3    3    0    0 -0.35061127534E+01  0.13328353349E+02  0.99795640248E+01  0.17015567218E+02  0.00000000000E+00 0.  1.
</event>
<event>
 7    1  0.9868142E-013  0.5052888E+02  0.7816164E-02  0.1300439E+00
        -11   -1    0    0    0    0  0.00000000000E+00  0.00000000000E+00  0.45593999997E+02  0.45594000000E+02  0.51100000000E-03 0.  1.
         11   -1    0    0    0    0 -0.00000000000E+00 -0.00000000000E+00 -0.45593999997E+02  0.45594000000E+02  0.51100000000E-03 0. -1.
    9900012    2    1    2    0    0  0.56172753039E+01 -0.20188896804E+02 -0.34842773205E+02  0.50528878260E+02  0.30000055960E+02 0.  0.
        -12    1    1    2    0    0 -0.56172753039E+01  0.20188896804E+02  0.34842773205E+02  0.40659121740E+02  0.00000000000E+00 0.  1.
         11    1    3    3    0    0  0.73549309301E+01 -0.73916049020E+01 -0.27475230014E+02  0.29387396900E+02  0.51100000000E-03 0. -1.
        -11    1    3    3    0    0  0.20929680145E+01 -0.11858942346E+02  0.80292355404E+00  0.12068956672E+02  0.51100000000E-03 0.  1.
         12    1    3    3    0    0 -0.38306236407E+01 -0.93834955624E+00 -0.81704667458E+01  0.90725246878E+01  0.00000000000E+00 0. -1.
</event>
<event>
 7    1  0.9868142E-013  0.5052886E+02  0.7816164E-02  0.1300439E+00
        -11   -1    0    0    0    0  0.00000000000E+00  0.00000000000E+00  0.45593999997E+02  0.45594000000E+02  0.51100000000E-03 0.  1.
         11   -1    0    0    0    0 -0.00000000000E+00 -0.00000000000E+00 -0.45593999997E+02  0.45594000000E+02  0.51100000000E-03 0. -1.
    9900012    2    1    2    0    0 -0.24349390203E+02 -0.22725285208E+02 -0.23320257281E+02  0.50528858461E+02  0.29999995777E+02 0.  0.
        -12    1    1    2    0    0  0.24349390203E+02  0.22725285208E+02  0.23320257281E+02  0.40659141539E+02  0.00000000000E+00 0.  1.
         11    1    3    3    0    0 -0.11391960629E+02 -0.15917108283E+02 -0.13856632207E+02  0.23982021587E+02  0.51100000000E-03 0. -1.
        -11    1    3    3    0    0 -0.11358414461E+02 -0.22129389102E+01  0.39899196712E+01  0.12240512119E+02  0.51100000000E-03 0.  1.
        -12    1    3    3    0    0 -0.15990151136E+01 -0.45952380155E+01 -0.13453544746E+02  0.14306324754E+02  0.00000000000E+00 0.  1.
</event>
<event>
 7    1  0.9868142E-013  0.5052887E+02  0.7816164E-02  0.1300439E+00
        -11   -1    0    0    0    0  0.00000000000E+00  0.00000000000E+00  0.45593999997E+02  0.45594000000E+02  0.51100000000E-03 0.  1.
         11   -1    0    0    0    0 -0.00000000000E+00 -0.00000000000E+00 -0.45593999997E+02  0.45594000000E+02  0.51100000000E-03 0. -1.
    9900012    2    1    2    0    0  0.22238584916E+02 -0.30605851107E+02 -0.14896045920E+02  0.50528868614E+02  0.30000026638E+02 0.  0.
        -12    1    1    2    0    0 -0.22238584916E+02  0.30605851107E+02  0.14896045920E+02  0.40659131386E+02  0.00000000000E+00 0.  1.
         11    1    3    3    0    0  0.27819118183E+01 -0.10456194254E+02 -0.10302014821E+02  0.14939964567E+02  0.51100000000E-03 0. -1.
        -11    1    3    3    0    0  0.49998920327E+01 -0.17709649865E+02  0.36622248651E+01  0.18762795898E+02  0.51100000000E-03 0.  1.
        -12    1    3    3    0    0  0.14456781065E+02 -0.24400069877E+01 -0.82562559644E+01  0.16826108148E+02  0.00000000000E+00 0.  1.
</event>
<event>
 7    1  0.9868142E-013  0.5052884E+02  0.7816164E-02  0.1300439E+00
        -11   -1    0    0    0    0  0.00000000000E+00  0.00000000000E+00  0.45593999997E+02  0.45594000000E+02  0.51100000000E-03 0.  1.
         11   -1    0    0    0    0 -0.00000000000E+00 -0.00000000000E+00 -0.45593999997E+02  0.45594000000E+02  0.51100000000E-03 0. -1.
    9900012    2    1    2    0    0  0.95893248486E+01 -0.15834726195E+02 -0.36200468999E+02  0.50528835468E+02  0.29999925888E+02 0.  0.
        -12    1    1    2    0    0 -0.95893248486E+01  0.15834726195E+02  0.36200468999E+02  0.40659164532E+02  0.00000000000E+00 0.  1.
         11    1    3    3    0    0  0.65570965800E+01  0.65351504434E+01 -0.19435860487E+02  0.21528037068E+02  0.51100000000E-03 0. -1.
        -11    1    3    3    0    0 -0.84011052560E-01 -0.95076076338E+01 -0.31559785115E+01  0.10018076732E+02  0.51100000000E-03 0.  1.
         12    1    3    3    0    0  0.31162393211E+01 -0.12862269004E+02 -0.13608630000E+02  0.18982721668E+02  0.00000000000E+00 0. -1.
</event>
<event>
 7    1  0.9868142E-013  0.5052883E+02  0.7816164E-02  0.1300439E+00
        -11   -1    0    0    0    0  0.00000000000E+00  0.00000000000E+00  0.45593999997E+02  0.45594000000E+02  0.51100000000E-03 0.  1.
         11   -1    0    0    0    0 -0.00000000000E+00 -0.00000000000E+00 -0.45593999997E+02  0.45594000000E+02  0.51100000000E-03 0. -1.
    9900012    2    1    2    0    0  0.35027101754E+02  0.20555358103E+02 -0.19358089024E+01  0.50528831783E+02  0.29999914687E+02 0.  0.
        -12    1    1    2    0    0 -0.35027101754E+02 -0.20555358103E+02  0.19358089024E+01  0.40659168217E+02  0.00000000000E+00 0.  1.
         11    1    3    3    0    0  0.29159262831E+01 -0.20950018342E+01  0.12786986149E+00  0.35927718737E+01  0.51100000000E-03 0. -1.
        -11    1    3    3    0    0  0.10037516067E+02  0.21770806836E+02  0.33098971246E+01  0.24200726814E+02  0.51100000000E-03 0.  1.
        -12    1    3    3    0    0  0.22073659403E+02  0.87955310114E+00 -0.53735758884E+01  0.22735333095E+02  0.00000000000E+00 0.  1.
</event>
<event>
 7    1  0.9868142E-013  0.5052886E+02  0.7816164E-02  0.1300439E+00
        -11   -1    0    0    0    0  0.00000000000E+00  0.00000000000E+00  0.45593999997E+02  0.45594000000E+02  0.51100000000E-03 0.  1.
         11   -1    0    0    0    0 -0.00000000000E+00 -0.00000000000E+00 -0.45593999997E+02  0.45594000000E+02  0.51100000000E-03 0. -1.
    9900012    2    1    2    0    0 -0.28618074054E+01 -0.39593718412E+02 -0.87927970198E+01  0.50528858854E+02  0.29999996971E+02 0.  0.
        -12    1    1    2    0    0  0.28618074054E+01  0.39593718412E+02  0.87927970198E+01  0.40659141146E+02  0.00000000000E+00 0.  1.
         11    1    3    3    0    0  0.62507924823E+01 -0.73841573119E+01 -0.64814991056E+01  0.11645085521E+02  0.51100000000E-03 0. -1.
        -11    1    3    3    0    0 -0.10349511635E+02 -0.25744374992E+02  0.58925607860E+01  0.28365604307E+02  0.51100000000E-03 0.  1.
        -12    1    3    3    0    0  0.12369117476E+01 -0.64651861079E+01 -0.82038587001E+01  0.10518169026E+02  0.00000000000E+00 0.  1.
</event>
<event>
 7    1  0.9868142E-013  0.5052886E+02  0.7816164E-02  0.1300439E+00
        -11   -1    0    0    0    0  0.00000000000E+00  0.00000000000E+00  0.45593999997E+02  0.45594000000E+02  0.51100000000E-03 0. -1.
         11   -1    0    0    0    0 -0.00000000000E+00 -0.00000000000E+00 -0.45593999997E+02  0.45594000000E+02  0.51100000000E-03 0.  1.
    9900012    2    1    2    0    0  0.25147692650E+02  0.30644605456E+02 -0.90370130031E+01  0.50528857200E+02  0.29999991946E+02 0.  0.
        -12    1    1    2    0    0 -0.25147692650E+02 -0.30644605456E+02  0.90370130031E+01  0.40659142800E+02  0.00000000000E+00 0.  1.
         11    1    3    3    0    0  0.12356820254E+02 -0.14567612452E+01 -0.90991593203E+01  0.15414534074E+02  0.51100000000E-03 0. -1.
        -11    1    3    3    0    0  0.74022109078E+00  0.91881526232E+01 -0.30253960246E+00  0.92228849262E+01  0.51100000000E-03 0.  1.
         12    1    3    3    0    0  0.12050651305E+02  0.22913214078E+02  0.36468591965E+00  0.25891438200E+02  0.00000000000E+00 0. -1.
</event>
<event>
 7    1  0.9868142E-013  0.5052885E+02  0.7816164E-02  0.1300439E+00
        -11   -1    0    0    0    0  0.00000000000E+00  0.00000000000E+00  0.45593999997E+02  0.45594000000E+02  0.51100000000E-03 0.  1.
         11   -1    0    0    0    0 -0.00000000000E+00 -0.00000000000E+00 -0.45593999997E+02  0.45594000000E+02  0.51100000000E-03 0. -1.
    9900012    2    1    2    0    0 -0.62316524404E+00 -0.23604345440E+01 -0.40585795088E+02  0.50528846675E+02  0.29999959954E+02 0.  0.
        -12    1    1    2    0    0  0.62316524404E+00  0.23604345440E+01  0.40585795088E+02  0.40659153325E+02  0.00000000000E+00 0.  1.
         11    1    3    3    0    0  0.31384679040E+01 -0.72482208167E+01 -0.14425131575E+02  0.16446005807E+02  0.51100000000E-03 0. -1.
        -11    1    3    3    0    0  0.33592272552E+01  0.11213223682E+02 -0.18347870936E+02  0.21763849872E+02  0.51100000000E-03 0.  1.
        -12    1    3    3    0    0 -0.71208604033E+01 -0.63254374097E+01 -0.78127925774E+01  0.12318990996E+02  0.00000000000E+00 0.  1.
</event>
<event>
 7    1  0.9868142E-013  0.5052885E+02  0.7816164E-02  0.1300439E+00
        -11   -1    0    0    0    0  0.00000000000E+00  0.00000000000E+00  0.45593999997E+02  0.45594000000E+02  0.51100000000E-03 0. -1.
         11   -1    0    0    0    0 -0.00000000000E+00 -0.00000000000E+00 -0.45593999997E+02  0.45594000000E+02  0.51100000000E-03 0.  1.
    9900012    2    1    2    0    0 -0.19122950569E+02 -0.29108017780E+02 -0.20980995087E+02  0.50528854751E+02  0.29999984500E+02 0.  0.
        -12    1    1    2    0    0  0.19122950569E+02  0.29108017780E+02  0.20980995087E+02  0.40659145249E+02  0.00000000000E+00 0.  1.
         11    1    3    3    0    0 -0.88521175466E+01 -0.67461732338E+01  0.67747316183E+01  0.13029498345E+02  0.51100000000E-03 0. -1.
        -11    1    3    3    0    0 -0.41163185236E+01 -0.15179621117E+02 -0.16450574905E+02  0.22759314366E+02  0.51100000000E-03 0.  1.
         12    1    3    3    0    0 -0.61545144984E+01 -0.71822234298E+01 -0.11305151800E+02  0.14740042040E+02  0.00000000000E+00 0. -1.
</event>
<event>
 7    1  0.9868142E-013  0.5052886E+02  0.7816164E-02  0.1300439E+00
        -11   -1    0    0    0    0  0.00000000000E+00  0.00000000000E+00  0.45593999997E+02  0.45594000000E+02  0.51100000000E-03 0. -1.
         11   -1    0    0    0    0 -0.00000000000E+00 -0.00000000000E+00 -0.45593999997E+02  0.45594000000E+02  0.51100000000E-03 0.  1.
    9900012    2    1    2    0    0  0.12468950045E+02 -0.38535034889E+02  0.35695768553E+01  0.50528861936E+02  0.30000006342E+02 0.  0.
        -12    1    1    2    0    0 -0.12468950045E+02  0.38535034889E+02 -0.35695768553E+01  0.40659138064E+02  0.00000000000E+00 0.  1.
         11    1    3    3    0    0 -0.72873103918E+01 -0.24602332177E+02  0.15496380176E+01  0.25705661235E+02  0.51100000000E-03 0. -1.
        -11    1    3    3    0    0  0.74892935816E+01 -0.23749787013E+01  0.74223938564E-01  0.78571974416E+01  0.51100000000E-03 0.  1.
         12    1    3    3    0    0  0.12266966855E+02 -0.11557724011E+02  0.19457148991E+01  0.16966003260E+02  0.00000000000E+00 0. -1.
</event>
<event>
 7    1  0.9868142E-013  0.5052886E+02  0.7816164E-02  0.1300439E+00
        -11   -1    0    0    0    0  0.00000000000E+00  0.00000000000E+00  0.45593999997E+02  0.45594000000E+02  0.51100000000E-03 0. -1.
         11   -1    0    0    0    0 -0.00000000000E+00 -0.00000000000E+00 -0.45593999997E+02  0.45594000000E+02  0.51100000000E-03 0.  1.
    9900012    2    1    2    0    0  0.13127211983E+02 -0.22431729746E+02  0.31267548362E+02  0.50528858661E+02  0.29999996387E+02 0.  0.
        -12    1    1    2    0    0 -0.13127211983E+02  0.22431729746E+02 -0.31267548362E+02  0.40659141339E+02  0.00000000000E+00 0.  1.
         11    1    3    3    0    0  0.21592974023E+02 -0.12533442176E+02  0.25707970426E+02  0.35836342498E+02  0.51100000000E-03 0. -1.
        -11    1    3    3    0    0 -0.48743902930E+01 -0.61297998128E+01  0.53462532372E+01  0.94824337810E+01  0.51100000000E-03 0.  1.
         12    1    3    3    0    0 -0.35913717466E+01 -0.37684877577E+01  0.21332469790E+00  0.52100823822E+01  0.00000000000E+00 0. -1.
</event>
<event>
 7    1  0.1595327E-012  0.5052886E+02  0.7816164E-02  0.1300439E+00
        -11   -1    0    0    0    0  0.00000000000E+00  0.00000000000E+00  0.45593999997E+02  0.45594000000E+02  0.51100000000E-03 0. -1.
         11   -1    0    0    0    0 -0.00000000000E+00 -0.00000000000E+00 -0.45593999997E+02  0.45594000000E+02  0.51100000000E-03 0.  1.
    9900012    2    1    2    0    0  0.67132011408E+01 -0.39976636132E+02 -0.31570917904E+01  0.50528859151E+02  0.29999997875E+02 0.  0.
        -12    1    1    2    0    0 -0.67132011408E+01  0.39976636132E+02  0.31570917904E+01  0.40659140849E+02  0.00000000000E+00 0.  1.
         11    1    3    3    0    0  0.72495069735E+00 -0.26456934050E+02 -0.68064520538E+01  0.27328057060E+02  0.51100000000E-03 0. -1.
        -11    1    3    3    0    0  0.18437513987E+01 -0.11538079899E+02  0.99886110327E+01  0.15372021910E+02  0.51100000000E-03 0.  1.
        -12    1    3    3    0    0  0.41444990448E+01 -0.19816221834E+01 -0.63392507693E+01  0.78287801813E+01  0.00000000000E+00 0.  1.
</event>
<event>
 7    1  0.9868142E-013  0.5052886E+02  0.7816164E-02  0.1300439E+00
        -11   -1    0    0    0    0  0.00000000000E+00  0.00000000000E+00  0.45593999997E+02  0.45594000000E+02  0.51100000000E-03 0. -1.
         11   -1    0    0    0    0 -0.00000000000E+00 -0.00000000000E+00 -0.45593999997E+02  0.45594000000E+02  0.51100000000E-03 0.  1.
    9900012    2    1    2    0    0  0.34621668150E+02 -0.21242761930E+02 -0.18030957374E+01  0.50528855959E+02  0.29999988172E+02 0.  0.
        -12    1    1    2    0    0 -0.34621668150E+02  0.21242761930E+02  0.18030957374E+01  0.40659144041E+02  0.00000000000E+00 0.  1.
         11    1    3    3    0    0  0.27260541203E+02 -0.62593125249E+01 -0.10777258833E+02  0.29974412558E+02  0.51100000000E-03 0. -1.
        -11    1    3    3    0    0  0.77914497619E+01 -0.15130155067E+02  0.67892396661E+01  0.18322719701E+02  0.51100000000E-03 0.  1.
         12    1    3    3    0    0 -0.43032281467E+00  0.14670566209E+00  0.21849234299E+01  0.22317236995E+01  0.00000000000E+00 0. -1.
</event>
<event>
 7    1  0.9868142E-013  0.5052885E+02  0.7816164E-02  0.1300439E+00
        -11   -1    0    0    0    0  0.00000000000E+00  0.00000000000E+00  0.45593999997E+02  0.45594000000E+02  0.51100000000E-03 0. -1.
         11   -1    0    0    0    0 -0.00000000000E+00 -0.00000000000E+00 -0.45593999997E+02  0.45594000000E+02  0.51100000000E-03 0.  1.
    9900012    2    1    2    0    0 -0.19299348343E+02 -0.34482503048E+02  0.95738620031E+01  0.50528847321E+02  0.29999961917E+02 0.  0.
        -12    1    1    2    0    0  0.19299348343E+02  0.34482503048E+02 -0.95738620031E+01  0.40659152679E+02  0.00000000000E+00 0.  1.
         11    1    3    3    0    0 -0.11389675435E+02 -0.13899135535E+02  0.13494245557E+02  0.22472323835E+02  0.51100000000E-03 0. -1.
        -11    1    3    3    0    0 -0.48853552930E+01 -0.15325161614E+02 -0.10420703942E+02  0.19165551016E+02  0.51100000000E-03 0.  1.
        -12    1    3    3    0    0 -0.30243176151E+01 -0.52582058986E+01  0.65003203880E+01  0.88909724696E+01  0.00000000000E+00 0.  1.
</event>
<event>
 7    1  0.9868142E-013  0.5052888E+02  0.7816164E-02  0.1300439E+00
        -11   -1    0    0    0    0  0.00000000000E+00  0.00000000000E+00  0.45593999997E+02  0.45594000000E+02  0.51100000000E-03 0.  1.
         11   -1    0    0    0    0 -0.00000000000E+00 -0.00000000000E+00 -0.45593999997E+02  0.45594000000E+02  0.51100000000E-03 0. -1.
    9900012    2    1    2    0    0 -0.68944833374E+01  0.21086803012E+02 -0.34073109223E+02  0.50528881294E+02  0.30000065182E+02 0.  0.
        -12    1    1    2    0    0  0.68944833374E+01 -0.21086803012E+02  0.34073109223E+02  0.40659118706E+02  0.00000000000E+00 0.  1.
         11    1    3    3    0    0 -0.83324207648E+01  0.14444862243E+02 -0.20085630269E+02  0.26105858051E+02  0.51100000000E-03 0. -1.
        -11    1    3    3    0    0 -0.48187763496E+01 -0.28827913003E+01  0.88702529178E+00  0.56848839318E+01  0.51100000000E-03 0.  1.
        -12    1    3    3    0    0  0.62567137770E+01  0.95247320694E+01 -0.14874504247E+02  0.18738139312E+02  0.00000000000E+00 0.  1.
</event>
<event>
 7    1  0.9868142E-013  0.5052883E+02  0.7816164E-02  0.1300439E+00
        -11   -1    0    0    0    0  0.00000000000E+00  0.00000000000E+00  0.45593999997E+02  0.45594000000E+02  0.51100000000E-03 0.  1.
         11   -1    0    0    0    0 -0.00000000000E+00 -0.00000000000E+00 -0.45593999997E+02  0.45594000000E+02  0.51100000000E-03 0. -1.
    9900012    2    1    2    0    0  0.38008627862E+02 -0.84114626531E+01 -0.11737109644E+02  0.50528828357E+02  0.29999904275E+02 0.  0.
        -12    1    1    2    0    0 -0.38008627862E+02  0.84114626531E+01  0.11737109644E+02  0.40659171643E+02  0.00000000000E+00 0.  1.
         11    1    3    3    0    0  0.17228672485E+02  0.25816277358E+01 -0.13182998977E+02  0.21846817151E+02  0.51100000000E-03 0. -1.
        -11    1    3    3    0    0  0.15104700097E+02 -0.75695667927E+01  0.85759204246E+01  0.18947208709E+02  0.51100000000E-03 0.  1.
        -12    1    3    3    0    0  0.56752552796E+01 -0.34235235963E+01 -0.71300310911E+01  0.97348024974E+01  0.00000000000E+00 0.  1.
</event>
<event>
 7    1  0.9868142E-013  0.5052886E+02  0.7816164E-02  0.1300439E+00
        -11   -1    0    0    0    0  0.00000000000E+00  0.00000000000E+00  0.45593999997E+02  0.45594000000E+02  0.51100000000E-03 0.  1.
         11   -1    0    0    0    0 -0.00000000000E+00 -0.00000000000E+00 -0.45593999997E+02  0.45594000000E+02  0.51100000000E-03 0. -1.
    9900012    2    1    2    0    0 -0.19648219538E+02  0.30303489245E+02 -0.18676509426E+02  0.50528855939E+02  0.29999988114E+02 0.  0.
        -12    1    1    2    0    0  0.19648219538E+02 -0.30303489245E+02  0.18676509426E+02  0.40659144061E+02  0.00000000000E+00 0.  1.
         11    1    3    3    0    0  0.27971737912E+00  0.10281873890E+02 -0.41683364167E+01  0.11098207118E+02  0.51100000000E-03 0. -1.
        -11    1    3    3    0    0 -0.17930982274E+02  0.72810089491E+01 -0.17611077190E+02  0.26166452887E+02  0.51100000000E-03 0.  1.
        -12    1    3    3    0    0 -0.19969546425E+01  0.12740606406E+02  0.31029041804E+01  0.13264195934E+02  0.00000000000E+00 0.  1.
</event>
<event>
 7    1  0.9868142E-013  0.5052887E+02  0.7816164E-02  0.1300439E+00
        -11   -1    0    0    0    0  0.00000000000E+00  0.00000000000E+00  0.45593999997E+02  0.45594000000E+02  0.51100000000E-03 0.  1.
         11   -1    0    0    0    0 -0.00000000000E+00 -0.00000000000E+00 -0.45593999997E+02  0.45594000000E+02  0.51100000000E-03 0. -1.
    9900012    2    1    2    0    0  0.17382001636E+02 -0.33478924215E+02 -0.15172108216E+02  0.50528865538E+02  0.30000017291E+02 0.  0.
        -12    1    1    2    0    0 -0.17382001636E+02  0.33478924215E+02  0.15172108216E+02  0.40659134462E+02  0.00000000000E+00 0.  1.
         11    1    3    3    0    0  0.20006980315E+02 -0.34003362618E+02 -0.90354504200E+01  0.40474032356E+02  0.51100000000E-03 0. -1.
        -11    1    3    3    0    0 -0.49256068331E+01 -0.77314980219E+00 -0.53175189410E+01  0.72894012951E+01  0.51100000000E-03 0.  1.
        -12    1    3    3    0    0  0.23006281548E+01  0.12975882055E+01 -0.81913885500E+00  0.27654318870E+01  0.00000000000E+00 0.  1.
</event>
<event>
 7    1  0.9868142E-013  0.5052886E+02  0.7816164E-02  0.1300439E+00
        -11   -1    0    0    0    0  0.00000000000E+00  0.00000000000E+00  0.45593999997E+02  0.45594000000E+02  0.51100000000E-03 0. -1.
         11   -1    0    0    0    0 -0.00000000000E+00 -0.00000000000E+00 -0.45593999997E+02  0.45594000000E+02  0.51100000000E-03 0.  1.
    9900012    2    1    2    0    0 -0.16238004489E+02  0.30903958120E+02  0.20843192004E+02  0.50528855024E+02  0.29999985330E+02 0.  0.
        -12    1    1    2    0    0  0.16238004489E+02 -0.30903958120E+02 -0.20843192004E+02  0.40659144976E+02  0.00000000000E+00 0.  1.
         11    1    3    3    0    0 -0.14540098641E+02  0.31535005735E+02  0.19568228347E+02  0.39859586251E+02  0.51100000000E-03 0. -1.
        -11    1    3    3    0    0  0.24981466425E+00  0.30701436065E+00 -0.44925243144E+01  0.45099268465E+01  0.51100000000E-03 0.  1.
         12    1    3    3    0    0 -0.19477205117E+01 -0.93806197503E+00  0.57674879715E+01  0.61593419261E+01  0.00000000000E+00 0. -1.
</event>
<event>
 7    1  0.9868142E-013  0.5052886E+02  0.7816164E-02  0.1300439E+00
        -11   -1    0    0    0    0  0.00000000000E+00  0.00000000000E+00  0.45593999997E+02  0.45594000000E+02  0.51100000000E-03 0.  1.
         11   -1    0    0    0    0 -0.00000000000E+00 -0.00000000000E+00 -0.45593999997E+02  0.45594000000E+02  0.51100000000E-03 0. -1.
    9900012    2    1    2    0    0  0.33645645379E+02 -0.11340700812E+01 -0.22800223756E+02  0.50528858700E+02  0.29999996503E+02 0.  0.
        -12    1    1    2    0    0 -0.33645645379E+02  0.11340700812E+01  0.22800223756E+02  0.40659141300E+02  0.00000000000E+00 0.  1.
         11    1    3    3    0    0  0.11890245805E+02 -0.55932433771E+01 -0.10067597409E+02  0.16553514268E+02  0.51100000000E-03 0. -1.
        -11    1    3    3    0    0  0.39037942661E+01  0.11587282094E+02 -0.40224335088E+01  0.12871856416E+02  0.51100000000E-03 0.  1.
        -12    1    3    3    0    0  0.17851605308E+02 -0.71281087985E+01 -0.87101928389E+01  0.21103488015E+02  0.00000000000E+00 0.  1.
</event>
<event>
 7    1  0.9868142E-013  0.5052887E+02  0.7816164E-02  0.1300439E+00
        -11   -1    0    0    0    0  0.00000000000E+00  0.00000000000E+00  0.45593999997E+02  0.45594000000E+02  0.51100000000E-03 0.  1.
         11   -1    0    0    0    0 -0.00000000000E+00 -0.00000000000E+00 -0.45593999997E+02  0.45594000000E+02  0.51100000000E-03 0. -1.
    9900012    2    1    2    0    0 -0.18198006635E+02  0.86764533529E+00 -0.36348932617E+02  0.50528866262E+02  0.30000019490E+02 0.  0.
        -12    1    1    2    0    0  0.18198006635E+02 -0.86764533529E+00  0.36348932617E+02  0.40659133738E+02  0.00000000000E+00 0.  1.
         11    1    3    3    0    0 -0.11090603442E+02  0.13340515528E+02 -0.23789254926E+02  0.29443156920E+02  0.51100000000E-03 0. -1.
        -11    1    3    3    0    0  0.17428833293E+01 -0.48044604793E+00 -0.40332501000E+00  0.18523342111E+01  0.51100000000E-03 0.  1.
         12    1    3    3    0    0 -0.88502865229E+01 -0.11992424144E+02 -0.12156352682E+02  0.19233375131E+02  0.00000000000E+00 0. -1.
</event>
<event>
 7    1  0.9868142E-013  0.5052897E+02  0.7816164E-02  0.1300438E+00
        -11   -1    0    0    0    0  0.00000000000E+00  0.00000000000E+00  0.45593999997E+02  0.45594000000E+02  0.51100000000E-03 0.  1.
         11   -1    0    0    0    0 -0.00000000000E+00 -0.00000000000E+00 -0.45593999997E+02  0.45594000000E+02  0.51100000000E-03 0. -1.
    9900012    2    1    2    0    0  0.38893350297E+02  0.83542687771E+01 -0.84065748379E+01  0.50528966507E+02  0.30000324192E+02 0.  0.
        -12    1    1    2    0    0 -0.38893350297E+02 -0.83542687771E+01  0.84065748379E+01  0.40659033493E+02  0.00000000000E+00 0.  1.
         11    1    3    3    0    0  0.25241668124E+02 -0.77800532356E+01 -0.53858939192E+01  0.26956982242E+02  0.51100000000E-03 0. -1.
        -11    1    3    3    0    0 -0.14319692307E+01  0.11818671421E+01  0.74720729899E+00  0.20014157060E+01  0.51100000000E-03 0.  1.
         12    1    3    3    0    0  0.15083651404E+02  0.14952454871E+02 -0.37678882177E+01  0.21570568559E+02  0.00000000000E+00 0. -1.
</event>
<event>
 7    1  0.9868142E-013  0.5052886E+02  0.7816164E-02  0.1300439E+00
        -11   -1    0    0    0    0  0.00000000000E+00  0.00000000000E+00  0.45593999997E+02  0.45594000000E+02  0.51100000000E-03 0.  1.
         11   -1    0    0    0    0 -0.00000000000E+00 -0.00000000000E+00 -0.45593999997E+02  0.45594000000E+02  0.51100000000E-03 0. -1.
    9900012    2    1    2    0    0 -0.24904894763E+02 -0.26090612229E+02 -0.18766781004E+02  0.50528857130E+02  0.29999991733E+02 0.  0.
        -12    1    1    2    0    0  0.24904894763E+02  0.26090612229E+02  0.18766781004E+02  0.40659142870E+02  0.00000000000E+00 0.  1.
         11    1    3    3    0    0 -0.82534565834E+01 -0.79821181279E+00 -0.14581126661E+02  0.16773966217E+02  0.51100000000E-03 0. -1.
        -11    1    3    3    0    0 -0.42359899973E+01 -0.18167204699E+02  0.59200618272E+00  0.18663906596E+02  0.51100000000E-03 0.  1.
         12    1    3    3    0    0 -0.12415448182E+02 -0.71251957166E+01 -0.47776605259E+01  0.15090984317E+02  0.00000000000E+00 0. -1.
</event>
<event>
 7    1  0.9868142E-013  0.5052886E+02  0.7816164E-02  0.1300439E+00
        -11   -1    0    0    0    0  0.00000000000E+00  0.00000000000E+00  0.45593999997E+02  0.45594000000E+02  0.51100000000E-03 0. -1.
         11   -1    0    0    0    0 -0.00000000000E+00 -0.00000000000E+00 -0.45593999997E+02  0.45594000000E+02  0.51100000000E-03 0.  1.
    9900012    2    1    2    0    0  0.20375763731E+02 -0.44629764687E+01  0.34900940080E+02  0.50528861728E+02  0.30000005707E+02 0.  0.
        -12    1    1    2    0    0 -0.20375763731E+02  0.44629764687E+01 -0.34900940080E+02  0.40659138272E+02  0.00000000000E+00 0.  1.
         11    1    3    3    0    0  0.38676602557E+01 -0.67852444703E+01  0.25762403297E+02  0.26920248183E+02  0.51100000000E-03 0. -1.
        -11    1    3    3    0    0  0.26280590600E+01  0.34340051794E+01 -0.28958422800E+01  0.52043240451E+01  0.51100000000E-03 0.  1.
        -12    1    3    3    0    0  0.13880044415E+02 -0.11117371778E+01  0.12034379064E+02  0.18404289499E+02  0.00000000000E+00 0.  1.
</event>
<event>
 7    1  0.9868142E-013  0.5052886E+02  0.7816164E-02  0.1300439E+00
        -11   -1    0    0    0    0  0.00000000000E+00  0.00000000000E+00  0.45593999997E+02  0.45594000000E+02  0.51100000000E-03 0. -1.
         11   -1    0    0    0    0 -0.00000000000E+00 -0.00000000000E+00 -0.45593999997E+02  0.45594000000E+02  0.51100000000E-03 0.  1.
    9900012    2    1    2    0    0 -0.26105404342E+02  0.27138693355E+02  0.15335096154E+02  0.50528856048E+02  0.29999988443E+02 0.  0.
        -12    1    1    2    0    0  0.26105404342E+02 -0.27138693355E+02 -0.15335096154E+02  0.40659143952E+02  0.00000000000E+00 0.  1.
         11    1    3    3    0    0 -0.11716332241E+01  0.17739239441E+02  0.12809642761E+02  0.21912103694E+02  0.51100000000E-03 0. -1.
        -11    1    3    3    0    0 -0.17131547272E+02  0.11083559361E+02  0.63573416305E+00  0.20414195018E+02  0.51100000000E-03 0.  1.
         12    1    3    3    0    0 -0.78022238451E+01 -0.16841054466E+01  0.18897192299E+01  0.82025573361E+01  0.00000000000E+00 0. -1.
</event>
<event>
 7    1  0.9868142E-013  0.5052886E+02  0.7816164E-02  0.1300439E+00
        -11   -1    0    0    0    0  0.00000000000E+00  0.00000000000E+00  0.45593999997E+02  0.45594000000E+02  0.51100000000E-03 0. -1.
         11   -1    0    0    0    0 -0.00000000000E+00 -0.00000000000E+00 -0.45593999997E+02  0.45594000000E+02  0.51100000000E-03 0.  1.
    9900012    2    1    2    0    0 -0.12037458588E+02  0.33827038951E+02 -0.19078700259E+02  0.50528858629E+02  0.29999996289E+02 0.  0.
        -12    1    1    2    0    0  0.12037458588E+02 -0.33827038951E+02  0.19078700259E+02  0.40659141371E+02  0.00000000000E+00 0.  1.
         11    1    3    3    0    0 -0.21863298925E+01  0.15737443632E+02 -0.34984053457E+01  0.16269173632E+02  0.51100000000E-03 0. -1.
        -11    1    3    3    0    0  0.59961915374E+01  0.23538566017E+01 -0.88283020095E+01  0.10928580442E+02  0.51100000000E-03 0.  1.
        -12    1    3    3    0    0 -0.15847320233E+02  0.15735738718E+02 -0.67519929039E+01  0.23331104554E+02  0.00000000000E+00 0.  1.
</event>
<event>
 7    1  0.9868142E-013  0.5052886E+02  0.7816164E-02  0.1300439E+00
        -11   -1    0    0    0    0  0.00000000000E+00  0.00000000000E+00  0.45593999997E+02  0.45594000000E+02  0.51100000000E-03 0. -1.
         11   -1    0    0    0    0 -0.00000000000E+00 -0.00000000000E+00 -0.45593999997E+02  0.45594000000E+02  0.51100000000E-03 0.  1.
    9900012    2    1    2    0    0  0.22450013918E+02 -0.33867524847E+02  0.14674448344E+01  0.50528858856E+02  0.29999996980E+02 0.  0.
        -12    1    1    2    0    0 -0.22450013918E+02  0.33867524847E+02 -0.14674448344E+01  0.40659141144E+02  0.00000000000E+00 0.  1.
         11    1    3    3    0    0  0.61106496201E+01 -0.13111078473E+02  0.13507502471E+02  0.19791236464E+02  0.51100000000E-03 0. -1.
        -11    1    3    3    0    0  0.12443792009E+02 -0.14980467152E+02 -0.36187236569E+01  0.19808016478E+02  0.51100000000E-03 0.  1.
         12    1    3    3    0    0  0.38955722896E+01 -0.57759792224E+01 -0.84213339797E+01  0.10929605914E+02  0.00000000000E+00 0. -1.
</event>
<event>
 7    1  0.9868142E-013  0.5052886E+02  0.7816164E-02  0.1300439E+00
        -11   -1    0    0    0    0  0.00000000000E+00  0.00000000000E+00  0.45593999997E+02  0.45594000000E+02  0.51100000000E-03 0.  1.
         11   -1    0    0    0    0 -0.00000000000E+00 -0.00000000000E+00 -0.45593999997E+02  0.45594000000E+02  0.51100000000E-03 0. -1.
    9900012    2    1    2    0    0 -0.53223832708E+01  0.18521793483E+02 -0.35801974469E+02  0.50528856214E+02  0.29999988948E+02 0.  0.
        -12    1    1    2    0    0  0.53223832708E+01 -0.18521793483E+02  0.35801974469E+02  0.40659143786E+02  0.00000000000E+00 0.  1.
         11    1    3    3    0    0 -0.10353419789E+02  0.16554933095E+02 -0.27184989810E+02  0.33470625664E+02  0.51100000000E-03 0. -1.
        -11    1    3    3    0    0  0.75493782655E+01 -0.37792105795E+01 -0.47105087269E+01  0.96677007363E+01  0.51100000000E-03 0.  1.
        -12    1    3    3    0    0 -0.25183417471E+01  0.57460709673E+01 -0.39064759321E+01  0.73905298135E+01  0.00000000000E+00 0.  1.
</event>
<event>
 7    1  0.9868142E-013  0.5052885E+02  0.7816164E-02  0.1300439E+00
        -11   -1    0    0    0    0  0.00000000000E+00  0.00000000000E+00  0.45593999997E+02  0.45594000000E+02  0.51100000000E-03 0. -1.
         11   -1    0    0    0    0 -0.00000000000E+00 -0.00000000000E+00 -0.45593999997E+02  0.45594000000E+02  0.51100000000E-03 0.  1.
    9900012    2    1    2    0    0 -0.39583377095E+02 -0.94757256610E+00 -0.92425624729E+01  0.50528848545E+02  0.29999965637E+02 0.  0.
        -12    1    1    2    0    0  0.39583377095E+02  0.94757256610E+00  0.92425624729E+01  0.40659151455E+02  0.00000000000E+00 0.  1.
         11    1    3    3    0    0 -0.35310314712E+02  0.93922655805E+01 -0.29891695064E+01  0.36660170654E+02  0.51100000000E-03 0. -1.
        -11    1    3    3    0    0  0.34583264237E+00 -0.60392929699E+01 -0.34408287550E+01  0.69593076218E+01  0.51100000000E-03 0.  1.
         12    1    3    3    0    0 -0.46188950252E+01 -0.43005451767E+01 -0.28125642115E+01  0.69093702691E+01  0.00000000000E+00 0. -1.
</event>
<event>
 7    1  0.9868142E-013  0.5052886E+02  0.7816164E-02  0.1300439E+00
        -11   -1    0    0    0    0  0.00000000000E+00  0.00000000000E+00  0.45593999997E+02  0.45594000000E+02  0.51100000000E-03 0.  1.
         11   -1    0    0    0    0 -0.00000000000E+00 -0.00000000000E+00 -0.45593999997E+02  0.45594000000E+02  0.51100000000E-03 0. -1.
    9900012    2    1    2    0    0  0.23749478980E+02  0.41734712673E+01 -0.32736984644E+02  0.50528858619E+02  0.29999996259E+02 0.  0.
        -12    1    1    2    0    0 -0.23749478980E+02 -0.41734712673E+01  0.32736984644E+02  0.40659141381E+02  0.00000000000E+00 0.  1.
         11    1    3    3    0    0  0.71696146147E+01 -0.82559140021E+01 -0.17041380533E+02  0.20247768778E+02  0.51100000000E-03 0. -1.
        -11    1    3    3    0    0  0.11147494803E+02  0.79899208730E+01 -0.70878822268E+00  0.13733457575E+02  0.51100000000E-03 0.  1.
        -12    1    3    3    0    0  0.54323695621E+01  0.44394643964E+01 -0.14986815888E+02  0.16547632267E+02  0.00000000000E+00 0.  1.
</event>
<event>
 7    1  0.9868142E-013  0.5052886E+02  0.7816164E-02  0.1300439E+00
        -11   -1    0    0    0    0  0.00000000000E+00  0.00000000000E+00  0.45593999997E+02  0.45594000000E+02  0.51100000000E-03 0.  1.
         11   -1    0    0    0    0 -0.00000000000E+00 -0.00000000000E+00 -0.45593999997E+02  0.45594000000E+02  0.51100000000E-03 0. -1.
    9900012    2    1    2    0    0 -0.77550774819E+01  0.87852251063E+01 -0.38933849429E+02  0.50528855417E+02  0.29999986524E+02 0.  0.
        -12    1    1    2    0    0  0.77550774819E+01 -0.87852251063E+01  0.38933849429E+02  0.40659144583E+02  0.00000000000E+00 0.  1.
         11    1    3    3    0    0 -0.41727558297E-01  0.16202797882E+02 -0.30586827991E+02  0.34613385377E+02  0.51100000000E-03 0. -1.
        -11    1    3    3    0    0 -0.89343728678E+01 -0.53661732232E+01 -0.86035593938E+01  0.13514439245E+02  0.51100000000E-03 0.  1.
         12    1    3    3    0    0  0.12210229443E+01 -0.20513995528E+01  0.25653795632E+00  0.24010307951E+01  0.00000000000E+00 0. -1.
</event>
<event>
 7    1  0.9868142E-013  0.5052886E+02  0.7816164E-02  0.1300439E+00
        -11   -1    0    0    0    0  0.00000000000E+00  0.00000000000E+00  0.45593999997E+02  0.45594000000E+02  0.51100000000E-03 0.  1.
         11   -1    0    0    0    0 -0.00000000000E+00 -0.00000000000E+00 -0.45593999997E+02  0.45594000000E+02  0.51100000000E-03 0. -1.
    9900012    2    1    2    0    0  0.99783028792E+01 -0.16330989333E+02 -0.35873355649E+02  0.50528863432E+02  0.30000010888E+02 0.  0.
        -12    1    1    2    0    0 -0.99783028792E+01  0.16330989333E+02  0.35873355649E+02  0.40659136568E+02  0.00000000000E+00 0.  1.
         11    1    3    3    0    0 -0.16415125425E+01  0.38412367731E+01 -0.23948872592E+02  0.24310453761E+02  0.51100000000E-03 0. -1.
        -11    1    3    3    0    0  0.61686593846E+01 -0.90263131506E+01 -0.59575428894E+01  0.12450662843E+02  0.51100000000E-03 0.  1.
         12    1    3    3    0    0  0.54511560370E+01 -0.11145912955E+02 -0.59669401671E+01  0.13767746827E+02  0.00000000000E+00 0. -1.
</event>
<event>
 7    1  0.9868142E-013  0.5052886E+02  0.7816164E-02  0.1300439E+00
        -11   -1    0    0    0    0  0.00000000000E+00  0.00000000000E+00  0.45593999997E+02  0.45594000000E+02  0.51100000000E-03 0. -1.
         11   -1    0    0    0    0 -0.00000000000E+00 -0.00000000000E+00 -0.45593999997E+02  0.45594000000E+02  0.51100000000E-03 0.  1.
    9900012    2    1    2    0    0 -0.26242548041E+01  0.18914691923E+02  0.35895872356E+02  0.50528856674E+02  0.29999990346E+02 0.  0.
        -12    1    1    2    0    0  0.26242548041E+01 -0.18914691923E+02 -0.35895872356E+02  0.40659143326E+02  0.00000000000E+00 0.  1.
         11    1    3    3    0    0 -0.10662322535E+02  0.44418191889E+01  0.15858289068E+02  0.19618873872E+02  0.51100000000E-03 0.  1.
        -11    1    3    3    0    0  0.21514732937E+01  0.13130708683E+02  0.41879444620E+01  0.13949309192E+02  0.51100000000E-03 0. -1.
         12    1    3    3    0    0  0.58865944374E+01  0.13421640508E+01  0.15849638826E+02  0.16960673610E+02  0.00000000000E+00 0. -1.
</event>
<event>
 7    1  0.9868142E-013  0.5052886E+02  0.7816164E-02  0.1300439E+00
        -11   -1    0    0    0    0  0.00000000000E+00  0.00000000000E+00  0.45593999997E+02  0.45594000000E+02  0.51100000000E-03 0.  1.
         11   -1    0    0    0    0 -0.00000000000E+00 -0.00000000000E+00 -0.45593999997E+02  0.45594000000E+02  0.51100000000E-03 0. -1.
    9900012    2    1    2    0    0  0.26263128108E+02 -0.23605897839E+02  0.20153798639E+02  0.50528856989E+02  0.29999991304E+02 0.  0.
        -12    1    1    2    0    0 -0.26263128108E+02  0.23605897839E+02 -0.20153798639E+02  0.40659143011E+02  0.00000000000E+00 0.  1.
         11    1    3    3    0    0  0.18789206027E+02 -0.28202919056E+02  0.21791846157E+02  0.40290488525E+02  0.51100000000E-03 0. -1.
        -11    1    3    3    0    0  0.75779925294E+01  0.28205170635E+01 -0.21863912278E+01  0.83762517956E+01  0.51100000000E-03 0.  1.
         12    1    3    3    0    0 -0.10407044808E+00  0.17765041529E+01  0.54834370950E+00  0.18621166685E+01  0.00000000000E+00 0. -1.
</event>
<event>
 7    1  0.9868142E-013  0.5052886E+02  0.7816164E-02  0.1300439E+00
        -11   -1    0    0    0    0  0.00000000000E+00  0.00000000000E+00  0.45593999997E+02  0.45594000000E+02  0.51100000000E-03 0.  1.
         11   -1    0    0    0    0 -0.00000000000E+00 -0.00000000000E+00 -0.45593999997E+02  0.45594000000E+02  0.51100000000E-03 0. -1.
    9900012    2    1    2    0    0 -0.40022746021E+02 -0.35165191921E+01 -0.62433705996E+01  0.50528858559E+02  0.29999996077E+02 0.  0.
        -12    1    1    2    0    0  0.40022746021E+02  0.35165191921E+01  0.62433705996E+01  0.40659141441E+02  0.00000000000E+00 0.  1.
         11    1    3    3    0    0 -0.26095108663E+02 -0.12949155059E+02 -0.61777929638E+01  0.29779194735E+02  0.51100000000E-03 0. -1.
        -11    1    3    3    0    0 -0.45582264601E+01 -0.26190550897E+01  0.13240490856E+01  0.54212530163E+01  0.51100000000E-03 0.  1.
         12    1    3    3    0    0 -0.93694108972E+01  0.12051690957E+02 -0.13896267214E+01  0.15328410808E+02  0.00000000000E+00 0. -1.
</event>
<event>
 7    1  0.9868142E-013  0.5052886E+02  0.7816164E-02  0.1300439E+00
        -11   -1    0    0    0    0  0.00000000000E+00  0.00000000000E+00  0.45593999997E+02  0.45594000000E+02  0.51100000000E-03 0.  1.
         11   -1    0    0    0    0 -0.00000000000E+00 -0.00000000000E+00 -0.45593999997E+02  0.45594000000E+02  0.51100000000E-03 0. -1.
    9900012    2    1    2    0    0 -0.38294259940E+02 -0.11660923884E+02  0.71231003065E+01  0.50528855295E+02  0.29999986154E+02 0.  0.
        -12    1    1    2    0    0  0.38294259940E+02  0.11660923884E+02 -0.71231003065E+01  0.40659144705E+02  0.00000000000E+00 0.  1.
         11    1    3    3    0    0 -0.22789232618E+02  0.57747530296E+01  0.28888104632E+01  0.23686327744E+02  0.51100000000E-03 0. -1.
        -11    1    3    3    0    0  0.10818916346E+01 -0.39947495219E+01 -0.20072679280E+01  0.45997432589E+01  0.51100000000E-03 0.  1.
         12    1    3    3    0    0 -0.16586918957E+02 -0.13440927392E+02  0.62415577713E+01  0.22242784292E+02  0.00000000000E+00 0. -1.
</event>
<event>
 7    1  0.9868142E-013  0.5052886E+02  0.7816164E-02  0.1300439E+00
        -11   -1    0    0    0    0  0.00000000000E+00  0.00000000000E+00  0.45593999997E+02  0.45594000000E+02  0.51100000000E-03 0.  1.
         11   -1    0    0    0    0 -0.00000000000E+00 -0.00000000000E+00 -0.45593999997E+02  0.45594000000E+02  0.51100000000E-03 0. -1.
    9900012    2    1    2    0    0  0.12766295291E+02 -0.14265302757E+02 -0.35870439835E+02  0.50528860657E+02  0.30000002452E+02 0.  0.
        -12    1    1    2    0    0 -0.12766295291E+02  0.14265302757E+02  0.35870439835E+02  0.40659139343E+02  0.00000000000E+00 0.  1.
         11    1    3    3    0    0  0.19059334165E+02 -0.13213555528E+02 -0.34542336305E+02  0.41605639836E+02  0.51100000000E-03 0. -1.
        -11    1    3    3    0    0 -0.50035185745E+01 -0.16573912192E+01 -0.34990384675E+01  0.63265641731E+01  0.51100000000E-03 0.  1.
         12    1    3    3    0    0 -0.12895202995E+01  0.60564399002E+00  0.21709349372E+01  0.25966566479E+01  0.00000000000E+00 0. -1.
</event>
<event>
 7    1  0.9868142E-013  0.5052886E+02  0.7816164E-02  0.1300439E+00
        -11   -1    0    0    0    0  0.00000000000E+00  0.00000000000E+00  0.45593999997E+02  0.45594000000E+02  0.51100000000E-03 0.  1.
         11   -1    0    0    0    0 -0.00000000000E+00 -0.00000000000E+00 -0.45593999997E+02  0.45594000000E+02  0.51100000000E-03 0. -1.
    9900012    2    1    2    0    0  0.82801846849E+01  0.35874413966E+02 -0.17251977557E+02  0.50528858771E+02  0.29999996721E+02 0.  0.
        -12    1    1    2    0    0 -0.82801846849E+01 -0.35874413966E+02  0.17251977557E+02  0.40659141229E+02  0.00000000000E+00 0.  1.
         11    1    3    3    0    0 -0.55318948374E+01  0.11605127473E+02 -0.12555945188E+02  0.17970325650E+02  0.51100000000E-03 0.  1.
        -11    1    3    3    0    0  0.14061801280E+02  0.23228844895E+02 -0.86218855855E+01  0.28489478790E+02  0.51100000000E-03 0. -1.
        -12    1    3    3    0    0 -0.24972175750E+00  0.10404415975E+01  0.39258532160E+01  0.40690543309E+01  0.00000000000E+00 0.  1.
</event>
<event>
 7    1  0.9868142E-013  0.5052886E+02  0.7816164E-02  0.1300439E+00
        -11   -1    0    0    0    0  0.00000000000E+00  0.00000000000E+00  0.45593999997E+02  0.45594000000E+02  0.51100000000E-03 0. -1.
         11   -1    0    0    0    0 -0.00000000000E+00 -0.00000000000E+00 -0.45593999997E+02  0.45594000000E+02  0.51100000000E-03 0.  1.
    9900012    2    1    2    0    0 -0.16899199005E+02  0.36715855152E+02  0.44191205001E+01  0.50528861143E+02  0.30000003932E+02 0.  0.
        -12    1    1    2    0    0  0.16899199005E+02 -0.36715855152E+02 -0.44191205001E+01  0.40659138857E+02  0.00000000000E+00 0.  1.
         11    1    3    3    0    0 -0.11550145242E+02  0.26245905143E+02  0.11706850368E+02  0.30972628847E+02  0.51100000000E-03 0. -1.
        -11    1    3    3    0    0 -0.75062287571E+00 -0.33408444198E+01 -0.24752254654E+01  0.42250937865E+01  0.51100000000E-03 0.  1.
        -12    1    3    3    0    0 -0.45984308869E+01  0.13810794429E+02 -0.48125044029E+01  0.15331138510E+02  0.00000000000E+00 0.  1.
</event>
<event>
 7    1  0.9868142E-013  0.5052886E+02  0.7816164E-02  0.1300439E+00
        -11   -1    0    0    0    0  0.00000000000E+00  0.00000000000E+00  0.45593999997E+02  0.45594000000E+02  0.51100000000E-03 0. -1.
         11   -1    0    0    0    0 -0.00000000000E+00 -0.00000000000E+00 -0.45593999997E+02  0.45594000000E+02  0.51100000000E-03 0.  1.
    9900012    2    1    2    0    0  0.34510859236E+02  0.21037087876E+02 -0.44280327364E+01  0.50528856558E+02  0.29999989993E+02 0.  0.
        -12    1    1    2    0    0 -0.34510859236E+02 -0.21037087876E+02  0.44280327364E+01  0.40659143442E+02  0.00000000000E+00 0.  1.
         11    1    3    3    0    0  0.24401267050E+02  0.95974165368E+01  0.10165582970E+02  0.28122434375E+02  0.51100000000E-03 0. -1.
        -11    1    3    3    0    0  0.84214899423E+01  0.93911801906E+01 -0.15129787447E+02  0.19698381321E+02  0.51100000000E-03 0.  1.
        -12    1    3    3    0    0  0.16881022445E+01  0.20484911482E+01  0.53617174048E+00  0.27080408615E+01  0.00000000000E+00 0.  1.
</event>
<event>
 7    1  0.9868142E-013  0.5052886E+02  0.7816164E-02  0.1300439E+00
        -11   -1    0    0    0    0  0.00000000000E+00  0.00000000000E+00  0.45593999997E+02  0.45594000000E+02  0.51100000000E-03 0.  1.
         11   -1    0    0    0    0 -0.00000000000E+00 -0.00000000000E+00 -0.45593999997E+02  0.45594000000E+02  0.51100000000E-03 0. -1.
    9900012    2    1    2    0    0 -0.29679838276E+02 -0.12090256951E+02 -0.25021956087E+02  0.50528863270E+02  0.30000010394E+02 0.  0.
        -12    1    1    2    0    0  0.29679838276E+02  0.12090256951E+02  0.25021956087E+02  0.40659136730E+02  0.00000000000E+00 0.  1.
         11    1    3    3    0    0 -0.18192530786E+02 -0.53713086124E+01 -0.20823858429E+01  0.19082857849E+02  0.51100000000E-03 0. -1.
        -11    1    3    3    0    0 -0.76570687437E+01 -0.12443839592E+02 -0.16028799839E+02  0.21688759072E+02  0.51100000000E-03 0.  1.
        -12    1    3    3    0    0 -0.38302387460E+01  0.57248912533E+01 -0.69107704055E+01  0.97572463488E+01  0.00000000000E+00 0.  1.
</event>
<event>
 7    1  0.9868142E-013  0.5052886E+02  0.7816164E-02  0.1300439E+00
        -11   -1    0    0    0    0  0.00000000000E+00  0.00000000000E+00  0.45593999997E+02  0.45594000000E+02  0.51100000000E-03 0. -1.
         11   -1    0    0    0    0 -0.00000000000E+00 -0.00000000000E+00 -0.45593999997E+02  0.45594000000E+02  0.51100000000E-03 0.  1.
    9900012    2    1    2    0    0 -0.25863728634E+02 -0.69091276048E+01  0.30602240655E+02  0.50528860361E+02  0.30000001553E+02 0.  0.
        -12    1    1    2    0    0  0.25863728634E+02  0.69091276048E+01 -0.30602240655E+02  0.40659139639E+02  0.00000000000E+00 0.  1.
         11    1    3    3    0    0  0.30382239480E+01  0.30625488212E+00  0.16789274962E+02  0.17064710687E+02  0.51100000000E-03 0. -1.
        -11    1    3    3    0    0 -0.25169684754E+02 -0.84477722816E+01  0.12084184670E+02  0.29170282936E+02  0.51100000000E-03 0.  1.
         12    1    3    3    0    0 -0.37322678274E+01  0.12323897947E+01  0.17287810224E+01  0.42938667381E+01  0.00000000000E+00 0. -1.
</event>
<event>
 7    1  0.9868142E-013  0.5052885E+02  0.7816164E-02  0.1300439E+00
        -11   -1    0    0    0    0  0.00000000000E+00  0.00000000000E+00  0.45593999997E+02  0.45594000000E+02  0.51100000000E-03 0. -1.
         11   -1    0    0    0    0 -0.00000000000E+00 -0.00000000000E+00 -0.45593999997E+02  0.45594000000E+02  0.51100000000E-03 0.  1.
    9900012    2    1    2    0    0 -0.15764463648E+02  0.15920624852E+02  0.33929067676E+02  0.50528852896E+02  0.29999978864E+02 0.  0.
        -12    1    1    2    0    0  0.15764463648E+02 -0.15920624852E+02 -0.33929067676E+02  0.40659147104E+02  0.00000000000E+00 0.  1.
         11    1    3    3    0    0 -0.13707484089E+02  0.83121072463E+01  0.36207961692E+02  0.39598014308E+02  0.51100000000E-03 0. -1.
        -11    1    3    3    0    0 -0.42811956152E+01  0.61685177947E+01 -0.11442295380E+00  0.75094833745E+01  0.51100000000E-03 0.  1.
         12    1    3    3    0    0  0.22242160562E+01  0.14399998115E+01 -0.21644710625E+01  0.34213552142E+01  0.00000000000E+00 0. -1.
</event>
<event>
 7    1  0.9868142E-013  0.5052886E+02  0.7816164E-02  0.1300439E+00
        -11   -1    0    0    0    0  0.00000000000E+00  0.00000000000E+00  0.45593999997E+02  0.45594000000E+02  0.51100000000E-03 0. -1.
         11   -1    0    0    0    0 -0.00000000000E+00 -0.00000000000E+00 -0.45593999997E+02  0.45594000000E+02  0.51100000000E-03 0.  1.
    9900012    2    1    2    0    0 -0.18956978390E+02  0.30552737406E+02 -0.18982326808E+02  0.50528861744E+02  0.30000005758E+02 0.  0.
        -12    1    1    2    0    0  0.18956978390E+02 -0.30552737406E+02  0.18982326808E+02  0.40659138256E+02  0.00000000000E+00 0.  1.
         11    1    3    3    0    0 -0.19377018527E+02  0.10685184696E+02 -0.19838303729E+02  0.29718686278E+02  0.51100000000E-03 0. -1.
        -11    1    3    3    0    0  0.30216717605E+01  0.11781209146E+02 -0.66422718538E+00  0.12180664480E+02  0.51100000000E-03 0.  1.
         12    1    3    3    0    0 -0.26016316235E+01  0.80863435637E+01  0.15202041067E+01  0.86295109862E+01  0.00000000000E+00 0. -1.
</event>
<event>
 7    1  0.9868142E-013  0.5052886E+02  0.7816164E-02  0.1300439E+00
        -11   -1    0    0    0    0  0.00000000000E+00  0.00000000000E+00  0.45593999997E+02  0.45594000000E+02  0.51100000000E-03 0. -1.
         11   -1    0    0    0    0 -0.00000000000E+00 -0.00000000000E+00 -0.45593999997E+02  0.45594000000E+02  0.51100000000E-03 0.  1.
    9900012    2    1    2    0    0  0.28728988754E+02 -0.24674809846E+02  0.14797443367E+02  0.50528863684E+02  0.30000011653E+02 0.  0.
        -12    1    1    2    0    0 -0.28728988754E+02  0.24674809846E+02 -0.14797443367E+02  0.40659136316E+02  0.00000000000E+00 0.  1.
         11    1    3    3    0    0  0.27109189090E+02 -0.23507234318E+02  0.18538754497E+02  0.40387914244E+02  0.51100000000E-03 0. -1.
        -11    1    3    3    0    0 -0.77710548624E-01  0.28036525734E+01  0.16336765228E+01  0.32458290041E+01  0.51100000000E-03 0.  1.
         12    1    3    3    0    0  0.16975102125E+01 -0.39712281013E+01 -0.53749876527E+01  0.68951204356E+01  0.00000000000E+00 0. -1.
</event>
<event>
 7    1  0.1740038E-012  0.5052886E+02  0.7816164E-02  0.1300439E+00
        -11   -1    0    0    0    0  0.00000000000E+00  0.00000000000E+00  0.45593999997E+02  0.45594000000E+02  0.51100000000E-03 0.  1.
         11   -1    0    0    0    0 -0.00000000000E+00 -0.00000000000E+00 -0.45593999997E+02  0.45594000000E+02  0.51100000000E-03 0. -1.
    9900012    2    1    2    0    0 -0.17177200197E+01  0.38611044766E+02 -0.12625473819E+02  0.50528856758E+02  0.29999990603E+02 0.  0.
        -12    1    1    2    0    0  0.17177200197E+01 -0.38611044766E+02  0.12625473819E+02  0.40659143242E+02  0.00000000000E+00 0.  1.
         11    1    3    3    0    0  0.46777746790E+00  0.21036052297E+02 -0.12172771615E+02  0.24308654448E+02  0.51100000000E-03 0. -1.
        -11    1    3    3    0    0 -0.17881979155E+00 -0.41423253035E+01 -0.14370797012E+01  0.43881697514E+01  0.51100000000E-03 0.  1.
        -12    1    3    3    0    0 -0.20066776961E+01  0.21717317772E+02  0.98437749730E+00  0.21832032559E+02  0.00000000000E+00 0.  1.
</event>
<event>
 7    1  0.9868142E-013  0.5052888E+02  0.7816164E-02  0.1300439E+00
        -11   -1    0    0    0    0  0.00000000000E+00  0.00000000000E+00  0.45593999997E+02  0.45594000000E+02  0.51100000000E-03 0.  1.
         11   -1    0    0    0    0 -0.00000000000E+00 -0.00000000000E+00 -0.45593999997E+02  0.45594000000E+02  0.51100000000E-03 0. -1.
    9900012    2    1    2    0    0 -0.24007170535E+02  0.31101578473E+02 -0.10464767487E+02  0.50528883198E+02  0.30000070968E+02 0.  0.
        -12    1    1    2    0    0  0.24007170535E+02 -0.31101578473E+02  0.10464767487E+02  0.40659116802E+02  0.00000000000E+00 0.  1.
         11    1    3    3    0    0 -0.18396463789E+02  0.16018510943E+02 -0.78903522582E+01  0.25637477095E+02  0.51100000000E-03 0. -1.
        -11    1    3    3    0    0  0.13707778988E+01 -0.40249663964E+01  0.62559779568E+00  0.42977621390E+01  0.51100000000E-03 0.  1.
        -12    1    3    3    0    0 -0.69814846442E+01  0.19108033926E+02 -0.32000130244E+01  0.20593643964E+02  0.00000000000E+00 0.  1.
</event>
<event>
 7    1  0.9868142E-013  0.5052886E+02  0.7816164E-02  0.1300439E+00
        -11   -1    0    0    0    0  0.00000000000E+00  0.00000000000E+00  0.45593999997E+02  0.45594000000E+02  0.51100000000E-03 0.  1.
         11   -1    0    0    0    0 -0.00000000000E+00 -0.00000000000E+00 -0.45593999997E+02  0.45594000000E+02  0.51100000000E-03 0. -1.
    9900012    2    1    2    0    0  0.15071056336E+02 -0.11925611173E+02 -0.35830275223E+02  0.50528861255E+02  0.30000004271E+02 0.  0.
        -12    1    1    2    0    0 -0.15071056336E+02  0.11925611173E+02  0.35830275223E+02  0.40659138745E+02  0.00000000000E+00 0.  1.
         11    1    3    3    0    0  0.21514941053E+02 -0.93327961647E+01 -0.23107738326E+02  0.32923568208E+02  0.51100000000E-03 0. -1.
        -11    1    3    3    0    0 -0.39047787880E+01 -0.50856304625E+01 -0.12489785064E+02  0.14039432531E+02  0.51100000000E-03 0.  1.
         12    1    3    3    0    0 -0.25391059286E+01  0.24928154537E+01 -0.23275183296E+00  0.35658605159E+01  0.00000000000E+00 0. -1.
</event>
<event>
 7    1  0.9868142E-013  0.5052885E+02  0.7816164E-02  0.1300439E+00
        -11   -1    0    0    0    0  0.00000000000E+00  0.00000000000E+00  0.45593999997E+02  0.45594000000E+02  0.51100000000E-03 0.  1.
         11   -1    0    0    0    0 -0.00000000000E+00 -0.00000000000E+00 -0.45593999997E+02  0.45594000000E+02  0.51100000000E-03 0. -1.
    9900012    2    1    2    0    0 -0.88060924515E+01 -0.23062864630E+02 -0.32306714427E+02  0.50528846218E+02  0.29999958563E+02 0.  0.
        -12    1    1    2    0    0  0.88060924515E+01  0.23062864630E+02  0.32306714427E+02  0.40659153782E+02  0.00000000000E+00 0.  1.
         11    1    3    3    0    0 -0.36770157361E+01 -0.46627203974E+01 -0.57864671806E+01  0.82912368752E+01  0.51100000000E-03 0. -1.
        -11    1    3    3    0    0 -0.16112347151E+02 -0.96469547736E+01 -0.14017928810E+02  0.23434457440E+02  0.51100000000E-03 0.  1.
        -12    1    3    3    0    0  0.10983270436E+02 -0.87531894593E+01 -0.12502318436E+02  0.18803151902E+02  0.00000000000E+00 0.  1.
</event>
<event>
 7    1  0.9868142E-013  0.5052886E+02  0.7816164E-02  0.1300439E+00
        -11   -1    0    0    0    0  0.00000000000E+00  0.00000000000E+00  0.45593999997E+02  0.45594000000E+02  0.51100000000E-03 0.  1.
         11   -1    0    0    0    0 -0.00000000000E+00 -0.00000000000E+00 -0.45593999997E+02  0.45594000000E+02  0.51100000000E-03 0. -1.
    9900012    2    1    2    0    0  0.78747430065E+01 -0.19095612366E+02 -0.35021590597E+02  0.50528858383E+02  0.29999995542E+02 0.  0.
        -12    1    1    2    0    0 -0.78747430065E+01  0.19095612366E+02  0.35021590597E+02  0.40659141617E+02  0.00000000000E+00 0.  1.
         11    1    3    3    0    0  0.46010946918E+01 -0.86395093110E+01 -0.36408212320E+02  0.37701049297E+02  0.51100000000E-03 0. -1.
        -11    1    3    3    0    0  0.50291135594E+01 -0.92472983046E+01  0.55847919266E+00  0.10541176803E+02  0.51100000000E-03 0.  1.
        -12    1    3    3    0    0 -0.17554652448E+01 -0.12088047502E+01  0.82814252951E+00  0.22866322833E+01  0.00000000000E+00 0.  1.
</event>
<event>
 7    1  0.9868142E-013  0.5052886E+02  0.7816164E-02  0.1300439E+00
        -11   -1    0    0    0    0  0.00000000000E+00  0.00000000000E+00  0.45593999997E+02  0.45594000000E+02  0.51100000000E-03 0.  1.
         11   -1    0    0    0    0 -0.00000000000E+00 -0.00000000000E+00 -0.45593999997E+02  0.45594000000E+02  0.51100000000E-03 0. -1.
    9900012    2    1    2    0    0  0.28943716876E+02  0.23468962432E+02  0.16267601964E+02  0.50528858127E+02  0.29999994761E+02 0.  0.
        -12    1    1    2    0    0 -0.28943716876E+02 -0.23468962432E+02 -0.16267601964E+02  0.40659141873E+02  0.00000000000E+00 0.  1.
         11    1    3    3    0    0  0.30257570660E+02  0.72266162746E+01  0.10632150306E+02  0.32875327913E+02  0.51100000000E-03 0. -1.
        -11    1    3    3    0    0  0.74529630719E-01  0.26053489968E+01  0.24579250990E+01  0.35825680893E+01  0.51100000000E-03 0.  1.
         12    1    3    3    0    0 -0.13883834146E+01  0.13636997161E+02  0.31775265592E+01  0.14070962124E+02  0.00000000000E+00 0. -1.
</event>
<event>
 7    1  0.9868142E-013  0.5052887E+02  0.7816164E-02  0.1300439E+00
        -11   -1    0    0    0    0  0.00000000000E+00  0.00000000000E+00  0.45593999997E+02  0.45594000000E+02  0.51100000000E-03 0.  1.
         11   -1    0    0    0    0 -0.00000000000E+00 -0.00000000000E+00 -0.45593999997E+02  0.45594000000E+02  0.51100000000E-03 0. -1.
    9900012    2    1    2    0    0 -0.38654369090E+02 -0.12391035670E+02 -0.23381931172E+01  0.50528866195E+02  0.30000019287E+02 0.  0.
        -12    1    1    2    0    0  0.38654369090E+02  0.12391035670E+02  0.23381931172E+01  0.40659133805E+02  0.00000000000E+00 0.  1.
         11    1    3    3    0    0 -0.13916273607E+02 -0.60046057261E+00 -0.49827845840E+01  0.14793625873E+02  0.51100000000E-03 0. -1.
        -11    1    3    3    0    0 -0.23718305657E+02 -0.90730530199E+01  0.10409819547E+02  0.27445266579E+02  0.51100000000E-03 0.  1.
        -12    1    3    3    0    0 -0.10197898258E+01 -0.27175220774E+01 -0.77652280797E+01  0.82899737430E+01  0.00000000000E+00 0.  1.
</event>
<event>
 7    1  0.9868142E-013  0.5052885E+02  0.7816164E-02  0.1300439E+00
        -11   -1    0    0    0    0  0.00000000000E+00  0.00000000000E+00  0.45593999997E+02  0.45594000000E+02  0.51100000000E-03 0.  1.
         11   -1    0    0    0    0 -0.00000000000E+00 -0.00000000000E+00 -0.45593999997E+02  0.45594000000E+02  0.51100000000E-03 0. -1.
    9900012    2    1    2    0    0  0.33041671366E+02 -0.53098496183E+01 -0.23091553616E+02  0.50528850992E+02  0.29999973076E+02 0.  0.
        -12    1    1    2    0    0 -0.33041671366E+02  0.53098496183E+01  0.23091553616E+02  0.40659149008E+02  0.00000000000E+00 0.  1.
         11    1    3    3    0    0  0.16610154682E+02 -0.21692384499E+01 -0.22741298568E+02  0.28244813591E+02  0.51100000000E-03 0. -1.
        -11    1    3    3    0    0  0.59815787715E+01  0.30947680742E+01  0.55809679015E+01  0.87466609064E+01  0.51100000000E-03 0.  1.
         12    1    3    3    0    0  0.10449937913E+02 -0.62353792426E+01 -0.59312229493E+01  0.13537376495E+02  0.00000000000E+00 0. -1.
</event>
<event>
 7    1  0.9868142E-013  0.5052886E+02  0.7816164E-02  0.1300439E+00
        -11   -1    0    0    0    0  0.00000000000E+00  0.00000000000E+00  0.45593999997E+02  0.45594000000E+02  0.51100000000E-03 0. -1.
         11   -1    0    0    0    0 -0.00000000000E+00 -0.00000000000E+00 -0.45593999997E+02  0.45594000000E+02  0.51100000000E-03 0.  1.
    9900012    2    1    2    0    0  0.34089200346E+02 -0.14192973432E+02 -0.17019155445E+02  0.50528859242E+02  0.29999998153E+02 0.  0.
        -12    1    1    2    0    0 -0.34089200346E+02  0.14192973432E+02  0.17019155445E+02  0.40659140758E+02  0.00000000000E+00 0.  1.
         11    1    3    3    0    0 -0.23297262638E+00  0.58489140236E+01 -0.57010274915E+01  0.81710333630E+01  0.51100000000E-03 0. -1.
        -11    1    3    3    0    0  0.30363947313E+01  0.44261144118E+00 -0.24467447621E+01  0.39245583247E+01  0.51100000000E-03 0.  1.
         12    1    3    3    0    0  0.31285778241E+02 -0.20484498896E+02 -0.88713831917E+01  0.38433267555E+02  0.00000000000E+00 0. -1.
</event>
<event>
 7    1  0.9868142E-013  0.5052886E+02  0.7816164E-02  0.1300439E+00
        -11   -1    0    0    0    0  0.00000000000E+00  0.00000000000E+00  0.45593999997E+02  0.45594000000E+02  0.51100000000E-03 0. -1.
         11   -1    0    0    0    0 -0.00000000000E+00 -0.00000000000E+00 -0.45593999997E+02  0.45594000000E+02  0.51100000000E-03 0.  1.
    9900012    2    1    2    0    0 -0.84538582134E+01 -0.13838404664E+02  0.37285337514E+02  0.50528861349E+02  0.30000004556E+02 0.  0.
        -12    1    1    2    0    0  0.84538582134E+01  0.13838404664E+02 -0.37285337514E+02  0.40659138651E+02  0.00000000000E+00 0.  1.
         11    1    3    3    0    0 -0.19165380523E+02 -0.11503381067E+02  0.24018306836E+02  0.32810343645E+02  0.51100000000E-03 0. -1.
        -11    1    3    3    0    0  0.80422477759E+01  0.13394770353E+00  0.99720052046E+01  0.12811579892E+02  0.51100000000E-03 0.  1.
         12    1    3    3    0    0  0.26692745340E+01 -0.24689713001E+01  0.32950254729E+01  0.49069378115E+01  0.00000000000E+00 0. -1.
</event>
<event>
 7    1  0.9868142E-013  0.5052894E+02  0.7816164E-02  0.1300439E+00
        -11   -1    0    0    0    0  0.00000000000E+00  0.00000000000E+00  0.45593999997E+02  0.45594000000E+02  0.51100000000E-03 0. -1.
         11   -1    0    0    0    0 -0.00000000000E+00 -0.00000000000E+00 -0.45593999997E+02  0.45594000000E+02  0.51100000000E-03 0.  1.
    9900012    2    1    2    0    0 -0.18948345048E+02  0.30682688553E+02  0.18780095979E+02  0.50528939977E+02  0.30000243555E+02 0.  0.
        -12    1    1    2    0    0  0.18948345048E+02 -0.30682688553E+02 -0.18780095979E+02  0.40659060023E+02  0.00000000000E+00 0.  1.
         11    1    3    3    0    0 -0.10021426030E+02  0.16773617410E+02  0.24486390432E+02  0.31326770299E+02  0.51100000000E-03 0. -1.
        -11    1    3    3    0    0 -0.38492921614E+01  0.31485927808E+01 -0.53417118208E+01  0.72982581539E+01  0.51100000000E-03 0.  1.
         12    1    3    3    0    0 -0.50776268573E+01  0.10760478363E+02 -0.36458263255E+00  0.11903911525E+02  0.00000000000E+00 0. -1.
</event>
<event>
 7    1  0.9868142E-013  0.5052889E+02  0.7816164E-02  0.1300439E+00
        -11   -1    0    0    0    0  0.00000000000E+00  0.00000000000E+00  0.45593999997E+02  0.45594000000E+02  0.51100000000E-03 0.  1.
         11   -1    0    0    0    0 -0.00000000000E+00 -0.00000000000E+00 -0.45593999997E+02  0.45594000000E+02  0.51100000000E-03 0. -1.
    9900012    2    1    2    0    0 -0.35371244703E+02  0.16342628224E+02 -0.11617094713E+02  0.50528888614E+02  0.30000087432E+02 0.  0.
        -12    1    1    2    0    0  0.35371244703E+02 -0.16342628224E+02  0.11617094713E+02  0.40659111386E+02  0.00000000000E+00 0.  1.
         11    1    3    3    0    0 -0.17976805965E+02  0.10850370833E+02  0.54439631655E+01  0.21691768834E+02  0.51100000000E-03 0. -1.
        -11    1    3    3    0    0 -0.18398916568E+01 -0.35617843045E+01  0.41825920714E-01  0.40091468431E+01  0.51100000000E-03 0.  1.
         12    1    3    3    0    0 -0.15554547081E+02  0.90540416959E+01 -0.17102883800E+02  0.24827972937E+02  0.00000000000E+00 0. -1.
</event>
<event>
 7    1  0.9868142E-013  0.5052886E+02  0.7816164E-02  0.1300439E+00
        -11   -1    0    0    0    0  0.00000000000E+00  0.00000000000E+00  0.45593999997E+02  0.45594000000E+02  0.51100000000E-03 0. -1.
         11   -1    0    0    0    0 -0.00000000000E+00 -0.00000000000E+00 -0.45593999997E+02  0.45594000000E+02  0.51100000000E-03 0.  1.
    9900012    2    1    2    0    0  0.24346436351E+02  0.19522072046E+02  0.26063494786E+02  0.50528855636E+02  0.29999987191E+02 0.  0.
        -12    1    1    2    0    0 -0.24346436351E+02 -0.19522072046E+02 -0.26063494786E+02  0.40659144364E+02  0.00000000000E+00 0.  1.
         11    1    3    3    0    0  0.75557554152E+01  0.10854378432E+02  0.23989056310E+02  0.27393097560E+02  0.51100000000E-03 0. -1.
        -11    1    3    3    0    0  0.18986886783E+02  0.77191757638E+01  0.10199943782E+01  0.20521401828E+02  0.51100000000E-03 0.  1.
        -12    1    3    3    0    0 -0.21962058473E+01  0.94851784997E+00  0.10544440972E+01  0.26143562476E+01  0.00000000000E+00 0.  1.
</event>
<event>
 7    1  0.9868142E-013  0.5052886E+02  0.7816164E-02  0.1300439E+00
        -11   -1    0    0    0    0  0.00000000000E+00  0.00000000000E+00  0.45593999997E+02  0.45594000000E+02  0.51100000000E-03 0.  1.
         11   -1    0    0    0    0 -0.00000000000E+00 -0.00000000000E+00 -0.45593999997E+02  0.45594000000E+02  0.51100000000E-03 0. -1.
    9900012    2    1    2    0    0 -0.31062224698E+02 -0.25179564338E+02  0.73684059628E+01  0.50528859946E+02  0.30000000292E+02 0.  0.
        -12    1    1    2    0    0  0.31062224698E+02  0.25179564338E+02 -0.73684059628E+01  0.40659140054E+02  0.00000000000E+00 0.  1.
         11    1    3    3    0    0 -0.29318175169E+02 -0.20396678916E+02 -0.58222970328E+01  0.36186724763E+02  0.51100000000E-03 0. -1.
        -11    1    3    3    0    0  0.60073787483E+00 -0.90739963993E+00  0.29530198065E+01  0.31471552773E+01  0.51100000000E-03 0.  1.
         12    1    3    3    0    0 -0.23447874045E+01 -0.38754857820E+01  0.10237683189E+02  0.11194979906E+02  0.00000000000E+00 0. -1.
</event>
<event>
 7    1  0.9868142E-013  0.5052885E+02  0.7816164E-02  0.1300439E+00
        -11   -1    0    0    0    0  0.00000000000E+00  0.00000000000E+00  0.45593999997E+02  0.45594000000E+02  0.51100000000E-03 0.  1.
         11   -1    0    0    0    0 -0.00000000000E+00 -0.00000000000E+00 -0.45593999997E+02  0.45594000000E+02  0.51100000000E-03 0. -1.
    9900012    2    1    2    0    0  0.28297102147E+02 -0.23061744652E+02 -0.17905201151E+02  0.50528852388E+02  0.29999977317E+02 0.  0.
        -12    1    1    2    0    0 -0.28297102147E+02  0.23061744652E+02  0.17905201151E+02  0.40659147612E+02  0.00000000000E+00 0.  1.
         11    1    3    3    0    0  0.92925132392E+01 -0.14902048866E+02  0.26856699285E+01  0.17766110602E+02  0.51100000000E-03 0. -1.
        -11    1    3    3    0    0  0.36087312962E+00 -0.72039108121E+00 -0.10065062025E+02  0.10097260349E+02  0.51100000000E-03 0.  1.
         12    1    3    3    0    0  0.18643715778E+02 -0.74393047051E+01 -0.10525809055E+02  0.22665481437E+02  0.00000000000E+00 0. -1.
</event>
<event>
 7    1  0.9868142E-013  0.5052883E+02  0.7816164E-02  0.1300439E+00
        -11   -1    0    0    0    0  0.00000000000E+00  0.00000000000E+00  0.45593999997E+02  0.45594000000E+02  0.51100000000E-03 0.  1.
         11   -1    0    0    0    0 -0.00000000000E+00 -0.00000000000E+00 -0.45593999997E+02  0.45594000000E+02  0.51100000000E-03 0. -1.
    9900012    2    1    2    0    0 -0.13549040129E+02  0.73720496771E+01 -0.37619739317E+02  0.50528826482E+02  0.29999898574E+02 0.  0.
        -12    1    1    2    0    0  0.13549040129E+02 -0.73720496771E+01  0.37619739317E+02  0.40659173518E+02  0.00000000000E+00 0.  1.
         11    1    3    3    0    0  0.44980951944E+01  0.45711616825E+01 -0.13908381250E+02  0.15315725538E+02  0.51100000000E-03 0.  1.
        -11    1    3    3    0    0 -0.15895776250E+02  0.80121107345E+00 -0.26661056879E+02  0.31050436325E+02  0.51100000000E-03 0. -1.
         12    1    3    3    0    0 -0.21513590741E+01  0.19996769212E+01  0.29496988117E+01  0.41626646195E+01  0.00000000000E+00 0. -1.
</event>
<event>
 7    1  0.9868142E-013  0.5052886E+02  0.7816164E-02  0.1300439E+00
        -11   -1    0    0    0    0  0.00000000000E+00  0.00000000000E+00  0.45593999997E+02  0.45594000000E+02  0.51100000000E-03 0. -1.
         11   -1    0    0    0    0 -0.00000000000E+00 -0.00000000000E+00 -0.45593999997E+02  0.45594000000E+02  0.51100000000E-03 0.  1.
    9900012    2    1    2    0    0 -0.39274229781E+02 -0.63895314302E+01  0.83591082506E+01  0.50528856778E+02  0.29999990662E+02 0.  0.
        -12    1    1    2    0    0  0.39274229781E+02  0.63895314302E+01 -0.83591082506E+01  0.40659143222E+02  0.00000000000E+00 0.  1.
         11    1    3    3    0    0 -0.45738180345E+01 -0.95408800609E+01 -0.62560100664E+00  0.10599036778E+02  0.51100000000E-03 0. -1.
        -11    1    3    3    0    0 -0.25240156811E+02  0.13308973863E+01  0.14183366057E+02  0.28982834172E+02  0.51100000000E-03 0.  1.
         12    1    3    3    0    0 -0.94602549360E+01  0.18204512445E+01 -0.51986567993E+01  0.10946985827E+02  0.00000000000E+00 0. -1.
</event>
<event>
 7    1  0.9868142E-013  0.5052886E+02  0.7816164E-02  0.1300439E+00
        -11   -1    0    0    0    0  0.00000000000E+00  0.00000000000E+00  0.45593999997E+02  0.45594000000E+02  0.51100000000E-03 0.  1.
         11   -1    0    0    0    0 -0.00000000000E+00 -0.00000000000E+00 -0.45593999997E+02  0.45594000000E+02  0.51100000000E-03 0. -1.
    9900012    2    1    2    0    0  0.13883320891E+02 -0.37855944077E+02  0.52293790397E+01  0.50528861961E+02  0.30000006416E+02 0.  0.
        -12    1    1    2    0    0 -0.13883320891E+02  0.37855944077E+02 -0.52293790397E+01  0.40659138039E+02  0.00000000000E+00 0.  1.
         11    1    3    3    0    0  0.47034367689E+01 -0.10893600732E+02  0.22092313576E+01  0.12069530140E+02  0.51100000000E-03 0. -1.
        -11    1    3    3    0    0  0.10460061587E+02  0.81536484376E+00  0.16276566475E+01  0.10617296014E+02  0.51100000000E-03 0.  1.
        -12    1    3    3    0    0 -0.12801774641E+01 -0.27777708189E+02  0.13924910346E+01  0.27842035807E+02  0.00000000000E+00 0.  1.
</event>
<event>
 7    1  0.9868142E-013  0.5052884E+02  0.7816164E-02  0.1300439E+00
        -11   -1    0    0    0    0  0.00000000000E+00  0.00000000000E+00  0.45593999997E+02  0.45594000000E+02  0.51100000000E-03 0.  1.
         11   -1    0    0    0    0 -0.00000000000E+00 -0.00000000000E+00 -0.45593999997E+02  0.45594000000E+02  0.51100000000E-03 0. -1.
    9900012    2    1    2    0    0  0.29613760859E+02 -0.24241903658E+02 -0.13730356073E+02  0.50528838633E+02  0.29999935510E+02 0.  0.
        -12    1    1    2    0    0 -0.29613760859E+02  0.24241903658E+02  0.13730356073E+02  0.40659161367E+02  0.00000000000E+00 0.  1.
         11    1    3    3    0    0  0.17988452058E+02 -0.90630635439E+01  0.14205006887E+01  0.20192606338E+02  0.51100000000E-03 0. -1.
        -11    1    3    3    0    0  0.15063213178E+01 -0.16406540642E+01 -0.13125752860E+02  0.13313381917E+02  0.51100000000E-03 0.  1.
        -12    1    3    3    0    0  0.10118987483E+02 -0.13538186049E+02 -0.20251039016E+01  0.17022850378E+02  0.00000000000E+00 0.  1.
</event>
<event>
 7    1  0.9868142E-013  0.5052886E+02  0.7816164E-02  0.1300439E+00
        -11   -1    0    0    0    0  0.00000000000E+00  0.00000000000E+00  0.45593999997E+02  0.45594000000E+02  0.51100000000E-03 0. -1.
         11   -1    0    0    0    0 -0.00000000000E+00 -0.00000000000E+00 -0.45593999997E+02  0.45594000000E+02  0.51100000000E-03 0.  1.
    9900012    2    1    2    0    0 -0.24965893831E+02  0.10812863555E+02  0.30215097424E+02  0.50528856067E+02  0.29999988501E+02 0.  0.
        -12    1    1    2    0    0  0.24965893831E+02 -0.10812863555E+02 -0.30215097424E+02  0.40659143933E+02  0.00000000000E+00 0.  1.
         11    1    3    3    0    0 -0.41585778149E+01  0.61501556295E+01  0.14051549317E+02  0.15892269259E+02  0.51100000000E-03 0. -1.
        -11    1    3    3    0    0 -0.18963109901E+02 -0.55540646014E+01  0.75724313300E+01  0.21161022830E+02  0.51100000000E-03 0.  1.
        -12    1    3    3    0    0 -0.18442061152E+01  0.10216772527E+02  0.85911167765E+01  0.13475563978E+02  0.00000000000E+00 0.  1.
</event>
<event>
 7    1  0.9868142E-013  0.5052886E+02  0.7816164E-02  0.1300439E+00
        -11   -1    0    0    0    0  0.00000000000E+00  0.00000000000E+00  0.45593999997E+02  0.45594000000E+02  0.51100000000E-03 0. -1.
         11   -1    0    0    0    0 -0.00000000000E+00 -0.00000000000E+00 -0.45593999997E+02  0.45594000000E+02  0.51100000000E-03 0.  1.
    9900012    2    1    2    0    0 -0.20895916525E+02  0.17587258363E+02  0.30120001249E+02  0.50528862535E+02  0.30000008161E+02 0.  0.
        -12    1    1    2    0    0  0.20895916525E+02 -0.17587258363E+02 -0.30120001249E+02  0.40659137465E+02  0.00000000000E+00 0.  1.
         11    1    3    3    0    0 -0.38874112046E+01  0.44695212591E+01  0.20340880231E+02  0.21185844212E+02  0.51100000000E-03 0.  1.
        -11    1    3    3    0    0 -0.14480140303E+02  0.17246794902E+02  0.96490506399E+01  0.24499603591E+02  0.51100000000E-03 0. -1.
         12    1    3    3    0    0 -0.25283650169E+01 -0.41290577980E+01  0.13007037849E+00  0.48434147315E+01  0.00000000000E+00 0. -1.
</event>
<event>
 7    1  0.9868142E-013  0.5052883E+02  0.7816164E-02  0.1300439E+00
        -11   -1    0    0    0    0  0.00000000000E+00  0.00000000000E+00  0.45593999997E+02  0.45594000000E+02  0.51100000000E-03 0.  1.
         11   -1    0    0    0    0 -0.00000000000E+00 -0.00000000000E+00 -0.45593999997E+02  0.45594000000E+02  0.51100000000E-03 0. -1.
    9900012    2    1    2    0    0 -0.13747311980E+02 -0.94186847015E+01 -0.37087304789E+02  0.50528826561E+02  0.29999898816E+02 0.  0.
        -12    1    1    2    0    0  0.13747311980E+02  0.94186847015E+01  0.37087304789E+02  0.40659173439E+02  0.00000000000E+00 0.  1.
         11    1    3    3    0    0 -0.13017015587E+02  0.14943134048E+01 -0.35697185823E+01  0.13580079469E+02  0.51100000000E-03 0. -1.
        -11    1    3    3    0    0 -0.80587293313E+00  0.33387851736E+00  0.57772461686E+00  0.10462657611E+01  0.51100000000E-03 0.  1.
         12    1    3    3    0    0  0.75576540799E-01 -0.11246876624E+02 -0.34095310824E+02  0.35902481332E+02  0.00000000000E+00 0. -1.
</event>
<event>
 7    1  0.9868142E-013  0.5052887E+02  0.7816164E-02  0.1300439E+00
        -11   -1    0    0    0    0  0.00000000000E+00  0.00000000000E+00  0.45593999997E+02  0.45594000000E+02  0.51100000000E-03 0.  1.
         11   -1    0    0    0    0 -0.00000000000E+00 -0.00000000000E+00 -0.45593999997E+02  0.45594000000E+02  0.51100000000E-03 0. -1.
    9900012    2    1    2    0    0 -0.15143924035E+02 -0.60269931057E+01 -0.37249185024E+02  0.50528869832E+02  0.30000030341E+02 0.  0.
        -12    1    1    2    0    0  0.15143924035E+02  0.60269931057E+01  0.37249185024E+02  0.40659130168E+02  0.00000000000E+00 0.  1.
         11    1    3    3    0    0 -0.12794154628E+02 -0.14785507180E+01 -0.34927751538E+02  0.37226661584E+02  0.51100000000E-03 0. -1.
        -11    1    3    3    0    0 -0.20482554420E+01 -0.62592371673E+01  0.33370721405E+01  0.73830516051E+01  0.51100000000E-03 0.  1.
         12    1    3    3    0    0 -0.30151396502E+00  0.17107947796E+01 -0.56585056257E+01  0.59191566431E+01  0.00000000000E+00 0. -1.
</event>
<event>
 7    1  0.9868142E-013  0.5052886E+02  0.7816164E-02  0.1300439E+00
        -11   -1    0    0    0    0  0.00000000000E+00  0.00000000000E+00  0.45593999997E+02  0.45594000000E+02  0.51100000000E-03 0. -1.
         11   -1    0    0    0    0 -0.00000000000E+00 -0.00000000000E+00 -0.45593999997E+02  0.45594000000E+02  0.51100000000E-03 0.  1.
    9900012    2    1    2    0    0 -0.93434100154E+01 -0.39502634806E+02  0.23254719669E+01  0.50528864652E+02  0.30000014597E+02 0.  0.
        -12    1    1    2    0    0  0.93434100154E+01  0.39502634806E+02 -0.23254719669E+01  0.40659135348E+02  0.00000000000E+00 0.  1.
         11    1    3    3    0    0 -0.69447073920E+01 -0.26571137603E+02  0.78835630692E+01  0.28572799674E+02  0.51100000000E-03 0. -1.
        -11    1    3    3    0    0  0.70665670384E+01 -0.65452954689E+01 -0.40097627261E+01  0.10433381995E+02  0.51100000000E-03 0.  1.
         12    1    3    3    0    0 -0.94652696618E+01 -0.63862017343E+01 -0.15483283762E+01  0.11522682983E+02  0.00000000000E+00 0. -1.
</event>
<event>
 7    1  0.9868142E-013  0.5052887E+02  0.7816164E-02  0.1300439E+00
        -11   -1    0    0    0    0  0.00000000000E+00  0.00000000000E+00  0.45593999997E+02  0.45594000000E+02  0.51100000000E-03 0. -1.
         11   -1    0    0    0    0 -0.00000000000E+00 -0.00000000000E+00 -0.45593999997E+02  0.45594000000E+02  0.51100000000E-03 0.  1.
    9900012    2    1    2    0    0 -0.21982313735E+02 -0.30472377272E+02  0.15536312629E+02  0.50528869367E+02  0.30000028927E+02 0.  0.
        -12    1    1    2    0    0  0.21982313735E+02  0.30472377272E+02 -0.15536312629E+02  0.40659130633E+02  0.00000000000E+00 0.  1.
         11    1    3    3    0    0 -0.77996497783E+01 -0.22221253439E+02  0.21061727701E+02  0.31594540907E+02  0.51100000000E-03 0. -1.
        -11    1    3    3    0    0 -0.14907543384E+02 -0.67632490724E+01 -0.44624338343E+01  0.16967312802E+02  0.51100000000E-03 0.  1.
        -12    1    3    3    0    0  0.72487942656E+00 -0.14878747604E+01 -0.10629812378E+01  0.19670156577E+01  0.00000000000E+00 0.  1.
</event>
<event>
 7    1  0.9868142E-013  0.5052887E+02  0.7816164E-02  0.1300439E+00
        -11   -1    0    0    0    0  0.00000000000E+00  0.00000000000E+00  0.45593999997E+02  0.45594000000E+02  0.51100000000E-03 0. -1.
         11   -1    0    0    0    0 -0.00000000000E+00 -0.00000000000E+00 -0.45593999997E+02  0.45594000000E+02  0.51100000000E-03 0.  1.
    9900012    2    1    2    0    0 -0.34479884346E+02  0.21036717575E+02  0.46646808180E+01  0.50528866242E+02  0.30000019429E+02 0.  0.
        -12    1    1    2    0    0  0.34479884346E+02 -0.21036717575E+02 -0.46646808180E+01  0.40659133758E+02  0.00000000000E+00 0.  1.
         11    1    3    3    0    0  0.10669906864E+01  0.59615336977E+01  0.28556989857E+01  0.66957725553E+01  0.51100000000E-03 0. -1.
        -11    1    3    3    0    0 -0.25938025167E+02  0.81591917500E+01 -0.81244161168E+01  0.28378860038E+02  0.51100000000E-03 0.  1.
        -12    1    3    3    0    0 -0.96088498652E+01  0.69159921271E+01  0.99333979491E+01  0.15454233648E+02  0.00000000000E+00 0.  1.
</event>
<event>
 7    1  0.9868142E-013  0.5052887E+02  0.7816164E-02  0.1300439E+00
        -11   -1    0    0    0    0  0.00000000000E+00  0.00000000000E+00  0.45593999997E+02  0.45594000000E+02  0.51100000000E-03 0.  1.
         11   -1    0    0    0    0 -0.00000000000E+00 -0.00000000000E+00 -0.45593999997E+02  0.45594000000E+02  0.51100000000E-03 0. -1.
    9900012    2    1    2    0    0  0.32598688205E+02  0.24082802582E+02 -0.32418154773E+01  0.50528865473E+02  0.30000017092E+02 0.  0.
        -12    1    1    2    0    0 -0.32598688205E+02 -0.24082802582E+02  0.32418154773E+01  0.40659134527E+02  0.00000000000E+00 0.  1.
         11    1    3    3    0    0  0.23432757047E+02  0.28323206741E+02 -0.16905341867E+01  0.36798859344E+02  0.51100000000E-03 0. -1.
        -11    1    3    3    0    0  0.48076608530E+01 -0.18177877666E+01  0.38177975615E+01  0.64026192861E+01  0.51100000000E-03 0.  1.
         12    1    3    3    0    0  0.43582703048E+01 -0.24226163918E+01 -0.53690788520E+01  0.73273868433E+01  0.00000000000E+00 0. -1.
</event>
<event>
 7    1  0.9868142E-013  0.5052886E+02  0.7816164E-02  0.1300439E+00
        -11   -1    0    0    0    0  0.00000000000E+00  0.00000000000E+00  0.45593999997E+02  0.45594000000E+02  0.51100000000E-03 0.  1.
         11   -1    0    0    0    0 -0.00000000000E+00 -0.00000000000E+00 -0.45593999997E+02  0.45594000000E+02  0.51100000000E-03 0. -1.
    9900012    2    1    2    0    0 -0.25303171098E+02  0.28280325424E+02  0.14599263860E+02  0.50528858605E+02  0.29999996215E+02 0.  0.
        -12    1    1    2    0    0  0.25303171098E+02 -0.28280325424E+02 -0.14599263860E+02  0.40659141395E+02  0.00000000000E+00 0.  1.
         11    1    3    3    0    0 -0.81228274229E+01  0.13446390682E+02  0.19386210655E+02  0.24952172482E+02  0.51100000000E-03 0. -1.
        -11    1    3    3    0    0 -0.97429904014E+01  0.18618842249E+01 -0.14674271366E+00  0.99203834862E+01  0.51100000000E-03 0.  1.
         12    1    3    3    0    0 -0.74373532741E+01  0.12972050517E+02 -0.46402040813E+01  0.15656302637E+02  0.00000000000E+00 0. -1.
</event>
<event>
 7    1  0.9868142E-013  0.5052886E+02  0.7816164E-02  0.1300439E+00
        -11   -1    0    0    0    0  0.00000000000E+00  0.00000000000E+00  0.45593999997E+02  0.45594000000E+02  0.51100000000E-03 0.  1.
         11   -1    0    0    0    0 -0.00000000000E+00 -0.00000000000E+00 -0.45593999997E+02  0.45594000000E+02  0.51100000000E-03 0. -1.
    9900012    2    1    2    0    0  0.64310470580E+01  0.28371242485E+02 -0.28405633549E+02  0.50528858547E+02  0.29999996039E+02 0.  0.
        -12    1    1    2    0    0 -0.64310470580E+01 -0.28371242485E+02  0.28405633549E+02  0.40659141453E+02  0.00000000000E+00 0.  1.
         11    1    3    3    0    0 -0.92332571899E+01  0.10909106434E+02 -0.10628126317E+02  0.17810634766E+02  0.51100000000E-03 0. -1.
        -11    1    3    3    0    0  0.21257079565E+01 -0.25156270484E+01 -0.27337537127E+01  0.42802363703E+01  0.51100000000E-03 0.  1.
         12    1    3    3    0    0  0.13538596291E+02  0.19977763099E+02 -0.15043753520E+02  0.28437987410E+02  0.00000000000E+00 0. -1.
</event>
<event>
 7    1  0.9868142E-013  0.5052886E+02  0.7816164E-02  0.1300439E+00
        -11   -1    0    0    0    0  0.00000000000E+00  0.00000000000E+00  0.45593999997E+02  0.45594000000E+02  0.51100000000E-03 0.  1.
         11   -1    0    0    0    0 -0.00000000000E+00 -0.00000000000E+00 -0.45593999997E+02  0.45594000000E+02  0.51100000000E-03 0. -1.
    9900012    2    1    2    0    0 -0.34976900136E+02 -0.14492958577E+02 -0.14823506396E+02  0.50528859167E+02  0.29999997924E+02 0.  0.
        -12    1    1    2    0    0  0.34976900136E+02  0.14492958577E+02  0.14823506396E+02  0.40659140833E+02  0.00000000000E+00 0.  1.
         11    1    3    3    0    0 -0.18488927245E+02  0.87922470478E+00 -0.26038075610E+01  0.18692064649E+02  0.51100000000E-03 0. -1.
        -11    1    3    3    0    0  0.15845939759E+01 -0.10323603698E+02 -0.26619530903E+01  0.10778391619E+02  0.51100000000E-03 0.  1.
        -12    1    3    3    0    0 -0.18072566866E+02 -0.50485795844E+01 -0.95577457444E+01  0.21058402899E+02  0.00000000000E+00 0.  1.
</event>
<event>
 7    1  0.9868142E-013  0.5052886E+02  0.7816164E-02  0.1300439E+00
        -11   -1    0    0    0    0  0.00000000000E+00  0.00000000000E+00  0.45593999997E+02  0.45594000000E+02  0.51100000000E-03 0.  1.
         11   -1    0    0    0    0 -0.00000000000E+00 -0.00000000000E+00 -0.45593999997E+02  0.45594000000E+02  0.51100000000E-03 0. -1.
    9900012    2    1    2    0    0 -0.31566003413E+01 -0.38474586956E+02  0.12763538835E+02  0.50528857231E+02  0.29999992039E+02 0.  0.
        -12    1    1    2    0    0  0.31566003413E+01  0.38474586956E+02 -0.12763538835E+02  0.40659142769E+02  0.00000000000E+00 0.  1.
         11    1    3    3    0    0 -0.11115846657E+02 -0.22368262639E+02  0.35897407053E+01  0.25234647986E+02  0.51100000000E-03 0. -1.
        -11    1    3    3    0    0  0.99610160688E+01 -0.10131294856E+02  0.11798433372E+02  0.18468026610E+02  0.51100000000E-03 0.  1.
         12    1    3    3    0    0 -0.20017697536E+01 -0.59750294613E+01 -0.26246352423E+01  0.68261826349E+01  0.00000000000E+00 0. -1.
</event>
<event>
 7    1  0.9868142E-013  0.5052885E+02  0.7816164E-02  0.1300439E+00
        -11   -1    0    0    0    0  0.00000000000E+00  0.00000000000E+00  0.45593999997E+02  0.45594000000E+02  0.51100000000E-03 0.  1.
         11   -1    0    0    0    0 -0.00000000000E+00 -0.00000000000E+00 -0.45593999997E+02  0.45594000000E+02  0.51100000000E-03 0. -1.
    9900012    2    1    2    0    0  0.26219753259E+01  0.17145517696E+02 -0.36773939720E+02  0.50528853745E+02  0.29999981444E+02 0.  0.
        -12    1    1    2    0    0 -0.26219753259E+01 -0.17145517696E+02  0.36773939720E+02  0.40659146255E+02  0.00000000000E+00 0.  1.
         11    1    3    3    0    0 -0.46283270656E+01  0.20265156907E+02 -0.15955849659E+02  0.26204715883E+02  0.51100000000E-03 0. -1.
        -11    1    3    3    0    0  0.90581416231E+01 -0.21766644731E+01 -0.11572244043E+02  0.14856131069E+02  0.51100000000E-03 0.  1.
         12    1    3    3    0    0 -0.18078392316E+01 -0.94297473874E+00 -0.92458460177E+01  0.94680067928E+01  0.00000000000E+00 0. -1.
</event>
<event>
 7    1  0.9868142E-013  0.5052886E+02  0.7816164E-02  0.1300439E+00
        -11   -1    0    0    0    0  0.00000000000E+00  0.00000000000E+00  0.45593999997E+02  0.45594000000E+02  0.51100000000E-03 0. -1.
         11   -1    0    0    0    0 -0.00000000000E+00 -0.00000000000E+00 -0.45593999997E+02  0.45594000000E+02  0.51100000000E-03 0.  1.
    9900012    2    1    2    0    0 -0.45771786934E+01  0.20625944664E+02  0.34738819001E+02  0.50528859532E+02  0.29999999033E+02 0.  0.
        -12    1    1    2    0    0  0.45771786934E+01 -0.20625944664E+02 -0.34738819001E+02  0.40659140468E+02  0.00000000000E+00 0.  1.
         11    1    3    3    0    0 -0.21233222518E+01  0.14461643234E+02  0.13050261251E+02  0.19594819249E+02  0.51100000000E-03 0. -1.
        -11    1    3    3    0    0  0.86286549823E+01  0.45184391700E+01  0.15001420725E+02  0.17886100843E+02  0.51100000000E-03 0.  1.
        -12    1    3    3    0    0 -0.11082511424E+02  0.16458622598E+01  0.66871370242E+01  0.13047939440E+02  0.00000000000E+00 0.  1.
</event>
<event>
 7    1  0.9868142E-013  0.5052886E+02  0.7816164E-02  0.1300439E+00
        -11   -1    0    0    0    0  0.00000000000E+00  0.00000000000E+00  0.45593999997E+02  0.45594000000E+02  0.51100000000E-03 0.  1.
         11   -1    0    0    0    0 -0.00000000000E+00 -0.00000000000E+00 -0.45593999997E+02  0.45594000000E+02  0.51100000000E-03 0. -1.
    9900012    2    1    2    0    0 -0.39191971364E+02  0.18662244300E+00 -0.10822212680E+02  0.50528859150E+02  0.29999997873E+02 0.  0.
        -12    1    1    2    0    0  0.39191971364E+02 -0.18662244300E+00  0.10822212680E+02  0.40659140850E+02  0.00000000000E+00 0.  1.
         11    1    3    3    0    0 -0.30263304989E+02 -0.92025209913E+01 -0.77975460476E+01  0.32578455243E+02  0.51100000000E-03 0. -1.
        -11    1    3    3    0    0 -0.10203544777E+02  0.84271280988E+01 -0.60333624936E+01  0.14544080488E+02  0.51100000000E-03 0.  1.
        -12    1    3    3    0    0  0.12748784013E+01  0.96201533551E+00  0.30086958613E+01  0.34063234182E+01  0.00000000000E+00 0.  1.
</event>
<event>
 7    1  0.9868142E-013  0.5052883E+02  0.7816164E-02  0.1300439E+00
        -11   -1    0    0    0    0  0.00000000000E+00  0.00000000000E+00  0.45593999997E+02  0.45594000000E+02  0.51100000000E-03 0.  1.
         11   -1    0    0    0    0 -0.00000000000E+00 -0.00000000000E+00 -0.45593999997E+02  0.45594000000E+02  0.51100000000E-03 0. -1.
    9900012    2    1    2    0    0  0.58166628583E+01 -0.12807104104E+02 -0.38148562917E+02  0.50528827173E+02  0.29999900674E+02 0.  0.
        -12    1    1    2    0    0 -0.58166628583E+01  0.12807104104E+02  0.38148562917E+02  0.40659172827E+02  0.00000000000E+00 0.  1.
         11    1    3    3    0    0  0.15938448878E+02 -0.94372686897E+01 -0.19682318771E+02  0.27027576018E+02  0.51100000000E-03 0. -1.
        -11    1    3    3    0    0 -0.79914299122E+01 -0.66962942215E+01 -0.11743869969E+02  0.15704196587E+02  0.51100000000E-03 0.  1.
         12    1    3    3    0    0 -0.21303561076E+01  0.33264588071E+01 -0.67223741774E+01  0.77970545671E+01  0.00000000000E+00 0. -1.
</event>
<event>
 7    1  0.9868142E-013  0.5052886E+02  0.7816164E-02  0.1300439E+00
        -11   -1    0    0    0    0  0.00000000000E+00  0.00000000000E+00  0.45593999997E+02  0.45594000000E+02  0.51100000000E-03 0.  1.
         11   -1    0    0    0    0 -0.00000000000E+00 -0.00000000000E+00 -0.45593999997E+02  0.45594000000E+02  0.51100000000E-03 0. -1.
    9900012    2    1    2    0    0  0.23039611479E+02 -0.12360415367E+02 -0.31137793057E+02  0.50528859311E+02  0.29999998362E+02 0.  0.
        -12    1    1    2    0    0 -0.23039611479E+02  0.12360415367E+02  0.31137793057E+02  0.40659140689E+02  0.00000000000E+00 0.  1.
         11    1    3    3    0    0  0.96293005113E+01 -0.20403228583E+02 -0.18431334699E+02  0.29132958380E+02  0.51100000000E-03 0. -1.
        -11    1    3    3    0    0  0.92885557067E+01  0.83899405458E+01 -0.11711884481E+02  0.17141662925E+02  0.51100000000E-03 0.  1.
        -12    1    3    3    0    0  0.41217552607E+01 -0.34712732916E+00 -0.99457387725E+00  0.42542380057E+01  0.00000000000E+00 0.  1.
</event>
<event>
 7    1  0.9868142E-013  0.5052886E+02  0.7816164E-02  0.1300439E+00
        -11   -1    0    0    0    0  0.00000000000E+00  0.00000000000E+00  0.45593999997E+02  0.45594000000E+02  0.51100000000E-03 0.  1.
         11   -1    0    0    0    0 -0.00000000000E+00 -0.00000000000E+00 -0.45593999997E+02  0.45594000000E+02  0.51100000000E-03 0. -1.
    9900012    2    1    2    0    0 -0.38142775380E+02  0.12255239688E+02  0.69356678963E+01  0.50528859544E+02  0.29999999069E+02 0.  0.
        -12    1    1    2    0    0  0.38142775380E+02 -0.12255239688E+02 -0.69356678963E+01  0.40659140456E+02  0.00000000000E+00 0.  1.
         11    1    3    3    0    0 -0.17297246305E+02  0.46104358152E+01  0.11510808903E+02  0.21282611917E+02  0.51100000000E-03 0. -1.
        -11    1    3    3    0    0  0.34606609507E+01  0.48333162166E+00  0.16780357593E-01  0.34942904163E+01  0.51100000000E-03 0.  1.
        -12    1    3    3    0    0 -0.24306190025E+02  0.71614722515E+01 -0.45919213639E+01  0.25751957210E+02  0.00000000000E+00 0.  1.
</event>
<event>
 7    1  0.9868142E-013  0.5052887E+02  0.7816164E-02  0.1300439E+00
        -11   -1    0    0    0    0  0.00000000000E+00  0.00000000000E+00  0.45593999997E+02  0.45594000000E+02  0.51100000000E-03 0. -1.
         11   -1    0    0    0    0 -0.00000000000E+00 -0.00000000000E+00 -0.45593999997E+02  0.45594000000E+02  0.51100000000E-03 0.  1.
    9900012    2    1    2    0    0 -0.25801472394E+02 -0.11354381648E+02  0.29300633778E+02  0.50528866954E+02  0.30000021592E+02 0.  0.
        -12    1    1    2    0    0  0.25801472394E+02  0.11354381648E+02 -0.29300633778E+02  0.40659133046E+02  0.00000000000E+00 0.  1.
         11    1    3    3    0    0 -0.14209241934E+02 -0.56496171395E+01  0.83736841538E+01  0.17433855475E+02  0.51100000000E-03 0. -1.
        -11    1    3    3    0    0  0.34561049455E+01  0.99016360483E+00  0.15258727842E+02  0.15676538552E+02  0.51100000000E-03 0.  1.
        -12    1    3    3    0    0 -0.15048335405E+02 -0.66949281129E+01  0.56682217826E+01  0.17418472926E+02  0.00000000000E+00 0.  1.
</event>
<event>
 7    1  0.9868142E-013  0.5052885E+02  0.7816164E-02  0.1300439E+00
        -11   -1    0    0    0    0  0.00000000000E+00  0.00000000000E+00  0.45593999997E+02  0.45594000000E+02  0.51100000000E-03 0.  1.
         11   -1    0    0    0    0 -0.00000000000E+00 -0.00000000000E+00 -0.45593999997E+02  0.45594000000E+02  0.51100000000E-03 0. -1.
    9900012    2    1    2    0    0  0.11860309283E+01 -0.66333620975E+01 -0.40096861184E+02  0.50528850490E+02  0.29999971549E+02 0.  0.
        -12    1    1    2    0    0 -0.11860309283E+01  0.66333620975E+01  0.40096861184E+02  0.40659149510E+02  0.00000000000E+00 0.  1.
         11    1    3    3    0    0 -0.64402583688E+01 -0.77326890576E+01 -0.30846431624E+02  0.32446475188E+02  0.51100000000E-03 0. -1.
        -11    1    3    3    0    0  0.57016821031E+01  0.69467402764E+01 -0.74361449358E+01  0.11664588764E+02  0.51100000000E-03 0.  1.
         12    1    3    3    0    0  0.19246071940E+01 -0.58474133163E+01 -0.18142846239E+01  0.64177865374E+01  0.00000000000E+00 0. -1.
</event>
<event>
 7    1  0.9868142E-013  0.5052886E+02  0.7816164E-02  0.1300439E+00
        -11   -1    0    0    0    0  0.00000000000E+00  0.00000000000E+00  0.45593999997E+02  0.45594000000E+02  0.51100000000E-03 0.  1.
         11   -1    0    0    0    0 -0.00000000000E+00 -0.00000000000E+00 -0.45593999997E+02  0.45594000000E+02  0.51100000000E-03 0. -1.
    9900012    2    1    2    0    0  0.60995280023E+01  0.28135138214E+02 -0.28711938862E+02  0.50528859854E+02  0.30000000014E+02 0.  0.
        -12    1    1    2    0    0 -0.60995280023E+01 -0.28135138214E+02  0.28711938862E+02  0.40659140146E+02  0.00000000000E+00 0.  1.
         11    1    3    3    0    0  0.17622988997E+01 -0.12268635768E+01 -0.44688884154E+01  0.49580092354E+01  0.51100000000E-03 0. -1.
        -11    1    3    3    0    0  0.12436333586E+02  0.27636286669E+02 -0.19159816577E+02  0.35854222979E+02  0.51100000000E-03 0.  1.
        -12    1    3    3    0    0 -0.80991044837E+01  0.17257151220E+01 -0.50832338690E+01  0.97166276396E+01  0.00000000000E+00 0.  1.
</event>
<event>
 7    1  0.9868142E-013  0.5052885E+02  0.7816164E-02  0.1300439E+00
        -11   -1    0    0    0    0  0.00000000000E+00  0.00000000000E+00  0.45593999997E+02  0.45594000000E+02  0.51100000000E-03 0.  1.
         11   -1    0    0    0    0 -0.00000000000E+00 -0.00000000000E+00 -0.45593999997E+02  0.45594000000E+02  0.51100000000E-03 0. -1.
    9900012    2    1    2    0    0 -0.11960313100E+02  0.38498704491E+02 -0.52883841612E+01  0.50528851657E+02  0.29999975098E+02 0.  0.
        -12    1    1    2    0    0  0.11960313100E+02 -0.38498704491E+02  0.52883841612E+01  0.40659148343E+02  0.00000000000E+00 0.  1.
         11    1    3    3    0    0  0.20345835570E+01  0.18747792371E+02 -0.22023737765E+01  0.18986039597E+02  0.51100000000E-03 0. -1.
        -11    1    3    3    0    0 -0.29052165958E+01 -0.12446966860E+01 -0.68104234633E+01  0.75080903910E+01  0.51100000000E-03 0.  1.
        -12    1    3    3    0    0 -0.11089680061E+02  0.20995608805E+02  0.37244130785E+01  0.24034721670E+02  0.00000000000E+00 0.  1.
</event>
<event>
 7    1  0.9868142E-013  0.5052886E+02  0.7816164E-02  0.1300439E+00
        -11   -1    0    0    0    0  0.00000000000E+00  0.00000000000E+00  0.45593999997E+02  0.45594000000E+02  0.51100000000E-03 0.  1.
         11   -1    0    0    0    0 -0.00000000000E+00 -0.00000000000E+00 -0.45593999997E+02  0.45594000000E+02  0.51100000000E-03 0. -1.
    9900012    2    1    2    0    0  0.29393434687E+02 -0.22571098882E+02 -0.16725339877E+02  0.50528862018E+02  0.30000006590E+02 0.  0.
        -12    1    1    2    0    0 -0.29393434687E+02  0.22571098882E+02  0.16725339877E+02  0.40659137982E+02  0.00000000000E+00 0.  1.
         11    1    3    3    0    0 -0.42523394761E+00  0.56411641462E+00 -0.84185894039E+01  0.84481772622E+01  0.51100000000E-03 0. -1.
        -11    1    3    3    0    0  0.27541748826E+02 -0.12401332970E+02 -0.72077746641E+01  0.31053067541E+02  0.51100000000E-03 0.  1.
        -12    1    3    3    0    0  0.22769198090E+01 -0.10733882327E+02 -0.10989758093E+01  0.11027617215E+02  0.00000000000E+00 0.  1.
</event>
<event>
 7    1  0.9868142E-013  0.5052884E+02  0.7816164E-02  0.1300439E+00
        -11   -1    0    0    0    0  0.00000000000E+00  0.00000000000E+00  0.45593999997E+02  0.45594000000E+02  0.51100000000E-03 0. -1.
         11   -1    0    0    0    0 -0.00000000000E+00 -0.00000000000E+00 -0.45593999997E+02  0.45594000000E+02  0.51100000000E-03 0.  1.
    9900012    2    1    2    0    0  0.27552514314E+02  0.20810445971E+02  0.21469781606E+02  0.50528840777E+02  0.29999942026E+02 0.  0.
        -12    1    1    2    0    0 -0.27552514314E+02 -0.20810445971E+02 -0.21469781606E+02  0.40659159223E+02  0.00000000000E+00 0.  1.
         11    1    3    3    0    0  0.15048039575E+02 -0.27208336381E+01  0.43760255377E+01  0.15905848940E+02  0.51100000000E-03 0. -1.
        -11    1    3    3    0    0  0.14186101669E+02  0.19545128408E+02  0.18100709458E+02  0.30181007409E+02  0.51100000000E-03 0.  1.
        -12    1    3    3    0    0 -0.16816269309E+01  0.39861512006E+01 -0.10069533901E+01  0.44419844280E+01  0.00000000000E+00 0.  1.
</event>
<event>
 7    1  0.9868142E-013  0.5052885E+02  0.7816164E-02  0.1300439E+00
        -11   -1    0    0    0    0  0.00000000000E+00  0.00000000000E+00  0.45593999997E+02  0.45594000000E+02  0.51100000000E-03 0.  1.
         11   -1    0    0    0    0 -0.00000000000E+00 -0.00000000000E+00 -0.45593999997E+02  0.45594000000E+02  0.51100000000E-03 0. -1.
    9900012    2    1    2    0    0  0.23346977341E+02 -0.31451520400E+02  0.10903517960E+02  0.50528853547E+02  0.29999980840E+02 0.  0.
        -12    1    1    2    0    0 -0.23346977341E+02  0.31451520400E+02 -0.10903517960E+02  0.40659146453E+02  0.00000000000E+00 0.  1.
         11    1    3    3    0    0  0.12874270123E+02 -0.27221234136E+02  0.54631409027E+01  0.30603730620E+02  0.51100000000E-03 0. -1.
        -11    1    3    3    0    0  0.79283438461E+01  0.41818798905E+01 -0.10144431207E+01  0.90208564265E+01  0.51100000000E-03 0.  1.
        -12    1    3    3    0    0  0.25443633720E+01 -0.84121661546E+01  0.64548201778E+01  0.10904266500E+02  0.00000000000E+00 0.  1.
</event>
<event>
 7    1  0.1120597E-012  0.5052885E+02  0.7816164E-02  0.1300439E+00
        -11   -1    0    0    0    0  0.00000000000E+00  0.00000000000E+00  0.45593999997E+02  0.45594000000E+02  0.51100000000E-03 0. -1.
         11   -1    0    0    0    0 -0.00000000000E+00 -0.00000000000E+00 -0.45593999997E+02  0.45594000000E+02  0.51100000000E-03 0.  1.
    9900012    2    1    2    0    0  0.27877658106E+02 -0.29593398060E+02  0.48316257246E+00  0.50528850030E+02  0.29999970151E+02 0.  0.
        -12    1    1    2    0    0 -0.27877658106E+02  0.29593398060E+02 -0.48316257246E+00  0.40659149970E+02  0.00000000000E+00 0.  1.
         11    1    3    3    0    0  0.17979584508E+02 -0.12485354939E+02 -0.57733630005E+01  0.22638049112E+02  0.51100000000E-03 0. -1.
        -11    1    3    3    0    0 -0.43860317690E+01  0.45297447635E+00  0.15389995077E-01  0.44093874482E+01  0.51100000000E-03 0.  1.
        -12    1    3    3    0    0  0.14284105367E+02 -0.17561017598E+02  0.62411355779E+01  0.23481413469E+02  0.00000000000E+00 0.  1.
</event>
<event>
 7    1  0.9868142E-013  0.5052886E+02  0.7816164E-02  0.1300439E+00
        -11   -1    0    0    0    0  0.00000000000E+00  0.00000000000E+00  0.45593999997E+02  0.45594000000E+02  0.51100000000E-03 0.  1.
         11   -1    0    0    0    0 -0.00000000000E+00 -0.00000000000E+00 -0.45593999997E+02  0.45594000000E+02  0.51100000000E-03 0. -1.
    9900012    2    1    2    0    0 -0.38161772092E+02  0.42804684067E+01 -0.13361234405E+02  0.50528857807E+02  0.29999993792E+02 0.  0.
        -12    1    1    2    0    0  0.38161772092E+02 -0.42804684067E+01  0.13361234405E+02  0.40659142193E+02  0.00000000000E+00 0.  1.
         11    1    3    3    0    0 -0.34796460774E+02  0.53598261344E+01 -0.42242503144E+01  0.35459352921E+02  0.51100000000E-03 0. -1.
        -11    1    3    3    0    0 -0.36680065381E+01  0.21449125828E+01 -0.10671175314E+02  0.11486030855E+02  0.51100000000E-03 0.  1.
         12    1    3    3    0    0  0.30269521945E+00 -0.32242703106E+01  0.15341912231E+01  0.35834740323E+01  0.00000000000E+00 0. -1.
</event>
<event>
 7    1  0.9868142E-013  0.5052886E+02  0.7816164E-02  0.1300439E+00
        -11   -1    0    0    0    0  0.00000000000E+00  0.00000000000E+00  0.45593999997E+02  0.45594000000E+02  0.51100000000E-03 0. -1.
         11   -1    0    0    0    0 -0.00000000000E+00 -0.00000000000E+00 -0.45593999997E+02  0.45594000000E+02  0.51100000000E-03 0.  1.
    9900012    2    1    2    0    0  0.43347611562E+01  0.34078536464E+02  0.21749227533E+02  0.50528859575E+02  0.29999999163E+02 0.  0.
        -12    1    1    2    0    0 -0.43347611562E+01 -0.34078536464E+02 -0.21749227533E+02  0.40659140425E+02  0.00000000000E+00 0.  1.
         11    1    3    3    0    0  0.61152291922E+01  0.39841758130E+01  0.12306183370E+00  0.72996458447E+01  0.51100000000E-03 0.  1.
        -11    1    3    3    0    0  0.38276200009E+01  0.29881623363E+02  0.22431312495E+02  0.37559630858E+02  0.51100000000E-03 0. -1.
        -12    1    3    3    0    0 -0.56080880368E+01  0.21273728882E+00 -0.80514679525E+00  0.56695828722E+01  0.00000000000E+00 0.  1.
</event>
<event>
 7    1  0.9868142E-013  0.5052888E+02  0.7816164E-02  0.1300439E+00
        -11   -1    0    0    0    0  0.00000000000E+00  0.00000000000E+00  0.45593999997E+02  0.45594000000E+02  0.51100000000E-03 0.  1.
         11   -1    0    0    0    0 -0.00000000000E+00 -0.00000000000E+00 -0.45593999997E+02  0.45594000000E+02  0.51100000000E-03 0. -1.
    9900012    2    1    2    0    0 -0.38131960910E+02  0.13243349519E+02 -0.48714404844E+01  0.50528884396E+02  0.30000074610E+02 0.  0.
        -12    1    1    2    0    0  0.38131960910E+02 -0.13243349519E+02  0.48714404844E+01  0.40659115604E+02  0.00000000000E+00 0.  1.
         11    1    3    3    0    0 -0.13869226103E+02 -0.56240361628E+01 -0.86892929517E+01  0.17305751291E+02  0.51100000000E-03 0. -1.
        -11    1    3    3    0    0 -0.17077878631E+02  0.93024329498E+01 -0.26449628400E+01  0.19626131203E+02  0.51100000000E-03 0.  1.
         12    1    3    3    0    0 -0.71848561756E+01  0.95649527323E+01  0.64628153073E+01  0.13597001902E+02  0.00000000000E+00 0. -1.
</event>
<event>
 7    1  0.9868142E-013  0.5052887E+02  0.7816164E-02  0.1300439E+00
        -11   -1    0    0    0    0  0.00000000000E+00  0.00000000000E+00  0.45593999997E+02  0.45594000000E+02  0.51100000000E-03 0.  1.
         11   -1    0    0    0    0 -0.00000000000E+00 -0.00000000000E+00 -0.45593999997E+02  0.45594000000E+02  0.51100000000E-03 0. -1.
    9900012    2    1    2    0    0  0.40649772506E+02 -0.25573927532E+00  0.83417113437E+00  0.50528865124E+02  0.30000016032E+02 0.  0.
        -12    1    1    2    0    0 -0.40649772506E+02  0.25573927532E+00 -0.83417113437E+00  0.40659134876E+02  0.00000000000E+00 0.  1.
         11    1    3    3    0    0  0.83796998747E+01 -0.99912362060E+01 -0.75508960088E+01  0.15068516905E+02  0.51100000000E-03 0. -1.
        -11    1    3    3    0    0  0.11803888951E+02  0.29839632999E+01  0.65654726639E+01  0.13832615909E+02  0.51100000000E-03 0.  1.
         12    1    3    3    0    0  0.20466183680E+02  0.67515336307E+01  0.18195944793E+01  0.21627732310E+02  0.00000000000E+00 0. -1.
</event>
<event>
 7    1  0.1229569E-012  0.5052886E+02  0.7816164E-02  0.1300439E+00
        -11   -1    0    0    0    0  0.00000000000E+00  0.00000000000E+00  0.45593999997E+02  0.45594000000E+02  0.51100000000E-03 0.  1.
         11   -1    0    0    0    0 -0.00000000000E+00 -0.00000000000E+00 -0.45593999997E+02  0.45594000000E+02  0.51100000000E-03 0. -1.
    9900012    2    1    2    0    0 -0.28804420545E+02  0.28402022057E+02 -0.40983140129E+01  0.50528859852E+02  0.30000000005E+02 0.  0.
        -12    1    1    2    0    0  0.28804420545E+02 -0.28402022057E+02  0.40983140129E+01  0.40659140148E+02  0.00000000000E+00 0.  1.
         11    1    3    3    0    0 -0.14612416124E+02  0.12673698706E+02 -0.89702161251E+00  0.19363625485E+02  0.51100000000E-03 0. -1.
        -11    1    3    3    0    0 -0.14525162420E+01  0.15342180401E+02  0.47703803692E+01  0.16132229605E+02  0.51100000000E-03 0.  1.
        -12    1    3    3    0    0 -0.12739488178E+02  0.38614294989E+00 -0.79716727696E+01  0.15033004762E+02  0.00000000000E+00 0.  1.
</event>
<event>
 7    1  0.9868142E-013  0.5052886E+02  0.7816164E-02  0.1300439E+00
        -11   -1    0    0    0    0  0.00000000000E+00  0.00000000000E+00  0.45593999997E+02  0.45594000000E+02  0.51100000000E-03 0. -1.
         11   -1    0    0    0    0 -0.00000000000E+00 -0.00000000000E+00 -0.45593999997E+02  0.45594000000E+02  0.51100000000E-03 0.  1.
    9900012    2    1    2    0    0 -0.38116638073E+02  0.62606312986E+00  0.14138452872E+02  0.50528857085E+02  0.29999991595E+02 0.  0.
        -12    1    1    2    0    0  0.38116638073E+02 -0.62606312986E+00 -0.14138452872E+02  0.40659142915E+02  0.00000000000E+00 0.  1.
         11    1    3    3    0    0 -0.35584448524E+02  0.45274258384E+01  0.11840888543E+02  0.37775087071E+02  0.51100000000E-03 0. -1.
        -11    1    3    3    0    0  0.11759987481E+01  0.38105517047E+01  0.70639971175E+00  0.40499726127E+01  0.51100000000E-03 0.  1.
         12    1    3    3    0    0 -0.37081882969E+01 -0.77119144132E+01  0.15911646174E+01  0.87037974012E+01  0.00000000000E+00 0. -1.
</event>
<event>
 7    1  0.9868142E-013  0.5052886E+02  0.7816164E-02  0.1300439E+00
        -11   -1    0    0    0    0  0.00000000000E+00  0.00000000000E+00  0.45593999997E+02  0.45594000000E+02  0.51100000000E-03 0.  1.
         11   -1    0    0    0    0 -0.00000000000E+00 -0.00000000000E+00 -0.45593999997E+02  0.45594000000E+02  0.51100000000E-03 0. -1.
    9900012    2    1    2    0    0 -0.26972970824E+02 -0.20662947652E+02 -0.22330854430E+02  0.50528860556E+02  0.30000002147E+02 0.  0.
        -12    1    1    2    0    0  0.26972970824E+02  0.20662947652E+02  0.22330854430E+02  0.40659139444E+02  0.00000000000E+00 0.  1.
         11    1    3    3    0    0 -0.14122927015E+02 -0.24178892119E+02 -0.14118808658E+02  0.31359474641E+02  0.51100000000E-03 0. -1.
        -11    1    3    3    0    0 -0.14745575306E+02  0.31656280052E+01 -0.59894871385E+01  0.16227358017E+02  0.51100000000E-03 0.  1.
         12    1    3    3    0    0  0.18955314965E+01  0.35031646213E+00 -0.22225586334E+01  0.29420278987E+01  0.00000000000E+00 0. -1.
</event>
<event>
 7    1  0.9868142E-013  0.5052885E+02  0.7816164E-02  0.1300439E+00
        -11   -1    0    0    0    0  0.00000000000E+00  0.00000000000E+00  0.45593999997E+02  0.45594000000E+02  0.51100000000E-03 0.  1.
         11   -1    0    0    0    0 -0.00000000000E+00 -0.00000000000E+00 -0.45593999997E+02  0.45594000000E+02  0.51100000000E-03 0. -1.
    9900012    2    1    2    0    0 -0.37046815206E+02 -0.13496779544E+02 -0.99265799846E+01  0.50528848937E+02  0.29999966829E+02 0.  0.
        -12    1    1    2    0    0  0.37046815206E+02  0.13496779544E+02  0.99265799846E+01  0.40659151063E+02  0.00000000000E+00 0.  1.
         11    1    3    3    0    0 -0.34402152267E+02 -0.11971976672E+02 -0.17934228627E+02  0.40601389911E+02  0.51100000000E-03 0. -1.
        -11    1    3    3    0    0 -0.34555110608E+01  0.56984852765E+00  0.58172830210E+01  0.67901447734E+01  0.51100000000E-03 0.  1.
         12    1    3    3    0    0  0.81084812100E+00 -0.20946513996E+01  0.21903656217E+01  0.31373142524E+01  0.00000000000E+00 0. -1.
</event>
<event>
 7    1  0.9868142E-013  0.5052886E+02  0.7816164E-02  0.1300439E+00
        -11   -1    0    0    0    0  0.00000000000E+00  0.00000000000E+00  0.45593999997E+02  0.45594000000E+02  0.51100000000E-03 0.  1.
         11   -1    0    0    0    0 -0.00000000000E+00 -0.00000000000E+00 -0.45593999997E+02  0.45594000000E+02  0.51100000000E-03 0. -1.
    9900012    2    1    2    0    0 -0.28039789894E+01  0.31662313789E+02 -0.25353523862E+02  0.50528860992E+02  0.30000003472E+02 0.  0.
        -12    1    1    2    0    0  0.28039789894E+01 -0.31662313789E+02  0.25353523862E+02  0.40659139008E+02  0.00000000000E+00 0.  1.
         11    1    3    3    0    0 -0.18531881133E+01  0.34716739933E+02 -0.24160627527E+02  0.42337008167E+02  0.51100000000E-03 0. -1.
        -11    1    3    3    0    0 -0.31152787966E+01  0.56626261056E+00  0.11474012397E+01  0.33678101477E+01  0.51100000000E-03 0.  1.
         12    1    3    3    0    0  0.21644879206E+01 -0.36206887547E+01 -0.23402975748E+01  0.48240426776E+01  0.00000000000E+00 0. -1.
</event>
<event>
 7    1  0.9868142E-013  0.5052886E+02  0.7816164E-02  0.1300439E+00
        -11   -1    0    0    0    0  0.00000000000E+00  0.00000000000E+00  0.45593999997E+02  0.45594000000E+02  0.51100000000E-03 0.  1.
         11   -1    0    0    0    0 -0.00000000000E+00 -0.00000000000E+00 -0.45593999997E+02  0.45594000000E+02  0.51100000000E-03 0. -1.
    9900012    2    1    2    0    0 -0.49847280882E+01 -0.24957461028E+02 -0.31708727359E+02  0.50528858767E+02  0.29999996708E+02 0.  0.
        -12    1    1    2    0    0  0.49847280882E+01  0.24957461028E+02  0.31708727359E+02  0.40659141233E+02  0.00000000000E+00 0.  1.
         11    1    3    3    0    0 -0.13831486847E+02 -0.22054284610E+02 -0.25981765806E+02  0.36779799520E+02  0.51100000000E-03 0. -1.
        -11    1    3    3    0    0  0.55828198349E+01  0.13702513326E+01 -0.60709760039E+01  0.83607545069E+01  0.51100000000E-03 0.  1.
        -12    1    3    3    0    0  0.32639389234E+01 -0.42734277505E+01  0.34401445084E+00  0.53883047405E+01  0.00000000000E+00 0.  1.
</event>
<event>
 7    1  0.9868142E-013  0.5052886E+02  0.7816164E-02  0.1300439E+00
        -11   -1    0    0    0    0  0.00000000000E+00  0.00000000000E+00  0.45593999997E+02  0.45594000000E+02  0.51100000000E-03 0. -1.
         11   -1    0    0    0    0 -0.00000000000E+00 -0.00000000000E+00 -0.45593999997E+02  0.45594000000E+02  0.51100000000E-03 0.  1.
    9900012    2    1    2    0    0  0.16717776933E+02  0.23963388565E+02  0.28274327288E+02  0.50528860306E+02  0.30000001385E+02 0.  0.
        -12    1    1    2    0    0 -0.16717776933E+02 -0.23963388565E+02 -0.28274327288E+02  0.40659139694E+02  0.00000000000E+00 0.  1.
         11    1    3    3    0    0  0.11309456361E+02  0.20139939265E+02  0.40152757095E+01  0.23444474745E+02  0.51100000000E-03 0. -1.
        -11    1    3    3    0    0  0.63830286616E+01  0.19048346508E+00  0.72366141163E+01  0.96513171627E+01  0.51100000000E-03 0.  1.
         12    1    3    3    0    0 -0.97470808958E+00  0.36329658352E+01  0.17022437462E+02  0.17433068398E+02  0.00000000000E+00 0. -1.
</event>
<event>
 7    1  0.9868142E-013  0.5052884E+02  0.7816164E-02  0.1300439E+00
        -11   -1    0    0    0    0  0.00000000000E+00  0.00000000000E+00  0.45593999997E+02  0.45594000000E+02  0.51100000000E-03 0.  1.
         11   -1    0    0    0    0 -0.00000000000E+00 -0.00000000000E+00 -0.45593999997E+02  0.45594000000E+02  0.51100000000E-03 0. -1.
    9900012    2    1    2    0    0  0.29577422863E+02  0.27352995620E+02  0.54915554610E+01  0.50528837515E+02  0.29999932110E+02 0.  0.
        -12    1    1    2    0    0 -0.29577422863E+02 -0.27352995620E+02 -0.54915554610E+01  0.40659162485E+02  0.00000000000E+00 0.  1.
         11    1    3    3    0    0  0.18749140779E+02  0.16665527407E+02  0.60623097231E+01  0.25807395900E+02  0.51100000000E-03 0. -1.
        -11    1    3    3    0    0 -0.56044748723E+01  0.33463724466E+01 -0.15067131263E+01  0.66991441134E+01  0.51100000000E-03 0.  1.
        -12    1    3    3    0    0  0.16432756956E+02  0.73410957665E+01  0.93595886428E+00  0.18022297502E+02  0.00000000000E+00 0.  1.
</event>
<event>
 7    1  0.9868142E-013  0.5052899E+02  0.7816164E-02  0.1300438E+00
        -11   -1    0    0    0    0  0.00000000000E+00  0.00000000000E+00  0.45593999997E+02  0.45594000000E+02  0.51100000000E-03 0. -1.
         11   -1    0    0    0    0 -0.00000000000E+00 -0.00000000000E+00 -0.45593999997E+02  0.45594000000E+02  0.51100000000E-03 0.  1.
    9900012    2    1    2    0    0 -0.20568747332E+02 -0.22878474753E+02  0.26583015551E+02  0.50528994975E+02  0.30000410723E+02 0.  0.
        -12    1    1    2    0    0  0.20568747332E+02  0.22878474753E+02 -0.26583015551E+02  0.40659005025E+02  0.00000000000E+00 0.  1.
         11    1    3    3    0    0 -0.81863842536E+01 -0.12769906689E+02  0.15072465086E+02  0.21383793116E+02  0.51100000000E-03 0. -1.
        -11    1    3    3    0    0  0.20806095895E+01  0.52465739707E+01  0.30715711184E+01  0.64257314051E+01  0.51100000000E-03 0.  1.
        -12    1    3    3    0    0 -0.14462972668E+02 -0.15355142035E+02  0.84389793467E+01  0.22719470454E+02  0.00000000000E+00 0.  1.
</event>
<event>
 7    1  0.9868142E-013  0.5052886E+02  0.7816164E-02  0.1300439E+00
        -11   -1    0    0    0    0  0.00000000000E+00  0.00000000000E+00  0.45593999997E+02  0.45594000000E+02  0.51100000000E-03 0.  1.
         11   -1    0    0    0    0 -0.00000000000E+00 -0.00000000000E+00 -0.45593999997E+02  0.45594000000E+02  0.51100000000E-03 0. -1.
    9900012    2    1    2    0    0  0.32415102068E+02  0.32788656629E+01 -0.24324379903E+02  0.50528864990E+02  0.30000015624E+02 0.  0.
        -12    1    1    2    0    0 -0.32415102068E+02 -0.32788656629E+01  0.24324379903E+02  0.40659135010E+02  0.00000000000E+00 0.  1.
         11    1    3    3    0    0  0.11838373953E+02 -0.53722558106E+00 -0.81255819161E+01  0.14368743540E+02  0.51100000000E-03 0. -1.
        -11    1    3    3    0    0  0.26470262919E+01 -0.56914184909E+01  0.40673027541E+01  0.74794347770E+01  0.51100000000E-03 0.  1.
        -12    1    3    3    0    0  0.17929701822E+02  0.95075097349E+01 -0.20266100741E+02  0.28680686673E+02  0.00000000000E+00 0.  1.
</event>
<event>
 7    1  0.9868142E-013  0.5052886E+02  0.7816164E-02  0.1300439E+00
        -11   -1    0    0    0    0  0.00000000000E+00  0.00000000000E+00  0.45593999997E+02  0.45594000000E+02  0.51100000000E-03 0.  1.
         11   -1    0    0    0    0 -0.00000000000E+00 -0.00000000000E+00 -0.45593999997E+02  0.45594000000E+02  0.51100000000E-03 0. -1.
    9900012    2    1    2    0    0  0.35291218687E+02  0.69650284295E+01 -0.18952146215E+02  0.50528861008E+02  0.30000003519E+02 0.  0.
        -12    1    1    2    0    0 -0.35291218687E+02 -0.69650284295E+01  0.18952146215E+02  0.40659138992E+02  0.00000000000E+00 0.  1.
         11    1    3    3    0    0  0.15597859006E+02  0.16755474319E+02 -0.60955656113E+01  0.23689555623E+02  0.51100000000E-03 0. -1.
        -11    1    3    3    0    0  0.29468510370E+01  0.12982917316E+01 -0.50277537228E+00  0.32591833012E+01  0.51100000000E-03 0.  1.
         12    1    3    3    0    0  0.16746508645E+02 -0.11088737621E+02 -0.12353805231E+02  0.23580122084E+02  0.00000000000E+00 0. -1.
</event>
<event>
 7    1  0.9868142E-013  0.5052886E+02  0.7816164E-02  0.1300439E+00
        -11   -1    0    0    0    0  0.00000000000E+00  0.00000000000E+00  0.45593999997E+02  0.45594000000E+02  0.51100000000E-03 0. -1.
         11   -1    0    0    0    0 -0.00000000000E+00 -0.00000000000E+00 -0.45593999997E+02  0.45594000000E+02  0.51100000000E-03 0.  1.
    9900012    2    1    2    0    0 -0.60495388514E+01  0.35772216788E+01  0.40047125927E+02  0.50528859204E+02  0.29999998037E+02 0.  0.
        -12    1    1    2    0    0  0.60495388514E+01 -0.35772216788E+01 -0.40047125927E+02  0.40659140796E+02  0.00000000000E+00 0.  1.
         11    1    3    3    0    0  0.29097218827E+01 -0.68368938793E+01  0.17462371919E+01  0.76327546759E+01  0.51100000000E-03 0. -1.
        -11    1    3    3    0    0 -0.33250399976E+01  0.70415912311E+01  0.57254624302E+01  0.96654445502E+01  0.51100000000E-03 0.  1.
         12    1    3    3    0    0 -0.56342207365E+01  0.33725243270E+01  0.32575426305E+02  0.33230659978E+02  0.00000000000E+00 0. -1.
</event>
<event>
 7    1  0.9868142E-013  0.5052885E+02  0.7816164E-02  0.1300439E+00
        -11   -1    0    0    0    0  0.00000000000E+00  0.00000000000E+00  0.45593999997E+02  0.45594000000E+02  0.51100000000E-03 0.  1.
         11   -1    0    0    0    0 -0.00000000000E+00 -0.00000000000E+00 -0.45593999997E+02  0.45594000000E+02  0.51100000000E-03 0. -1.
    9900012    2    1    2    0    0  0.86930323106E+00  0.77380045820E+01 -0.39906562092E+02  0.50528854645E+02  0.29999984179E+02 0.  0.
        -12    1    1    2    0    0 -0.86930323106E+00 -0.77380045820E+01  0.39906562092E+02  0.40659145355E+02  0.00000000000E+00 0.  1.
         11    1    3    3    0    0 -0.39445391618E+01  0.45780848751E+01 -0.30866015267E+02  0.31452013434E+02  0.51100000000E-03 0. -1.
        -11    1    3    3    0    0  0.84921058242E+01  0.22685478727E+01  0.50903023127E+00  0.88046171306E+01  0.51100000000E-03 0.  1.
        -12    1    3    3    0    0 -0.36782634313E+01  0.89137183419E+00 -0.95495770562E+01  0.10272224081E+02  0.00000000000E+00 0.  1.
</event>
<event>
 7    1  0.9868142E-013  0.5052886E+02  0.7816164E-02  0.1300439E+00
        -11   -1    0    0    0    0  0.00000000000E+00  0.00000000000E+00  0.45593999997E+02  0.45594000000E+02  0.51100000000E-03 0. -1.
         11   -1    0    0    0    0 -0.00000000000E+00 -0.00000000000E+00 -0.45593999997E+02  0.45594000000E+02  0.51100000000E-03 0.  1.
    9900012    2    1    2    0    0  0.13219549903E+01  0.31463123114E+02  0.25719445495E+02  0.50528861326E+02  0.30000004488E+02 0.  0.
        -12    1    1    2    0    0 -0.13219549903E+01 -0.31463123114E+02 -0.25719445495E+02  0.40659138674E+02  0.00000000000E+00 0.  1.
         11    1    3    3    0    0 -0.11903650521E+02  0.89029303058E+01  0.16075350979E+02  0.21894656268E+02  0.51100000000E-03 0.  1.
        -11    1    3    3    0    0  0.13773821682E+02  0.21886660185E+02  0.85489766926E+01  0.27236539071E+02  0.51100000000E-03 0. -1.
         12    1    3    3    0    0 -0.54821617020E+00  0.67353262308E+00  0.10951178241E+01  0.13976659874E+01  0.00000000000E+00 0. -1.
</event>
<event>
 7    1  0.9868142E-013  0.5052886E+02  0.7816164E-02  0.1300439E+00
        -11   -1    0    0    0    0  0.00000000000E+00  0.00000000000E+00  0.45593999997E+02  0.45594000000E+02  0.51100000000E-03 0.  1.
         11   -1    0    0    0    0 -0.00000000000E+00 -0.00000000000E+00 -0.45593999997E+02  0.45594000000E+02  0.51100000000E-03 0. -1.
    9900012    2    1    2    0    0 -0.12349123749E+01  0.39049311704E+02 -0.11260208327E+02  0.50528855337E+02  0.29999986282E+02 0.  0.
        -12    1    1    2    0    0  0.12349123749E+01 -0.39049311704E+02  0.11260208327E+02  0.40659144663E+02  0.00000000000E+00 0.  1.
         11    1    3    3    0    0  0.39863399476E+01  0.30201072809E+02 -0.15894143252E+02  0.34360143989E+02  0.51100000000E-03 0. -1.
        -11    1    3    3    0    0 -0.58745286860E+01  0.55803275767E+01 -0.23449340570E+01  0.84349783129E+01  0.51100000000E-03 0.  1.
         12    1    3    3    0    0  0.65327636354E+00  0.32679113189E+01  0.69788689815E+01  0.77337330350E+01  0.00000000000E+00 0. -1.
</event>
<event>
 7    1  0.9868142E-013  0.5052886E+02  0.7816164E-02  0.1300439E+00
        -11   -1    0    0    0    0  0.00000000000E+00  0.00000000000E+00  0.45593999997E+02  0.45594000000E+02  0.51100000000E-03 0. -1.
         11   -1    0    0    0    0 -0.00000000000E+00 -0.00000000000E+00 -0.45593999997E+02  0.45594000000E+02  0.51100000000E-03 0.  1.
    9900012    2    1    2    0    0  0.15079107893E+02  0.24510308484E+02  0.28723355281E+02  0.50528857665E+02  0.29999993359E+02 0.  0.
        -12    1    1    2    0    0 -0.15079107893E+02 -0.24510308484E+02 -0.28723355281E+02  0.40659142335E+02  0.00000000000E+00 0.  1.
         11    1    3    3    0    0  0.11327031436E+02  0.38475720558E+01  0.18606191581E+01  0.12106500559E+02  0.51100000000E-03 0. -1.
        -11    1    3    3    0    0 -0.41420398601E+01  0.17904792632E+02  0.14096875435E+02  0.23161605961E+02  0.51100000000E-03 0.  1.
        -12    1    3    3    0    0  0.78941163169E+01  0.27579437959E+01  0.12765860688E+02  0.15260751145E+02  0.00000000000E+00 0.  1.
</event>
<event>
 7    1  0.9868142E-013  0.5052885E+02  0.7816164E-02  0.1300439E+00
        -11   -1    0    0    0    0  0.00000000000E+00  0.00000000000E+00  0.45593999997E+02  0.45594000000E+02  0.51100000000E-03 0.  1.
         11   -1    0    0    0    0 -0.00000000000E+00 -0.00000000000E+00 -0.45593999997E+02  0.45594000000E+02  0.51100000000E-03 0. -1.
    9900012    2    1    2    0    0  0.27104357786E+02 -0.21555801856E+01 -0.30230338249E+02  0.50528854810E+02  0.29999984681E+02 0.  0.
        -12    1    1    2    0    0 -0.27104357786E+02  0.21555801856E+01  0.30230338249E+02  0.40659145190E+02  0.00000000000E+00 0.  1.
         11    1    3    3    0    0  0.17212145649E+02  0.91556606675E+01 -0.80734380853E+01  0.21101291024E+02  0.51100000000E-03 0. -1.
        -11    1    3    3    0    0  0.89905559185E+01 -0.12027572005E+02 -0.12045031603E+02  0.19250334299E+02  0.51100000000E-03 0.  1.
         12    1    3    3    0    0  0.90165621873E+00  0.71633115169E+00 -0.10111868560E+02  0.10177229487E+02  0.00000000000E+00 0. -1.
</event>
<event>
 7    1  0.9868142E-013  0.5052887E+02  0.7816164E-02  0.1300439E+00
        -11   -1    0    0    0    0  0.00000000000E+00  0.00000000000E+00  0.45593999997E+02  0.45594000000E+02  0.51100000000E-03 0.  1.
         11   -1    0    0    0    0 -0.00000000000E+00 -0.00000000000E+00 -0.45593999997E+02  0.45594000000E+02  0.51100000000E-03 0. -1.
    9900012    2    1    2    0    0 -0.68035246188E+00  0.68753520379E+01 -0.40067839690E+02  0.50528866677E+02  0.30000020753E+02 0.  0.
        -12    1    1    2    0    0  0.68035246188E+00 -0.68753520379E+01  0.40067839690E+02  0.40659133323E+02  0.00000000000E+00 0.  1.
         11    1    3    3    0    0 -0.13014041695E+01 -0.48356146400E+01 -0.35988016428E+02  0.36334751250E+02  0.51100000000E-03 0. -1.
        -11    1    3    3    0    0 -0.25320946519E+01  0.90963522866E+01 -0.22429441676E+01  0.97049434336E+01  0.51100000000E-03 0.  1.
         12    1    3    3    0    0  0.31531463596E+01  0.26146143913E+01 -0.18368790949E+01  0.44891719937E+01  0.00000000000E+00 0. -1.
</event>
<event>
 7    1  0.9868142E-013  0.5052886E+02  0.7816164E-02  0.1300439E+00
        -11   -1    0    0    0    0  0.00000000000E+00  0.00000000000E+00  0.45593999997E+02  0.45594000000E+02  0.51100000000E-03 0.  1.
         11   -1    0    0    0    0 -0.00000000000E+00 -0.00000000000E+00 -0.45593999997E+02  0.45594000000E+02  0.51100000000E-03 0. -1.
    9900012    2    1    2    0    0  0.78510228480E+01 -0.11299505478E+02 -0.38260269295E+02  0.50528860925E+02  0.30000003268E+02 0.  0.
        -12    1    1    2    0    0 -0.78510228480E+01  0.11299505478E+02  0.38260269295E+02  0.40659139075E+02  0.00000000000E+00 0.  1.
         11    1    3    3    0    0  0.93192140359E+01 -0.66741441594E+01 -0.43491324376E+01  0.12259971604E+02  0.51100000000E-03 0.  1.
        -11    1    3    3    0    0  0.11448879482E+01 -0.58665203250E+01 -0.34747267402E+02  0.35257615083E+02  0.51100000000E-03 0. -1.
        -12    1    3    3    0    0 -0.26130791362E+01  0.12411590060E+01  0.83613054514E+00  0.30112742384E+01  0.00000000000E+00 0.  1.
</event>
<event>
 7    1  0.9868142E-013  0.5052890E+02  0.7816164E-02  0.1300439E+00
        -11   -1    0    0    0    0  0.00000000000E+00  0.00000000000E+00  0.45593999997E+02  0.45594000000E+02  0.51100000000E-03 0.  1.
         11   -1    0    0    0    0 -0.00000000000E+00 -0.00000000000E+00 -0.45593999997E+02  0.45594000000E+02  0.51100000000E-03 0. -1.
    9900012    2    1    2    0    0  0.36562725330E+02  0.13266928313E+02 -0.11845585784E+02  0.50528902949E+02  0.30000131003E+02 0.  0.
        -12    1    1    2    0    0 -0.36562725330E+02 -0.13266928313E+02  0.11845585784E+02  0.40659097051E+02  0.00000000000E+00 0.  1.
         11    1    3    3    0    0  0.85279601900E+01  0.83243845133E+01 -0.11960646078E+02  0.16884268933E+02  0.51100000000E-03 0. -1.
        -11    1    3    3    0    0  0.26750444413E+02 -0.89364571679E+00 -0.29520283846E+01  0.26927668871E+02  0.51100000000E-03 0.  1.
         12    1    3    3    0    0  0.12843207268E+01  0.58361895167E+01  0.30670886779E+01  0.67169651452E+01  0.00000000000E+00 0. -1.
</event>
<event>
 7    1  0.9868142E-013  0.5052886E+02  0.7816164E-02  0.1300439E+00
        -11   -1    0    0    0    0  0.00000000000E+00  0.00000000000E+00  0.45593999997E+02  0.45594000000E+02  0.51100000000E-03 0. -1.
         11   -1    0    0    0    0 -0.00000000000E+00 -0.00000000000E+00 -0.45593999997E+02  0.45594000000E+02  0.51100000000E-03 0.  1.
    9900012    2    1    2    0    0 -0.47468539050E+01 -0.24552879558E+02  0.32059148084E+02  0.50528862128E+02  0.30000006925E+02 0.  0.
        -12    1    1    2    0    0  0.47468539050E+01  0.24552879558E+02 -0.32059148084E+02  0.40659137872E+02  0.00000000000E+00 0.  1.
         11    1    3    3    0    0 -0.66868793863E+01 -0.19710102320E+01 -0.20194519026E+01  0.72579214317E+01  0.51100000000E-03 0. -1.
        -11    1    3    3    0    0  0.67040986833E+01 -0.15246740618E+02  0.15570334226E+02  0.22800073394E+02  0.51100000000E-03 0.  1.
         12    1    3    3    0    0 -0.47640732020E+01 -0.73351287087E+01  0.18508265761E+02  0.20470867302E+02  0.00000000000E+00 0. -1.
</event>
<event>
 7    1  0.9868142E-013  0.5052886E+02  0.7816164E-02  0.1300439E+00
        -11   -1    0    0    0    0  0.00000000000E+00  0.00000000000E+00  0.45593999997E+02  0.45594000000E+02  0.51100000000E-03 0. -1.
         11   -1    0    0    0    0 -0.00000000000E+00 -0.00000000000E+00 -0.45593999997E+02  0.45594000000E+02  0.51100000000E-03 0.  1.
    9900012    2    1    2    0    0 -0.30956826395E+02  0.25849583060E+02  0.51613715785E+01  0.50528858329E+02  0.29999995378E+02 0.  0.
        -12    1    1    2    0    0  0.30956826395E+02 -0.25849583060E+02 -0.51613715785E+01  0.40659141671E+02  0.00000000000E+00 0.  1.
         11    1    3    3    0    0 -0.65710404664E+01  0.63303051479E+01  0.49273761736E+00  0.91375120628E+01  0.51100000000E-03 0. -1.
        -11    1    3    3    0    0  0.23205252555E+01  0.79447828581E+01  0.86985660086E+01  0.12007058882E+02  0.51100000000E-03 0.  1.
        -12    1    3    3    0    0 -0.26706311184E+02  0.11574495054E+02 -0.40299320474E+01  0.29384287385E+02  0.00000000000E+00 0.  1.
</event>
<event>
 7    1  0.9868142E-013  0.5052886E+02  0.7816164E-02  0.1300439E+00
        -11   -1    0    0    0    0  0.00000000000E+00  0.00000000000E+00  0.45593999997E+02  0.45594000000E+02  0.51100000000E-03 0. -1.
         11   -1    0    0    0    0 -0.00000000000E+00 -0.00000000000E+00 -0.45593999997E+02  0.45594000000E+02  0.51100000000E-03 0.  1.
    9900012    2    1    2    0    0 -0.35823340562E+02 -0.17258422594E+02 -0.84853283771E+01  0.50528859858E+02  0.30000000025E+02 0.  0.
        -12    1    1    2    0    0  0.35823340562E+02  0.17258422594E+02  0.84853283771E+01  0.40659140142E+02  0.00000000000E+00 0.  1.
         11    1    3    3    0    0 -0.24373781088E+02 -0.46959297589E+01 -0.10850942021E+01  0.24845731837E+02  0.51100000000E-03 0. -1.
        -11    1    3    3    0    0 -0.10855647299E+02 -0.84769894874E+01 -0.12856297995E+02  0.18841147191E+02  0.51100000000E-03 0.  1.
         12    1    3    3    0    0 -0.59391217401E+00 -0.40855033473E+01  0.54560638202E+01  0.68419808303E+01  0.00000000000E+00 0. -1.
</event>
<event>
 7    1  0.9868142E-013  0.5052886E+02  0.7816164E-02  0.1300439E+00
        -11   -1    0    0    0    0  0.00000000000E+00  0.00000000000E+00  0.45593999997E+02  0.45594000000E+02  0.51100000000E-03 0.  1.
         11   -1    0    0    0    0 -0.00000000000E+00 -0.00000000000E+00 -0.45593999997E+02  0.45594000000E+02  0.51100000000E-03 0. -1.
    9900012    2    1    2    0    0 -0.29749280468E+02  0.27587203957E+02  0.26631428558E+01  0.50528857850E+02  0.29999993920E+02 0.  0.
        -12    1    1    2    0    0  0.29749280468E+02 -0.27587203957E+02 -0.26631428558E+01  0.40659142150E+02  0.00000000000E+00 0.  1.
         11    1    3    3    0    0  0.25144619985E+01 -0.76406885751E+00 -0.26805448916E+01  0.37538835275E+01  0.51100000000E-03 0. -1.
        -11    1    3    3    0    0 -0.16085399436E+02  0.19466352908E+02  0.10892568212E+02  0.27501400202E+02  0.51100000000E-03 0.  1.
         12    1    3    3    0    0 -0.16178343030E+02  0.88849199064E+01 -0.55488804649E+01  0.19273574120E+02  0.00000000000E+00 0. -1.
</event>
<event>
 7    1  0.9868142E-013  0.5052886E+02  0.7816164E-02  0.1300439E+00
        -11   -1    0    0    0    0  0.00000000000E+00  0.00000000000E+00  0.45593999997E+02  0.45594000000E+02  0.51100000000E-03 0.  1.
         11   -1    0    0    0    0 -0.00000000000E+00 -0.00000000000E+00 -0.45593999997E+02  0.45594000000E+02  0.51100000000E-03 0. -1.
    9900012    2    1    2    0    0  0.35940600519E+01  0.39822053802E+02  0.73792063756E+01  0.50528856829E+02  0.29999990817E+02 0.  0.
        -12    1    1    2    0    0 -0.35940600519E+01 -0.39822053802E+02 -0.73792063756E+01  0.40659143171E+02  0.00000000000E+00 0.  1.
         11    1    3    3    0    0 -0.35563181280E+00  0.83202309061E+01 -0.84743880256E+01  0.11881412752E+02  0.51100000000E-03 0. -1.
        -11    1    3    3    0    0  0.85590881032E+01  0.96324041888E+01  0.62536132293E+01  0.14323019175E+02  0.51100000000E-03 0.  1.
         12    1    3    3    0    0 -0.46093962385E+01  0.21869418707E+02  0.95999811718E+01  0.24324424901E+02  0.00000000000E+00 0. -1.
</event>
<event>
 7    1  0.9868142E-013  0.5052886E+02  0.7816164E-02  0.1300439E+00
        -11   -1    0    0    0    0  0.00000000000E+00  0.00000000000E+00  0.45593999997E+02  0.45594000000E+02  0.51100000000E-03 0.  1.
         11   -1    0    0    0    0 -0.00000000000E+00 -0.00000000000E+00 -0.45593999997E+02  0.45594000000E+02  0.51100000000E-03 0. -1.
    9900012    2    1    2    0    0  0.30085510196E+02  0.24890330972E+02 -0.11335747802E+02  0.50528859848E+02  0.29999999995E+02 0.  0.
        -12    1    1    2    0    0 -0.30085510196E+02 -0.24890330972E+02  0.11335747802E+02  0.40659140152E+02  0.00000000000E+00 0.  1.
         11    1    3    3    0    0  0.22262008574E+02  0.17658087265E+02 -0.13459087997E+02  0.31441248729E+02  0.51100000000E-03 0. -1.
        -11    1    3    3    0    0  0.57641982932E+01  0.10962407544E+02  0.55958601207E+01  0.13590953310E+02  0.51100000000E-03 0.  1.
         12    1    3    3    0    0  0.20593033280E+01 -0.37301638368E+01 -0.34725199257E+01  0.54966578100E+01  0.00000000000E+00 0. -1.
</event>
<event>
 7    1  0.9868142E-013  0.5052886E+02  0.7816164E-02  0.1300439E+00
        -11   -1    0    0    0    0  0.00000000000E+00  0.00000000000E+00  0.45593999997E+02  0.45594000000E+02  0.51100000000E-03 0.  1.
         11   -1    0    0    0    0 -0.00000000000E+00 -0.00000000000E+00 -0.45593999997E+02  0.45594000000E+02  0.51100000000E-03 0. -1.
    9900012    2    1    2    0    0  0.13122767864E+02 -0.10916784300E+02 -0.36902338426E+02  0.50528858381E+02  0.29999995535E+02 0.  0.
        -12    1    1    2    0    0 -0.13122767864E+02  0.10916784300E+02  0.36902338426E+02  0.40659141619E+02  0.00000000000E+00 0.  1.
         11    1    3    3    0    0  0.31804245896E+01 -0.28220912898E+01 -0.34624238121E+02  0.34884339833E+02  0.51100000000E-03 0. -1.
        -11    1    3    3    0    0  0.71066374766E+01 -0.44396357381E+01 -0.54855399047E+01  0.10015278829E+02  0.51100000000E-03 0.  1.
         12    1    3    3    0    0  0.28357057979E+01 -0.36550572723E+01  0.32074395999E+01  0.56292397198E+01  0.00000000000E+00 0. -1.
</event>
<event>
 7    1  0.9868142E-013  0.5052885E+02  0.7816164E-02  0.1300439E+00
        -11   -1    0    0    0    0  0.00000000000E+00  0.00000000000E+00  0.45593999997E+02  0.45594000000E+02  0.51100000000E-03 0.  1.
         11   -1    0    0    0    0 -0.00000000000E+00 -0.00000000000E+00 -0.45593999997E+02  0.45594000000E+02  0.51100000000E-03 0. -1.
    9900012    2    1    2    0    0 -0.13179723313E+02  0.89010616723E+00 -0.38453461906E+02  0.50528854311E+02  0.29999983163E+02 0.  0.
        -12    1    1    2    0    0  0.13179723313E+02 -0.89010616723E+00  0.38453461906E+02  0.40659145689E+02  0.00000000000E+00 0.  1.
         11    1    3    3    0    0 -0.74150452977E+01  0.75371230180E+01 -0.23067427434E+02  0.25375132095E+02  0.51100000000E-03 0. -1.
        -11    1    3    3    0    0  0.37876024014E+01 -0.52000145937E+01  0.61465246323E+00  0.64624980957E+01  0.51100000000E-03 0.  1.
        -12    1    3    3    0    0 -0.95522804168E+01 -0.14470022571E+01 -0.16000686935E+02  0.18691224120E+02  0.00000000000E+00 0.  1.
</event>
<event>
 7    1  0.9868142E-013  0.5052886E+02  0.7816164E-02  0.1300439E+00
        -11   -1    0    0    0    0  0.00000000000E+00  0.00000000000E+00  0.45593999997E+02  0.45594000000E+02  0.51100000000E-03 0. -1.
         11   -1    0    0    0    0 -0.00000000000E+00 -0.00000000000E+00 -0.45593999997E+02  0.45594000000E+02  0.51100000000E-03 0.  1.
    9900012    2    1    2    0    0 -0.14858894571E+02 -0.85219234038E+01  0.36874869321E+02  0.50528856947E+02  0.29999991177E+02 0.  0.
        -12    1    1    2    0    0  0.14858894571E+02  0.85219234038E+01 -0.36874869321E+02  0.40659143053E+02  0.00000000000E+00 0.  1.
         11    1    3    3    0    0 -0.11575760794E+02 -0.14615412763E+02  0.17995755786E+02  0.25912463309E+02  0.51100000000E-03 0. -1.
        -11    1    3    3    0    0 -0.79718810222E+01  0.23165487132E+01  0.15813422381E+02  0.17860056345E+02  0.51100000000E-03 0.  1.
         12    1    3    3    0    0  0.46887472452E+01  0.37769406457E+01  0.30656911535E+01  0.67563372932E+01  0.00000000000E+00 0. -1.
</event>
<event>
 7    1  0.9868142E-013  0.5052887E+02  0.7816164E-02  0.1300439E+00
        -11   -1    0    0    0    0  0.00000000000E+00  0.00000000000E+00  0.45593999997E+02  0.45594000000E+02  0.51100000000E-03 0.  1.
         11   -1    0    0    0    0 -0.00000000000E+00 -0.00000000000E+00 -0.45593999997E+02  0.45594000000E+02  0.51100000000E-03 0. -1.
    9900012    2    1    2    0    0 -0.29999889454E+02  0.20504153870E+02  0.18241461168E+02  0.50528873119E+02  0.30000040332E+02 0.  0.
        -12    1    1    2    0    0  0.29999889454E+02 -0.20504153870E+02 -0.18241461168E+02  0.40659126881E+02  0.00000000000E+00 0.  1.
         11    1    3    3    0    0 -0.13518198071E+02  0.27846935513E+01 -0.63395279921E+01  0.15188344633E+02  0.51100000000E-03 0. -1.
        -11    1    3    3    0    0 -0.80663898966E+01  0.38733704498E+01  0.11137374866E+02  0.14286733838E+02  0.51100000000E-03 0.  1.
         12    1    3    3    0    0 -0.84153014864E+01  0.13846089869E+02  0.13443614294E+02  0.21053794648E+02  0.00000000000E+00 0. -1.
</event>
<event>
 7    1  0.9868142E-013  0.5052887E+02  0.7816164E-02  0.1300439E+00
        -11   -1    0    0    0    0  0.00000000000E+00  0.00000000000E+00  0.45593999997E+02  0.45594000000E+02  0.51100000000E-03 0.  1.
         11   -1    0    0    0    0 -0.00000000000E+00 -0.00000000000E+00 -0.45593999997E+02  0.45594000000E+02  0.51100000000E-03 0. -1.
    9900012    2    1    2    0    0 -0.26128823899E+02 -0.30869850327E+02 -0.41834773871E+01  0.50528873342E+02  0.30000041009E+02 0.  0.
        -12    1    1    2    0    0  0.26128823899E+02  0.30869850327E+02  0.41834773871E+01  0.40659126658E+02  0.00000000000E+00 0.  1.
         11    1    3    3    0    0 -0.17468856438E+02 -0.37395588558E+01 -0.83200380179E+01  0.19707061642E+02  0.51100000000E-03 0.  1.
        -11    1    3    3    0    0 -0.10798056943E+01 -0.17708063040E+02 -0.80276998916E+00  0.17759107998E+02  0.51100000000E-03 0. -1.
        -12    1    3    3    0    0 -0.75801617675E+01 -0.94222284307E+01  0.49393306200E+01  0.13062703702E+02  0.00000000000E+00 0.  1.
</event>
<event>
 7    1  0.9868142E-013  0.5052886E+02  0.7816164E-02  0.1300439E+00
        -11   -1    0    0    0    0  0.00000000000E+00  0.00000000000E+00  0.45593999997E+02  0.45594000000E+02  0.51100000000E-03 0.  1.
         11   -1    0    0    0    0 -0.00000000000E+00 -0.00000000000E+00 -0.45593999997E+02  0.45594000000E+02  0.51100000000E-03 0. -1.
    9900012    2    1    2    0    0  0.34659958589E+02  0.10837201371E+01 -0.21229196170E+02  0.50528856517E+02  0.29999989870E+02 0.  0.
        -12    1    1    2    0    0 -0.34659958589E+02 -0.10837201371E+01  0.21229196170E+02  0.40659143483E+02  0.00000000000E+00 0.  1.
         11    1    3    3    0    0  0.20828968829E+02 -0.11676956209E+01 -0.13478656453E+02  0.24837142258E+02  0.51100000000E-03 0. -1.
        -11    1    3    3    0    0  0.83301973702E+01  0.10227640907E+02 -0.89326492572E+01  0.15930757978E+02  0.51100000000E-03 0.  1.
         12    1    3    3    0    0  0.55007923900E+01 -0.79762251491E+01  0.11821095400E+01  0.97609562805E+01  0.00000000000E+00 0. -1.
</event>
<event>
 7    1  0.9868142E-013  0.5052886E+02  0.7816164E-02  0.1300439E+00
        -11   -1    0    0    0    0  0.00000000000E+00  0.00000000000E+00  0.45593999997E+02  0.45594000000E+02  0.51100000000E-03 0. -1.
         11   -1    0    0    0    0 -0.00000000000E+00 -0.00000000000E+00 -0.45593999997E+02  0.45594000000E+02  0.51100000000E-03 0.  1.
    9900012    2    1    2    0    0  0.38447881289E+02  0.13065541099E+02 -0.20536307502E+01  0.50528864014E+02  0.30000012658E+02 0.  0.
        -12    1    1    2    0    0 -0.38447881289E+02 -0.13065541099E+02  0.20536307502E+01  0.40659135986E+02  0.00000000000E+00 0.  1.
         11    1    3    3    0    0 -0.29431474157E+00  0.55953329057E+01  0.56018135456E+01  0.79230478197E+01  0.51100000000E-03 0. -1.
        -11    1    3    3    0    0  0.28687511982E+02  0.38971540118E+01  0.84478434651E+00  0.28963335685E+02  0.51100000000E-03 0.  1.
        -12    1    3    3    0    0  0.10054684048E+02  0.35730541810E+01 -0.85002286423E+01  0.13642480510E+02  0.00000000000E+00 0.  1.
</event>
<event>
 7    1  0.9868142E-013  0.5052885E+02  0.7816164E-02  0.1300439E+00
        -11   -1    0    0    0    0  0.00000000000E+00  0.00000000000E+00  0.45593999997E+02  0.45594000000E+02  0.51100000000E-03 0.  1.
         11   -1    0    0    0    0 -0.00000000000E+00 -0.00000000000E+00 -0.45593999997E+02  0.45594000000E+02  0.51100000000E-03 0. -1.
    9900012    2    1    2    0    0 -0.94301401268E+01  0.37571075580E+01 -0.39371598017E+02  0.50528854283E+02  0.29999983078E+02 0.  0.
        -12    1    1    2    0    0  0.94301401268E+01 -0.37571075580E+01  0.39371598017E+02  0.40659145717E+02  0.00000000000E+00 0.  1.
         11    1    3    3    0    0  0.49112572095E+01  0.37710226808E+01 -0.26321697040E+02  0.27040207003E+02  0.51100000000E-03 0. -1.
        -11    1    3    3    0    0 -0.52411295408E+01  0.57269401390E+01 -0.92537393951E+01  0.12078864817E+02  0.51100000000E-03 0.  1.
         12    1    3    3    0    0 -0.91002677954E+01 -0.57408552618E+01 -0.37961615825E+01  0.11409782463E+02  0.00000000000E+00 0. -1.
</event>
<event>
 7    1  0.9868142E-013  0.5052886E+02  0.7816164E-02  0.1300439E+00
        -11   -1    0    0    0    0  0.00000000000E+00  0.00000000000E+00  0.45593999997E+02  0.45594000000E+02  0.51100000000E-03 0.  1.
         11   -1    0    0    0    0 -0.00000000000E+00 -0.00000000000E+00 -0.45593999997E+02  0.45594000000E+02  0.51100000000E-03 0. -1.
    9900012    2    1    2    0    0  0.40394507263E+01  0.40449324209E+02  0.83725853154E+00  0.50528855973E+02  0.29999988217E+02 0.  0.
        -12    1    1    2    0    0 -0.40394507263E+01 -0.40449324209E+02 -0.83725853154E+00  0.40659144027E+02  0.00000000000E+00 0.  1.
         11    1    3    3    0    0  0.39781377978E+01  0.37415502709E+02 -0.10267462270E+02  0.39002130775E+02  0.51100000000E-03 0. -1.
        -11    1    3    3    0    0  0.80050515628E-01  0.22148114650E+01  0.89825870772E+01  0.92519548621E+01  0.51100000000E-03 0.  1.
         12    1    3    3    0    0 -0.18737587153E-01  0.81901003519E+00  0.21221337248E+01  0.22747703359E+01  0.00000000000E+00 0. -1.
</event>
<event>
 7    1  0.9868142E-013  0.5052886E+02  0.7816164E-02  0.1300439E+00
        -11   -1    0    0    0    0  0.00000000000E+00  0.00000000000E+00  0.45593999997E+02  0.45594000000E+02  0.51100000000E-03 0. -1.
         11   -1    0    0    0    0 -0.00000000000E+00 -0.00000000000E+00 -0.45593999997E+02  0.45594000000E+02  0.51100000000E-03 0.  1.
    9900012    2    1    2    0    0  0.34221002465E+02  0.17452086810E+02  0.13323399454E+02  0.50528864289E+02  0.30000013493E+02 0.  0.
        -12    1    1    2    0    0 -0.34221002465E+02 -0.17452086810E+02 -0.13323399454E+02  0.40659135711E+02  0.00000000000E+00 0.  1.
         11    1    3    3    0    0  0.71862937933E+01 -0.28238523101E+01  0.68475075497E+01  0.10320141484E+02  0.51100000000E-03 0. -1.
        -11    1    3    3    0    0  0.12645704548E+02  0.75242861224E+01 -0.74264259110E+01  0.16482734216E+02  0.51100000000E-03 0.  1.
         12    1    3    3    0    0  0.14389004124E+02  0.12751652998E+02  0.13902317816E+02  0.23725988589E+02  0.00000000000E+00 0. -1.
</event>
<event>
 7    1  0.9868142E-013  0.5052886E+02  0.7816164E-02  0.1300439E+00
        -11   -1    0    0    0    0  0.00000000000E+00  0.00000000000E+00  0.45593999997E+02  0.45594000000E+02  0.51100000000E-03 0.  1.
         11   -1    0    0    0    0 -0.00000000000E+00 -0.00000000000E+00 -0.45593999997E+02  0.45594000000E+02  0.51100000000E-03 0. -1.
    9900012    2    1    2    0    0  0.32090514403E+02  0.23777696424E+02 -0.76148501013E+01  0.50528857068E+02  0.29999991545E+02 0.  0.
        -12    1    1    2    0    0 -0.32090514403E+02 -0.23777696424E+02  0.76148501013E+01  0.40659142932E+02  0.00000000000E+00 0.  1.
         11    1    3    3    0    0  0.32858156832E+02  0.24957347560E+02 -0.13545306356E+02  0.43428135951E+02  0.51100000000E-03 0. -1.
        -11    1    3    3    0    0 -0.10452965367E+01 -0.24180900541E+01  0.39067059057E+01  0.47119163463E+01  0.51100000000E-03 0.  1.
         12    1    3    3    0    0  0.27765410770E+00  0.12384389178E+01  0.20237503493E+01  0.23888047708E+01  0.00000000000E+00 0. -1.
</event>
<event>
 7    1  0.9868142E-013  0.5052886E+02  0.7816164E-02  0.1300439E+00
        -11   -1    0    0    0    0  0.00000000000E+00  0.00000000000E+00  0.45593999997E+02  0.45594000000E+02  0.51100000000E-03 0.  1.
         11   -1    0    0    0    0 -0.00000000000E+00 -0.00000000000E+00 -0.45593999997E+02  0.45594000000E+02  0.51100000000E-03 0. -1.
    9900012    2    1    2    0    0 -0.30146263488E+01 -0.24589065346E+02 -0.32240592385E+02  0.50528857068E+02  0.29999991544E+02 0.  0.
        -12    1    1    2    0    0  0.30146263488E+01  0.24589065346E+02  0.32240592385E+02  0.40659142932E+02  0.00000000000E+00 0.  1.
         11    1    3    3    0    0 -0.11592382766E+02 -0.14647578586E+02 -0.24345463083E+02  0.30686095704E+02  0.51100000000E-03 0. -1.
        -11    1    3    3    0    0  0.25004707143E+01 -0.53990607876E+01  0.29229864952E+01  0.66291825660E+01  0.51100000000E-03 0.  1.
         12    1    3    3    0    0  0.60772857025E+01 -0.45424259719E+01 -0.10818115798E+02  0.13213578798E+02  0.00000000000E+00 0. -1.
</event>
<event>
 7    1  0.9868142E-013  0.5052889E+02  0.7816164E-02  0.1300439E+00
        -11   -1    0    0    0    0  0.00000000000E+00  0.00000000000E+00  0.45593999997E+02  0.45594000000E+02  0.51100000000E-03 0.  1.
         11   -1    0    0    0    0 -0.00000000000E+00 -0.00000000000E+00 -0.45593999997E+02  0.45594000000E+02  0.51100000000E-03 0. -1.
    9900012    2    1    2    0    0  0.30055744704E+02  0.26175266056E+02 -0.80418245973E+01  0.50528889266E+02  0.30000089413E+02 0.  0.
        -12    1    1    2    0    0 -0.30055744704E+02 -0.26175266056E+02  0.80418245973E+01  0.40659110734E+02  0.00000000000E+00 0.  1.
         11    1    3    3    0    0  0.17166683164E+02  0.24464021783E+01  0.38626653167E+01  0.17765136591E+02  0.51100000000E-03 0. -1.
        -11    1    3    3    0    0  0.59313296609E+01  0.12872404708E+02 -0.13738928665E+02  0.19739241009E+02  0.51100000000E-03 0.  1.
        -12    1    3    3    0    0  0.69577318791E+01  0.10856459170E+02  0.18344387505E+01  0.13024511666E+02  0.00000000000E+00 0.  1.
</event>
<event>
 7    1  0.9868142E-013  0.5052887E+02  0.7816164E-02  0.1300439E+00
        -11   -1    0    0    0    0  0.00000000000E+00  0.00000000000E+00  0.45593999997E+02  0.45594000000E+02  0.51100000000E-03 0.  1.
         11   -1    0    0    0    0 -0.00000000000E+00 -0.00000000000E+00 -0.45593999997E+02  0.45594000000E+02  0.51100000000E-03 0. -1.
    9900012    2    1    2    0    0  0.22052524696E+02  0.78620419257E+01 -0.33242134743E+02  0.50528867312E+02  0.30000022682E+02 0.  0.
        -12    1    1    2    0    0 -0.22052524696E+02 -0.78620419257E+01  0.33242134743E+02  0.40659132688E+02  0.00000000000E+00 0.  1.
         11    1    3    3    0    0  0.26958356479E+01  0.10483521192E+02 -0.38647909242E+01  0.11493839896E+02  0.51100000000E-03 0. -1.
        -11    1    3    3    0    0  0.16292744008E+02 -0.74748364224E+00 -0.31050031885E+02  0.35073019822E+02  0.51100000000E-03 0.  1.
        -12    1    3    3    0    0  0.30639450396E+01 -0.18739956236E+01  0.16726880669E+01  0.39620075937E+01  0.00000000000E+00 0.  1.
</event>
<event>
 7    1  0.9868142E-013  0.5052887E+02  0.7816164E-02  0.1300439E+00
        -11   -1    0    0    0    0  0.00000000000E+00  0.00000000000E+00  0.45593999997E+02  0.45594000000E+02  0.51100000000E-03 0.  1.
         11   -1    0    0    0    0 -0.00000000000E+00 -0.00000000000E+00 -0.45593999997E+02  0.45594000000E+02  0.51100000000E-03 0. -1.
    9900012    2    1    2    0    0  0.11705885680E+02  0.35515980747E+02 -0.15960969388E+02  0.50528865826E+02  0.30000018165E+02 0.  0.
        -12    1    1    2    0    0 -0.11705885680E+02 -0.35515980747E+02  0.15960969388E+02  0.40659134174E+02  0.00000000000E+00 0.  1.
         11    1    3    3    0    0  0.23546469305E+01  0.62407318844E+01 -0.85220426249E+01  0.10822028802E+02  0.51100000000E-03 0. -1.
        -11    1    3    3    0    0  0.15720663590E+02  0.23682673868E+02  0.56941070018E-02  0.28425487470E+02  0.51100000000E-03 0.  1.
        -12    1    3    3    0    0 -0.63694248405E+01  0.55925749948E+01 -0.74446208697E+01  0.11281349554E+02  0.00000000000E+00 0.  1.
</event>
<event>
 7    1  0.1056112E-012  0.5052886E+02  0.7816164E-02  0.1300439E+00
        -11   -1    0    0    0    0  0.00000000000E+00  0.00000000000E+00  0.45593999997E+02  0.45594000000E+02  0.51100000000E-03 0. -1.
         11   -1    0    0    0    0 -0.00000000000E+00 -0.00000000000E+00 -0.45593999997E+02  0.45594000000E+02  0.51100000000E-03 0.  1.
    9900012    2    1    2    0    0 -0.25599651205E+02 -0.70788505924E+01  0.30784954422E+02  0.50528859745E+02  0.29999999681E+02 0.  0.
        -12    1    1    2    0    0  0.25599651205E+02  0.70788505924E+01 -0.30784954422E+02  0.40659140255E+02  0.00000000000E+00 0.  1.
         11    1    3    3    0    0 -0.13522802455E+02 -0.19862497947E+01  0.18179687416E+02  0.22744502837E+02  0.51100000000E-03 0. -1.
        -11    1    3    3    0    0 -0.11675199303E+02 -0.64895774744E+01 -0.16464848102E+01  0.13458670330E+02  0.51100000000E-03 0.  1.
        -12    1    3    3    0    0 -0.40164944694E+00  0.13969766767E+01  0.14251751816E+02  0.14325686578E+02  0.00000000000E+00 0.  1.
</event>
<event>
 7    1  0.9868142E-013  0.5052885E+02  0.7816164E-02  0.1300439E+00
        -11   -1    0    0    0    0  0.00000000000E+00  0.00000000000E+00  0.45593999997E+02  0.45594000000E+02  0.51100000000E-03 0.  1.
         11   -1    0    0    0    0 -0.00000000000E+00 -0.00000000000E+00 -0.45593999997E+02  0.45594000000E+02  0.51100000000E-03 0. -1.
    9900012    2    1    2    0    0 -0.32810310272E+02 -0.21739599749E+02 -0.10199980235E+02  0.50528852761E+02  0.29999978452E+02 0.  0.
        -12    1    1    2    0    0  0.32810310272E+02  0.21739599749E+02  0.10199980235E+02  0.40659147239E+02  0.00000000000E+00 0.  1.
         11    1    3    3    0    0 -0.13087075627E+02 -0.17346721003E+00  0.81930786847E+01  0.15441119711E+02  0.51100000000E-03 0. -1.
        -11    1    3    3    0    0 -0.67312709745E+01 -0.11649755757E+02 -0.96016711596E+01  0.16529334755E+02  0.51100000000E-03 0.  1.
         12    1    3    3    0    0 -0.12991963671E+02 -0.99163767815E+01 -0.87913877603E+01  0.18558398294E+02  0.00000000000E+00 0. -1.
</event>
<event>
 7    1  0.9868142E-013  0.5052886E+02  0.7816164E-02  0.1300439E+00
        -11   -1    0    0    0    0  0.00000000000E+00  0.00000000000E+00  0.45593999997E+02  0.45594000000E+02  0.51100000000E-03 0.  1.
         11   -1    0    0    0    0 -0.00000000000E+00 -0.00000000000E+00 -0.45593999997E+02  0.45594000000E+02  0.51100000000E-03 0. -1.
    9900012    2    1    2    0    0 -0.81929546340E+01 -0.16850840670E+02 -0.36084491991E+02  0.50528857127E+02  0.29999991723E+02 0.  0.
        -12    1    1    2    0    0  0.81929546340E+01  0.16850840670E+02  0.36084491991E+02  0.40659142873E+02  0.00000000000E+00 0.  1.
         11    1    3    3    0    0 -0.60122086913E+01 -0.65566119786E+01 -0.27902234067E+02  0.29286011681E+02  0.51100000000E-03 0. -1.
        -11    1    3    3    0    0 -0.49492684832E+01 -0.38295352022E+01  0.38202691100E+01  0.73317838701E+01  0.51100000000E-03 0.  1.
         12    1    3    3    0    0  0.27685225405E+01 -0.64646934889E+01 -0.12002527034E+02  0.13911061576E+02  0.00000000000E+00 0. -1.
</event>
<event>
 7    1  0.9868142E-013  0.5052886E+02  0.7816164E-02  0.1300439E+00
        -11   -1    0    0    0    0  0.00000000000E+00  0.00000000000E+00  0.45593999997E+02  0.45594000000E+02  0.51100000000E-03 0. -1.
         11   -1    0    0    0    0 -0.00000000000E+00 -0.00000000000E+00 -0.45593999997E+02  0.45594000000E+02  0.51100000000E-03 0.  1.
    9900012    2    1    2    0    0 -0.51791932698E+01  0.15651307423E+02  0.37166895199E+02  0.50528861227E+02  0.30000004186E+02 0.  0.
        -12    1    1    2    0    0  0.51791932698E+01 -0.15651307423E+02 -0.37166895199E+02  0.40659138773E+02  0.00000000000E+00 0.  1.
         11    1    3    3    0    0 -0.57086446257E+01  0.45090971570E+01  0.51100361005E+01  0.88900534219E+01  0.51100000000E-03 0. -1.
        -11    1    3    3    0    0  0.80435807309E+01  0.60489668016E+01  0.30887963398E+02  0.32486235139E+02  0.51100000000E-03 0.  1.
        -12    1    3    3    0    0 -0.75141293750E+01  0.50932434648E+01  0.11688957004E+01  0.91525726664E+01  0.00000000000E+00 0.  1.
</event>
<event>
 7    1  0.9868142E-013  0.5052885E+02  0.7816164E-02  0.1300439E+00
        -11   -1    0    0    0    0  0.00000000000E+00  0.00000000000E+00  0.45593999997E+02  0.45594000000E+02  0.51100000000E-03 0.  1.
         11   -1    0    0    0    0 -0.00000000000E+00 -0.00000000000E+00 -0.45593999997E+02  0.45594000000E+02  0.51100000000E-03 0. -1.
    9900012    2    1    2    0    0 -0.37353998154E+02  0.31234902319E+01 -0.15750838887E+02  0.50528852260E+02  0.29999976928E+02 0.  0.
        -12    1    1    2    0    0  0.37353998154E+02 -0.31234902319E+01  0.15750838887E+02  0.40659147740E+02  0.00000000000E+00 0.  1.
         11    1    3    3    0    0 -0.25912499680E+01  0.60902568669E+01 -0.39434401652E+00  0.66303327643E+01  0.51100000000E-03 0. -1.
        -11    1    3    3    0    0 -0.53892967199E+01 -0.94521048412E+01 -0.58365762564E+01  0.12347162740E+02  0.51100000000E-03 0.  1.
        -12    1    3    3    0    0 -0.29373451466E+02  0.64853382062E+01 -0.95199186140E+01  0.31551356756E+02  0.00000000000E+00 0.  1.
</event>
<event>
 7    1  0.9868142E-013  0.5052886E+02  0.7816164E-02  0.1300439E+00
        -11   -1    0    0    0    0  0.00000000000E+00  0.00000000000E+00  0.45593999997E+02  0.45594000000E+02  0.51100000000E-03 0.  1.
         11   -1    0    0    0    0 -0.00000000000E+00 -0.00000000000E+00 -0.45593999997E+02  0.45594000000E+02  0.51100000000E-03 0. -1.
    9900012    2    1    2    0    0 -0.49996968407E+01 -0.35065366244E+02 -0.19964685478E+02  0.50528861487E+02  0.30000004977E+02 0.  0.
        -12    1    1    2    0    0  0.49996968407E+01  0.35065366244E+02  0.19964685478E+02  0.40659138513E+02  0.00000000000E+00 0.  1.
         11    1    3    3    0    0 -0.32216654276E+01 -0.29440972670E+02 -0.16611548358E+02  0.33957231027E+02  0.51100000000E-03 0. -1.
        -11    1    3    3    0    0  0.30126415453E+01  0.42107338819E+01 -0.17886005551E+00  0.51805675447E+01  0.51100000000E-03 0.  1.
        -12    1    3    3    0    0 -0.47906729584E+01 -0.98351274560E+01 -0.31742770643E+01  0.11391062916E+02  0.00000000000E+00 0.  1.
</event>
<event>
 7    1  0.9868142E-013  0.5052885E+02  0.7816164E-02  0.1300439E+00
        -11   -1    0    0    0    0  0.00000000000E+00  0.00000000000E+00  0.45593999997E+02  0.45594000000E+02  0.51100000000E-03 0.  1.
         11   -1    0    0    0    0 -0.00000000000E+00 -0.00000000000E+00 -0.45593999997E+02  0.45594000000E+02  0.51100000000E-03 0. -1.
    9900012    2    1    2    0    0 -0.98173234893E+01  0.18997745562E+02 -0.34581386605E+02  0.50528850028E+02  0.29999970145E+02 0.  0.
        -12    1    1    2    0    0  0.98173234893E+01 -0.18997745562E+02  0.34581386605E+02  0.40659149972E+02  0.00000000000E+00 0.  1.
         11    1    3    3    0    0 -0.15805236398E+02  0.19037107119E+02 -0.26869472431E+02  0.36526503994E+02  0.51100000000E-03 0. -1.
        -11    1    3    3    0    0  0.30183263112E+01 -0.34728923268E+01  0.49073882219E+00  0.46273210054E+01  0.51100000000E-03 0.  1.
         12    1    3    3    0    0  0.29695865972E+01  0.34335307691E+01 -0.82026529967E+01  0.93750250285E+01  0.00000000000E+00 0. -1.
</event>
<event>
 7    1  0.9868142E-013  0.5052886E+02  0.7816164E-02  0.1300439E+00
        -11   -1    0    0    0    0  0.00000000000E+00  0.00000000000E+00  0.45593999997E+02  0.45594000000E+02  0.51100000000E-03 0.  1.
         11   -1    0    0    0    0 -0.00000000000E+00 -0.00000000000E+00 -0.45593999997E+02  0.45594000000E+02  0.51100000000E-03 0. -1.
    9900012    2    1    2    0    0  0.19618423946E+02 -0.31518917375E+02 -0.16578332711E+02  0.50528858026E+02  0.29999994455E+02 0.  0.
        -12    1    1    2    0    0 -0.19618423946E+02  0.31518917375E+02  0.16578332711E+02  0.40659141974E+02  0.00000000000E+00 0.  1.
         11    1    3    3    0    0 -0.45255825931E+01 -0.12042589341E+02 -0.75776201916E+01  0.14930679284E+02  0.51100000000E-03 0. -1.
        -11    1    3    3    0    0  0.21210710638E+02 -0.13109219269E+02 -0.99180897524E+00  0.24954549904E+02  0.51100000000E-03 0.  1.
        -12    1    3    3    0    0  0.29332959013E+01 -0.63671087649E+01 -0.80089035440E+01  0.10643628838E+02  0.00000000000E+00 0.  1.
</event>
<event>
 7    1  0.9868142E-013  0.5052886E+02  0.7816164E-02  0.1300439E+00
        -11   -1    0    0    0    0  0.00000000000E+00  0.00000000000E+00  0.45593999997E+02  0.45594000000E+02  0.51100000000E-03 0.  1.
         11   -1    0    0    0    0 -0.00000000000E+00 -0.00000000000E+00 -0.45593999997E+02  0.45594000000E+02  0.51100000000E-03 0. -1.
    9900012    2    1    2    0    0 -0.24424370606E+02 -0.12967290010E+02  0.29807129547E+02  0.50528862509E+02  0.30000008082E+02 0.  0.
        -12    1    1    2    0    0  0.24424370606E+02  0.12967290010E+02 -0.29807129547E+02  0.40659137491E+02  0.00000000000E+00 0.  1.
         11    1    3    3    0    0 -0.27370372634E+02 -0.12652485217E+02  0.23817529921E+02  0.38425218439E+02  0.51100000000E-03 0. -1.
        -11    1    3    3    0    0  0.55497534156E+01 -0.15163178608E+00 -0.20367364778E-01  0.55518618736E+01  0.51100000000E-03 0.  1.
        -12    1    3    3    0    0 -0.26037513881E+01 -0.16317300663E+00  0.60099669906E+01  0.65517821964E+01  0.00000000000E+00 0.  1.
</event>
<event>
 7    1  0.9868142E-013  0.5052886E+02  0.7816164E-02  0.1300439E+00
        -11   -1    0    0    0    0  0.00000000000E+00  0.00000000000E+00  0.45593999997E+02  0.45594000000E+02  0.51100000000E-03 0.  1.
         11   -1    0    0    0    0 -0.00000000000E+00 -0.00000000000E+00 -0.45593999997E+02  0.45594000000E+02  0.51100000000E-03 0. -1.
    9900012    2    1    2    0    0  0.22137974145E+02 -0.11356600704E+02 -0.32157473598E+02  0.50528863425E+02  0.30000010868E+02 0.  0.
        -12    1    1    2    0    0 -0.22137974145E+02  0.11356600704E+02  0.32157473598E+02  0.40659136575E+02  0.00000000000E+00 0.  1.
         11    1    3    3    0    0  0.25059441891E+02 -0.65746903152E+01 -0.34132116346E+02  0.42850945697E+02  0.51100000000E-03 0. -1.
        -11    1    3    3    0    0  0.56437525828E+00 -0.28431215547E+01  0.22650446083E+01  0.36786256871E+01  0.51100000000E-03 0.  1.
         12    1    3    3    0    0 -0.34858430044E+01 -0.19387888337E+01 -0.29040186118E+00  0.39992920416E+01  0.00000000000E+00 0. -1.
</event>
<event>
 7    1  0.9868142E-013  0.5052886E+02  0.7816164E-02  0.1300439E+00
        -11   -1    0    0    0    0  0.00000000000E+00  0.00000000000E+00  0.45593999997E+02  0.45594000000E+02  0.51100000000E-03 0.  1.
         11   -1    0    0    0    0 -0.00000000000E+00 -0.00000000000E+00 -0.45593999997E+02  0.45594000000E+02  0.51100000000E-03 0. -1.
    9900012    2    1    2    0    0  0.22751260519E+02  0.15370711843E+02 -0.29988114852E+02  0.50528859944E+02  0.30000000285E+02 0.  0.
        -12    1    1    2    0    0 -0.22751260519E+02 -0.15370711843E+02  0.29988114852E+02  0.40659140056E+02  0.00000000000E+00 0.  1.
         11    1    3    3    0    0 -0.23570449265E+00  0.10624401780E+02 -0.19030277995E+02  0.21796443531E+02  0.51100000000E-03 0. -1.
        -11    1    3    3    0    0  0.99149688950E+01  0.25887248508E+01 -0.11587477041E+02  0.15468604623E+02  0.51100000000E-03 0.  1.
         12    1    3    3    0    0  0.13071996117E+02  0.21575852126E+01  0.62964018432E+00  0.13263811790E+02  0.00000000000E+00 0. -1.
</event>
<event>
 7    1  0.9868142E-013  0.5052887E+02  0.7816164E-02  0.1300439E+00
        -11   -1    0    0    0    0  0.00000000000E+00  0.00000000000E+00  0.45593999997E+02  0.45594000000E+02  0.51100000000E-03 0. -1.
         11   -1    0    0    0    0 -0.00000000000E+00 -0.00000000000E+00 -0.45593999997E+02  0.45594000000E+02  0.51100000000E-03 0.  1.
    9900012    2    1    2    0    0 -0.15097093720E+02 -0.33714398521E+02  0.16987697592E+02  0.50528870940E+02  0.30000033709E+02 0.  0.
        -12    1    1    2    0    0  0.15097093720E+02  0.33714398521E+02 -0.16987697592E+02  0.40659129060E+02  0.00000000000E+00 0.  1.
         11    1    3    3    0    0  0.10666565973E+01 -0.51914448827E+01  0.11105600380E+02  0.12305414107E+02  0.51100000000E-03 0. -1.
        -11    1    3    3    0    0 -0.99978035713E+01 -0.65470820637E+01 -0.49791300932E+01  0.12946509049E+02  0.51100000000E-03 0.  1.
        -12    1    3    3    0    0 -0.61659467457E+01 -0.21975871575E+02  0.10861227305E+02  0.25276947785E+02  0.00000000000E+00 0.  1.
</event>
<event>
 7    1  0.9868142E-013  0.5052886E+02  0.7816164E-02  0.1300439E+00
        -11   -1    0    0    0    0  0.00000000000E+00  0.00000000000E+00  0.45593999997E+02  0.45594000000E+02  0.51100000000E-03 0. -1.
         11   -1    0    0    0    0 -0.00000000000E+00 -0.00000000000E+00 -0.45593999997E+02  0.45594000000E+02  0.51100000000E-03 0.  1.
    9900012    2    1    2    0    0  0.27462173340E+02  0.10240009911E+02  0.28180436925E+02  0.50528858435E+02  0.29999995698E+02 0.  0.
        -12    1    1    2    0    0 -0.27462173340E+02 -0.10240009911E+02 -0.28180436925E+02  0.40659141565E+02  0.00000000000E+00 0.  1.
         11    1    3    3    0    0 -0.38030987693E+01  0.80954319994E+01  0.95999505669E+01  0.13120923392E+02  0.51100000000E-03 0. -1.
        -11    1    3    3    0    0  0.22537796797E+02  0.21203936725E+01  0.87687559425E+01  0.24276314276E+02  0.51100000000E-03 0.  1.
         12    1    3    3    0    0  0.87274753129E+01  0.24184238850E-01  0.98117304160E+01  0.13131620767E+02  0.00000000000E+00 0. -1.
</event>
<event>
 7    1  0.9868142E-013  0.5052885E+02  0.7816164E-02  0.1300439E+00
        -11   -1    0    0    0    0  0.00000000000E+00  0.00000000000E+00  0.45593999997E+02  0.45594000000E+02  0.51100000000E-03 0. -1.
         11   -1    0    0    0    0 -0.00000000000E+00 -0.00000000000E+00 -0.45593999997E+02  0.45594000000E+02  0.51100000000E-03 0.  1.
    9900012    2    1    2    0    0  0.10833589310E+02  0.35560549573E+02  0.16469572482E+02  0.50528853907E+02  0.29999981936E+02 0.  0.
        -12    1    1    2    0    0 -0.10833589310E+02 -0.35560549573E+02 -0.16469572482E+02  0.40659146093E+02  0.00000000000E+00 0.  1.
         11    1    3    3    0    0  0.93588470501E+01  0.12126006795E+02  0.10442897885E+02  0.18538667034E+02  0.51100000000E-03 0. -1.
        -11    1    3    3    0    0 -0.96078209113E+01  0.88845985681E+01  0.17067034947E+01  0.13196937200E+02  0.51100000000E-03 0.  1.
        -12    1    3    3    0    0  0.11082563171E+02  0.14549944209E+02  0.43199711026E+01  0.18793249673E+02  0.00000000000E+00 0.  1.
</event>
<event>
 7    1  0.9868142E-013  0.5052877E+02  0.7816164E-02  0.1300439E+00
        -11   -1    0    0    0    0  0.00000000000E+00  0.00000000000E+00  0.45593999997E+02  0.45594000000E+02  0.51100000000E-03 0.  1.
         11   -1    0    0    0    0 -0.00000000000E+00 -0.00000000000E+00 -0.45593999997E+02  0.45594000000E+02  0.51100000000E-03 0. -1.
    9900012    2    1    2    0    0 -0.51634200308E+01  0.22472443493E+02 -0.33488827891E+02  0.50528767143E+02  0.29999718207E+02 0.  0.
        -12    1    1    2    0    0  0.51634200308E+01 -0.22472443493E+02  0.33488827891E+02  0.40659232857E+02  0.00000000000E+00 0.  1.
         11    1    3    3    0    0 -0.97089550756E+01  0.73368946473E+01 -0.16790745857E+02  0.20736995405E+02  0.51100000000E-03 0. -1.
        -11    1    3    3    0    0  0.86778904096E+01  0.13251060715E+02 -0.40446902942E+01  0.16347963539E+02  0.51100000000E-03 0.  1.
        -12    1    3    3    0    0 -0.41323553647E+01  0.18844881307E+01 -0.12653391740E+02  0.13443808199E+02  0.00000000000E+00 0.  1.
</event>
<event>
 7    1  0.9868142E-013  0.5052885E+02  0.7816164E-02  0.1300439E+00
        -11   -1    0    0    0    0  0.00000000000E+00  0.00000000000E+00  0.45593999997E+02  0.45594000000E+02  0.51100000000E-03 0.  1.
         11   -1    0    0    0    0 -0.00000000000E+00 -0.00000000000E+00 -0.45593999997E+02  0.45594000000E+02  0.51100000000E-03 0. -1.
    9900012    2    1    2    0    0  0.64179292823E+01 -0.27222106139E+02 -0.29511589625E+02  0.50528846035E+02  0.29999958009E+02 0.  0.
        -12    1    1    2    0    0 -0.64179292823E+01  0.27222106139E+02  0.29511589625E+02  0.40659153965E+02  0.00000000000E+00 0.  1.
         11    1    3    3    0    0  0.77097249374E+00 -0.48058975410E+01 -0.97449120288E+01  0.10892858232E+02  0.51100000000E-03 0. -1.
        -11    1    3    3    0    0  0.41066212552E+01 -0.27842240613E+02 -0.13529393663E+02  0.31226578321E+02  0.51100000000E-03 0.  1.
        -12    1    3    3    0    0  0.15403355334E+01  0.54260320145E+01 -0.62372839331E+01  0.84094094822E+01  0.00000000000E+00 0.  1.
</event>
<event>
 7    1  0.9868142E-013  0.5052886E+02  0.7816164E-02  0.1300439E+00
        -11   -1    0    0    0    0  0.00000000000E+00  0.00000000000E+00  0.45593999997E+02  0.45594000000E+02  0.51100000000E-03 0.  1.
         11   -1    0    0    0    0 -0.00000000000E+00 -0.00000000000E+00 -0.45593999997E+02  0.45594000000E+02  0.51100000000E-03 0. -1.
    9900012    2    1    2    0    0 -0.28982996798E+02  0.24955879700E+02 -0.13796941914E+02  0.50528860300E+02  0.30000001366E+02 0.  0.
        -12    1    1    2    0    0  0.28982996798E+02 -0.24955879700E+02  0.13796941914E+02  0.40659139700E+02  0.00000000000E+00 0.  1.
         11    1    3    3    0    0  0.26311872659E+01  0.77656589945E+01 -0.47251812489E+01  0.94634002422E+01  0.51100000000E-03 0. -1.
        -11    1    3    3    0    0 -0.21411513930E+02  0.12714849273E+02  0.24692205413E+01  0.25024335579E+02  0.51100000000E-03 0.  1.
         12    1    3    3    0    0 -0.10202670134E+02  0.44753714318E+01 -0.11540981207E+02  0.16041124478E+02  0.00000000000E+00 0. -1.
</event>
<event>
 7    1  0.9868142E-013  0.5052882E+02  0.7816164E-02  0.1300439E+00
        -11   -1    0    0    0    0  0.00000000000E+00  0.00000000000E+00  0.45593999997E+02  0.45594000000E+02  0.51100000000E-03 0.  1.
         11   -1    0    0    0    0 -0.00000000000E+00 -0.00000000000E+00 -0.45593999997E+02  0.45594000000E+02  0.51100000000E-03 0. -1.
    9900012    2    1    2    0    0  0.29643930315E+02  0.20556133582E+02 -0.18757712431E+02  0.50528818897E+02  0.29999875518E+02 0.  0.
        -12    1    1    2    0    0 -0.29643930315E+02 -0.20556133582E+02  0.18757712431E+02  0.40659181103E+02  0.00000000000E+00 0.  1.
         11    1    3    3    0    0  0.12820010991E+02  0.21818756317E+02 -0.13404046949E+02  0.28637026450E+02  0.51100000000E-03 0. -1.
        -11    1    3    3    0    0  0.60651613616E+01 -0.49473514548E+01  0.23307513636E+01  0.81666927785E+01  0.51100000000E-03 0.  1.
        -12    1    3    3    0    0  0.10758757962E+02  0.36847287195E+01 -0.76844168458E+01  0.13725099668E+02  0.00000000000E+00 0.  1.
</event>
<event>
 7    1  0.9868142E-013  0.5052887E+02  0.7816164E-02  0.1300439E+00
        -11   -1    0    0    0    0  0.00000000000E+00  0.00000000000E+00  0.45593999997E+02  0.45594000000E+02  0.51100000000E-03 0.  1.
         11   -1    0    0    0    0 -0.00000000000E+00 -0.00000000000E+00 -0.45593999997E+02  0.45594000000E+02  0.51100000000E-03 0. -1.
    9900012    2    1    2    0    0  0.13410289519E+02 -0.84863794358E+01 -0.37434076312E+02  0.50528873469E+02  0.30000041397E+02 0.  0.
        -12    1    1    2    0    0 -0.13410289519E+02  0.84863794358E+01  0.37434076312E+02  0.40659126531E+02  0.00000000000E+00 0.  1.
         11    1    3    3    0    0 -0.14229781456E+01 -0.34146736191E+01 -0.22090921587E+00  0.37058958257E+01  0.51100000000E-03 0.  1.
        -11    1    3    3    0    0 -0.29637116359E+01 -0.23413805558E+01 -0.24481552172E+02  0.24771193887E+02  0.51100000000E-03 0. -1.
        -12    1    3    3    0    0  0.17796979301E+02 -0.27303252609E+01 -0.12731614924E+02  0.22051783756E+02  0.00000000000E+00 0.  1.
</event>
<event>
 7    1  0.9868142E-013  0.5052887E+02  0.7816164E-02  0.1300439E+00
        -11   -1    0    0    0    0  0.00000000000E+00  0.00000000000E+00  0.45593999997E+02  0.45594000000E+02  0.51100000000E-03 0.  1.
         11   -1    0    0    0    0 -0.00000000000E+00 -0.00000000000E+00 -0.45593999997E+02  0.45594000000E+02  0.51100000000E-03 0. -1.
    9900012    2    1    2    0    0  0.20613554359E+02  0.34400129385E+02 -0.66990708662E+01  0.50528867256E+02  0.30000022511E+02 0.  0.
        -12    1    1    2    0    0 -0.20613554359E+02 -0.34400129385E+02  0.66990708662E+01  0.40659132744E+02  0.00000000000E+00 0.  1.
         11    1    3    3    0    0  0.18120963556E+02  0.12510913064E+02 -0.93571176361E+01  0.23925883821E+02  0.51100000000E-03 0. -1.
        -11    1    3    3    0    0 -0.36430243713E+01  0.48597320162E+01 -0.40487138347E+01  0.72993633843E+01  0.51100000000E-03 0.  1.
         12    1    3    3    0    0  0.61356151745E+01  0.17029484305E+02  0.67067606046E+01  0.19303620051E+02  0.00000000000E+00 0. -1.
</event>
<event>
 7    1  0.9868142E-013  0.5052887E+02  0.7816164E-02  0.1300439E+00
        -11   -1    0    0    0    0  0.00000000000E+00  0.00000000000E+00  0.45593999997E+02  0.45594000000E+02  0.51100000000E-03 0. -1.
         11   -1    0    0    0    0 -0.00000000000E+00 -0.00000000000E+00 -0.45593999997E+02  0.45594000000E+02  0.51100000000E-03 0.  1.
    9900012    2    1    2    0    0 -0.35229620079E+02  0.99677658817E+01  0.17682826971E+02  0.50528869940E+02  0.30000030668E+02 0.  0.
        -12    1    1    2    0    0  0.35229620079E+02 -0.99677658817E+01 -0.17682826971E+02  0.40659130060E+02  0.00000000000E+00 0.  1.
         11    1    3    3    0    0 -0.13961093444E+02  0.42791130281E+01 -0.14507656938E+01  0.14674047152E+02  0.51100000000E-03 0. -1.
        -11    1    3    3    0    0 -0.46377563507E+01  0.57369918989E+01  0.17683855966E+02  0.19160913916E+02  0.51100000000E-03 0.  1.
        -12    1    3    3    0    0 -0.16630770285E+02 -0.48339045338E-01  0.14497366986E+01  0.16693908872E+02  0.00000000000E+00 0.  1.
</event>
<event>
 7    1  0.9868142E-013  0.5052885E+02  0.7816164E-02  0.1300439E+00
        -11   -1    0    0    0    0  0.00000000000E+00  0.00000000000E+00  0.45593999997E+02  0.45594000000E+02  0.51100000000E-03 0.  1.
         11   -1    0    0    0    0 -0.00000000000E+00 -0.00000000000E+00 -0.45593999997E+02  0.45594000000E+02  0.51100000000E-03 0. -1.
    9900012    2    1    2    0    0 -0.22185760679E+02  0.24544395986E+02 -0.23633267355E+02  0.50528847560E+02  0.29999962645E+02 0.  0.
        -12    1    1    2    0    0  0.22185760679E+02 -0.24544395986E+02  0.23633267355E+02  0.40659152440E+02  0.00000000000E+00 0.  1.
         11    1    3    3    0    0 -0.11504935932E+02  0.76552592134E+01 -0.25619975729E+02  0.29109271737E+02  0.51100000000E-03 0. -1.
        -11    1    3    3    0    0 -0.25470167531E+01  0.10186593462E+02  0.27440144114E+01  0.10852815121E+02  0.51100000000E-03 0.  1.
         12    1    3    3    0    0 -0.81338079943E+01  0.67025433107E+01 -0.75730603767E+00  0.10566760703E+02  0.00000000000E+00 0. -1.
</event>
<event>
 7    1  0.9868142E-013  0.5052887E+02  0.7816164E-02  0.1300439E+00
        -11   -1    0    0    0    0  0.00000000000E+00  0.00000000000E+00  0.45593999997E+02  0.45594000000E+02  0.51100000000E-03 0.  1.
         11   -1    0    0    0    0 -0.00000000000E+00 -0.00000000000E+00 -0.45593999997E+02  0.45594000000E+02  0.51100000000E-03 0. -1.
    9900012    2    1    2    0    0 -0.86299412848E+01 -0.35745261382E+01 -0.39571603321E+02  0.50528869253E+02  0.30000028583E+02 0.  0.
        -12    1    1    2    0    0  0.86299412848E+01  0.35745261382E+01  0.39571603321E+02  0.40659130747E+02  0.00000000000E+00 0.  1.
         11    1    3    3    0    0 -0.30217606804E+01 -0.51931046827E+01 -0.30768172196E+02  0.31349318882E+02  0.51100000000E-03 0. -1.
        -11    1    3    3    0    0 -0.99470234780E+01  0.52122095693E+01 -0.45334659748E+01  0.12110438418E+02  0.51100000000E-03 0.  1.
        -12    1    3    3    0    0  0.43388428736E+01 -0.35936310248E+01 -0.42699651502E+01  0.70691119533E+01  0.00000000000E+00 0.  1.
</event>
<event>
 7    1  0.9868142E-013  0.5052888E+02  0.7816164E-02  0.1300439E+00
        -11   -1    0    0    0    0  0.00000000000E+00  0.00000000000E+00  0.45593999997E+02  0.45594000000E+02  0.51100000000E-03 0.  1.
         11   -1    0    0    0    0 -0.00000000000E+00 -0.00000000000E+00 -0.45593999997E+02  0.45594000000E+02  0.51100000000E-03 0. -1.
    9900012    2    1    2    0    0  0.10356189321E+02  0.15938804644E+02 -0.35942568460E+02  0.50528875830E+02  0.30000048574E+02 0.  0.
        -12    1    1    2    0    0 -0.10356189321E+02 -0.15938804644E+02  0.35942568460E+02  0.40659124170E+02  0.00000000000E+00 0.  1.
         11    1    3    3    0    0  0.61105791211E+00  0.40345049029E+01 -0.15289258372E+02  0.15824412893E+02  0.51100000000E-03 0. -1.
        -11    1    3    3    0    0  0.14240019615E+02 -0.49847654234E+00 -0.76130499864E+01  0.16155035371E+02  0.51100000000E-03 0.  1.
        -12    1    3    3    0    0 -0.44948882052E+01  0.12402776284E+02 -0.13040260101E+02  0.18549427566E+02  0.00000000000E+00 0.  1.
</event>
<event>
 7    1  0.9868142E-013  0.5052886E+02  0.7816164E-02  0.1300439E+00
        -11   -1    0    0    0    0  0.00000000000E+00  0.00000000000E+00  0.45593999997E+02  0.45594000000E+02  0.51100000000E-03 0. -1.
         11   -1    0    0    0    0 -0.00000000000E+00 -0.00000000000E+00 -0.45593999997E+02  0.45594000000E+02  0.51100000000E-03 0.  1.
    9900012    2    1    2    0    0 -0.12860450651E+02 -0.17034165882E+02  0.34606528544E+02  0.50528858149E+02  0.29999994829E+02 0.  0.
        -12    1    1    2    0    0  0.12860450651E+02  0.17034165882E+02 -0.34606528544E+02  0.40659141851E+02  0.00000000000E+00 0.  1.
         11    1    3    3    0    0  0.66825115143E+01 -0.39700191937E+01  0.17591404886E+02  0.19232122573E+02  0.51100000000E-03 0. -1.
        -11    1    3    3    0    0 -0.10673814935E+02 -0.26677721877E+01  0.13047153419E+02  0.17066796604E+02  0.51100000000E-03 0.  1.
         12    1    3    3    0    0 -0.88691472298E+01 -0.10396374500E+02  0.39679702387E+01  0.14229938972E+02  0.00000000000E+00 0. -1.
</event>
<event>
 7    1  0.1106253E-012  0.5052892E+02  0.7816164E-02  0.1300439E+00
        -11   -1    0    0    0    0  0.00000000000E+00  0.00000000000E+00  0.45593999997E+02  0.45594000000E+02  0.51100000000E-03 0.  1.
         11   -1    0    0    0    0 -0.00000000000E+00 -0.00000000000E+00 -0.45593999997E+02  0.45594000000E+02  0.51100000000E-03 0. -1.
    9900012    2    1    2    0    0  0.17599327895E+02 -0.31726218197E+02 -0.18354062512E+02  0.50528918922E+02  0.30000179555E+02 0.  0.
        -12    1    1    2    0    0 -0.17599327895E+02  0.31726218197E+02  0.18354062512E+02  0.40659081078E+02  0.00000000000E+00 0.  1.
         11    1    3    3    0    0  0.13289017919E+02 -0.14031564483E+02 -0.12331741952E+01  0.19365007563E+02  0.51100000000E-03 0. -1.
        -11    1    3    3    0    0 -0.36985833156E+01 -0.16752649750E+02 -0.78210486451E+01  0.18854696878E+02  0.51100000000E-03 0.  1.
        -12    1    3    3    0    0  0.80088932913E+01 -0.94200396435E+00 -0.92998396712E+01  0.12309214481E+02  0.00000000000E+00 0.  1.
</event>
<event>
 7    1  0.9868142E-013  0.5052886E+02  0.7816164E-02  0.1300439E+00
        -11   -1    0    0    0    0  0.00000000000E+00  0.00000000000E+00  0.45593999997E+02  0.45594000000E+02  0.51100000000E-03 0.  1.
         11   -1    0    0    0    0 -0.00000000000E+00 -0.00000000000E+00 -0.45593999997E+02  0.45594000000E+02  0.51100000000E-03 0. -1.
    9900012    2    1    2    0    0  0.27728858971E+02  0.14698767596E+02 -0.25849993496E+02  0.50528861391E+02  0.30000004683E+02 0.  0.
        -12    1    1    2    0    0 -0.27728858971E+02 -0.14698767596E+02  0.25849993496E+02  0.40659138609E+02  0.00000000000E+00 0.  1.
         11    1    3    3    0    0  0.13325691717E+02  0.24790637926E+01 -0.58244007203E+01  0.14752744187E+02  0.51100000000E-03 0. -1.
        -11    1    3    3    0    0  0.67706644537E+01  0.12332013078E+02 -0.23500023364E+02  0.27389259612E+02  0.51100000000E-03 0.  1.
        -12    1    3    3    0    0  0.76325028002E+01 -0.11230927386E+00  0.34744305881E+01  0.83868575926E+01  0.00000000000E+00 0.  1.
</event>
<event>
 7    1  0.9868142E-013  0.5052886E+02  0.7816164E-02  0.1300439E+00
        -11   -1    0    0    0    0  0.00000000000E+00  0.00000000000E+00  0.45593999997E+02  0.45594000000E+02  0.51100000000E-03 0.  1.
         11   -1    0    0    0    0 -0.00000000000E+00 -0.00000000000E+00 -0.45593999997E+02  0.45594000000E+02  0.51100000000E-03 0. -1.
    9900012    2    1    2    0    0 -0.11857357429E+02 -0.34322852803E+02 -0.18289619331E+02  0.50528864187E+02  0.30000013184E+02 0.  0.
        -12    1    1    2    0    0  0.11857357429E+02  0.34322852803E+02  0.18289619331E+02  0.40659135813E+02  0.00000000000E+00 0.  1.
         11    1    3    3    0    0 -0.44508033444E+01  0.28984971223E+01 -0.60928582016E+00  0.53462290870E+01  0.51100000000E-03 0. -1.
        -11    1    3    3    0    0  0.20288499082E+01 -0.28965982579E+02 -0.12002909668E+02  0.31419965301E+02  0.51100000000E-03 0.  1.
        -12    1    3    3    0    0 -0.94354039927E+01 -0.82553673465E+01 -0.56774238424E+01  0.13762669800E+02  0.00000000000E+00 0.  1.
</event>
<event>
 7    1  0.9868142E-013  0.5052885E+02  0.7816164E-02  0.1300439E+00
        -11   -1    0    0    0    0  0.00000000000E+00  0.00000000000E+00  0.45593999997E+02  0.45594000000E+02  0.51100000000E-03 0.  1.
         11   -1    0    0    0    0 -0.00000000000E+00 -0.00000000000E+00 -0.45593999997E+02  0.45594000000E+02  0.51100000000E-03 0. -1.
    9900012    2    1    2    0    0  0.77355299191E+01  0.36006655894E+02  0.17229290252E+02  0.50528854235E+02  0.29999982932E+02 0.  0.
        -12    1    1    2    0    0 -0.77355299191E+01 -0.36006655894E+02 -0.17229290252E+02  0.40659145765E+02  0.00000000000E+00 0.  1.
         11    1    3    3    0    0 -0.77510225058E+01  0.14872973334E+02 -0.29516362241E+01  0.17029264293E+02  0.51100000000E-03 0. -1.
        -11    1    3    3    0    0  0.12055713917E+02  0.14340610515E+02  0.11623345160E+02  0.22047573585E+02  0.51100000000E-03 0.  1.
         12    1    3    3    0    0  0.34308385075E+01  0.67930720446E+01  0.85575813162E+01  0.11452016357E+02  0.00000000000E+00 0. -1.
</event>
<event>
 7    1  0.9868142E-013  0.5052886E+02  0.7816164E-02  0.1300439E+00
        -11   -1    0    0    0    0  0.00000000000E+00  0.00000000000E+00  0.45593999997E+02  0.45594000000E+02  0.51100000000E-03 0.  1.
         11   -1    0    0    0    0 -0.00000000000E+00 -0.00000000000E+00 -0.45593999997E+02  0.45594000000E+02  0.51100000000E-03 0. -1.
    9900012    2    1    2    0    0 -0.21598133878E+02 -0.24186254234E+02 -0.24529806038E+02  0.50528860005E+02  0.30000000470E+02 0.  0.
        -12    1    1    2    0    0  0.21598133878E+02  0.24186254234E+02  0.24529806038E+02  0.40659139995E+02  0.00000000000E+00 0.  1.
         11    1    3    3    0    0 -0.15830657559E+02 -0.22889660087E+02 -0.15752955970E+02  0.31979710438E+02  0.51100000000E-03 0. -1.
        -11    1    3    3    0    0  0.97724682388E+00  0.21161203409E+01  0.34564296017E+01  0.41689186253E+01  0.51100000000E-03 0.  1.
        -12    1    3    3    0    0 -0.67447231422E+01 -0.34127144882E+01 -0.12233279670E+02  0.14380230941E+02  0.00000000000E+00 0.  1.
</event>
<event>
 7    1  0.9868142E-013  0.5052887E+02  0.7816164E-02  0.1300439E+00
        -11   -1    0    0    0    0  0.00000000000E+00  0.00000000000E+00  0.45593999997E+02  0.45594000000E+02  0.51100000000E-03 0.  1.
         11   -1    0    0    0    0 -0.00000000000E+00 -0.00000000000E+00 -0.45593999997E+02  0.45594000000E+02  0.51100000000E-03 0. -1.
    9900012    2    1    2    0    0 -0.19708391294E+02  0.82648819289E+01 -0.34589533824E+02  0.50528870510E+02  0.30000032402E+02 0.  0.
        -12    1    1    2    0    0  0.19708391294E+02 -0.82648819289E+01  0.34589533824E+02  0.40659129490E+02  0.00000000000E+00 0.  1.
         11    1    3    3    0    0 -0.12377447890E+02  0.68041365715E+01 -0.30214388304E+02  0.33352762279E+02  0.51100000000E-03 0. -1.
        -11    1    3    3    0    0  0.21213951837E+01 -0.30091673758E+01  0.26875482483E+01  0.45583244366E+01  0.51100000000E-03 0.  1.
        -12    1    3    3    0    0 -0.94523385880E+01  0.44699127332E+01 -0.70626937685E+01  0.12617783795E+02  0.00000000000E+00 0.  1.
</event>
<event>
 7    1  0.9868142E-013  0.5052881E+02  0.7816164E-02  0.1300439E+00
        -11   -1    0    0    0    0  0.00000000000E+00  0.00000000000E+00  0.45593999997E+02  0.45594000000E+02  0.51100000000E-03 0. -1.
         11   -1    0    0    0    0 -0.00000000000E+00 -0.00000000000E+00 -0.45593999997E+02  0.45594000000E+02  0.51100000000E-03 0.  1.
    9900012    2    1    2    0    0 -0.13056377371E+02 -0.28730455171E+02  0.25637119532E+02  0.50528807407E+02  0.29999840594E+02 0.  0.
        -12    1    1    2    0    0  0.13056377371E+02  0.28730455171E+02 -0.25637119532E+02  0.40659192593E+02  0.00000000000E+00 0.  1.
         11    1    3    3    0    0 -0.15915344222E+02 -0.12557597070E+02  0.23320247690E+02  0.30900248841E+02  0.51100000000E-03 0. -1.
        -11    1    3    3    0    0  0.41518072096E+01 -0.12090515229E+01 -0.47995529457E+00  0.43508236044E+01  0.51100000000E-03 0.  1.
         12    1    3    3    0    0 -0.12928403590E+01 -0.14963806579E+02  0.27968271367E+01  0.15277734962E+02  0.00000000000E+00 0. -1.
</event>
<event>
 7    1  0.9868142E-013  0.5052886E+02  0.7816164E-02  0.1300439E+00
        -11   -1    0    0    0    0  0.00000000000E+00  0.00000000000E+00  0.45593999997E+02  0.45594000000E+02  0.51100000000E-03 0. -1.
         11   -1    0    0    0    0 -0.00000000000E+00 -0.00000000000E+00 -0.45593999997E+02  0.45594000000E+02  0.51100000000E-03 0.  1.
    9900012    2    1    2    0    0  0.83600383264E+01  0.15626300919E+02  0.36593639237E+02  0.50528856454E+02  0.29999989679E+02 0.  0.
        -12    1    1    2    0    0 -0.83600383264E+01 -0.15626300919E+02 -0.36593639237E+02  0.40659143546E+02  0.00000000000E+00 0.  1.
         11    1    3    3    0    0 -0.85625332507E+00  0.30588889129E+01  0.16583543995E+02  0.16885020072E+02  0.51100000000E-03 0. -1.
        -11    1    3    3    0    0  0.43958139169E+01  0.14754395118E+02  0.28125894426E+01  0.15650112297E+02  0.51100000000E-03 0.  1.
        -12    1    3    3    0    0  0.48204777345E+01 -0.21869831116E+01  0.17197505799E+02  0.17993724085E+02  0.00000000000E+00 0.  1.
</event>
<event>
 7    1  0.9868142E-013  0.5052886E+02  0.7816164E-02  0.1300439E+00
        -11   -1    0    0    0    0  0.00000000000E+00  0.00000000000E+00  0.45593999997E+02  0.45594000000E+02  0.51100000000E-03 0.  1.
         11   -1    0    0    0    0 -0.00000000000E+00 -0.00000000000E+00 -0.45593999997E+02  0.45594000000E+02  0.51100000000E-03 0. -1.
    9900012    2    1    2    0    0  0.22118086620E+02  0.31950360939E+02 -0.11963708698E+02  0.50528860244E+02  0.30000001199E+02 0.  0.
        -12    1    1    2    0    0 -0.22118086620E+02 -0.31950360939E+02  0.11963708698E+02  0.40659139756E+02  0.00000000000E+00 0.  1.
         11    1    3    3    0    0  0.77141015899E+01 -0.31173845782E+01  0.27309064058E+01  0.87569001368E+01  0.51100000000E-03 0. -1.
        -11    1    3    3    0    0  0.78479128961E+01  0.26641344787E+02 -0.13922981429E+02  0.31067674535E+02  0.51100000000E-03 0.  1.
         12    1    3    3    0    0  0.65560721337E+01  0.84264007298E+01 -0.77163367501E+00  0.10704285572E+02  0.00000000000E+00 0. -1.
</event>
<event>
 7    1  0.9868142E-013  0.5052886E+02  0.7816164E-02  0.1300439E+00
        -11   -1    0    0    0    0  0.00000000000E+00  0.00000000000E+00  0.45593999997E+02  0.45594000000E+02  0.51100000000E-03 0. -1.
         11   -1    0    0    0    0 -0.00000000000E+00 -0.00000000000E+00 -0.45593999997E+02  0.45594000000E+02  0.51100000000E-03 0.  1.
    9900012    2    1    2    0    0  0.18459032780E+02 -0.12825215373E+02  0.33881314363E+02  0.50528861993E+02  0.30000006513E+02 0.  0.
        -12    1    1    2    0    0 -0.18459032780E+02  0.12825215373E+02 -0.33881314363E+02  0.40659138007E+02  0.00000000000E+00 0.  1.
         11    1    3    3    0    0  0.18247018433E+02  0.37833938703E-01  0.30907080557E+02  0.35891541371E+02  0.51100000000E-03 0. -1.
        -11    1    3    3    0    0 -0.15336233864E+01 -0.79711472655E+01 -0.88648981864E+00  0.81656018688E+01  0.51100000000E-03 0.  1.
         12    1    3    3    0    0  0.17456377331E+01 -0.48919020459E+01  0.38607236241E+01  0.64717187534E+01  0.00000000000E+00 0. -1.
</event>
<event>
 7    1  0.9868142E-013  0.5052886E+02  0.7816164E-02  0.1300439E+00
        -11   -1    0    0    0    0  0.00000000000E+00  0.00000000000E+00  0.45593999997E+02  0.45594000000E+02  0.51100000000E-03 0. -1.
         11   -1    0    0    0    0 -0.00000000000E+00 -0.00000000000E+00 -0.45593999997E+02  0.45594000000E+02  0.51100000000E-03 0.  1.
    9900012    2    1    2    0    0  0.20382029416E+02  0.35071945101E+02 -0.27743720902E+01  0.50528860846E+02  0.30000003027E+02 0.  0.
        -12    1    1    2    0    0 -0.20382029416E+02 -0.35071945101E+02  0.27743720902E+01  0.40659139154E+02  0.00000000000E+00 0.  1.
         11    1    3    3    0    0 -0.74534679128E-01  0.22850990326E+02  0.50587624505E+01  0.23404366945E+02  0.51100000000E-03 0. -1.
        -11    1    3    3    0    0  0.19418383913E+02  0.10734486986E+02 -0.35456699021E+01  0.22469415212E+02  0.51100000000E-03 0.  1.
        -12    1    3    3    0    0  0.10381801827E+01  0.14864677884E+01 -0.42874646385E+01  0.46550786894E+01  0.00000000000E+00 0.  1.
</event>
<event>
 7    1  0.9868142E-013  0.5052886E+02  0.7816164E-02  0.1300439E+00
        -11   -1    0    0    0    0  0.00000000000E+00  0.00000000000E+00  0.45593999997E+02  0.45594000000E+02  0.51100000000E-03 0.  1.
         11   -1    0    0    0    0 -0.00000000000E+00 -0.00000000000E+00 -0.45593999997E+02  0.45594000000E+02  0.51100000000E-03 0. -1.
    9900012    2    1    2    0    0 -0.17060631328E+02  0.34722647739E+02 -0.12507513860E+02  0.50528864369E+02  0.30000013736E+02 0.  0.
        -12    1    1    2    0    0  0.17060631328E+02 -0.34722647739E+02  0.12507513860E+02  0.40659135631E+02  0.00000000000E+00 0.  1.
         11    1    3    3    0    0  0.43500981737E+01  0.21461058223E+02 -0.68470730850E+01  0.22943033458E+02  0.51100000000E-03 0. -1.
        -11    1    3    3    0    0 -0.42789616914E+01  0.46595579296E-01  0.18788406477E+01  0.46735133192E+01  0.51100000000E-03 0.  1.
         12    1    3    3    0    0 -0.17131767810E+02  0.13214993936E+02 -0.75392814225E+01  0.22912317591E+02  0.00000000000E+00 0. -1.
</event>
<event>
 7    1  0.9868142E-013  0.5052886E+02  0.7816164E-02  0.1300439E+00
        -11   -1    0    0    0    0  0.00000000000E+00  0.00000000000E+00  0.45593999997E+02  0.45594000000E+02  0.51100000000E-03 0. -1.
         11   -1    0    0    0    0 -0.00000000000E+00 -0.00000000000E+00 -0.45593999997E+02  0.45594000000E+02  0.51100000000E-03 0.  1.
    9900012    2    1    2    0    0 -0.32180694045E+02 -0.21577684174E+02 -0.12327708935E+02  0.50528856734E+02  0.29999990530E+02 0.  0.
        -12    1    1    2    0    0  0.32180694045E+02  0.21577684174E+02  0.12327708935E+02  0.40659143266E+02  0.00000000000E+00 0.  1.
         11    1    3    3    0    0 -0.14040643509E+02 -0.10507609406E+02  0.33256539211E+01  0.17849635846E+02  0.51100000000E-03 0. -1.
        -11    1    3    3    0    0 -0.67669774745E+01 -0.11745704270E+02 -0.16381551680E+02  0.21262849965E+02  0.51100000000E-03 0.  1.
        -12    1    3    3    0    0 -0.11373073062E+02  0.67562950223E+00  0.72818882421E+00  0.11416370923E+02  0.00000000000E+00 0.  1.
</event>
<event>
 7    1  0.9868142E-013  0.5052885E+02  0.7816164E-02  0.1300439E+00
        -11   -1    0    0    0    0  0.00000000000E+00  0.00000000000E+00  0.45593999997E+02  0.45594000000E+02  0.51100000000E-03 0.  1.
         11   -1    0    0    0    0 -0.00000000000E+00 -0.00000000000E+00 -0.45593999997E+02  0.45594000000E+02  0.51100000000E-03 0. -1.
    9900012    2    1    2    0    0 -0.15202300353E+02  0.33967056598E+02 -0.16379733674E+02  0.50528849183E+02  0.29999967577E+02 0.  0.
        -12    1    1    2    0    0  0.15202300353E+02 -0.33967056598E+02  0.16379733674E+02  0.40659150817E+02  0.00000000000E+00 0.  1.
         11    1    3    3    0    0  0.20202395532E+01  0.19867176126E+02 -0.73208280241E+01  0.21269240191E+02  0.51100000000E-03 0. -1.
        -11    1    3    3    0    0 -0.87278915234E+01  0.12112582393E+01 -0.10556742667E+02  0.13750929167E+02  0.51100000000E-03 0.  1.
        -12    1    3    3    0    0 -0.84946483826E+01  0.12888622232E+02  0.14978370167E+01  0.15508679825E+02  0.00000000000E+00 0.  1.
</event>
<event>
 7    1  0.9868142E-013  0.5052887E+02  0.7816164E-02  0.1300439E+00
        -11   -1    0    0    0    0  0.00000000000E+00  0.00000000000E+00  0.45593999997E+02  0.45594000000E+02  0.51100000000E-03 0. -1.
         11   -1    0    0    0    0 -0.00000000000E+00 -0.00000000000E+00 -0.45593999997E+02  0.45594000000E+02  0.51100000000E-03 0.  1.
    9900012    2    1    2    0    0  0.52126431298E+01 -0.34327917811E+02  0.21156261252E+02  0.50528868433E+02  0.30000026090E+02 0.  0.
        -12    1    1    2    0    0 -0.52126431298E+01  0.34327917811E+02 -0.21156261252E+02  0.40659131567E+02  0.00000000000E+00 0.  1.
         11    1    3    3    0    0  0.12097509671E+02 -0.65881105179E+01  0.14098271894E+02  0.19710763839E+02  0.51100000000E-03 0. -1.
        -11    1    3    3    0    0 -0.28545559192E+01 -0.22653987609E+02  0.81373577034E+01  0.24239806822E+02  0.51100000000E-03 0.  1.
         12    1    3    3    0    0 -0.40303106221E+01 -0.50858196832E+01 -0.10793683460E+01  0.65782977728E+01  0.00000000000E+00 0. -1.
</event>
<event>
 7    1  0.9868142E-013  0.5052884E+02  0.7816164E-02  0.1300439E+00
        -11   -1    0    0    0    0  0.00000000000E+00  0.00000000000E+00  0.45593999997E+02  0.45594000000E+02  0.51100000000E-03 0. -1.
         11   -1    0    0    0    0 -0.00000000000E+00 -0.00000000000E+00 -0.45593999997E+02  0.45594000000E+02  0.51100000000E-03 0.  1.
    9900012    2    1    2    0    0  0.26923365532E+02 -0.14498625772E+02  0.26797196029E+02  0.50528837738E+02  0.29999932788E+02 0.  0.
        -12    1    1    2    0    0 -0.26923365532E+02  0.14498625772E+02 -0.26797196029E+02  0.40659162262E+02  0.00000000000E+00 0.  1.
         11    1    3    3    0    0  0.20550698313E+02 -0.50332648984E+01  0.13998663446E+02  0.25369815435E+02  0.51100000000E-03 0. -1.
        -11    1    3    3    0    0 -0.51089223217E+01 -0.65029344252E+01  0.99984433083E+01  0.12975288524E+02  0.51100000000E-03 0.  1.
        -12    1    3    3    0    0  0.11481589541E+02 -0.29624264487E+01  0.28000892743E+01  0.12183733779E+02  0.00000000000E+00 0.  1.
</event>
<event>
 7    1  0.9868142E-013  0.5052886E+02  0.7816164E-02  0.1300439E+00
        -11   -1    0    0    0    0  0.00000000000E+00  0.00000000000E+00  0.45593999997E+02  0.45594000000E+02  0.51100000000E-03 0.  1.
         11   -1    0    0    0    0 -0.00000000000E+00 -0.00000000000E+00 -0.45593999997E+02  0.45594000000E+02  0.51100000000E-03 0. -1.
    9900012    2    1    2    0    0  0.35187951818E+02 -0.48175526454E+01  0.19793053287E+02  0.50528859268E+02  0.29999998232E+02 0.  0.
        -12    1    1    2    0    0 -0.35187951818E+02  0.48175526454E+01 -0.19793053287E+02  0.40659140732E+02  0.00000000000E+00 0.  1.
         11    1    3    3    0    0  0.38386644466E+01  0.35880256003E+00  0.10691039589E+01  0.40008833458E+01  0.51100000000E-03 0. -1.
        -11    1    3    3    0    0  0.11065420863E+02  0.69488672559E+01  0.18801708739E+02  0.22896168823E+02  0.51100000000E-03 0.  1.
        -12    1    3    3    0    0  0.20283866508E+02 -0.12125222461E+02 -0.77759410489E-01  0.23631807099E+02  0.00000000000E+00 0.  1.
</event>
<event>
 7    1  0.9868142E-013  0.5052887E+02  0.7816164E-02  0.1300439E+00
        -11   -1    0    0    0    0  0.00000000000E+00  0.00000000000E+00  0.45593999997E+02  0.45594000000E+02  0.51100000000E-03 0.  1.
         11   -1    0    0    0    0 -0.00000000000E+00 -0.00000000000E+00 -0.45593999997E+02  0.45594000000E+02  0.51100000000E-03 0. -1.
    9900012    2    1    2    0    0 -0.79720559075E+01 -0.34912724092E+01 -0.39716779034E+02  0.50528865783E+02  0.30000018034E+02 0.  0.
        -12    1    1    2    0    0  0.79720559075E+01  0.34912724092E+01  0.39716779034E+02  0.40659134217E+02  0.00000000000E+00 0.  1.
         11    1    3    3    0    0 -0.30216874540E+01  0.46207647246E+01 -0.30222852746E+02  0.30723002621E+02  0.51100000000E-03 0. -1.
        -11    1    3    3    0    0 -0.68352126209E+00 -0.11208924290E+02 -0.92142916485E+01  0.14526195507E+02  0.51100000000E-03 0.  1.
         12    1    3    3    0    0 -0.42668471914E+01  0.30968871566E+01 -0.27963464002E+00  0.52796676550E+01  0.00000000000E+00 0. -1.
</event>
<event>
 7    1  0.9868142E-013  0.5052885E+02  0.7816164E-02  0.1300439E+00
        -11   -1    0    0    0    0  0.00000000000E+00  0.00000000000E+00  0.45593999997E+02  0.45594000000E+02  0.51100000000E-03 0.  1.
         11   -1    0    0    0    0 -0.00000000000E+00 -0.00000000000E+00 -0.45593999997E+02  0.45594000000E+02  0.51100000000E-03 0. -1.
    9900012    2    1    2    0    0  0.27394194120E+02  0.22109596075E+02 -0.20344290450E+02  0.50528852640E+02  0.29999978085E+02 0.  0.
        -12    1    1    2    0    0 -0.27394194120E+02 -0.22109596075E+02  0.20344290450E+02  0.40659147360E+02  0.00000000000E+00 0.  1.
         11    1    3    3    0    0  0.49304341211E+01  0.18056634809E+02 -0.16822965836E+02  0.25166712558E+02  0.51100000000E-03 0. -1.
        -11    1    3    3    0    0  0.11522771125E+02 -0.81426580973E+00  0.27070279388E+01  0.11864454633E+02  0.51100000000E-03 0.  1.
         12    1    3    3    0    0  0.10940988874E+02  0.48672270758E+01 -0.62283525536E+01  0.13497685449E+02  0.00000000000E+00 0. -1.
</event>
<event>
 7    1  0.9868142E-013  0.5052888E+02  0.7816164E-02  0.1300439E+00
        -11   -1    0    0    0    0  0.00000000000E+00  0.00000000000E+00  0.45593999997E+02  0.45594000000E+02  0.51100000000E-03 0.  1.
         11   -1    0    0    0    0 -0.00000000000E+00 -0.00000000000E+00 -0.45593999997E+02  0.45594000000E+02  0.51100000000E-03 0. -1.
    9900012    2    1    2    0    0 -0.46129063046E+01  0.35403422649E+02 -0.19454625811E+02  0.50528884106E+02  0.30000073729E+02 0.  0.
        -12    1    1    2    0    0  0.46129063046E+01 -0.35403422649E+02  0.19454625811E+02  0.40659115894E+02  0.00000000000E+00 0.  1.
         11    1    3    3    0    0  0.10586249138E+00  0.22079695180E+02 -0.10512037985E+02  0.24454592391E+02  0.51100000000E-03 0. -1.
        -11    1    3    3    0    0 -0.12587038789E+02  0.82878077907E+01 -0.44872202327E+01  0.15724390263E+02  0.51100000000E-03 0.  1.
        -12    1    3    3    0    0  0.78682699934E+01  0.50359196778E+01 -0.44553675932E+01  0.10349901453E+02  0.00000000000E+00 0.  1.
</event>
<event>
 7    1  0.9868142E-013  0.5052887E+02  0.7816164E-02  0.1300439E+00
        -11   -1    0    0    0    0  0.00000000000E+00  0.00000000000E+00  0.45593999997E+02  0.45594000000E+02  0.51100000000E-03 0. -1.
         11   -1    0    0    0    0 -0.00000000000E+00 -0.00000000000E+00 -0.45593999997E+02  0.45594000000E+02  0.51100000000E-03 0.  1.
    9900012    2    1    2    0    0  0.38597473639E+02  0.60793780216E+01  0.11244599071E+02  0.50528870438E+02  0.30000032184E+02 0.  0.
        -12    1    1    2    0    0 -0.38597473639E+02 -0.60793780216E+01 -0.11244599071E+02  0.40659129562E+02  0.00000000000E+00 0.  1.
         11    1    3    3    0    0  0.12584616006E+02 -0.84456664794E+01  0.34914452975E+01  0.15552878603E+02  0.51100000000E-03 0. -1.
        -11    1    3    3    0    0  0.11581879028E+02  0.13491678749E+02 -0.14320890399E+01  0.17838615321E+02  0.51100000000E-03 0.  1.
        -12    1    3    3    0    0  0.14430978604E+02  0.10333657519E+01  0.91852428129E+01  0.17137376514E+02  0.00000000000E+00 0.  1.
</event>
<event>
 7    1  0.9868142E-013  0.5052886E+02  0.7816164E-02  0.1300439E+00
        -11   -1    0    0    0    0  0.00000000000E+00  0.00000000000E+00  0.45593999997E+02  0.45594000000E+02  0.51100000000E-03 0.  1.
         11   -1    0    0    0    0 -0.00000000000E+00 -0.00000000000E+00 -0.45593999997E+02  0.45594000000E+02  0.51100000000E-03 0. -1.
    9900012    2    1    2    0    0  0.16907875423E+02  0.31357209892E+02 -0.19596294670E+02  0.50528860458E+02  0.30000001847E+02 0.  0.
        -12    1    1    2    0    0 -0.16907875423E+02 -0.31357209892E+02  0.19596294670E+02  0.40659139542E+02  0.00000000000E+00 0.  1.
         11    1    3    3    0    0  0.26432183900E+00  0.69075128985E+01 -0.16820045282E+02  0.18185090708E+02  0.51100000000E-03 0. -1.
        -11    1    3    3    0    0  0.16784455838E+02  0.14262470226E+02 -0.22798903604E+01  0.22143484709E+02  0.51100000000E-03 0.  1.
         12    1    3    3    0    0 -0.14090225383E+00  0.10187226767E+02 -0.49635902755E+00  0.10200285041E+02  0.00000000000E+00 0. -1.
</event>
<event>
 7    1  0.9868142E-013  0.5052887E+02  0.7816164E-02  0.1300439E+00
        -11   -1    0    0    0    0  0.00000000000E+00  0.00000000000E+00  0.45593999997E+02  0.45594000000E+02  0.51100000000E-03 0.  1.
         11   -1    0    0    0    0 -0.00000000000E+00 -0.00000000000E+00 -0.45593999997E+02  0.45594000000E+02  0.51100000000E-03 0. -1.
    9900012    2    1    2    0    0 -0.18749627292E+02  0.20068832039E+02 -0.29980968239E+02  0.50528868190E+02  0.30000025352E+02 0.  0.
        -12    1    1    2    0    0  0.18749627292E+02 -0.20068832039E+02  0.29980968239E+02  0.40659131810E+02  0.00000000000E+00 0.  1.
         11    1    3    3    0    0 -0.98297886841E+01  0.14103793791E+02  0.38383825962E+00  0.17195612142E+02  0.51100000000E-03 0. -1.
        -11    1    3    3    0    0  0.37882312341E+00 -0.12500975741E+01 -0.75432051342E+01  0.76554682980E+01  0.51100000000E-03 0.  1.
         12    1    3    3    0    0 -0.92986617312E+01  0.72151358214E+01 -0.22821601364E+02  0.25677787750E+02  0.00000000000E+00 0. -1.
</event>
<event>
 7    1  0.9868142E-013  0.5052887E+02  0.7816164E-02  0.1300439E+00
        -11   -1    0    0    0    0  0.00000000000E+00  0.00000000000E+00  0.45593999997E+02  0.45594000000E+02  0.51100000000E-03 0. -1.
         11   -1    0    0    0    0 -0.00000000000E+00 -0.00000000000E+00 -0.45593999997E+02  0.45594000000E+02  0.51100000000E-03 0.  1.
    9900012    2    1    2    0    0  0.43822546542E+01  0.10169592728E+02  0.39122115808E+02  0.50528871659E+02  0.30000035896E+02 0.  0.
        -12    1    1    2    0    0 -0.43822546542E+01 -0.10169592728E+02 -0.39122115808E+02  0.40659128341E+02  0.00000000000E+00 0.  1.
         11    1    3    3    0    0  0.38291231036E+01 -0.42216505289E+00 -0.88407072869E-01  0.38533392203E+01  0.51100000000E-03 0.  1.
        -11    1    3    3    0    0 -0.19985589136E+01  0.15424902592E+02  0.38024904226E+02  0.41083028118E+02  0.51100000000E-03 0. -1.
         12    1    3    3    0    0  0.25516904642E+01 -0.48331448108E+01  0.11856186555E+01  0.55925043213E+01  0.00000000000E+00 0. -1.
</event>
<event>
 7    1  0.9868142E-013  0.5052886E+02  0.7816164E-02  0.1300439E+00
        -11   -1    0    0    0    0  0.00000000000E+00  0.00000000000E+00  0.45593999997E+02  0.45594000000E+02  0.51100000000E-03 0. -1.
         11   -1    0    0    0    0 -0.00000000000E+00 -0.00000000000E+00 -0.45593999997E+02  0.45594000000E+02  0.51100000000E-03 0.  1.
    9900012    2    1    2    0    0  0.19837852100E+02 -0.17048695321E+02  0.31128242952E+02  0.50528857149E+02  0.29999991790E+02 0.  0.
        -12    1    1    2    0    0 -0.19837852100E+02  0.17048695321E+02 -0.31128242952E+02  0.40659142851E+02  0.00000000000E+00 0.  1.
         11    1    3    3    0    0  0.80036671190E+01  0.29249778635E+01  0.62672307179E+01  0.10577918698E+02  0.51100000000E-03 0. -1.
        -11    1    3    3    0    0  0.56250960575E+01 -0.21909799420E+02  0.24632318951E+02  0.33442968669E+02  0.51100000000E-03 0.  1.
        -12    1    3    3    0    0  0.62090889233E+01  0.19361262353E+01  0.22869328361E+00  0.65079697813E+01  0.00000000000E+00 0.  1.
</event>
<event>
 7    1  0.9868142E-013  0.5052886E+02  0.7816164E-02  0.1300439E+00
        -11   -1    0    0    0    0  0.00000000000E+00  0.00000000000E+00  0.45593999997E+02  0.45594000000E+02  0.51100000000E-03 0.  1.
         11   -1    0    0    0    0 -0.00000000000E+00 -0.00000000000E+00 -0.45593999997E+02  0.45594000000E+02  0.51100000000E-03 0. -1.
    9900012    2    1    2    0    0 -0.25263088461E+02  0.61545225233E+01 -0.31258021535E+02  0.50528859621E+02  0.29999999305E+02 0.  0.
        -12    1    1    2    0    0  0.25263088461E+02 -0.61545225233E+01  0.31258021535E+02  0.40659140379E+02  0.00000000000E+00 0.  1.
         11    1    3    3    0    0 -0.26761873474E+02  0.50239604011E+01 -0.14019884704E+02  0.30626707582E+02  0.51100000000E-03 0. -1.
        -11    1    3    3    0    0  0.28191427096E+01  0.32637701717E+01 -0.25687480587E+01  0.50197836807E+01  0.51100000000E-03 0.  1.
         12    1    3    3    0    0 -0.13203576969E+01 -0.21332080495E+01 -0.14669388771E+02  0.14882368358E+02  0.00000000000E+00 0. -1.
</event>
<event>
 7    1  0.9868142E-013  0.5052885E+02  0.7816164E-02  0.1300439E+00
        -11   -1    0    0    0    0  0.00000000000E+00  0.00000000000E+00  0.45593999997E+02  0.45594000000E+02  0.51100000000E-03 0.  1.
         11   -1    0    0    0    0 -0.00000000000E+00 -0.00000000000E+00 -0.45593999997E+02  0.45594000000E+02  0.51100000000E-03 0. -1.
    9900012    2    1    2    0    0 -0.89436160592E+01 -0.37257649094E+01 -0.39487934337E+02  0.50528849116E+02  0.29999967373E+02 0.  0.
        -12    1    1    2    0    0  0.89436160592E+01  0.37257649094E+01  0.39487934337E+02  0.40659150884E+02  0.00000000000E+00 0.  1.
         11    1    3    3    0    0 -0.14355928870E+01  0.10848339603E+02 -0.20632791589E+02  0.23355074140E+02  0.51100000000E-03 0. -1.
        -11    1    3    3    0    0 -0.32999907759E+01 -0.14873026452E+02 -0.13491469413E+02  0.20349855089E+02  0.51100000000E-03 0.  1.
         12    1    3    3    0    0 -0.42080323964E+01  0.29892193998E+00 -0.53636733352E+01  0.68239198868E+01  0.00000000000E+00 0. -1.
</event>
<event>
 7    1  0.9868142E-013  0.5052886E+02  0.7816164E-02  0.1300439E+00
        -11   -1    0    0    0    0  0.00000000000E+00  0.00000000000E+00  0.45593999997E+02  0.45594000000E+02  0.51100000000E-03 0.  1.
         11   -1    0    0    0    0 -0.00000000000E+00 -0.00000000000E+00 -0.45593999997E+02  0.45594000000E+02  0.51100000000E-03 0. -1.
    9900012    2    1    2    0    0 -0.32840549688E+02  0.10820128267E+02 -0.21391323594E+02  0.50528860749E+02  0.30000002732E+02 0.  0.
        -12    1    1    2    0    0  0.32840549688E+02 -0.10820128267E+02  0.21391323594E+02  0.40659139251E+02  0.00000000000E+00 0.  1.
         11    1    3    3    0    0 -0.99408092997E+01  0.31833457840E+01 -0.35139899525E+01  0.11013696272E+02  0.51100000000E-03 0. -1.
        -11    1    3    3    0    0 -0.12328879536E+02 -0.21807843608E+01 -0.21282472404E+02  0.24692118640E+02  0.51100000000E-03 0.  1.
        -12    1    3    3    0    0 -0.10570860853E+02  0.98175668440E+01  0.34051387627E+01  0.14823045837E+02  0.00000000000E+00 0.  1.
</event>
<event>
 7    1  0.9868142E-013  0.5052886E+02  0.7816164E-02  0.1300439E+00
        -11   -1    0    0    0    0  0.00000000000E+00  0.00000000000E+00  0.45593999997E+02  0.45594000000E+02  0.51100000000E-03 0. -1.
         11   -1    0    0    0    0 -0.00000000000E+00 -0.00000000000E+00 -0.45593999997E+02  0.45594000000E+02  0.51100000000E-03 0.  1.
    9900012    2    1    2    0    0 -0.33613564773E+02  0.22869601630E+02 -0.52449780743E+00  0.50528861871E+02  0.30000006143E+02 0.  0.
        -12    1    1    2    0    0  0.33613564773E+02 -0.22869601630E+02  0.52449780743E+00  0.40659138129E+02  0.00000000000E+00 0.  1.
         11    1    3    3    0    0 -0.12670098204E+02  0.15292770451E+02  0.13009114622E+01  0.19902074954E+02  0.51100000000E-03 0. -1.
        -11    1    3    3    0    0 -0.20368992271E+02 -0.13838626742E+01 -0.51440717980E+01  0.21054035170E+02  0.51100000000E-03 0.  1.
        -12    1    3    3    0    0 -0.57447429858E+00  0.89606938523E+01  0.33186625284E+01  0.95727517471E+01  0.00000000000E+00 0.  1.
</event>
<event>
 7    1  0.9868142E-013  0.5052886E+02  0.7816164E-02  0.1300439E+00
        -11   -1    0    0    0    0  0.00000000000E+00  0.00000000000E+00  0.45593999997E+02  0.45594000000E+02  0.51100000000E-03 0.  1.
         11   -1    0    0    0    0 -0.00000000000E+00 -0.00000000000E+00 -0.45593999997E+02  0.45594000000E+02  0.51100000000E-03 0. -1.
    9900012    2    1    2    0    0  0.22588968305E+02 -0.22531576424E+02 -0.25203813475E+02  0.50528860327E+02  0.30000001451E+02 0.  0.
        -12    1    1    2    0    0 -0.22588968305E+02  0.22531576424E+02  0.25203813475E+02  0.40659139673E+02  0.00000000000E+00 0.  1.
         11    1    3    3    0    0  0.29870059021E+01  0.27673751132E+01 -0.11843278654E+02  0.12523730228E+02  0.51100000000E-03 0. -1.
        -11    1    3    3    0    0  0.18831886069E+02 -0.27443362338E+02 -0.12206444608E+02  0.35451027624E+02  0.51100000000E-03 0.  1.
        -12    1    3    3    0    0  0.77007633333E+00  0.21444108002E+01 -0.11540902127E+01  0.25541024761E+01  0.00000000000E+00 0.  1.
</event>
<event>
 7    1  0.9868142E-013  0.5052886E+02  0.7816164E-02  0.1300439E+00
        -11   -1    0    0    0    0  0.00000000000E+00  0.00000000000E+00  0.45593999997E+02  0.45594000000E+02  0.51100000000E-03 0.  1.
         11   -1    0    0    0    0 -0.00000000000E+00 -0.00000000000E+00 -0.45593999997E+02  0.45594000000E+02  0.51100000000E-03 0. -1.
    9900012    2    1    2    0    0  0.23354622493E+02  0.31500355017E+02 -0.10745006321E+02  0.50528856885E+02  0.29999990988E+02 0.  0.
        -12    1    1    2    0    0 -0.23354622493E+02 -0.31500355017E+02  0.10745006321E+02  0.40659143115E+02  0.00000000000E+00 0.  1.
         11    1    3    3    0    0  0.21058680634E+02  0.20373821000E+02 -0.83391701121E+01  0.30464772618E+02  0.51100000000E-03 0. -1.
        -11    1    3    3    0    0 -0.11556126740E+01  0.14246252267E+02 -0.44678860912E+01  0.14975084330E+02  0.51100000000E-03 0.  1.
        -12    1    3    3    0    0  0.34515545323E+01 -0.31197182499E+01  0.20620498819E+01  0.50889999375E+01  0.00000000000E+00 0.  1.
</event>
<event>
 7    1  0.9868142E-013  0.5052885E+02  0.7816164E-02  0.1300439E+00
        -11   -1    0    0    0    0  0.00000000000E+00  0.00000000000E+00  0.45593999997E+02  0.45594000000E+02  0.51100000000E-03 0. -1.
         11   -1    0    0    0    0 -0.00000000000E+00 -0.00000000000E+00 -0.45593999997E+02  0.45594000000E+02  0.51100000000E-03 0.  1.
    9900012    2    1    2    0    0 -0.28305452120E+01  0.33626922673E+02 -0.22680047154E+02  0.50528850310E+02  0.29999971001E+02 0.  0.
        -12    1    1    2    0    0  0.28305452120E+01 -0.33626922673E+02  0.22680047154E+02  0.40659149690E+02  0.00000000000E+00 0.  1.
         11    1    3    3    0    0 -0.12623306137E+02  0.14342980323E+02 -0.11111735202E+02  0.22102931974E+02  0.51100000000E-03 0. -1.
        -11    1    3    3    0    0  0.12981034167E+02  0.18386292189E+02 -0.90212570749E+01  0.24247599221E+02  0.51100000000E-03 0.  1.
        -12    1    3    3    0    0 -0.31882732422E+01  0.89765016101E+00 -0.25470548770E+01  0.41783191148E+01  0.00000000000E+00 0.  1.
</event>
<event>
 7    1  0.9868142E-013  0.5052886E+02  0.7816164E-02  0.1300439E+00
        -11   -1    0    0    0    0  0.00000000000E+00  0.00000000000E+00  0.45593999997E+02  0.45594000000E+02  0.51100000000E-03 0.  1.
         11   -1    0    0    0    0 -0.00000000000E+00 -0.00000000000E+00 -0.45593999997E+02  0.45594000000E+02  0.51100000000E-03 0. -1.
    9900012    2    1    2    0    0  0.14397783061E+02 -0.33074434236E+02 -0.18760361712E+02  0.50528861683E+02  0.30000005572E+02 0.  0.
        -12    1    1    2    0    0 -0.14397783061E+02  0.33074434236E+02  0.18760361712E+02  0.40659138317E+02  0.00000000000E+00 0.  1.
         11    1    3    3    0    0  0.10760780149E+02 -0.87524887090E+01 -0.19147296379E+02  0.23643591244E+02  0.51100000000E-03 0. -1.
        -11    1    3    3    0    0  0.54162133419E+01 -0.10562125904E+02  0.40390940331E+01  0.12538267482E+02  0.51100000000E-03 0.  1.
         12    1    3    3    0    0 -0.17792104305E+01 -0.13759819623E+02 -0.36521593661E+01  0.14347002957E+02  0.00000000000E+00 0. -1.
</event>
<event>
 7    1  0.9868142E-013  0.5052886E+02  0.7816164E-02  0.1300439E+00
        -11   -1    0    0    0    0  0.00000000000E+00  0.00000000000E+00  0.45593999997E+02  0.45594000000E+02  0.51100000000E-03 0. -1.
         11   -1    0    0    0    0 -0.00000000000E+00 -0.00000000000E+00 -0.45593999997E+02  0.45594000000E+02  0.51100000000E-03 0.  1.
    9900012    2    1    2    0    0 -0.22713449529E+02 -0.26115486307E+02  0.21336503101E+02  0.50528858603E+02  0.29999996209E+02 0.  0.
        -12    1    1    2    0    0  0.22713449529E+02  0.26115486307E+02 -0.21336503101E+02  0.40659141397E+02  0.00000000000E+00 0.  1.
         11    1    3    3    0    0 -0.23968456292E+02 -0.22657396395E+02  0.27254269909E+02  0.42785975938E+02  0.51100000000E-03 0. -1.
        -11    1    3    3    0    0  0.53004339440E-01 -0.12921185611E+01 -0.48949285573E+01  0.50628752382E+01  0.51100000000E-03 0.  1.
         12    1    3    3    0    0  0.12020024233E+01 -0.21659713507E+01 -0.10228382511E+01  0.26800074264E+01  0.00000000000E+00 0. -1.
</event>
<event>
 7    1  0.9868142E-013  0.5052887E+02  0.7816164E-02  0.1300439E+00
        -11   -1    0    0    0    0  0.00000000000E+00  0.00000000000E+00  0.45593999997E+02  0.45594000000E+02  0.51100000000E-03 0.  1.
         11   -1    0    0    0    0 -0.00000000000E+00 -0.00000000000E+00 -0.45593999997E+02  0.45594000000E+02  0.51100000000E-03 0. -1.
    9900012    2    1    2    0    0  0.15299019143E+02  0.36528765653E+02 -0.92061800968E+01  0.50528874839E+02  0.30000045560E+02 0.  0.
        -12    1    1    2    0    0 -0.15299019143E+02 -0.36528765653E+02  0.92061800968E+01  0.40659125161E+02  0.00000000000E+00 0.  1.
         11    1    3    3    0    0  0.36186300846E+01  0.11724868428E+02  0.39117074169E+01  0.12878993692E+02  0.51100000000E-03 0. -1.
        -11    1    3    3    0    0 -0.16486583496E+01  0.17937286586E+01 -0.10671019945E+02  0.10945602029E+02  0.51100000000E-03 0.  1.
        -12    1    3    3    0    0  0.13329047408E+02  0.23010168566E+02 -0.24468675686E+01  0.26704279117E+02  0.00000000000E+00 0.  1.
</event>
<event>
 7    1  0.9868142E-013  0.5052899E+02  0.7816164E-02  0.1300438E+00
        -11   -1    0    0    0    0  0.00000000000E+00  0.00000000000E+00  0.45593999997E+02  0.45594000000E+02  0.51100000000E-03 0.  1.
         11   -1    0    0    0    0 -0.00000000000E+00 -0.00000000000E+00 -0.45593999997E+02  0.45594000000E+02  0.51100000000E-03 0. -1.
    9900012    2    1    2    0    0 -0.69360616984E+01  0.27374681658E+02 -0.29251882855E+02  0.50528993638E+02  0.30000406660E+02 0.  0.
        -12    1    1    2    0    0  0.69360616984E+01 -0.27374681658E+02  0.29251882855E+02  0.40659006362E+02  0.00000000000E+00 0.  1.
         11    1    3    3    0    0  0.39348642868E+01  0.17268812078E+02 -0.10116283235E+02  0.20396916784E+02  0.51100000000E-03 0. -1.
        -11    1    3    3    0    0 -0.14772653642E+02  0.10939644622E+02 -0.18521851773E+02  0.26095327426E+02  0.51100000000E-03 0.  1.
        -12    1    3    3    0    0  0.39017276567E+01 -0.83377504227E+00 -0.61374784685E+00  0.40367494284E+01  0.00000000000E+00 0.  1.
</event>
<event>
 7    1  0.9868142E-013  0.5052886E+02  0.7816164E-02  0.1300439E+00
        -11   -1    0    0    0    0  0.00000000000E+00  0.00000000000E+00  0.45593999997E+02  0.45594000000E+02  0.51100000000E-03 0. -1.
         11   -1    0    0    0    0 -0.00000000000E+00 -0.00000000000E+00 -0.45593999997E+02  0.45594000000E+02  0.51100000000E-03 0.  1.
    9900012    2    1    2    0    0 -0.51214029486E+01 -0.25869936554E+02  0.30946452200E+02  0.50528864628E+02  0.30000014523E+02 0.  0.
        -12    1    1    2    0    0  0.51214029486E+01  0.25869936554E+02 -0.30946452200E+02  0.40659135372E+02  0.00000000000E+00 0.  1.
         11    1    3    3    0    0  0.64374798889E+01 -0.21288051574E+02  0.11129621033E+02  0.24869474295E+02  0.51100000000E-03 0. -1.
        -11    1    3    3    0    0 -0.38398831925E+01  0.33722783078E+01  0.76595292596E+01  0.92078962123E+01  0.51100000000E-03 0.  1.
         12    1    3    3    0    0 -0.77189996450E+01 -0.79541632879E+01  0.12157301907E+02  0.16451494120E+02  0.00000000000E+00 0. -1.
</event>
<event>
 7    1  0.9868142E-013  0.5052887E+02  0.7816164E-02  0.1300439E+00
        -11   -1    0    0    0    0  0.00000000000E+00  0.00000000000E+00  0.45593999997E+02  0.45594000000E+02  0.51100000000E-03 0.  1.
         11   -1    0    0    0    0 -0.00000000000E+00 -0.00000000000E+00 -0.45593999997E+02  0.45594000000E+02  0.51100000000E-03 0. -1.
    9900012    2    1    2    0    0 -0.33575735855E+02 -0.13122529817E+02 -0.18805162736E+02  0.50528868523E+02  0.30000026361E+02 0.  0.
        -12    1    1    2    0    0  0.33575735855E+02  0.13122529817E+02  0.18805162736E+02  0.40659131477E+02  0.00000000000E+00 0.  1.
         11    1    3    3    0    0 -0.27791812932E+02 -0.49785711930E+01 -0.24705064792E+02  0.37516813081E+02  0.51100000000E-03 0. -1.
        -11    1    3    3    0    0 -0.19265099902E+01 -0.46834560294E+01  0.59710566119E+01  0.78294136719E+01  0.51100000000E-03 0.  1.
         12    1    3    3    0    0 -0.38574129331E+01 -0.34605025942E+01 -0.71154556121E-01  0.51826417696E+01  0.00000000000E+00 0. -1.
</event>
<event>
 7    1  0.9868142E-013  0.5052886E+02  0.7816164E-02  0.1300439E+00
        -11   -1    0    0    0    0  0.00000000000E+00  0.00000000000E+00  0.45593999997E+02  0.45594000000E+02  0.51100000000E-03 0. -1.
         11   -1    0    0    0    0 -0.00000000000E+00 -0.00000000000E+00 -0.45593999997E+02  0.45594000000E+02  0.51100000000E-03 0.  1.
    9900012    2    1    2    0    0 -0.29975038528E+02 -0.27186747367E+02  0.39425072251E+01  0.50528861662E+02  0.30000005508E+02 0.  0.
        -12    1    1    2    0    0  0.29975038528E+02  0.27186747367E+02 -0.39425072251E+01  0.40659138338E+02  0.00000000000E+00 0.  1.
         11    1    3    3    0    0 -0.43347359665E+01  0.61269746915E+01  0.27720647961E+01  0.80008810930E+01  0.51100000000E-03 0.  1.
        -11    1    3    3    0    0 -0.15059735581E+02 -0.20182630026E+02 -0.23821442354E+01  0.25294442116E+02  0.51100000000E-03 0. -1.
        -12    1    3    3    0    0 -0.10580566980E+02 -0.13131092033E+02  0.35525866644E+01  0.17233538453E+02  0.00000000000E+00 0.  1.
</event>
<event>
 7    1  0.9868142E-013  0.5052885E+02  0.7816164E-02  0.1300439E+00
        -11   -1    0    0    0    0  0.00000000000E+00  0.00000000000E+00  0.45593999997E+02  0.45594000000E+02  0.51100000000E-03 0.  1.
         11   -1    0    0    0    0 -0.00000000000E+00 -0.00000000000E+00 -0.45593999997E+02  0.45594000000E+02  0.51100000000E-03 0. -1.
    9900012    2    1    2    0    0  0.16042326799E+02 -0.21603007511E+02 -0.30481479648E+02  0.50528846243E+02  0.29999958641E+02 0.  0.
        -12    1    1    2    0    0 -0.16042326799E+02  0.21603007511E+02  0.30481479648E+02  0.40659153757E+02  0.00000000000E+00 0.  1.
         11    1    3    3    0    0  0.21344668668E+01 -0.19863641822E+02 -0.16647313714E+02  0.26004870109E+02  0.51100000000E-03 0. -1.
        -11    1    3    3    0    0  0.64524076573E+01  0.18766056095E+01  0.16880756576E+01  0.69285505610E+01  0.51100000000E-03 0.  1.
         12    1    3    3    0    0  0.74554522750E+01 -0.36159712981E+01 -0.15522241592E+02  0.17595425573E+02  0.00000000000E+00 0. -1.
</event>
<event>
 7    1  0.1130920E-012  0.5052886E+02  0.7816164E-02  0.1300439E+00
        -11   -1    0    0    0    0  0.00000000000E+00  0.00000000000E+00  0.45593999997E+02  0.45594000000E+02  0.51100000000E-03 0. -1.
         11   -1    0    0    0    0 -0.00000000000E+00 -0.00000000000E+00 -0.45593999997E+02  0.45594000000E+02  0.51100000000E-03 0.  1.
    9900012    2    1    2    0    0 -0.24566387044E+01  0.81731779880E+01  0.39753366082E+02  0.50528855555E+02  0.29999986945E+02 0.  0.
        -12    1    1    2    0    0  0.24566387044E+01 -0.81731779880E+01 -0.39753366082E+02  0.40659144445E+02  0.00000000000E+00 0.  1.
         11    1    3    3    0    0 -0.65614468933E+01  0.25687694188E+01  0.33448170655E+02  0.34182324117E+02  0.51100000000E-03 0. -1.
        -11    1    3    3    0    0  0.19566339022E+01 -0.32722553699E+01 -0.17256263328E+01  0.41849561449E+01  0.51100000000E-03 0.  1.
        -12    1    3    3    0    0  0.21481742868E+01  0.88766639392E+01  0.80308217603E+01  0.12161575293E+02  0.00000000000E+00 0.  1.
</event>
<event>
 7    1  0.9868142E-013  0.5052886E+02  0.7816164E-02  0.1300439E+00
        -11   -1    0    0    0    0  0.00000000000E+00  0.00000000000E+00  0.45593999997E+02  0.45594000000E+02  0.51100000000E-03 0.  1.
         11   -1    0    0    0    0 -0.00000000000E+00 -0.00000000000E+00 -0.45593999997E+02  0.45594000000E+02  0.51100000000E-03 0. -1.
    9900012    2    1    2    0    0 -0.13021884318E+02  0.34099761193E+02 -0.17910967768E+02  0.50528856489E+02  0.29999989785E+02 0.  0.
        -12    1    1    2    0    0  0.13021884318E+02 -0.34099761193E+02  0.17910967768E+02  0.40659143511E+02  0.00000000000E+00 0.  1.
         11    1    3    3    0    0  0.15670741756E+01  0.36674379444E+01  0.29989736402E+01  0.49899564831E+01  0.51100000000E-03 0.  1.
        -11    1    3    3    0    0 -0.64987424096E+01  0.31555913838E+02 -0.15595177073E+02  0.35794118221E+02  0.51100000000E-03 0. -1.
        -12    1    3    3    0    0 -0.80902160837E+01 -0.11235905888E+01 -0.53147643354E+01  0.97447817848E+01  0.00000000000E+00 0.  1.
</event>
<event>
 7    1  0.9868142E-013  0.5052886E+02  0.7816164E-02  0.1300439E+00
        -11   -1    0    0    0    0  0.00000000000E+00  0.00000000000E+00  0.45593999997E+02  0.45594000000E+02  0.51100000000E-03 0.  1.
         11   -1    0    0    0    0 -0.00000000000E+00 -0.00000000000E+00 -0.45593999997E+02  0.45594000000E+02  0.51100000000E-03 0. -1.
    9900012    2    1    2    0    0  0.33818659567E+02 -0.10140815818E+02 -0.20165004288E+02  0.50528864762E+02  0.30000014931E+02 0.  0.
        -12    1    1    2    0    0 -0.33818659567E+02  0.10140815818E+02  0.20165004288E+02  0.40659135238E+02  0.00000000000E+00 0.  1.
         11    1    3    3    0    0 -0.23452320543E+01  0.47039018430E+01 -0.37369279091E+01  0.64491422992E+01  0.51100000000E-03 0.  1.
        -11    1    3    3    0    0  0.31261312747E+02 -0.76280477414E+01 -0.13056018005E+02  0.34726306936E+02  0.51100000000E-03 0. -1.
         12    1    3    3    0    0  0.49025788745E+01 -0.72166699194E+01 -0.33720583736E+01  0.93534155270E+01  0.00000000000E+00 0. -1.
</event>
<event>
 7    1  0.9868142E-013  0.5052885E+02  0.7816164E-02  0.1300439E+00
        -11   -1    0    0    0    0  0.00000000000E+00  0.00000000000E+00  0.45593999997E+02  0.45594000000E+02  0.51100000000E-03 0.  1.
         11   -1    0    0    0    0 -0.00000000000E+00 -0.00000000000E+00 -0.45593999997E+02  0.45594000000E+02  0.51100000000E-03 0. -1.
    9900012    2    1    2    0    0  0.24645905673E+02  0.25127125861E+02 -0.20356158850E+02  0.50528851908E+02  0.29999975859E+02 0.  0.
        -12    1    1    2    0    0 -0.24645905673E+02 -0.25127125861E+02  0.20356158850E+02  0.40659148092E+02  0.00000000000E+00 0.  1.
         11    1    3    3    0    0  0.11071546596E+02  0.27205413673E+02 -0.14920279093E+02  0.32944322814E+02  0.51100000000E-03 0. -1.
        -11    1    3    3    0    0 -0.58767530938E+00 -0.68049629146E+00 -0.30188210756E+01  0.31498759372E+01  0.51100000000E-03 0.  1.
         12    1    3    3    0    0  0.14162034386E+02 -0.13977915210E+01 -0.24170586806E+01  0.14434653157E+02  0.00000000000E+00 0. -1.
</event>
<event>
 7    1  0.9868142E-013  0.5052886E+02  0.7816164E-02  0.1300439E+00
        -11   -1    0    0    0    0  0.00000000000E+00  0.00000000000E+00  0.45593999997E+02  0.45594000000E+02  0.51100000000E-03 0.  1.
         11   -1    0    0    0    0 -0.00000000000E+00 -0.00000000000E+00 -0.45593999997E+02  0.45594000000E+02  0.51100000000E-03 0. -1.
    9900012    2    1    2    0    0  0.12023890970E+02  0.18641652896E+02 -0.34074631466E+02  0.50528859744E+02  0.29999999679E+02 0.  0.
        -12    1    1    2    0    0 -0.12023890970E+02 -0.18641652896E+02  0.34074631466E+02  0.40659140256E+02  0.00000000000E+00 0.  1.
         11    1    3    3    0    0 -0.16665669672E+01 -0.18933012416E+01  0.21255445460E+00  0.25312476577E+01  0.51100000000E-03 0.  1.
        -11    1    3    3    0    0  0.16859074588E+02  0.82618227758E+01 -0.28343647781E+02  0.33997771712E+02  0.51100000000E-03 0. -1.
         12    1    3    3    0    0 -0.31686166508E+01  0.12273131362E+02 -0.59435381394E+01  0.13999840375E+02  0.00000000000E+00 0. -1.
</event>
<event>
 7    1  0.9868142E-013  0.5052886E+02  0.7816164E-02  0.1300439E+00
        -11   -1    0    0    0    0  0.00000000000E+00  0.00000000000E+00  0.45593999997E+02  0.45594000000E+02  0.51100000000E-03 0. -1.
         11   -1    0    0    0    0 -0.00000000000E+00 -0.00000000000E+00 -0.45593999997E+02  0.45594000000E+02  0.51100000000E-03 0.  1.
    9900012    2    1    2    0    0 -0.26442515774E+02 -0.27677770467E+02 -0.13707659784E+02  0.50528861356E+02  0.30000004578E+02 0.  0.
        -12    1    1    2    0    0  0.26442515774E+02  0.27677770467E+02  0.13707659784E+02  0.40659138644E+02  0.00000000000E+00 0.  1.
         11    1    3    3    0    0 -0.91406041931E+01 -0.13171937776E+02  0.41842791891E+01  0.16569815400E+02  0.51100000000E-03 0. -1.
        -11    1    3    3    0    0 -0.11230074937E+02 -0.78043608605E+01 -0.20413518170E+02  0.24571006407E+02  0.51100000000E-03 0.  1.
         12    1    3    3    0    0 -0.60718366440E+01 -0.67014718303E+01  0.25215791966E+01  0.93880395487E+01  0.00000000000E+00 0. -1.
</event>
<event>
 7    1  0.9868142E-013  0.5052886E+02  0.7816164E-02  0.1300439E+00
        -11   -1    0    0    0    0  0.00000000000E+00  0.00000000000E+00  0.45593999997E+02  0.45594000000E+02  0.51100000000E-03 0. -1.
         11   -1    0    0    0    0 -0.00000000000E+00 -0.00000000000E+00 -0.45593999997E+02  0.45594000000E+02  0.51100000000E-03 0.  1.
    9900012    2    1    2    0    0 -0.12116451662E+02  0.29242026456E+02  0.25519818890E+02  0.50528859965E+02  0.30000000351E+02 0.  0.
        -12    1    1    2    0    0  0.12116451662E+02 -0.29242026456E+02 -0.25519818890E+02  0.40659140035E+02  0.00000000000E+00 0.  1.
         11    1    3    3    0    0  0.63993683621E+01  0.14515143747E+02  0.38133000287E+01  0.16315102537E+02  0.51100000000E-03 0. -1.
        -11    1    3    3    0    0 -0.10389672888E+02  0.11726298644E+01  0.66845184552E+01  0.12409800593E+02  0.51100000000E-03 0.  1.
         12    1    3    3    0    0 -0.81261471369E+01  0.13554252845E+02  0.15022000406E+02  0.21803956835E+02  0.00000000000E+00 0. -1.
</event>
<event>
 7    1  0.9868142E-013  0.5052888E+02  0.7816164E-02  0.1300439E+00
        -11   -1    0    0    0    0  0.00000000000E+00  0.00000000000E+00  0.45593999997E+02  0.45594000000E+02  0.51100000000E-03 0.  1.
         11   -1    0    0    0    0 -0.00000000000E+00 -0.00000000000E+00 -0.45593999997E+02  0.45594000000E+02  0.51100000000E-03 0. -1.
    9900012    2    1    2    0    0  0.27728667188E+01 -0.26213048809E+02 -0.30957255224E+02  0.50528875948E+02  0.30000048931E+02 0.  0.
        -12    1    1    2    0    0 -0.27728667188E+01  0.26213048809E+02  0.30957255224E+02  0.40659124052E+02  0.00000000000E+00 0.  1.
         11    1    3    3    0    0  0.65647862267E+01 -0.18632728613E+02 -0.25313998883E+02  0.32110333749E+02  0.51100000000E-03 0. -1.
        -11    1    3    3    0    0 -0.79026960818E+01 -0.90520928921E+00 -0.68369173308E+01  0.10488824914E+02  0.51100000000E-03 0.  1.
         12    1    3    3    0    0  0.41107765740E+01 -0.66751109069E+01  0.11936609902E+01  0.79297172850E+01  0.00000000000E+00 0. -1.
</event>
<event>
 7    1  0.9868142E-013  0.5052886E+02  0.7816164E-02  0.1300439E+00
        -11   -1    0    0    0    0  0.00000000000E+00  0.00000000000E+00  0.45593999997E+02  0.45594000000E+02  0.51100000000E-03 0.  1.
         11   -1    0    0    0    0 -0.00000000000E+00 -0.00000000000E+00 -0.45593999997E+02  0.45594000000E+02  0.51100000000E-03 0. -1.
    9900012    2    1    2    0    0 -0.80299844693E+01 -0.19209362825E+02 -0.34923992244E+02  0.50528861975E+02  0.30000006458E+02 0.  0.
        -12    1    1    2    0    0  0.80299844693E+01  0.19209362825E+02  0.34923992244E+02  0.40659138025E+02  0.00000000000E+00 0.  1.
         11    1    3    3    0    0 -0.15127461236E+02 -0.58291843118E+01 -0.17146698846E+02  0.23597219217E+02  0.51100000000E-03 0. -1.
        -11    1    3    3    0    0 -0.43535742646E+00 -0.10343126125E+02 -0.43288950687E+01  0.11220923621E+02  0.51100000000E-03 0.  1.
         12    1    3    3    0    0  0.75328341928E+01 -0.30370523875E+01 -0.13448398329E+02  0.15710719137E+02  0.00000000000E+00 0. -1.
</event>
<event>
 7    1  0.9868142E-013  0.5052886E+02  0.7816164E-02  0.1300439E+00
        -11   -1    0    0    0    0  0.00000000000E+00  0.00000000000E+00  0.45593999997E+02  0.45594000000E+02  0.51100000000E-03 0.  1.
         11   -1    0    0    0    0 -0.00000000000E+00 -0.00000000000E+00 -0.45593999997E+02  0.45594000000E+02  0.51100000000E-03 0. -1.
    9900012    2    1    2    0    0 -0.24732001682E+02  0.34921382358E+01 -0.32082683223E+02  0.50528862042E+02  0.30000006664E+02 0.  0.
        -12    1    1    2    0    0  0.24732001682E+02 -0.34921382358E+01  0.32082683223E+02  0.40659137958E+02  0.00000000000E+00 0.  1.
         11    1    3    3    0    0 -0.13389180437E+02  0.11604504183E+02 -0.21036737003E+02  0.27504162850E+02  0.51100000000E-03 0. -1.
        -11    1    3    3    0    0 -0.27210509387E+00 -0.82409471502E+01 -0.14469395063E+01  0.83714326916E+01  0.51100000000E-03 0.  1.
         12    1    3    3    0    0 -0.11070716152E+02  0.12858120290E+00 -0.95990067136E+01  0.14653266500E+02  0.00000000000E+00 0. -1.
</event>
<event>
 7    1  0.9868142E-013  0.5052887E+02  0.7816164E-02  0.1300439E+00
        -11   -1    0    0    0    0  0.00000000000E+00  0.00000000000E+00  0.45593999997E+02  0.45594000000E+02  0.51100000000E-03 0.  1.
         11   -1    0    0    0    0 -0.00000000000E+00 -0.00000000000E+00 -0.45593999997E+02  0.45594000000E+02  0.51100000000E-03 0. -1.
    9900012    2    1    2    0    0 -0.20195128414E+02 -0.34854446479E+02 -0.55217061532E+01  0.50528869539E+02  0.30000029450E+02 0.  0.
        -12    1    1    2    0    0  0.20195128414E+02  0.34854446479E+02  0.55217061532E+01  0.40659130461E+02  0.00000000000E+00 0.  1.
         11    1    3    3    0    0 -0.12840008728E+01 -0.10178462088E+02  0.44101110557E+01  0.11166862966E+02  0.51100000000E-03 0. -1.
        -11    1    3    3    0    0 -0.15124517982E+02 -0.19673767759E+02 -0.16870895645E+02  0.30007254159E+02  0.51100000000E-03 0.  1.
        -12    1    3    3    0    0 -0.37866095589E+01 -0.50022166318E+01  0.69390784360E+01  0.93547524139E+01  0.00000000000E+00 0.  1.
</event>
<event>
 7    1  0.9868142E-013  0.5052890E+02  0.7816164E-02  0.1300439E+00
        -11   -1    0    0    0    0  0.00000000000E+00  0.00000000000E+00  0.45593999997E+02  0.45594000000E+02  0.51100000000E-03 0. -1.
         11   -1    0    0    0    0 -0.00000000000E+00 -0.00000000000E+00 -0.45593999997E+02  0.45594000000E+02  0.51100000000E-03 0.  1.
    9900012    2    1    2    0    0  0.59725701302E+00  0.38388644218E+02 -0.13383487801E+02  0.50528899339E+02  0.30000120030E+02 0.  0.
        -12    1    1    2    0    0 -0.59725701302E+00 -0.38388644218E+02  0.13383487801E+02  0.40659100661E+02  0.00000000000E+00 0.  1.
         11    1    3    3    0    0  0.10502575252E+02  0.20555535835E+02  0.26796204241E+01  0.23238212200E+02  0.51100000000E-03 0. -1.
        -11    1    3    3    0    0 -0.84714406347E+01  0.11500588475E+02 -0.64077793338E+01  0.15655301912E+02  0.51100000000E-03 0.  1.
         12    1    3    3    0    0 -0.14338776043E+01  0.63325199087E+01 -0.96553288912E+01  0.11635385227E+02  0.00000000000E+00 0. -1.
</event>
<event>
 7    1  0.9868142E-013  0.5052886E+02  0.7816164E-02  0.1300439E+00
        -11   -1    0    0    0    0  0.00000000000E+00  0.00000000000E+00  0.45593999997E+02  0.45594000000E+02  0.51100000000E-03 0. -1.
         11   -1    0    0    0    0 -0.00000000000E+00 -0.00000000000E+00 -0.45593999997E+02  0.45594000000E+02  0.51100000000E-03 0.  1.
    9900012    2    1    2    0    0  0.28200975596E+02 -0.15930548646E+02 -0.24578210277E+02  0.50528858037E+02  0.29999994490E+02 0.  0.
        -12    1    1    2    0    0 -0.28200975596E+02  0.15930548646E+02  0.24578210277E+02  0.40659141963E+02  0.00000000000E+00 0.  1.
         11    1    3    3    0    0  0.24942478597E+02 -0.19587410427E+02 -0.10033704831E+02  0.33263630570E+02  0.51100000000E-03 0. -1.
        -11    1    3    3    0    0  0.19699114269E+01 -0.19473751944E+00 -0.12613907699E+02  0.12768286550E+02  0.51100000000E-03 0.  1.
         12    1    3    3    0    0  0.12885855723E+01  0.38515993007E+01 -0.19305977467E+01  0.44969409169E+01  0.00000000000E+00 0. -1.
</event>
<event>
 7    1  0.9868142E-013  0.5052886E+02  0.7816164E-02  0.1300439E+00
        -11   -1    0    0    0    0  0.00000000000E+00  0.00000000000E+00  0.45593999997E+02  0.45594000000E+02  0.51100000000E-03 0.  1.
         11   -1    0    0    0    0 -0.00000000000E+00 -0.00000000000E+00 -0.45593999997E+02  0.45594000000E+02  0.51100000000E-03 0. -1.
    9900012    2    1    2    0    0 -0.26249157976E+02  0.83736731509E+00 -0.31039431994E+02  0.50528858137E+02  0.29999994795E+02 0.  0.
        -12    1    1    2    0    0  0.26249157976E+02 -0.83736731509E+00  0.31039431994E+02  0.40659141863E+02  0.00000000000E+00 0.  1.
         11    1    3    3    0    0 -0.19242490134E+02  0.65042877646E+01 -0.74220441827E+01  0.21625584986E+02  0.51100000000E-03 0. -1.
        -11    1    3    3    0    0 -0.80973015296E+01 -0.71568985963E+01 -0.87043420369E+01  0.13876348948E+02  0.51100000000E-03 0.  1.
         12    1    3    3    0    0  0.10906336878E+01  0.14899781468E+01 -0.14913045775E+02  0.15026924203E+02  0.00000000000E+00 0. -1.
</event>
<event>
 7    1  0.9868142E-013  0.5052889E+02  0.7816164E-02  0.1300439E+00
        -11   -1    0    0    0    0  0.00000000000E+00  0.00000000000E+00  0.45593999997E+02  0.45594000000E+02  0.51100000000E-03 0.  1.
         11   -1    0    0    0    0 -0.00000000000E+00 -0.00000000000E+00 -0.45593999997E+02  0.45594000000E+02  0.51100000000E-03 0. -1.
    9900012    2    1    2    0    0 -0.38474487947E+02 -0.76602317861E+01  0.10686327567E+02  0.50528893140E+02  0.30000101188E+02 0.  0.
        -12    1    1    2    0    0  0.38474487947E+02  0.76602317861E+01 -0.10686327567E+02  0.40659106860E+02  0.00000000000E+00 0.  1.
         11    1    3    3    0    0 -0.26518172858E+02  0.71231289888E+01 -0.80446196158E+00  0.27469976659E+02  0.51100000000E-03 0. -1.
        -11    1    3    3    0    0 -0.31789288791E+01 -0.80930827872E+01  0.32390906840E+01  0.92787545791E+01  0.51100000000E-03 0.  1.
         12    1    3    3    0    0 -0.87773862097E+01 -0.66902779877E+01  0.82516988449E+01  0.13780161902E+02  0.00000000000E+00 0. -1.
</event>
<event>
 7    1  0.9868142E-013  0.5052885E+02  0.7816164E-02  0.1300439E+00
        -11   -1    0    0    0    0  0.00000000000E+00  0.00000000000E+00  0.45593999997E+02  0.45594000000E+02  0.51100000000E-03 0. -1.
         11   -1    0    0    0    0 -0.00000000000E+00 -0.00000000000E+00 -0.45593999997E+02  0.45594000000E+02  0.51100000000E-03 0.  1.
    9900012    2    1    2    0    0 -0.24988188504E+02 -0.21254750467E+02  0.24020670171E+02  0.50528848784E+02  0.29999966365E+02 0.  0.
        -12    1    1    2    0    0  0.24988188504E+02  0.21254750467E+02 -0.24020670171E+02  0.40659151216E+02  0.00000000000E+00 0.  1.
         11    1    3    3    0    0 -0.42823456776E+01 -0.20911822447E+02  0.12498507719E+02  0.24735713008E+02  0.51100000000E-03 0. -1.
        -11    1    3    3    0    0 -0.12192000758E+01  0.28525216606E+01  0.28977669579E+01  0.42450420790E+01  0.51100000000E-03 0.  1.
         12    1    3    3    0    0 -0.19486642750E+02 -0.31954496802E+01  0.86243954947E+01  0.21548093697E+02  0.00000000000E+00 0. -1.
</event>
<event>
 7    1  0.9868142E-013  0.5052885E+02  0.7816164E-02  0.1300439E+00
        -11   -1    0    0    0    0  0.00000000000E+00  0.00000000000E+00  0.45593999997E+02  0.45594000000E+02  0.51100000000E-03 0.  1.
         11   -1    0    0    0    0 -0.00000000000E+00 -0.00000000000E+00 -0.45593999997E+02  0.45594000000E+02  0.51100000000E-03 0. -1.
    9900012    2    1    2    0    0  0.28390365968E+02 -0.28182891427E+02  0.72717151612E+01  0.50528854776E+02  0.29999984577E+02 0.  0.
        -12    1    1    2    0    0 -0.28390365968E+02  0.28182891427E+02 -0.72717151612E+01  0.40659145224E+02  0.00000000000E+00 0.  1.
         11    1    3    3    0    0 -0.12347567942E+01  0.45272288804E+00  0.56114743702E+01  0.57635255897E+01  0.51100000000E-03 0.  1.
        -11    1    3    3    0    0  0.18186053490E+02 -0.25909717325E+02  0.60224948667E+01  0.32222917901E+02  0.51100000000E-03 0. -1.
         12    1    3    3    0    0  0.11439069273E+02 -0.27258969900E+01 -0.43622540757E+01  0.12542411285E+02  0.00000000000E+00 0. -1.
</event>
<event>
 7    1  0.9868142E-013  0.5052886E+02  0.7816164E-02  0.1300439E+00
        -11   -1    0    0    0    0  0.00000000000E+00  0.00000000000E+00  0.45593999997E+02  0.45594000000E+02  0.51100000000E-03 0. -1.
         11   -1    0    0    0    0 -0.00000000000E+00 -0.00000000000E+00 -0.45593999997E+02  0.45594000000E+02  0.51100000000E-03 0.  1.
    9900012    2    1    2    0    0  0.31156730420E+02 -0.19687124123E+02  0.17170941831E+02  0.50528856500E+02  0.29999989819E+02 0.  0.
        -12    1    1    2    0    0 -0.31156730420E+02  0.19687124123E+02 -0.17170941831E+02  0.40659143500E+02  0.00000000000E+00 0.  1.
         11    1    3    3    0    0  0.71456015612E+01 -0.12612045777E+02  0.11296955978E+02  0.18377827265E+02  0.51100000000E-03 0. -1.
        -11    1    3    3    0    0  0.78376546729E+01  0.46503476757E+01 -0.38983532685E+01  0.99122007013E+01  0.51100000000E-03 0.  1.
         12    1    3    3    0    0  0.16173474186E+02 -0.11725426022E+02  0.97723391215E+01  0.22238828534E+02  0.00000000000E+00 0. -1.
</event>
<event>
 7    1  0.9868142E-013  0.5052886E+02  0.7816164E-02  0.1300439E+00
        -11   -1    0    0    0    0  0.00000000000E+00  0.00000000000E+00  0.45593999997E+02  0.45594000000E+02  0.51100000000E-03 0.  1.
         11   -1    0    0    0    0 -0.00000000000E+00 -0.00000000000E+00 -0.45593999997E+02  0.45594000000E+02  0.51100000000E-03 0. -1.
    9900012    2    1    2    0    0 -0.50914941566E+01 -0.39356174300E+02  0.88506402786E+01  0.50528860786E+02  0.30000002846E+02 0.  0.
        -12    1    1    2    0    0  0.50914941566E+01  0.39356174300E+02 -0.88506402786E+01  0.40659139214E+02  0.00000000000E+00 0.  1.
         11    1    3    3    0    0  0.97287960241E+01 -0.12153537141E+02  0.33373747430E+01  0.15921557950E+02  0.51100000000E-03 0.  1.
        -11    1    3    3    0    0 -0.13514305394E+02 -0.11461536028E+02  0.62629012650E+01  0.18794339332E+02  0.51100000000E-03 0. -1.
         12    1    3    3    0    0 -0.13059847869E+01 -0.15741101131E+02 -0.74963572940E+00  0.15812963505E+02  0.00000000000E+00 0. -1.
</event>
<event>
 7    1  0.9868142E-013  0.5052887E+02  0.7816164E-02  0.1300439E+00
        -11   -1    0    0    0    0  0.00000000000E+00  0.00000000000E+00  0.45593999997E+02  0.45594000000E+02  0.51100000000E-03 0.  1.
         11   -1    0    0    0    0 -0.00000000000E+00 -0.00000000000E+00 -0.45593999997E+02  0.45594000000E+02  0.51100000000E-03 0. -1.
    9900012    2    1    2    0    0  0.16294133943E+02 -0.17009343847E+02 -0.33141340968E+02  0.50528867443E+02  0.30000023081E+02 0.  0.
        -12    1    1    2    0    0 -0.16294133943E+02  0.17009343847E+02  0.33141340968E+02  0.40659132557E+02  0.00000000000E+00 0.  1.
         11    1    3    3    0    0  0.22248616971E+02 -0.14000915372E+02 -0.15325902902E+02  0.30428767448E+02  0.51100000000E-03 0. -1.
        -11    1    3    3    0    0 -0.19632088608E+01  0.13715856479E+01 -0.10053043033E+02  0.10334365520E+02  0.51100000000E-03 0.  1.
         12    1    3    3    0    0 -0.39912741665E+01 -0.43800141225E+01 -0.77623950337E+01  0.97657344755E+01  0.00000000000E+00 0. -1.
</event>
<event>
 7    1  0.9868142E-013  0.5052883E+02  0.7816164E-02  0.1300439E+00
        -11   -1    0    0    0    0  0.00000000000E+00  0.00000000000E+00  0.45593999997E+02  0.45594000000E+02  0.51100000000E-03 0.  1.
         11   -1    0    0    0    0 -0.00000000000E+00 -0.00000000000E+00 -0.45593999997E+02  0.45594000000E+02  0.51100000000E-03 0. -1.
    9900012    2    1    2    0    0 -0.29860651726E+02  0.16654090932E+02 -0.22003422434E+02  0.50528832952E+02  0.29999918241E+02 0.  0.
        -12    1    1    2    0    0  0.29860651726E+02 -0.16654090932E+02  0.22003422434E+02  0.40659167048E+02  0.00000000000E+00 0.  1.
         11    1    3    3    0    0 -0.14378031343E+02  0.88876429271E+01 -0.11649522208E+02  0.20528744483E+02  0.51100000000E-03 0. -1.
        -11    1    3    3    0    0 -0.10931615596E+02  0.89729201316E+01  0.41599057846E+01  0.14741720782E+02  0.51100000000E-03 0.  1.
        -12    1    3    3    0    0 -0.45510047861E+01 -0.12064721269E+01 -0.14513806010E+02  0.15258367687E+02  0.00000000000E+00 0.  1.
</event>
<event>
 7    1  0.9868142E-013  0.5052888E+02  0.7816164E-02  0.1300439E+00
        -11   -1    0    0    0    0  0.00000000000E+00  0.00000000000E+00  0.45593999997E+02  0.45594000000E+02  0.51100000000E-03 0.  1.
         11   -1    0    0    0    0 -0.00000000000E+00 -0.00000000000E+00 -0.45593999997E+02  0.45594000000E+02  0.51100000000E-03 0. -1.
    9900012    2    1    2    0    0  0.23608178493E+02 -0.27523002925E+02 -0.18392996279E+02  0.50528879327E+02  0.30000059202E+02 0.  0.
        -12    1    1    2    0    0 -0.23608178493E+02  0.27523002925E+02  0.18392996279E+02  0.40659120673E+02  0.00000000000E+00 0.  1.
         11    1    3    3    0    0  0.59864894627E+01  0.13610524751E+01 -0.70571314395E+01  0.93538026675E+01  0.51100000000E-03 0. -1.
        -11    1    3    3    0    0  0.17830371920E+02 -0.21964912275E+02 -0.47402545030E+00  0.28294950688E+02  0.51100000000E-03 0.  1.
        -12    1    3    3    0    0 -0.20868288888E+00 -0.69191431255E+01 -0.10861839389E+02  0.12880125972E+02  0.00000000000E+00 0.  1.
</event>
<event>
 7    1  0.9868142E-013  0.5052885E+02  0.7816164E-02  0.1300439E+00
        -11   -1    0    0    0    0  0.00000000000E+00  0.00000000000E+00  0.45593999997E+02  0.45594000000E+02  0.51100000000E-03 0. -1.
         11   -1    0    0    0    0 -0.00000000000E+00 -0.00000000000E+00 -0.45593999997E+02  0.45594000000E+02  0.51100000000E-03 0.  1.
    9900012    2    1    2    0    0 -0.36028955567E+02 -0.10642436302E+02  0.15550541374E+02  0.50528850640E+02  0.29999972004E+02 0.  0.
        -12    1    1    2    0    0  0.36028955567E+02  0.10642436302E+02 -0.15550541374E+02  0.40659149360E+02  0.00000000000E+00 0.  1.
         11    1    3    3    0    0 -0.30556947826E+02 -0.18727949298E+02  0.17862531171E+02  0.40044140214E+02  0.51100000000E-03 0. -1.
        -11    1    3    3    0    0 -0.82969782268E+00  0.36264792927E+01 -0.14392738295E+01  0.39888920711E+01  0.51100000000E-03 0.  1.
         12    1    3    3    0    0 -0.46423099181E+01  0.44590337028E+01 -0.87271596791E+00  0.64958183548E+01  0.00000000000E+00 0. -1.
</event>
<event>
 7    1  0.9868142E-013  0.5052886E+02  0.7816164E-02  0.1300439E+00
        -11   -1    0    0    0    0  0.00000000000E+00  0.00000000000E+00  0.45593999997E+02  0.45594000000E+02  0.51100000000E-03 0. -1.
         11   -1    0    0    0    0 -0.00000000000E+00 -0.00000000000E+00 -0.45593999997E+02  0.45594000000E+02  0.51100000000E-03 0.  1.
    9900012    2    1    2    0    0 -0.21606849425E+02 -0.33521710596E+02 -0.79123058089E+01  0.50528860726E+02  0.30000002662E+02 0.  0.
        -12    1    1    2    0    0  0.21606849425E+02  0.33521710596E+02  0.79123058089E+01  0.40659139274E+02  0.00000000000E+00 0.  1.
         11    1    3    3    0    0 -0.11214747910E+02 -0.56488323293E+01  0.87910383757E+01  0.15328477855E+02  0.51100000000E-03 0. -1.
        -11    1    3    3    0    0 -0.40877185922E+01 -0.15154362771E+02 -0.13371249109E+02  0.20619273927E+02  0.51100000000E-03 0.  1.
         12    1    3    3    0    0 -0.63043829227E+01 -0.12718515496E+02 -0.33320950761E+01  0.14581108944E+02  0.00000000000E+00 0. -1.
</event>
<event>
 7    1  0.9868142E-013  0.5052889E+02  0.7816164E-02  0.1300439E+00
        -11   -1    0    0    0    0  0.00000000000E+00  0.00000000000E+00  0.45593999997E+02  0.45594000000E+02  0.51100000000E-03 0.  1.
         11   -1    0    0    0    0 -0.00000000000E+00 -0.00000000000E+00 -0.45593999997E+02  0.45594000000E+02  0.51100000000E-03 0. -1.
    9900012    2    1    2    0    0  0.28396342699E+01  0.27872738714E+02 -0.29465412161E+02  0.50528885400E+02  0.30000077663E+02 0.  0.
        -12    1    1    2    0    0 -0.28396342699E+01 -0.27872738714E+02  0.29465412161E+02  0.40659114600E+02  0.00000000000E+00 0.  1.
         11    1    3    3    0    0  0.11247344532E+02  0.56546843551E+01 -0.23846417386E+01  0.12812678512E+02  0.51100000000E-03 0. -1.
        -11    1    3    3    0    0 -0.47697116107E+01  0.12550083927E+01 -0.59693849268E+01  0.77433036606E+01  0.51100000000E-03 0.  1.
         12    1    3    3    0    0 -0.36379986510E+01  0.20963045966E+02 -0.21111385496E+02  0.29972903228E+02  0.00000000000E+00 0. -1.
</event>
<event>
 7    1  0.9868142E-013  0.5052883E+02  0.7816164E-02  0.1300439E+00
        -11   -1    0    0    0    0  0.00000000000E+00  0.00000000000E+00  0.45593999997E+02  0.45594000000E+02  0.51100000000E-03 0. -1.
         11   -1    0    0    0    0 -0.00000000000E+00 -0.00000000000E+00 -0.45593999997E+02  0.45594000000E+02  0.51100000000E-03 0.  1.
    9900012    2    1    2    0    0  0.16821279084E+01 -0.23359785829E+02  0.33236414053E+02  0.50528826775E+02  0.29999899466E+02 0.  0.
        -12    1    1    2    0    0 -0.16821279084E+01  0.23359785829E+02 -0.33236414053E+02  0.40659173225E+02  0.00000000000E+00 0.  1.
         11    1    3    3    0    0 -0.12656898742E+01 -0.19954615461E+02  0.28315988787E+02  0.34663869811E+02  0.51100000000E-03 0. -1.
        -11    1    3    3    0    0 -0.54889733509E+01 -0.27135069935E+01  0.10062546630E+00  0.61238937283E+01  0.51100000000E-03 0.  1.
         12    1    3    3    0    0  0.84367911335E+01 -0.69166337371E+00  0.48197997997E+01  0.97410632357E+01  0.00000000000E+00 0. -1.
</event>
<event>
 7    1  0.9868142E-013  0.5052887E+02  0.7816164E-02  0.1300439E+00
        -11   -1    0    0    0    0  0.00000000000E+00  0.00000000000E+00  0.45593999997E+02  0.45594000000E+02  0.51100000000E-03 0. -1.
         11   -1    0    0    0    0 -0.00000000000E+00 -0.00000000000E+00 -0.45593999997E+02  0.45594000000E+02  0.51100000000E-03 0.  1.
    9900012    2    1    2    0    0  0.15849957667E+02  0.28930095640E+02  0.23769592747E+02  0.50528866572E+02  0.30000020432E+02 0.  0.
        -12    1    1    2    0    0 -0.15849957667E+02 -0.28930095640E+02 -0.23769592747E+02  0.40659133428E+02  0.00000000000E+00 0.  1.
         11    1    3    3    0    0  0.69525391552E+01  0.10095521287E+02 -0.26886106028E+01  0.12549341735E+02  0.51100000000E-03 0. -1.
        -11    1    3    3    0    0 -0.18771990269E+01 -0.25074340008E+01  0.47316234239E+01  0.56744481619E+01  0.51100000000E-03 0.  1.
         12    1    3    3    0    0  0.10774617539E+02  0.21342008354E+02  0.21726579926E+02  0.32305076675E+02  0.00000000000E+00 0. -1.
</event>
<event>
 7    1  0.9868142E-013  0.5052887E+02  0.7816164E-02  0.1300439E+00
        -11   -1    0    0    0    0  0.00000000000E+00  0.00000000000E+00  0.45593999997E+02  0.45594000000E+02  0.51100000000E-03 0.  1.
         11   -1    0    0    0    0 -0.00000000000E+00 -0.00000000000E+00 -0.45593999997E+02  0.45594000000E+02  0.51100000000E-03 0. -1.
    9900012    2    1    2    0    0  0.18308399551E+02  0.32030022864E+02 -0.17089324108E+02  0.50528869940E+02  0.30000030669E+02 0.  0.
        -12    1    1    2    0    0 -0.18308399551E+02 -0.32030022864E+02  0.17089324108E+02  0.40659130060E+02  0.00000000000E+00 0.  1.
         11    1    3    3    0    0 -0.31711929935E+00 -0.13319309355E+01 -0.50216645319E+00  0.14583470351E+01  0.51100000000E-03 0. -1.
        -11    1    3    3    0    0  0.99928223914E+01  0.35834373691E+02 -0.13255701775E+02  0.39492688779E+02  0.51100000000E-03 0.  1.
        -12    1    3    3    0    0  0.86326964586E+01 -0.24724198916E+01 -0.33314558796E+01  0.95778341260E+01  0.00000000000E+00 0.  1.
</event>
<event>
 7    1  0.9868142E-013  0.5052886E+02  0.7816164E-02  0.1300439E+00
        -11   -1    0    0    0    0  0.00000000000E+00  0.00000000000E+00  0.45593999997E+02  0.45594000000E+02  0.51100000000E-03 0.  1.
         11   -1    0    0    0    0 -0.00000000000E+00 -0.00000000000E+00 -0.45593999997E+02  0.45594000000E+02  0.51100000000E-03 0. -1.
    9900012    2    1    2    0    0  0.37432109890E+02 -0.10308575923E+02  0.12072109004E+02  0.50528863214E+02  0.30000010224E+02 0.  0.
        -12    1    1    2    0    0 -0.37432109890E+02  0.10308575923E+02 -0.12072109004E+02  0.40659136786E+02  0.00000000000E+00 0.  1.
         11    1    3    3    0    0  0.36003560697E+02 -0.31752059989E+01  0.43376165938E+01  0.36402654216E+02  0.51100000000E-03 0. -1.
        -11    1    3    3    0    0 -0.25821696722E+01 -0.11974567224E+01  0.61680173294E+01  0.67930803657E+01  0.51100000000E-03 0.  1.
         12    1    3    3    0    0  0.40107188660E+01 -0.59359132016E+01  0.15664750810E+01  0.73331286323E+01  0.00000000000E+00 0. -1.
</event>
<event>
 7    1  0.9868142E-013  0.5052887E+02  0.7816164E-02  0.1300439E+00
        -11   -1    0    0    0    0  0.00000000000E+00  0.00000000000E+00  0.45593999997E+02  0.45594000000E+02  0.51100000000E-03 0. -1.
         11   -1    0    0    0    0 -0.00000000000E+00 -0.00000000000E+00 -0.45593999997E+02  0.45594000000E+02  0.51100000000E-03 0.  1.
    9900012    2    1    2    0    0 -0.23564362305E+02 -0.47822322746E+01  0.32787439920E+02  0.50528866551E+02  0.30000020368E+02 0.  0.
        -12    1    1    2    0    0  0.23564362305E+02  0.47822322746E+01 -0.32787439920E+02  0.40659133449E+02  0.00000000000E+00 0.  1.
         11    1    3    3    0    0  0.15154248152E+01 -0.11668780588E+01  0.20426875768E+02  0.20516222134E+02  0.51100000000E-03 0. -1.
        -11    1    3    3    0    0 -0.70806994605E+01  0.12989528803E+01 -0.70735628975E+00  0.72335286421E+01  0.51100000000E-03 0.  1.
         12    1    3    3    0    0 -0.17999087659E+02 -0.49143070961E+01  0.13067920442E+02  0.22779115775E+02  0.00000000000E+00 0. -1.
</event>
<event>
 7    1  0.9868142E-013  0.5052886E+02  0.7816164E-02  0.1300439E+00
        -11   -1    0    0    0    0  0.00000000000E+00  0.00000000000E+00  0.45593999997E+02  0.45594000000E+02  0.51100000000E-03 0. -1.
         11   -1    0    0    0    0 -0.00000000000E+00 -0.00000000000E+00 -0.45593999997E+02  0.45594000000E+02  0.51100000000E-03 0.  1.
    9900012    2    1    2    0    0  0.21544561981E+02 -0.23563902388E+02  0.25174199043E+02  0.50528856574E+02  0.29999990041E+02 0.  0.
        -12    1    1    2    0    0 -0.21544561981E+02  0.23563902388E+02 -0.25174199043E+02  0.40659143426E+02  0.00000000000E+00 0.  1.
         11    1    3    3    0    0  0.26221529694E+02 -0.11301266776E+02  0.12428869560E+02  0.31141034810E+02  0.51100000000E-03 0. -1.
        -11    1    3    3    0    0 -0.49395826056E+00 -0.56950524055E+01  0.18743551703E+01  0.60158810020E+01  0.51100000000E-03 0.  1.
         12    1    3    3    0    0 -0.41830094515E+01 -0.65675832066E+01  0.10870974312E+02  0.13371940762E+02  0.00000000000E+00 0. -1.
</event>
<event>
 7    1  0.9868142E-013  0.5052887E+02  0.7816164E-02  0.1300439E+00
        -11   -1    0    0    0    0  0.00000000000E+00  0.00000000000E+00  0.45593999997E+02  0.45594000000E+02  0.51100000000E-03 0.  1.
         11   -1    0    0    0    0 -0.00000000000E+00 -0.00000000000E+00 -0.45593999997E+02  0.45594000000E+02  0.51100000000E-03 0. -1.
    9900012    2    1    2    0    0  0.26677718011E+02  0.26826136869E+02  0.14893716177E+02  0.50528867703E+02  0.30000023869E+02 0.  0.
        -12    1    1    2    0    0 -0.26677718011E+02 -0.26826136869E+02 -0.14893716177E+02  0.40659132297E+02  0.00000000000E+00 0.  1.
         11    1    3    3    0    0  0.29113334551E+02  0.22330297224E+02  0.15228326806E+02  0.39725688922E+02  0.51100000000E-03 0. -1.
        -11    1    3    3    0    0 -0.37065274252E+01  0.11674699236E+01  0.37380719607E+01  0.53920788033E+01  0.51100000000E-03 0.  1.
        -12    1    3    3    0    0  0.12709108858E+01  0.33283697222E+01 -0.40726825901E+01  0.54110999775E+01  0.00000000000E+00 0.  1.
</event>
<event>
 7    1  0.9868142E-013  0.5052884E+02  0.7816164E-02  0.1300439E+00
        -11   -1    0    0    0    0  0.00000000000E+00  0.00000000000E+00  0.45593999997E+02  0.45594000000E+02  0.51100000000E-03 0.  1.
         11   -1    0    0    0    0 -0.00000000000E+00 -0.00000000000E+00 -0.45593999997E+02  0.45594000000E+02  0.51100000000E-03 0. -1.
    9900012    2    1    2    0    0  0.31964749931E+02  0.56300248170E+01 -0.24489277173E+02  0.50528842187E+02  0.29999946313E+02 0.  0.
        -12    1    1    2    0    0 -0.31964749931E+02 -0.56300248170E+01  0.24489277173E+02  0.40659157813E+02  0.00000000000E+00 0.  1.
         11    1    3    3    0    0  0.72062564807E+00  0.86898119475E+00 -0.18540274257E+01  0.21706790637E+01  0.51100000000E-03 0. -1.
        -11    1    3    3    0    0  0.12822746926E+02  0.13356292263E+02 -0.20951944910E+02  0.27960639791E+02  0.51100000000E-03 0.  1.
        -12    1    3    3    0    0  0.18421377357E+02 -0.85952486409E+01 -0.16833048372E+01  0.20397523332E+02  0.00000000000E+00 0.  1.
</event>
<event>
 7    1  0.9868142E-013  0.5052886E+02  0.7816164E-02  0.1300439E+00
        -11   -1    0    0    0    0  0.00000000000E+00  0.00000000000E+00  0.45593999997E+02  0.45594000000E+02  0.51100000000E-03 0.  1.
         11   -1    0    0    0    0 -0.00000000000E+00 -0.00000000000E+00 -0.45593999997E+02  0.45594000000E+02  0.51100000000E-03 0. -1.
    9900012    2    1    2    0    0  0.30114334586E+02 -0.22174383147E+02 -0.15955852555E+02  0.50528860237E+02  0.30000001177E+02 0.  0.
        -12    1    1    2    0    0 -0.30114334586E+02  0.22174383147E+02  0.15955852555E+02  0.40659139763E+02  0.00000000000E+00 0.  1.
         11    1    3    3    0    0  0.32247576614E+02 -0.24570360648E+02 -0.15491851664E+02  0.43400533269E+02  0.51100000000E-03 0. -1.
        -11    1    3    3    0    0  0.24668666399E+00 -0.20529318745E+01 -0.12538292036E+00  0.20714981847E+01  0.51100000000E-03 0.  1.
         12    1    3    3    0    0 -0.23799286917E+01  0.44489093759E+01 -0.33861797101E+00  0.50568287832E+01  0.00000000000E+00 0. -1.
</event>
<event>
 7    1  0.9868142E-013  0.5052886E+02  0.7816164E-02  0.1300439E+00
        -11   -1    0    0    0    0  0.00000000000E+00  0.00000000000E+00  0.45593999997E+02  0.45594000000E+02  0.51100000000E-03 0.  1.
         11   -1    0    0    0    0 -0.00000000000E+00 -0.00000000000E+00 -0.45593999997E+02  0.45594000000E+02  0.51100000000E-03 0. -1.
    9900012    2    1    2    0    0  0.22260130450E+02 -0.11641461936E+02 -0.31970742875E+02  0.50528862729E+02  0.30000008750E+02 0.  0.
        -12    1    1    2    0    0 -0.22260130450E+02  0.11641461936E+02  0.31970742875E+02  0.40659137271E+02  0.00000000000E+00 0.  1.
         11    1    3    3    0    0 -0.21239333936E+01 -0.10334703876E+02 -0.89282380320E+01  0.13821383140E+02  0.51100000000E-03 0. -1.
        -11    1    3    3    0    0  0.15737375027E+02  0.44272204728E+01 -0.20128066181E+02  0.25930759771E+02  0.51100000000E-03 0.  1.
        -12    1    3    3    0    0  0.86466888172E+01 -0.57339785327E+01 -0.29144386613E+01  0.10776719818E+02  0.00000000000E+00 0.  1.
</event>
<event>
 7    1  0.9868142E-013  0.5052885E+02  0.7816164E-02  0.1300439E+00
        -11   -1    0    0    0    0  0.00000000000E+00  0.00000000000E+00  0.45593999997E+02  0.45594000000E+02  0.51100000000E-03 0.  1.
         11   -1    0    0    0    0 -0.00000000000E+00 -0.00000000000E+00 -0.45593999997E+02  0.45594000000E+02  0.51100000000E-03 0. -1.
    9900012    2    1    2    0    0  0.39703631037E+02 -0.60834903243E+01 -0.63070647265E+01  0.50528852966E+02  0.29999979077E+02 0.  0.
        -12    1    1    2    0    0 -0.39703631037E+02  0.60834903243E+01  0.63070647265E+01  0.40659147034E+02  0.00000000000E+00 0.  1.
         11    1    3    3    0    0  0.29415878871E+02  0.31188430754E+01 -0.31422834126E+01  0.29747185702E+02  0.51100000000E-03 0. -1.
        -11    1    3    3    0    0  0.77660921653E+01 -0.11093455158E+02 -0.74549198696E+01  0.15458097082E+02  0.51100000000E-03 0.  1.
        -12    1    3    3    0    0  0.25216600000E+01  0.18911217582E+01  0.42901385557E+01  0.53235701824E+01  0.00000000000E+00 0.  1.
</event>
<event>
 7    1  0.9868142E-013  0.5052887E+02  0.7816164E-02  0.1300439E+00
        -11   -1    0    0    0    0  0.00000000000E+00  0.00000000000E+00  0.45593999997E+02  0.45594000000E+02  0.51100000000E-03 0.  1.
         11   -1    0    0    0    0 -0.00000000000E+00 -0.00000000000E+00 -0.45593999997E+02  0.45594000000E+02  0.51100000000E-03 0. -1.
    9900012    2    1    2    0    0  0.12209048113E+01 -0.12171564023E+02 -0.38775348032E+02  0.50528865795E+02  0.30000018069E+02 0.  0.
        -12    1    1    2    0    0 -0.12209048113E+01  0.12171564023E+02  0.38775348032E+02  0.40659134205E+02  0.00000000000E+00 0.  1.
         11    1    3    3    0    0  0.12175360790E+02 -0.10407247546E+02 -0.22228551355E+02  0.27398151533E+02  0.51100000000E-03 0. -1.
        -11    1    3    3    0    0  0.19214302843E+00  0.27249801151E+01 -0.78091354825E+01  0.82731513231E+01  0.51100000000E-03 0.  1.
         12    1    3    3    0    0 -0.11146599007E+02 -0.44892965924E+01 -0.87376611946E+01  0.14857562938E+02  0.00000000000E+00 0. -1.
</event>
<event>
 7    1  0.9868142E-013  0.5052886E+02  0.7816164E-02  0.1300439E+00
        -11   -1    0    0    0    0  0.00000000000E+00  0.00000000000E+00  0.45593999997E+02  0.45594000000E+02  0.51100000000E-03 0.  1.
         11   -1    0    0    0    0 -0.00000000000E+00 -0.00000000000E+00 -0.45593999997E+02  0.45594000000E+02  0.51100000000E-03 0. -1.
    9900012    2    1    2    0    0  0.22559465694E+02  0.20136706552E+02 -0.27179942169E+02  0.50528859583E+02  0.29999999189E+02 0.  0.
        -12    1    1    2    0    0 -0.22559465694E+02 -0.20136706552E+02  0.27179942169E+02  0.40659140417E+02  0.00000000000E+00 0.  1.
         11    1    3    3    0    0  0.34057602475E+01  0.99658474993E+01 -0.23952442600E+02  0.26165565654E+02  0.51100000000E-03 0. -1.
        -11    1    3    3    0    0  0.15760901017E+02  0.43056596367E+01  0.10132288264E+01  0.16369830136E+02  0.51100000000E-03 0.  1.
        -12    1    3    3    0    0  0.33928044289E+01  0.58651994161E+01 -0.42407283951E+01  0.79934637926E+01  0.00000000000E+00 0.  1.
</event>
<event>
 7    1  0.9868142E-013  0.5052886E+02  0.7816164E-02  0.1300439E+00
        -11   -1    0    0    0    0  0.00000000000E+00  0.00000000000E+00  0.45593999997E+02  0.45594000000E+02  0.51100000000E-03 0. -1.
         11   -1    0    0    0    0 -0.00000000000E+00 -0.00000000000E+00 -0.45593999997E+02  0.45594000000E+02  0.51100000000E-03 0.  1.
    9900012    2    1    2    0    0 -0.34858370480E+02  0.67169928222E+01  0.19822758192E+02  0.50528859239E+02  0.29999998144E+02 0.  0.
        -12    1    1    2    0    0  0.34858370480E+02 -0.67169928222E+01 -0.19822758192E+02  0.40659140761E+02  0.00000000000E+00 0.  1.
         11    1    3    3    0    0 -0.94675267090E+01 -0.10385156423E+02  0.95844165785E+01  0.17010190397E+02  0.51100000000E-03 0.  1.
        -11    1    3    3    0    0 -0.20367319905E+02  0.13102185183E+02  0.11756076140E+02  0.26920258229E+02  0.51100000000E-03 0. -1.
        -12    1    3    3    0    0 -0.50235238660E+01  0.39999640622E+01 -0.15177345268E+01  0.65984106136E+01  0.00000000000E+00 0.  1.
</event>
<event>
 7    1  0.9868142E-013  0.5052886E+02  0.7816164E-02  0.1300439E+00
        -11   -1    0    0    0    0  0.00000000000E+00  0.00000000000E+00  0.45593999997E+02  0.45594000000E+02  0.51100000000E-03 0.  1.
         11   -1    0    0    0    0 -0.00000000000E+00 -0.00000000000E+00 -0.45593999997E+02  0.45594000000E+02  0.51100000000E-03 0. -1.
    9900012    2    1    2    0    0 -0.22145380923E+02 -0.33987080973E+02  0.27615943942E+01  0.50528856221E+02  0.29999988968E+02 0.  0.
        -12    1    1    2    0    0  0.22145380923E+02  0.33987080973E+02 -0.27615943942E+01  0.40659143779E+02  0.00000000000E+00 0.  1.
         11    1    3    3    0    0  0.18501340127E+01 -0.45494817643E+01 -0.26958110165E+00  0.49186842163E+01  0.51100000000E-03 0. -1.
        -11    1    3    3    0    0 -0.14479371431E+02 -0.33739713160E+01  0.87913464523E+01  0.17272048292E+02  0.51100000000E-03 0.  1.
        -12    1    3    3    0    0 -0.95161435046E+01 -0.26063627892E+02 -0.57601709565E+01  0.28338123713E+02  0.00000000000E+00 0.  1.
</event>
<event>
 7    1  0.9868142E-013  0.5052886E+02  0.7816164E-02  0.1300439E+00
        -11   -1    0    0    0    0  0.00000000000E+00  0.00000000000E+00  0.45593999997E+02  0.45594000000E+02  0.51100000000E-03 0.  1.
         11   -1    0    0    0    0 -0.00000000000E+00 -0.00000000000E+00 -0.45593999997E+02  0.45594000000E+02  0.51100000000E-03 0. -1.
    9900012    2    1    2    0    0  0.16495237025E+01  0.98932278215E+01 -0.39402651659E+02  0.50528857819E+02  0.29999993825E+02 0.  0.
        -12    1    1    2    0    0 -0.16495237025E+01 -0.98932278215E+01  0.39402651659E+02  0.40659142181E+02  0.00000000000E+00 0.  1.
         11    1    3    3    0    0 -0.29491199152E+01  0.90879929128E+01 -0.29417226134E+02  0.30929955013E+02  0.51100000000E-03 0. -1.
        -11    1    3    3    0    0 -0.53959023181E+01 -0.21378639385E+01 -0.11034476998E+01  0.59079455933E+01  0.51100000000E-03 0.  1.
         12    1    3    3    0    0  0.99945459359E+01  0.29430988473E+01 -0.88819778255E+01  0.13690957212E+02  0.00000000000E+00 0. -1.
</event>
<event>
 7    1  0.9868142E-013  0.5052885E+02  0.7816164E-02  0.1300439E+00
        -11   -1    0    0    0    0  0.00000000000E+00  0.00000000000E+00  0.45593999997E+02  0.45594000000E+02  0.51100000000E-03 0.  1.
         11   -1    0    0    0    0 -0.00000000000E+00 -0.00000000000E+00 -0.45593999997E+02  0.45594000000E+02  0.51100000000E-03 0. -1.
    9900012    2    1    2    0    0  0.44383792900E+01  0.36930082249E+02 -0.16420600166E+02  0.50528852254E+02  0.29999976912E+02 0.  0.
        -12    1    1    2    0    0 -0.44383792900E+01 -0.36930082249E+02  0.16420600166E+02  0.40659147746E+02  0.00000000000E+00 0.  1.
         11    1    3    3    0    0  0.61910066134E+00  0.10487088303E+02 -0.12462741486E+02  0.16299761725E+02  0.51100000000E-03 0. -1.
        -11    1    3    3    0    0 -0.36760451950E+00  0.94120595078E+01  0.85234190924E+01  0.12703175609E+02  0.51100000000E-03 0.  1.
        -12    1    3    3    0    0  0.41868831482E+01  0.17030934438E+02 -0.12481277772E+02  0.21525914920E+02  0.00000000000E+00 0.  1.
</event>
<event>
 7    1  0.9868142E-013  0.5052886E+02  0.7816164E-02  0.1300439E+00
        -11   -1    0    0    0    0  0.00000000000E+00  0.00000000000E+00  0.45593999997E+02  0.45594000000E+02  0.51100000000E-03 0.  1.
         11   -1    0    0    0    0 -0.00000000000E+00 -0.00000000000E+00 -0.45593999997E+02  0.45594000000E+02  0.51100000000E-03 0. -1.
    9900012    2    1    2    0    0 -0.30525910518E+02  0.19430229970E+02 -0.18541859606E+02  0.50528860717E+02  0.30000002635E+02 0.  0.
        -12    1    1    2    0    0  0.30525910518E+02 -0.19430229970E+02  0.18541859606E+02  0.40659139283E+02  0.00000000000E+00 0.  1.
         11    1    3    3    0    0 -0.29257035698E+02  0.11212219848E+02 -0.13394782509E+02  0.34075037938E+02  0.51100000000E-03 0. -1.
        -11    1    3    3    0    0  0.49048983088E+01  0.13937285524E+01 -0.51556658684E+01  0.72513031591E+01  0.51100000000E-03 0.  1.
        -12    1    3    3    0    0 -0.61737731287E+01  0.68242815692E+01  0.85887716430E-02  0.92025196195E+01  0.00000000000E+00 0.  1.
</event>
<event>
 7    1  0.9868142E-013  0.5052886E+02  0.7816164E-02  0.1300439E+00
        -11   -1    0    0    0    0  0.00000000000E+00  0.00000000000E+00  0.45593999997E+02  0.45594000000E+02  0.51100000000E-03 0. -1.
         11   -1    0    0    0    0 -0.00000000000E+00 -0.00000000000E+00 -0.45593999997E+02  0.45594000000E+02  0.51100000000E-03 0.  1.
    9900012    2    1    2    0    0  0.15827318395E+02  0.33988842641E+02  0.15729597940E+02  0.50528859785E+02  0.29999999804E+02 0.  0.
        -12    1    1    2    0    0 -0.15827318395E+02 -0.33988842641E+02 -0.15729597940E+02  0.40659140215E+02  0.00000000000E+00 0.  1.
         11    1    3    3    0    0  0.17147534500E+02  0.25972497324E+02  0.10073944259E+01  0.31138776477E+02  0.51100000000E-03 0. -1.
        -11    1    3    3    0    0  0.16121192419E+01  0.58831964892E+01  0.14530347447E+02  0.15758868188E+02  0.51100000000E-03 0.  1.
         12    1    3    3    0    0 -0.29323353463E+01  0.21331488270E+01  0.19185606731E+00  0.36312151206E+01  0.00000000000E+00 0. -1.
</event>
<event>
 7    1  0.9868142E-013  0.5052886E+02  0.7816164E-02  0.1300439E+00
        -11   -1    0    0    0    0  0.00000000000E+00  0.00000000000E+00  0.45593999997E+02  0.45594000000E+02  0.51100000000E-03 0.  1.
         11   -1    0    0    0    0 -0.00000000000E+00 -0.00000000000E+00 -0.45593999997E+02  0.45594000000E+02  0.51100000000E-03 0. -1.
    9900012    2    1    2    0    0 -0.29459873441E+02  0.21158077877E+02 -0.18374359038E+02  0.50528862372E+02  0.30000007665E+02 0.  0.
        -12    1    1    2    0    0  0.29459873441E+02 -0.21158077877E+02  0.18374359038E+02  0.40659137628E+02  0.00000000000E+00 0.  1.
         11    1    3    3    0    0 -0.14182582247E+02  0.11510039902E+02  0.35689637593E+01  0.18610861353E+02  0.51100000000E-03 0. -1.
        -11    1    3    3    0    0  0.25135418315E+00  0.65355776942E+01 -0.10532225225E+02  0.12397770895E+02  0.51100000000E-03 0.  1.
        -12    1    3    3    0    0 -0.15528645377E+02  0.31124602807E+01 -0.11411097573E+02  0.19520230123E+02  0.00000000000E+00 0.  1.
</event>
<event>
 7    1  0.9868142E-013  0.5052886E+02  0.7816164E-02  0.1300439E+00
        -11   -1    0    0    0    0  0.00000000000E+00  0.00000000000E+00  0.45593999997E+02  0.45594000000E+02  0.51100000000E-03 0.  1.
         11   -1    0    0    0    0 -0.00000000000E+00 -0.00000000000E+00 -0.45593999997E+02  0.45594000000E+02  0.51100000000E-03 0. -1.
    9900012    2    1    2    0    0  0.56104181797E+01  0.40197059102E+02  0.24259593775E+01  0.50528860419E+02  0.30000001729E+02 0.  0.
        -12    1    1    2    0    0 -0.56104181797E+01 -0.40197059102E+02 -0.24259593775E+01  0.40659139581E+02  0.00000000000E+00 0.  1.
         11    1    3    3    0    0 -0.75106463581E+00 -0.20400263313E+01 -0.39793262078E+01  0.45344065598E+01  0.51100000000E-03 0. -1.
        -11    1    3    3    0    0 -0.49670674692E+01  0.16417478266E+02  0.34976359236E+00  0.17155981076E+02  0.51100000000E-03 0.  1.
         12    1    3    3    0    0  0.11328550285E+02  0.25819607167E+02  0.60555219930E+01  0.28838472783E+02  0.00000000000E+00 0. -1.
</event>
<event>
 7    1  0.9868142E-013  0.5052886E+02  0.7816164E-02  0.1300439E+00
        -11   -1    0    0    0    0  0.00000000000E+00  0.00000000000E+00  0.45593999997E+02  0.45594000000E+02  0.51100000000E-03 0. -1.
         11   -1    0    0    0    0 -0.00000000000E+00 -0.00000000000E+00 -0.45593999997E+02  0.45594000000E+02  0.51100000000E-03 0.  1.
    9900012    2    1    2    0    0  0.38310515480E+02 -0.12461769886E+02  0.54931271172E+01  0.50528858955E+02  0.29999997279E+02 0.  0.
        -12    1    1    2    0    0 -0.38310515480E+02  0.12461769886E+02 -0.54931271172E+01  0.40659141045E+02  0.00000000000E+00 0.  1.
         11    1    3    3    0    0  0.23125246644E+02 -0.17246685662E+01 -0.49076895639E+00  0.23194662498E+02  0.51100000000E-03 0. -1.
        -11    1    3    3    0    0 -0.18821725467E+01 -0.62448060846E+01 -0.33898205386E+01  0.73505822950E+01  0.51100000000E-03 0.  1.
         12    1    3    3    0    0  0.17067441383E+02 -0.44922952349E+01  0.93737166121E+01  0.19983614161E+02  0.00000000000E+00 0. -1.
</event>
<event>
 7    1  0.9868142E-013  0.5052885E+02  0.7816164E-02  0.1300439E+00
        -11   -1    0    0    0    0  0.00000000000E+00  0.00000000000E+00  0.45593999997E+02  0.45594000000E+02  0.51100000000E-03 0.  1.
         11   -1    0    0    0    0 -0.00000000000E+00 -0.00000000000E+00 -0.45593999997E+02  0.45594000000E+02  0.51100000000E-03 0. -1.
    9900012    2    1    2    0    0 -0.27708852650E+02 -0.17258673677E+02 -0.24238889291E+02  0.50528854825E+02  0.29999984726E+02 0.  0.
        -12    1    1    2    0    0  0.27708852650E+02  0.17258673677E+02  0.24238889291E+02  0.40659145175E+02  0.00000000000E+00 0.  1.
         11    1    3    3    0    0 -0.14184717482E+02 -0.12766175655E+02 -0.13588093436E+02  0.23426859251E+02  0.51100000000E-03 0. -1.
        -11    1    3    3    0    0  0.46329130130E+01  0.23401562025E+01 -0.52103145722E+00  0.52164823472E+01  0.51100000000E-03 0.  1.
        -12    1    3    3    0    0 -0.18157048181E+02 -0.68326542252E+01 -0.10129764398E+02  0.21885513226E+02  0.00000000000E+00 0.  1.
</event>
<event>
 7    1  0.9868142E-013  0.5052886E+02  0.7816164E-02  0.1300439E+00
        -11   -1    0    0    0    0  0.00000000000E+00  0.00000000000E+00  0.45593999997E+02  0.45594000000E+02  0.51100000000E-03 0. -1.
         11   -1    0    0    0    0 -0.00000000000E+00 -0.00000000000E+00 -0.45593999997E+02  0.45594000000E+02  0.51100000000E-03 0.  1.
    9900012    2    1    2    0    0  0.22196523247E+02 -0.13619085509E+02  0.31225004990E+02  0.50528855014E+02  0.29999985301E+02 0.  0.
        -12    1    1    2    0    0 -0.22196523247E+02  0.13619085509E+02 -0.31225004990E+02  0.40659144986E+02  0.00000000000E+00 0.  1.
         11    1    3    3    0    0  0.12839343732E+01 -0.52481072458E+01  0.12728201556E+02  0.13827444892E+02  0.51100000000E-03 0. -1.
        -11    1    3    3    0    0  0.19568945662E+02  0.72890818657E+00  0.47323036740E+01  0.20146206585E+02  0.51100000000E-03 0.  1.
        -12    1    3    3    0    0  0.13436432121E+01 -0.90998864499E+01  0.13764499760E+02  0.16555203537E+02  0.00000000000E+00 0.  1.
</event>
<event>
 7    1  0.9868142E-013  0.5052886E+02  0.7816164E-02  0.1300439E+00
        -11   -1    0    0    0    0  0.00000000000E+00  0.00000000000E+00  0.45593999997E+02  0.45594000000E+02  0.51100000000E-03 0.  1.
         11   -1    0    0    0    0 -0.00000000000E+00 -0.00000000000E+00 -0.45593999997E+02  0.45594000000E+02  0.51100000000E-03 0. -1.
    9900012    2    1    2    0    0 -0.16328236218E+02  0.30623750872E+02 -0.21183496055E+02  0.50528856864E+02  0.29999990924E+02 0.  0.
        -12    1    1    2    0    0  0.16328236218E+02 -0.30623750872E+02  0.21183496055E+02  0.40659143136E+02  0.00000000000E+00 0.  1.
         11    1    3    3    0    0 -0.18522381904E+02  0.58212303760E+01 -0.92082638725E+01  0.21488542954E+02  0.51100000000E-03 0. -1.
        -11    1    3    3    0    0 -0.78212618962E-01  0.16335819334E+02 -0.32192960588E+01  0.16650194530E+02  0.51100000000E-03 0.  1.
         12    1    3    3    0    0  0.22723583056E+01  0.84667011623E+01 -0.87559361234E+01  0.12390119379E+02  0.00000000000E+00 0. -1.
</event>
<event>
 7    1  0.9868142E-013  0.5052886E+02  0.7816164E-02  0.1300439E+00
        -11   -1    0    0    0    0  0.00000000000E+00  0.00000000000E+00  0.45593999997E+02  0.45594000000E+02  0.51100000000E-03 0. -1.
         11   -1    0    0    0    0 -0.00000000000E+00 -0.00000000000E+00 -0.45593999997E+02  0.45594000000E+02  0.51100000000E-03 0.  1.
    9900012    2    1    2    0    0 -0.35496084635E+02 -0.17158140685E+01  0.19754738284E+02  0.50528859244E+02  0.29999998159E+02 0.  0.
        -12    1    1    2    0    0  0.35496084635E+02  0.17158140685E+01 -0.19754738284E+02  0.40659140756E+02  0.00000000000E+00 0.  1.
         11    1    3    3    0    0 -0.24355184063E+01 -0.78913836572E+01  0.32505254805E+01  0.88753367313E+01  0.51100000000E-03 0. -1.
        -11    1    3    3    0    0 -0.28534125616E+02  0.30015588910E+01  0.20124082782E+02  0.35045461739E+02  0.51100000000E-03 0.  1.
        -12    1    3    3    0    0 -0.45264406133E+01  0.31740106977E+01 -0.36198699785E+01  0.66080607743E+01  0.00000000000E+00 0.  1.
</event>
<event>
 7    1  0.9868142E-013  0.5052886E+02  0.7816164E-02  0.1300439E+00
        -11   -1    0    0    0    0  0.00000000000E+00  0.00000000000E+00  0.45593999997E+02  0.45594000000E+02  0.51100000000E-03 0. -1.
         11   -1    0    0    0    0 -0.00000000000E+00 -0.00000000000E+00 -0.45593999997E+02  0.45594000000E+02  0.51100000000E-03 0.  1.
    9900012    2    1    2    0    0  0.14482935533E+02 -0.11846225522E+02  0.36098160640E+02  0.50528859792E+02  0.29999999825E+02 0.  0.
        -12    1    1    2    0    0 -0.14482935533E+02  0.11846225522E+02 -0.36098160640E+02  0.40659140208E+02  0.00000000000E+00 0.  1.
         11    1    3    3    0    0 -0.49601014998E+01 -0.95064140407E+01  0.19305658935E+02  0.22083545503E+02  0.51100000000E-03 0. -1.
        -11    1    3    3    0    0  0.16819451580E+02 -0.65310768522E+00  0.18399084202E+02  0.24936856274E+02  0.51100000000E-03 0.  1.
        -12    1    3    3    0    0  0.26235854536E+01 -0.16867037964E+01 -0.16065824967E+01  0.35084580157E+01  0.00000000000E+00 0.  1.
</event>
<event>
 7    1  0.9868142E-013  0.5052883E+02  0.7816164E-02  0.1300439E+00
        -11   -1    0    0    0    0  0.00000000000E+00  0.00000000000E+00  0.45593999997E+02  0.45594000000E+02  0.51100000000E-03 0.  1.
         11   -1    0    0    0    0 -0.00000000000E+00 -0.00000000000E+00 -0.45593999997E+02  0.45594000000E+02  0.51100000000E-03 0. -1.
    9900012    2    1    2    0    0 -0.39632442857E+02 -0.21703687956E+01 -0.88163057941E+01  0.50528827906E+02  0.29999902902E+02 0.  0.
        -12    1    1    2    0    0  0.39632442857E+02  0.21703687956E+01  0.88163057941E+01  0.40659172094E+02  0.00000000000E+00 0.  1.
         11    1    3    3    0    0 -0.13137547929E+02 -0.71532505688E+01  0.30789817014E+01  0.15272337341E+02  0.51100000000E-03 0. -1.
        -11    1    3    3    0    0 -0.44593537984E+01  0.85741022686E+01  0.57891091293E+00  0.96817459230E+01  0.51100000000E-03 0.  1.
         12    1    3    3    0    0 -0.22035541130E+02 -0.35912204954E+01 -0.12474198408E+02  0.25574744642E+02  0.00000000000E+00 0. -1.
</event>
<event>
 7    1  0.9868142E-013  0.5052885E+02  0.7816164E-02  0.1300439E+00
        -11   -1    0    0    0    0  0.00000000000E+00  0.00000000000E+00  0.45593999997E+02  0.45594000000E+02  0.51100000000E-03 0.  1.
         11   -1    0    0    0    0 -0.00000000000E+00 -0.00000000000E+00 -0.45593999997E+02  0.45594000000E+02  0.51100000000E-03 0. -1.
    9900012    2    1    2    0    0 -0.17492816315E+02  0.36432375480E+02 -0.44553430885E+01  0.50528847429E+02  0.29999962244E+02 0.  0.
        -12    1    1    2    0    0  0.17492816315E+02 -0.36432375480E+02  0.44553430885E+01  0.40659152571E+02  0.00000000000E+00 0.  1.
         11    1    3    3    0    0 -0.18653176380E+02  0.16107189733E+02  0.24776327709E+01  0.24769360399E+02  0.51100000000E-03 0. -1.
        -11    1    3    3    0    0  0.86562765608E+00  0.20968510944E+02 -0.95437455090E+01  0.23054518885E+02  0.51100000000E-03 0.  1.
         12    1    3    3    0    0  0.29473240894E+00 -0.64332519585E+00  0.26107696496E+01  0.27049681447E+01  0.00000000000E+00 0. -1.
</event>
<event>
 7    1  0.9868142E-013  0.5052887E+02  0.7816164E-02  0.1300439E+00
        -11   -1    0    0    0    0  0.00000000000E+00  0.00000000000E+00  0.45593999997E+02  0.45594000000E+02  0.51100000000E-03 0. -1.
         11   -1    0    0    0    0 -0.00000000000E+00 -0.00000000000E+00 -0.45593999997E+02  0.45594000000E+02  0.51100000000E-03 0.  1.
    9900012    2    1    2    0    0 -0.19858750323E+02  0.33538809142E+02  0.11573371964E+02  0.50528872837E+02  0.30000039474E+02 0.  0.
        -12    1    1    2    0    0  0.19858750323E+02 -0.33538809142E+02 -0.11573371964E+02  0.40659127163E+02  0.00000000000E+00 0.  1.
         11    1    3    3    0    0 -0.70646243203E+01  0.13731736028E+02  0.91141088069E+01  0.17931438055E+02  0.51100000000E-03 0. -1.
        -11    1    3    3    0    0 -0.11459467984E+02 -0.12805684061E+00 -0.30746328517E+01  0.11865461325E+02  0.51100000000E-03 0.  1.
        -12    1    3    3    0    0 -0.13346580191E+01  0.19935129956E+02  0.55338960084E+01  0.20731973457E+02  0.00000000000E+00 0.  1.
</event>
<event>
 7    1  0.9868142E-013  0.5052885E+02  0.7816164E-02  0.1300439E+00
        -11   -1    0    0    0    0  0.00000000000E+00  0.00000000000E+00  0.45593999997E+02  0.45594000000E+02  0.51100000000E-03 0.  1.
         11   -1    0    0    0    0 -0.00000000000E+00 -0.00000000000E+00 -0.45593999997E+02  0.45594000000E+02  0.51100000000E-03 0. -1.
    9900012    2    1    2    0    0 -0.28411659310E+02  0.25110015584E+02 -0.14677561883E+02  0.50528854778E+02  0.29999984584E+02 0.  0.
        -12    1    1    2    0    0  0.28411659310E+02 -0.25110015584E+02  0.14677561883E+02  0.40659145222E+02  0.00000000000E+00 0.  1.
         11    1    3    3    0    0 -0.64774247488E+01  0.11033100962E+02  0.44432138357E+01  0.13543577728E+02  0.51100000000E-03 0. -1.
        -11    1    3    3    0    0 -0.19023676812E+02  0.10950238873E+02 -0.22578422503E+02  0.31489572462E+02  0.51100000000E-03 0.  1.
        -12    1    3    3    0    0 -0.29105577486E+01  0.31266757484E+01  0.34576467843E+01  0.54957045889E+01  0.00000000000E+00 0.  1.
</event>
<event>
 7    1  0.9868142E-013  0.5052879E+02  0.7816164E-02  0.1300439E+00
        -11   -1    0    0    0    0  0.00000000000E+00  0.00000000000E+00  0.45593999997E+02  0.45594000000E+02  0.51100000000E-03 0. -1.
         11   -1    0    0    0    0 -0.00000000000E+00 -0.00000000000E+00 -0.45593999997E+02  0.45594000000E+02  0.51100000000E-03 0.  1.
    9900012    2    1    2    0    0 -0.10450190393E+02 -0.37019548139E+02  0.13172613952E+02  0.50528792162E+02  0.29999794255E+02 0.  0.
        -12    1    1    2    0    0  0.10450190393E+02  0.37019548139E+02 -0.13172613952E+02  0.40659207838E+02  0.00000000000E+00 0.  1.
         11    1    3    3    0    0  0.90166419494E+01 -0.21328369403E+02  0.59127319198E+01  0.23898945007E+02  0.51100000000E-03 0.  1.
        -11    1    3    3    0    0 -0.19816309142E+02 -0.15095984993E+02  0.72286410818E+01  0.25938930646E+02  0.51100000000E-03 0. -1.
         12    1    3    3    0    0  0.34947679954E+00 -0.59519374269E+00  0.31240950169E-01  0.69091650851E+00  0.00000000000E+00 0. -1.
</event>
<event>
 7    1  0.9868142E-013  0.5052889E+02  0.7816164E-02  0.1300439E+00
        -11   -1    0    0    0    0  0.00000000000E+00  0.00000000000E+00  0.45593999997E+02  0.45594000000E+02  0.51100000000E-03 0.  1.
         11   -1    0    0    0    0 -0.00000000000E+00 -0.00000000000E+00 -0.45593999997E+02  0.45594000000E+02  0.51100000000E-03 0. -1.
    9900012    2    1    2    0    0 -0.83011670814E+01  0.27173401206E+02 -0.29083670766E+02  0.50528892616E+02  0.30000099595E+02 0.  0.
        -12    1    1    2    0    0  0.83011670814E+01 -0.27173401206E+02  0.29083670766E+02  0.40659107384E+02  0.00000000000E+00 0.  1.
         11    1    3    3    0    0 -0.83423269315E+01 -0.36905712477E+01 -0.81096732637E+01  0.12205799256E+02  0.51100000000E-03 0.  1.
        -11    1    3    3    0    0  0.30978198938E+01  0.18984765487E+02 -0.16242142898E+02  0.25175881611E+02  0.51100000000E-03 0. -1.
        -12    1    3    3    0    0 -0.30566600436E+01  0.11879206967E+02 -0.47318546042E+01  0.13147211749E+02  0.00000000000E+00 0.  1.
</event>
<event>
 7    1  0.9868142E-013  0.5052896E+02  0.7816164E-02  0.1300438E+00
        -11   -1    0    0    0    0  0.00000000000E+00  0.00000000000E+00  0.45593999997E+02  0.45594000000E+02  0.51100000000E-03 0. -1.
         11   -1    0    0    0    0 -0.00000000000E+00 -0.00000000000E+00 -0.45593999997E+02  0.45594000000E+02  0.51100000000E-03 0.  1.
    9900012    2    1    2    0    0 -0.26925523225E+02 -0.13557708974E+02  0.27283008878E+02  0.50528956148E+02  0.30000292705E+02 0.  0.
        -12    1    1    2    0    0  0.26925523225E+02  0.13557708974E+02 -0.27283008878E+02  0.40659043852E+02  0.00000000000E+00 0.  1.
         11    1    3    3    0    0 -0.15924400823E+02 -0.10673087727E+02  0.21997348731E+02  0.29178497128E+02  0.51100000000E-03 0. -1.
        -11    1    3    3    0    0 -0.76276367457E+01  0.58181288204E+01 -0.16340591122E+01  0.97314754656E+01  0.51100000000E-03 0.  1.
        -12    1    3    3    0    0 -0.33734856563E+01 -0.87027500672E+01  0.69197192591E+01  0.11618983554E+02  0.00000000000E+00 0.  1.
</event>
<event>
 7    1  0.9868142E-013  0.5052885E+02  0.7816164E-02  0.1300439E+00
        -11   -1    0    0    0    0  0.00000000000E+00  0.00000000000E+00  0.45593999997E+02  0.45594000000E+02  0.51100000000E-03 0.  1.
         11   -1    0    0    0    0 -0.00000000000E+00 -0.00000000000E+00 -0.45593999997E+02  0.45594000000E+02  0.51100000000E-03 0. -1.
    9900012    2    1    2    0    0 -0.23857421181E+02 -0.13071858412E+02 -0.30217811918E+02  0.50528853614E+02  0.29999981046E+02 0.  0.
        -12    1    1    2    0    0  0.23857421181E+02  0.13071858412E+02  0.30217811918E+02  0.40659146386E+02  0.00000000000E+00 0.  1.
         11    1    3    3    0    0 -0.13228126547E+01 -0.14915459261E+02 -0.36208436069E+01  0.15405559612E+02  0.51100000000E-03 0. -1.
        -11    1    3    3    0    0 -0.17049088024E+02  0.25110040128E+01 -0.18137599466E+02  0.25018973965E+02  0.51100000000E-03 0.  1.
         12    1    3    3    0    0 -0.54855205020E+01 -0.66740316379E+00 -0.84593688448E+01  0.10104320037E+02  0.00000000000E+00 0. -1.
</event>
<event>
 7    1  0.9868142E-013  0.5052885E+02  0.7816164E-02  0.1300439E+00
        -11   -1    0    0    0    0  0.00000000000E+00  0.00000000000E+00  0.45593999997E+02  0.45594000000E+02  0.51100000000E-03 0.  1.
         11   -1    0    0    0    0 -0.00000000000E+00 -0.00000000000E+00 -0.45593999997E+02  0.45594000000E+02  0.51100000000E-03 0. -1.
    9900012    2    1    2    0    0  0.37438198255E+02  0.15509104760E+02 -0.33189731065E+01  0.50528848490E+02  0.29999965471E+02 0.  0.
        -12    1    1    2    0    0 -0.37438198255E+02 -0.15509104760E+02  0.33189731065E+01  0.40659151510E+02  0.00000000000E+00 0.  1.
         11    1    3    3    0    0  0.25476065748E+02  0.90255855036E+01 -0.45402288842E+01  0.27406291217E+02  0.51100000000E-03 0. -1.
        -11    1    3    3    0    0 -0.43500658953E+01  0.36186275941E+01 -0.24379672141E+01  0.61612679991E+01  0.51100000000E-03 0.  1.
        -12    1    3    3    0    0  0.16312198402E+02  0.28648916624E+01  0.36592229918E+01  0.16961289274E+02  0.00000000000E+00 0.  1.
</event>
<event>
 7    1  0.9868142E-013  0.5052886E+02  0.7816164E-02  0.1300439E+00
        -11   -1    0    0    0    0  0.00000000000E+00  0.00000000000E+00  0.45593999997E+02  0.45594000000E+02  0.51100000000E-03 0.  1.
         11   -1    0    0    0    0 -0.00000000000E+00 -0.00000000000E+00 -0.45593999997E+02  0.45594000000E+02  0.51100000000E-03 0. -1.
    9900012    2    1    2    0    0  0.12933258003E+02 -0.35057949973E+02 -0.16026136282E+02  0.50528855112E+02  0.29999985598E+02 0.  0.
        -12    1    1    2    0    0 -0.12933258003E+02  0.35057949973E+02  0.16026136282E+02  0.40659144888E+02  0.00000000000E+00 0.  1.
         11    1    3    3    0    0  0.15718842793E+02 -0.32089317366E+02 -0.15807420600E+02  0.39072763583E+02  0.51100000000E-03 0. -1.
        -11    1    3    3    0    0 -0.44727041665E+01 -0.11029251240E+01 -0.45324408780E+01  0.64625495715E+01  0.51100000000E-03 0.  1.
         12    1    3    3    0    0  0.16871193766E+01 -0.18657074835E+01  0.43137251964E+01  0.49935419569E+01  0.00000000000E+00 0. -1.
</event>
<event>
 7    1  0.9868142E-013  0.5052887E+02  0.7816164E-02  0.1300439E+00
        -11   -1    0    0    0    0  0.00000000000E+00  0.00000000000E+00  0.45593999997E+02  0.45594000000E+02  0.51100000000E-03 0. -1.
         11   -1    0    0    0    0 -0.00000000000E+00 -0.00000000000E+00 -0.45593999997E+02  0.45594000000E+02  0.51100000000E-03 0.  1.
    9900012    2    1    2    0    0 -0.12534870238E+01  0.24044219476E+02  0.32763842352E+02  0.50528867132E+02  0.30000022135E+02 0.  0.
        -12    1    1    2    0    0  0.12534870238E+01 -0.24044219476E+02 -0.32763842352E+02  0.40659132868E+02  0.00000000000E+00 0.  1.
         11    1    3    3    0    0 -0.85794371049E+01  0.14790595913E+02  0.32625169858E+02  0.36834361363E+02  0.51100000000E-03 0. -1.
        -11    1    3    3    0    0  0.30117472098E+01  0.87908163732E+01  0.70315243736E+00  0.93189858554E+01  0.51100000000E-03 0.  1.
         12    1    3    3    0    0  0.43142028712E+01  0.46280718952E+00 -0.56447994355E+00  0.43755199137E+01  0.00000000000E+00 0. -1.
</event>
<event>
 7    1  0.9868142E-013  0.5052887E+02  0.7816164E-02  0.1300439E+00
        -11   -1    0    0    0    0  0.00000000000E+00  0.00000000000E+00  0.45593999997E+02  0.45594000000E+02  0.51100000000E-03 0.  1.
         11   -1    0    0    0    0 -0.00000000000E+00 -0.00000000000E+00 -0.45593999997E+02  0.45594000000E+02  0.51100000000E-03 0. -1.
    9900012    2    1    2    0    0 -0.30343342965E+02  0.96875568078E+01 -0.25270492944E+02  0.50528867780E+02  0.30000024104E+02 0.  0.
        -12    1    1    2    0    0  0.30343342965E+02 -0.96875568078E+01  0.25270492944E+02  0.40659132220E+02  0.00000000000E+00 0.  1.
         11    1    3    3    0    0 -0.14834099687E+02  0.12340291412E+02 -0.91524398515E+01  0.21356508636E+02  0.51100000000E-03 0. -1.
        -11    1    3    3    0    0 -0.95306398074E+00  0.31925019931E+00 -0.14150503726E+02  0.14186155491E+02  0.51100000000E-03 0.  1.
        -12    1    3    3    0    0 -0.14556179298E+02 -0.29719848030E+01 -0.19675493667E+01  0.14986203653E+02  0.00000000000E+00 0.  1.
</event>
<event>
 7    1  0.9868142E-013  0.5052885E+02  0.7816164E-02  0.1300439E+00
        -11   -1    0    0    0    0  0.00000000000E+00  0.00000000000E+00  0.45593999997E+02  0.45594000000E+02  0.51100000000E-03 0.  1.
         11   -1    0    0    0    0 -0.00000000000E+00 -0.00000000000E+00 -0.45593999997E+02  0.45594000000E+02  0.51100000000E-03 0. -1.
    9900012    2    1    2    0    0 -0.49520771480E+01 -0.20955538141E+02 -0.34489258006E+02  0.50528848943E+02  0.29999966848E+02 0.  0.
        -12    1    1    2    0    0  0.49520771480E+01  0.20955538141E+02  0.34489258006E+02  0.40659151057E+02  0.00000000000E+00 0.  1.
         11    1    3    3    0    0  0.65688841347E+01 -0.20939894444E+02 -0.30171240533E+02  0.37308620635E+02  0.51100000000E-03 0. -1.
        -11    1    3    3    0    0 -0.41253159576E+01  0.11719325730E+01  0.49465970908E+00  0.43169834601E+01  0.51100000000E-03 0.  1.
         12    1    3    3    0    0 -0.73956453251E+01 -0.11875762694E+01 -0.48126771824E+01  0.89032448485E+01  0.00000000000E+00 0. -1.
</event>
<event>
 7    1  0.9868142E-013  0.5052886E+02  0.7816164E-02  0.1300439E+00
        -11   -1    0    0    0    0  0.00000000000E+00  0.00000000000E+00  0.45593999997E+02  0.45594000000E+02  0.51100000000E-03 0.  1.
         11   -1    0    0    0    0 -0.00000000000E+00 -0.00000000000E+00 -0.45593999997E+02  0.45594000000E+02  0.51100000000E-03 0. -1.
    9900012    2    1    2    0    0 -0.34836736920E+02  0.10430082968E+02 -0.18187379791E+02  0.50528860147E+02  0.30000000901E+02 0.  0.
        -12    1    1    2    0    0  0.34836736920E+02 -0.10430082968E+02  0.18187379791E+02  0.40659139853E+02  0.00000000000E+00 0.  1.
         11    1    3    3    0    0  0.25712013816E+01 -0.20885492092E-01 -0.71058323839E+01  0.75567431396E+01  0.51100000000E-03 0. -1.
        -11    1    3    3    0    0 -0.34220146402E+02  0.73448757585E+01 -0.13949871368E+02  0.37677108848E+02  0.51100000000E-03 0.  1.
        -12    1    3    3    0    0 -0.31877918999E+01  0.31060927011E+01  0.28683239605E+01  0.52950081593E+01  0.00000000000E+00 0.  1.
</event>
<event>
 7    1  0.9868142E-013  0.5052887E+02  0.7816164E-02  0.1300439E+00
        -11   -1    0    0    0    0  0.00000000000E+00  0.00000000000E+00  0.45593999997E+02  0.45594000000E+02  0.51100000000E-03 0.  1.
         11   -1    0    0    0    0 -0.00000000000E+00 -0.00000000000E+00 -0.45593999997E+02  0.45594000000E+02  0.51100000000E-03 0. -1.
    9900012    2    1    2    0    0 -0.14254242020E+02 -0.33674331406E+02 -0.17776985871E+02  0.50528865259E+02  0.30000016441E+02 0.  0.
        -12    1    1    2    0    0  0.14254242020E+02  0.33674331406E+02  0.17776985871E+02  0.40659134741E+02  0.00000000000E+00 0.  1.
         11    1    3    3    0    0 -0.28234895719E+01 -0.61136308473E+01 -0.44580773793E+01  0.80760776173E+01  0.51100000000E-03 0. -1.
        -11    1    3    3    0    0 -0.15501416630E+02 -0.22667100572E+02  0.25346312179E+00  0.27461893775E+02  0.51100000000E-03 0.  1.
        -12    1    3    3    0    0  0.40706641821E+01 -0.48935999874E+01 -0.13572371614E+02  0.14990893867E+02  0.00000000000E+00 0.  1.
</event>
<event>
 7    1  0.9868142E-013  0.5052887E+02  0.7816164E-02  0.1300439E+00
        -11   -1    0    0    0    0  0.00000000000E+00  0.00000000000E+00  0.45593999997E+02  0.45594000000E+02  0.51100000000E-03 0.  1.
         11   -1    0    0    0    0 -0.00000000000E+00 -0.00000000000E+00 -0.45593999997E+02  0.45594000000E+02  0.51100000000E-03 0. -1.
    9900012    2    1    2    0    0 -0.30324207637E+02 -0.10287254589E+02 -0.25055534269E+02  0.50528868513E+02  0.30000026332E+02 0.  0.
        -12    1    1    2    0    0  0.30324207637E+02  0.10287254589E+02  0.25055534269E+02  0.40659131487E+02  0.00000000000E+00 0.  1.
         11    1    3    3    0    0 -0.17698732096E+02  0.22403031654E+00 -0.80898998763E+01  0.19461289466E+02  0.51100000000E-03 0. -1.
        -11    1    3    3    0    0 -0.88483556703E+01 -0.12215104365E+02 -0.20616589894E+02  0.25544978995E+02  0.51100000000E-03 0.  1.
        -12    1    3    3    0    0 -0.37771198706E+01  0.17038194599E+01  0.36509555013E+01  0.55226000526E+01  0.00000000000E+00 0.  1.
</event>
<event>
 7    1  0.9868142E-013  0.5052886E+02  0.7816164E-02  0.1300439E+00
        -11   -1    0    0    0    0  0.00000000000E+00  0.00000000000E+00  0.45593999997E+02  0.45594000000E+02  0.51100000000E-03 0. -1.
         11   -1    0    0    0    0 -0.00000000000E+00 -0.00000000000E+00 -0.45593999997E+02  0.45594000000E+02  0.51100000000E-03 0.  1.
    9900012    2    1    2    0    0 -0.27470385702E+02  0.28337521043E+02  0.97738668765E+01  0.50528860028E+02  0.30000000542E+02 0.  0.
        -12    1    1    2    0    0  0.27470385702E+02 -0.28337521043E+02 -0.97738668765E+01  0.40659139972E+02  0.00000000000E+00 0.  1.
         11    1    3    3    0    0  0.42138279599E+00  0.19248534226E+02  0.48712705051E+01  0.19859831568E+02  0.51100000000E-03 0.  1.
        -11    1    3    3    0    0 -0.16075676617E+02  0.16401027011E+01  0.41356597285E+01  0.16679957950E+02  0.51100000000E-03 0. -1.
        -12    1    3    3    0    0 -0.11816091881E+02  0.74488841160E+01  0.76693664285E+00  0.13989070510E+02  0.00000000000E+00 0.  1.
</event>
<event>
 7    1  0.9868142E-013  0.5052886E+02  0.7816164E-02  0.1300439E+00
        -11   -1    0    0    0    0  0.00000000000E+00  0.00000000000E+00  0.45593999997E+02  0.45594000000E+02  0.51100000000E-03 0.  1.
         11   -1    0    0    0    0 -0.00000000000E+00 -0.00000000000E+00 -0.45593999997E+02  0.45594000000E+02  0.51100000000E-03 0. -1.
    9900012    2    1    2    0    0 -0.32237014484E+02  0.20417129432E+02 -0.14038572136E+02  0.50528858535E+02  0.29999996002E+02 0.  0.
        -12    1    1    2    0    0  0.32237014484E+02 -0.20417129432E+02  0.14038572136E+02  0.40659141465E+02  0.00000000000E+00 0.  1.
         11    1    3    3    0    0 -0.11764348501E+02  0.77079860455E+01 -0.21611859567E+01  0.14229675665E+02  0.51100000000E-03 0. -1.
        -11    1    3    3    0    0 -0.56959639088E+00 -0.57792094443E+01 -0.62983098597E+01  0.85669369789E+01  0.51100000000E-03 0.  1.
        -12    1    3    3    0    0 -0.19903069592E+02  0.18488352831E+02 -0.55790763195E+01  0.27732245891E+02  0.00000000000E+00 0.  1.
</event>
<event>
 7    1  0.9868142E-013  0.5052886E+02  0.7816164E-02  0.1300439E+00
        -11   -1    0    0    0    0  0.00000000000E+00  0.00000000000E+00  0.45593999997E+02  0.45594000000E+02  0.51100000000E-03 0.  1.
         11   -1    0    0    0    0 -0.00000000000E+00 -0.00000000000E+00 -0.45593999997E+02  0.45594000000E+02  0.51100000000E-03 0. -1.
    9900012    2    1    2    0    0  0.31322472527E+02  0.13004687642E+02 -0.22426465765E+02  0.50528861389E+02  0.30000004678E+02 0.  0.
        -12    1    1    2    0    0 -0.31322472527E+02 -0.13004687642E+02  0.22426465765E+02  0.40659138611E+02  0.00000000000E+00 0.  1.
         11    1    3    3    0    0  0.25257076703E+02  0.18373173827E+02 -0.16955037986E+02  0.35538243533E+02  0.51100000000E-03 0. -1.
        -11    1    3    3    0    0  0.63069238462E+01 -0.64846187776E+01  0.35550050773E+00  0.90528420932E+01  0.51100000000E-03 0.  1.
         12    1    3    3    0    0 -0.24152802225E+00  0.11161325932E+01 -0.58269282866E+01  0.59377757627E+01  0.00000000000E+00 0. -1.
</event>
<event>
 7    1  0.9868142E-013  0.5052886E+02  0.7816164E-02  0.1300439E+00
        -11   -1    0    0    0    0  0.00000000000E+00  0.00000000000E+00  0.45593999997E+02  0.45594000000E+02  0.51100000000E-03 0.  1.
         11   -1    0    0    0    0 -0.00000000000E+00 -0.00000000000E+00 -0.45593999997E+02  0.45594000000E+02  0.51100000000E-03 0. -1.
    9900012    2    1    2    0    0  0.90362885331E+01 -0.58247229323E+01 -0.39212031659E+02  0.50528864071E+02  0.30000012829E+02 0.  0.
        -12    1    1    2    0    0 -0.90362885331E+01  0.58247229323E+01  0.39212031659E+02  0.40659135929E+02  0.00000000000E+00 0.  1.
         11    1    3    3    0    0  0.16357297205E+02  0.34001555573E+01 -0.14004477836E+02  0.21800174985E+02  0.51100000000E-03 0. -1.
        -11    1    3    3    0    0 -0.84039783766E+01 -0.74947025546E+01 -0.23533834588E+02  0.26089054977E+02  0.51100000000E-03 0.  1.
         12    1    3    3    0    0  0.10829697050E+01 -0.17301759351E+01 -0.16737192346E+01  0.26396341081E+01  0.00000000000E+00 0. -1.
</event>
<event>
 7    1  0.9868142E-013  0.5052892E+02  0.7816164E-02  0.1300439E+00
        -11   -1    0    0    0    0  0.00000000000E+00  0.00000000000E+00  0.45593999997E+02  0.45594000000E+02  0.51100000000E-03 0.  1.
         11   -1    0    0    0    0 -0.00000000000E+00 -0.00000000000E+00 -0.45593999997E+02  0.45594000000E+02  0.51100000000E-03 0. -1.
    9900012    2    1    2    0    0  0.38803473589E+01  0.39389038127E+02 -0.93063111021E+01  0.50528919261E+02  0.30000180586E+02 0.  0.
        -12    1    1    2    0    0 -0.38803473589E+01 -0.39389038127E+02  0.93063111021E+01  0.40659080739E+02  0.00000000000E+00 0.  1.
         11    1    3    3    0    0  0.45373764012E+01  0.25357937427E+02 -0.14272223060E+02  0.29450112504E+02  0.51100000000E-03 0. -1.
        -11    1    3    3    0    0 -0.76115056365E+01  0.68789862053E+01  0.41590883169E+01  0.11070387760E+02  0.51100000000E-03 0.  1.
         12    1    3    3    0    0  0.69544765942E+01  0.71521144941E+01  0.80682364098E+00  0.10008418997E+02  0.00000000000E+00 0. -1.
</event>
<event>
 7    1  0.9868142E-013  0.5052884E+02  0.7816164E-02  0.1300439E+00
        -11   -1    0    0    0    0  0.00000000000E+00  0.00000000000E+00  0.45593999997E+02  0.45594000000E+02  0.51100000000E-03 0. -1.
         11   -1    0    0    0    0 -0.00000000000E+00 -0.00000000000E+00 -0.45593999997E+02  0.45594000000E+02  0.51100000000E-03 0.  1.
    9900012    2    1    2    0    0  0.25493988849E+02 -0.17175807007E+02  0.26612323085E+02  0.50528836780E+02  0.29999929876E+02 0.  0.
        -12    1    1    2    0    0 -0.25493988849E+02  0.17175807007E+02 -0.26612323085E+02  0.40659163220E+02  0.00000000000E+00 0.  1.
         11    1    3    3    0    0  0.51941921639E+01  0.43796986296E+01  0.11005614753E+02  0.12933868280E+02  0.51100000000E-03 0. -1.
        -11    1    3    3    0    0  0.65086360931E+01 -0.17000382525E+02  0.31779695940E+01  0.18479037875E+02  0.51100000000E-03 0.  1.
        -12    1    3    3    0    0  0.13791160592E+02 -0.45551231116E+01  0.12428738738E+02  0.19115930625E+02  0.00000000000E+00 0.  1.
</event>
<event>
 7    1  0.9868142E-013  0.5052886E+02  0.7816164E-02  0.1300439E+00
        -11   -1    0    0    0    0  0.00000000000E+00  0.00000000000E+00  0.45593999997E+02  0.45594000000E+02  0.51100000000E-03 0.  1.
         11   -1    0    0    0    0 -0.00000000000E+00 -0.00000000000E+00 -0.45593999997E+02  0.45594000000E+02  0.51100000000E-03 0. -1.
    9900012    2    1    2    0    0  0.27175288198E+02  0.22983345658E+00 -0.30242630392E+02  0.50528858284E+02  0.29999995239E+02 0.  0.
        -12    1    1    2    0    0 -0.27175288198E+02 -0.22983345658E+00  0.30242630392E+02  0.40659141716E+02  0.00000000000E+00 0.  1.
         11    1    3    3    0    0  0.16096942561E+02 -0.11124310465E+02 -0.15276927732E+02  0.24824309947E+02  0.51100000000E-03 0. -1.
        -11    1    3    3    0    0 -0.16499412371E+01  0.30515918304E+01  0.10518741504E+01  0.36250459686E+01  0.51100000000E-03 0.  1.
         12    1    3    3    0    0  0.12728286874E+02  0.83025520908E+01 -0.16017576810E+02  0.22079502369E+02  0.00000000000E+00 0. -1.
</event>
<event>
 7    1  0.9868142E-013  0.5052886E+02  0.7816164E-02  0.1300439E+00
        -11   -1    0    0    0    0  0.00000000000E+00  0.00000000000E+00  0.45593999997E+02  0.45594000000E+02  0.51100000000E-03 0.  1.
         11   -1    0    0    0    0 -0.00000000000E+00 -0.00000000000E+00 -0.45593999997E+02  0.45594000000E+02  0.51100000000E-03 0. -1.
    9900012    2    1    2    0    0  0.24540767553E+02 -0.23359668078E+02 -0.22477593840E+02  0.50528860934E+02  0.30000003295E+02 0.  0.
        -12    1    1    2    0    0 -0.24540767553E+02  0.23359668078E+02  0.22477593840E+02  0.40659139066E+02  0.00000000000E+00 0.  1.
         11    1    3    3    0    0  0.92451403550E+01 -0.83094171591E+01 -0.18005868877E+02  0.21879907403E+02  0.51100000000E-03 0. -1.
        -11    1    3    3    0    0  0.57527341924E+01 -0.15288720193E+02  0.28966880241E+01  0.16590048752E+02  0.51100000000E-03 0.  1.
        -12    1    3    3    0    0  0.95428930053E+01  0.23846927472E+00 -0.73684129868E+01  0.12058904778E+02  0.00000000000E+00 0.  1.
</event>
<event>
 7    1  0.9868142E-013  0.5052887E+02  0.7816164E-02  0.1300439E+00
        -11   -1    0    0    0    0  0.00000000000E+00  0.00000000000E+00  0.45593999997E+02  0.45594000000E+02  0.51100000000E-03 0.  1.
         11   -1    0    0    0    0 -0.00000000000E+00 -0.00000000000E+00 -0.45593999997E+02  0.45594000000E+02  0.51100000000E-03 0. -1.
    9900012    2    1    2    0    0 -0.40246850503E+01  0.63337043434E+01 -0.39960618132E+02  0.50528869390E+02  0.30000028998E+02 0.  0.
        -12    1    1    2    0    0  0.40246850503E+01 -0.63337043434E+01  0.39960618132E+02  0.40659130610E+02  0.00000000000E+00 0.  1.
         11    1    3    3    0    0 -0.80960116777E+01  0.16085195354E+01 -0.17589991109E+02  0.19430402148E+02  0.51100000000E-03 0. -1.
        -11    1    3    3    0    0  0.11447060597E+02  0.96580819283E+00 -0.18909572619E+02  0.22125549003E+02  0.51100000000E-03 0.  1.
        -12    1    3    3    0    0 -0.73757339700E+01  0.37593766152E+01 -0.34610544045E+01  0.89729182389E+01  0.00000000000E+00 0.  1.
</event>
<event>
 7    1  0.9868142E-013  0.5052885E+02  0.7816164E-02  0.1300439E+00
        -11   -1    0    0    0    0  0.00000000000E+00  0.00000000000E+00  0.45593999997E+02  0.45594000000E+02  0.51100000000E-03 0.  1.
         11   -1    0    0    0    0 -0.00000000000E+00 -0.00000000000E+00 -0.45593999997E+02  0.45594000000E+02  0.51100000000E-03 0. -1.
    9900012    2    1    2    0    0 -0.18987111379E+02 -0.32446612551E+02 -0.15487841221E+02  0.50528852318E+02  0.29999977106E+02 0.  0.
        -12    1    1    2    0    0  0.18987111379E+02  0.32446612551E+02  0.15487841221E+02  0.40659147682E+02  0.00000000000E+00 0.  1.
         11    1    3    3    0    0  0.32335933049E+00 -0.17341950678E+02  0.21088918189E+01  0.17472699836E+02  0.51100000000E-03 0. -1.
        -11    1    3    3    0    0 -0.79257117859E+01  0.10880588148E+01 -0.68535442303E+01  0.10534317637E+02  0.51100000000E-03 0.  1.
         12    1    3    3    0    0 -0.11384758923E+02 -0.16192720687E+02 -0.10743188809E+02  0.22521834845E+02  0.00000000000E+00 0. -1.
</event>
<event>
 7    1  0.9868142E-013  0.5052875E+02  0.7816164E-02  0.1300439E+00
        -11   -1    0    0    0    0  0.00000000000E+00  0.00000000000E+00  0.45593999997E+02  0.45594000000E+02  0.51100000000E-03 0.  1.
         11   -1    0    0    0    0 -0.00000000000E+00 -0.00000000000E+00 -0.45593999997E+02  0.45594000000E+02  0.51100000000E-03 0. -1.
    9900012    2    1    2    0    0  0.46434434412E+01  0.27173758392E+02 -0.29886444942E+02  0.50528753778E+02  0.29999677581E+02 0.  0.
        -12    1    1    2    0    0 -0.46434434412E+01 -0.27173758392E+02  0.29886444942E+02  0.40659246222E+02  0.00000000000E+00 0.  1.
         11    1    3    3    0    0  0.55695600271E+01  0.21738634784E+02 -0.84608027714E+01  0.23982773505E+02  0.51100000000E-03 0. -1.
        -11    1    3    3    0    0 -0.32233969036E+00 -0.44883953913E+01 -0.24500470058E+01  0.51237024364E+01  0.51100000000E-03 0.  1.
         12    1    3    3    0    0 -0.60377689556E+00  0.99235189988E+01 -0.18975595165E+02  0.21422277837E+02  0.00000000000E+00 0. -1.
</event>
<event>
 7    1  0.9868142E-013  0.5052886E+02  0.7816164E-02  0.1300439E+00
        -11   -1    0    0    0    0  0.00000000000E+00  0.00000000000E+00  0.45593999997E+02  0.45594000000E+02  0.51100000000E-03 0. -1.
         11   -1    0    0    0    0 -0.00000000000E+00 -0.00000000000E+00 -0.45593999997E+02  0.45594000000E+02  0.51100000000E-03 0.  1.
    9900012    2    1    2    0    0  0.30376970358E+02 -0.16249315624E+02  0.21595493722E+02  0.50528856681E+02  0.29999990367E+02 0.  0.
        -12    1    1    2    0    0 -0.30376970358E+02  0.16249315624E+02 -0.21595493722E+02  0.40659143319E+02  0.00000000000E+00 0.  1.
         11    1    3    3    0    0  0.20852213096E+02 -0.14998079448E+02  0.22933645817E+02  0.34434129709E+02  0.51100000000E-03 0. -1.
        -11    1    3    3    0    0  0.51669312173E+01  0.49443998735E+01  0.25346032418E+01  0.75873896808E+01  0.51100000000E-03 0.  1.
         12    1    3    3    0    0  0.43578260447E+01 -0.61956360491E+01 -0.38727553363E+01  0.85073372910E+01  0.00000000000E+00 0. -1.
</event>
<event>
 7    1  0.9868142E-013  0.5052885E+02  0.7816164E-02  0.1300439E+00
        -11   -1    0    0    0    0  0.00000000000E+00  0.00000000000E+00  0.45593999997E+02  0.45594000000E+02  0.51100000000E-03 0. -1.
         11   -1    0    0    0    0 -0.00000000000E+00 -0.00000000000E+00 -0.45593999997E+02  0.45594000000E+02  0.51100000000E-03 0.  1.
    9900012    2    1    2    0    0  0.17468939072E+02 -0.35322932108E+02 -0.10014643195E+02  0.50528850435E+02  0.29999971382E+02 0.  0.
        -12    1    1    2    0    0 -0.17468939072E+02  0.35322932108E+02  0.10014643195E+02  0.40659149565E+02  0.00000000000E+00 0.  1.
         11    1    3    3    0    0  0.81121865075E+01 -0.32088523856E+02  0.98600064846E+00  0.33112733664E+02  0.51100000000E-03 0. -1.
        -11    1    3    3    0    0  0.91981661224E+01 -0.40171685813E+01 -0.12309434280E+02  0.15882886261E+02  0.51100000000E-03 0.  1.
         12    1    3    3    0    0  0.15858644246E+00  0.78276032862E+00  0.13087904359E+01  0.15332305100E+01  0.00000000000E+00 0. -1.
</event>
<event>
 7    1  0.9868142E-013  0.5052885E+02  0.7816164E-02  0.1300439E+00
        -11   -1    0    0    0    0  0.00000000000E+00  0.00000000000E+00  0.45593999997E+02  0.45594000000E+02  0.51100000000E-03 0.  1.
         11   -1    0    0    0    0 -0.00000000000E+00 -0.00000000000E+00 -0.45593999997E+02  0.45594000000E+02  0.51100000000E-03 0. -1.
    9900012    2    1    2    0    0  0.58684248697E+01  0.27313138275E+00 -0.40232493995E+02  0.50528848702E+02  0.29999966114E+02 0.  0.
        -12    1    1    2    0    0 -0.58684248697E+01 -0.27313138275E+00  0.40232493995E+02  0.40659151298E+02  0.00000000000E+00 0.  1.
         11    1    3    3    0    0 -0.85045490902E+01 -0.27248769006E+01 -0.67180868635E+01  0.11175195780E+02  0.51100000000E-03 0.  1.
        -11    1    3    3    0    0  0.89323727877E+01 -0.49885949819E+01 -0.12005299828E+02  0.15773413953E+02  0.51100000000E-03 0. -1.
        -12    1    3    3    0    0  0.54406011722E+01  0.79866032653E+01 -0.21509107304E+02  0.23580238969E+02  0.00000000000E+00 0.  1.
</event>
<event>
 7    1  0.9868142E-013  0.5052884E+02  0.7816164E-02  0.1300439E+00
        -11   -1    0    0    0    0  0.00000000000E+00  0.00000000000E+00  0.45593999997E+02  0.45594000000E+02  0.51100000000E-03 0. -1.
         11   -1    0    0    0    0 -0.00000000000E+00 -0.00000000000E+00 -0.45593999997E+02  0.45594000000E+02  0.51100000000E-03 0.  1.
    9900012    2    1    2    0    0  0.18932048536E+01 -0.37818353743E+02  0.14810654772E+02  0.50528836221E+02  0.29999928176E+02 0.  0.
        -12    1    1    2    0    0 -0.18932048536E+01  0.37818353743E+02 -0.14810654772E+02  0.40659163779E+02  0.00000000000E+00 0.  1.
         11    1    3    3    0    0 -0.11729771579E+02 -0.64467489043E+01  0.58997174186E+01  0.14627193121E+02  0.51100000000E-03 0. -1.
        -11    1    3    3    0    0  0.48354399388E+01 -0.16919000254E+02  0.23211606425E+01  0.17748854498E+02  0.51100000000E-03 0.  1.
         12    1    3    3    0    0  0.87875364934E+01 -0.14452604585E+02  0.65897767114E+01  0.18152788601E+02  0.00000000000E+00 0. -1.
</event>
<event>
 7    1  0.9868142E-013  0.5052887E+02  0.7816164E-02  0.1300439E+00
        -11   -1    0    0    0    0  0.00000000000E+00  0.00000000000E+00  0.45593999997E+02  0.45594000000E+02  0.51100000000E-03 0.  1.
         11   -1    0    0    0    0 -0.00000000000E+00 -0.00000000000E+00 -0.45593999997E+02  0.45594000000E+02  0.51100000000E-03 0. -1.
    9900012    2    1    2    0    0  0.33125254517E+02  0.82124160696E+01  0.22100650495E+02  0.50528867977E+02  0.30000024703E+02 0.  0.
        -12    1    1    2    0    0 -0.33125254517E+02 -0.82124160696E+01 -0.22100650495E+02  0.40659132023E+02  0.00000000000E+00 0.  1.
         11    1    3    3    0    0  0.26802456437E+02  0.68199177229E+01  0.24247302729E+02  0.36780628579E+02  0.51100000000E-03 0.  1.
        -11    1    3    3    0    0 -0.20751435778E+01 -0.25235152597E+01  0.17381420081E+01  0.37007415522E+01  0.51100000000E-03 0. -1.
        -12    1    3    3    0    0  0.83979416579E+01  0.39160136064E+01 -0.38847942416E+01  0.10047497845E+02  0.00000000000E+00 0.  1.
</event>
<event>
 7    1  0.9868142E-013  0.5052886E+02  0.7816164E-02  0.1300439E+00
        -11   -1    0    0    0    0  0.00000000000E+00  0.00000000000E+00  0.45593999997E+02  0.45594000000E+02  0.51100000000E-03 0.  1.
         11   -1    0    0    0    0 -0.00000000000E+00 -0.00000000000E+00 -0.45593999997E+02  0.45594000000E+02  0.51100000000E-03 0. -1.
    9900012    2    1    2    0    0  0.15501943513E+02  0.29586672082E+02 -0.23183708209E+02  0.50528859037E+02  0.29999997529E+02 0.  0.
        -12    1    1    2    0    0 -0.15501943513E+02 -0.29586672082E+02  0.23183708209E+02  0.40659140963E+02  0.00000000000E+00 0.  1.
         11    1    3    3    0    0  0.15851059957E+02  0.11353269906E+02 -0.51890617507E+01  0.20176203841E+02  0.51100000000E-03 0. -1.
        -11    1    3    3    0    0 -0.26941283452E+01  0.19636491423E+02 -0.10616435579E+02  0.22484635368E+02  0.51100000000E-03 0.  1.
         12    1    3    3    0    0  0.23450119007E+01 -0.14030892474E+01 -0.73782108785E+01  0.78680198283E+01  0.00000000000E+00 0. -1.
</event>
<event>
 7    1  0.9868142E-013  0.5052886E+02  0.7816164E-02  0.1300439E+00
        -11   -1    0    0    0    0  0.00000000000E+00  0.00000000000E+00  0.45593999997E+02  0.45594000000E+02  0.51100000000E-03 0.  1.
         11   -1    0    0    0    0 -0.00000000000E+00 -0.00000000000E+00 -0.45593999997E+02  0.45594000000E+02  0.51100000000E-03 0. -1.
    9900012    2    1    2    0    0  0.40389808789E+02  0.42459001012E+01 -0.19497677425E+01  0.50528856921E+02  0.29999991096E+02 0.  0.
        -12    1    1    2    0    0 -0.40389808789E+02 -0.42459001012E+01  0.19497677425E+01  0.40659143079E+02  0.00000000000E+00 0.  1.
         11    1    3    3    0    0  0.41396807576E+02 -0.31310244901E+01 -0.35165659018E+01  0.41663715963E+02  0.51100000000E-03 0. -1.
        -11    1    3    3    0    0  0.11721276138E+01  0.47589894850E+01 -0.42453633880E+00  0.49195625238E+01  0.51100000000E-03 0.  1.
         12    1    3    3    0    0 -0.21791264011E+01  0.26179351063E+01  0.19913344980E+01  0.39455784336E+01  0.00000000000E+00 0. -1.
</event>
<event>
 7    1  0.9868142E-013  0.5052884E+02  0.7816164E-02  0.1300439E+00
        -11   -1    0    0    0    0  0.00000000000E+00  0.00000000000E+00  0.45593999997E+02  0.45594000000E+02  0.51100000000E-03 0.  1.
         11   -1    0    0    0    0 -0.00000000000E+00 -0.00000000000E+00 -0.45593999997E+02  0.45594000000E+02  0.51100000000E-03 0. -1.
    9900012    2    1    2    0    0 -0.13062289098E+02 -0.30718984158E+02 -0.23213962758E+02  0.50528838042E+02  0.29999933712E+02 0.  0.
        -12    1    1    2    0    0  0.13062289098E+02  0.30718984158E+02  0.23213962758E+02  0.40659161958E+02  0.00000000000E+00 0.  1.
         11    1    3    3    0    0 -0.93985156737E+01 -0.60717603936E+01 -0.57516459970E+01  0.12580930136E+02  0.51100000000E-03 0. -1.
        -11    1    3    3    0    0  0.88696983105E+01 -0.45398014484E+01 -0.44029184545E+01  0.10893440067E+02  0.51100000000E-03 0.  1.
        -12    1    3    3    0    0 -0.12533471735E+02 -0.20107422316E+02 -0.13059398306E+02  0.27054467839E+02  0.00000000000E+00 0.  1.
</event>
<event>
 7    1  0.9868142E-013  0.5052886E+02  0.7816164E-02  0.1300439E+00
        -11   -1    0    0    0    0  0.00000000000E+00  0.00000000000E+00  0.45593999997E+02  0.45594000000E+02  0.51100000000E-03 0. -1.
         11   -1    0    0    0    0 -0.00000000000E+00 -0.00000000000E+00 -0.45593999997E+02  0.45594000000E+02  0.51100000000E-03 0.  1.
    9900012    2    1    2    0    0 -0.22686806117E+02  0.33246933924E+02 -0.57546179976E+01  0.50528863076E+02  0.30000009806E+02 0.  0.
        -12    1    1    2    0    0  0.22686806117E+02 -0.33246933924E+02  0.57546179976E+01  0.40659136924E+02  0.00000000000E+00 0.  1.
         11    1    3    3    0    0 -0.21363034340E+02  0.15062350434E+02 -0.12175223931E+02  0.28835563369E+02  0.51100000000E-03 0.  1.
        -11    1    3    3    0    0  0.17859855618E+01 -0.43068020959E+00  0.77317641742E+00  0.19932465737E+01  0.51100000000E-03 0. -1.
         12    1    3    3    0    0 -0.31097573385E+01  0.18615263700E+02  0.56474295155E+01  0.19700053133E+02  0.00000000000E+00 0. -1.
</event>
<event>
 7    1  0.9868142E-013  0.5052886E+02  0.7816164E-02  0.1300439E+00
        -11   -1    0    0    0    0  0.00000000000E+00  0.00000000000E+00  0.45593999997E+02  0.45594000000E+02  0.51100000000E-03 0.  1.
         11   -1    0    0    0    0 -0.00000000000E+00 -0.00000000000E+00 -0.45593999997E+02  0.45594000000E+02  0.51100000000E-03 0. -1.
    9900012    2    1    2    0    0 -0.19427663544E+01 -0.13404654123E+02 -0.38336751631E+02  0.50528860573E+02  0.30000002199E+02 0.  0.
        -12    1    1    2    0    0  0.19427663544E+01  0.13404654123E+02  0.38336751631E+02  0.40659139427E+02  0.00000000000E+00 0.  1.
         11    1    3    3    0    0 -0.12156978402E+02  0.23754100703E+01 -0.17560708915E+02  0.21489839337E+02  0.51100000000E-03 0. -1.
        -11    1    3    3    0    0  0.45993041419E+01 -0.53151770862E+01 -0.29581195148E+01  0.76259541942E+01  0.51100000000E-03 0.  1.
         12    1    3    3    0    0  0.56149079054E+01 -0.10464887107E+02 -0.17817923202E+02  0.21413067042E+02  0.00000000000E+00 0. -1.
</event>
<event>
 7    1  0.9868142E-013  0.5052886E+02  0.7816164E-02  0.1300439E+00
        -11   -1    0    0    0    0  0.00000000000E+00  0.00000000000E+00  0.45593999997E+02  0.45594000000E+02  0.51100000000E-03 0. -1.
         11   -1    0    0    0    0 -0.00000000000E+00 -0.00000000000E+00 -0.45593999997E+02  0.45594000000E+02  0.51100000000E-03 0.  1.
    9900012    2    1    2    0    0 -0.30058956111E+02  0.22523462352E+02  0.15566593033E+02  0.50528855672E+02  0.29999987300E+02 0.  0.
        -12    1    1    2    0    0  0.30058956111E+02 -0.22523462352E+02 -0.15566593033E+02  0.40659144328E+02  0.00000000000E+00 0.  1.
         11    1    3    3    0    0 -0.23008607285E+01  0.12380053856E+02  0.71143076807E+01  0.14462816724E+02  0.51100000000E-03 0. -1.
        -11    1    3    3    0    0 -0.26335454005E+02  0.59099352682E+01  0.12765638427E+02  0.29857076167E+02  0.51100000000E-03 0.  1.
        -12    1    3    3    0    0 -0.14226413778E+01  0.42334732287E+01 -0.43133530744E+01  0.62089627808E+01  0.00000000000E+00 0.  1.
</event>
<event>
 7    1  0.9868142E-013  0.5052895E+02  0.7816164E-02  0.1300438E+00
        -11   -1    0    0    0    0  0.00000000000E+00  0.00000000000E+00  0.45593999997E+02  0.45594000000E+02  0.51100000000E-03 0.  1.
         11   -1    0    0    0    0 -0.00000000000E+00 -0.00000000000E+00 -0.45593999997E+02  0.45594000000E+02  0.51100000000E-03 0. -1.
    9900012    2    1    2    0    0  0.23416364268E+01  0.38892085088E+02  0.11622423697E+02  0.50528950869E+02  0.30000276659E+02 0.  0.
        -12    1    1    2    0    0 -0.23416364268E+01 -0.38892085088E+02 -0.11622423697E+02  0.40659049131E+02  0.00000000000E+00 0.  1.
         11    1    3    3    0    0  0.41348349470E+01  0.36664706400E+02  0.26967078328E+01  0.36995537418E+02  0.51100000000E-03 0. -1.
        -11    1    3    3    0    0 -0.99777965948E-01  0.15184870791E+01  0.10801850738E+02  0.10908516777E+02  0.51100000000E-03 0.  1.
        -12    1    3    3    0    0 -0.16934205542E+01  0.70889160926E+00 -0.18761348733E+01  0.26248966741E+01  0.00000000000E+00 0.  1.
</event>
<event>
 7    1  0.9868142E-013  0.5052886E+02  0.7816164E-02  0.1300439E+00
        -11   -1    0    0    0    0  0.00000000000E+00  0.00000000000E+00  0.45593999997E+02  0.45594000000E+02  0.51100000000E-03 0. -1.
         11   -1    0    0    0    0 -0.00000000000E+00 -0.00000000000E+00 -0.45593999997E+02  0.45594000000E+02  0.51100000000E-03 0.  1.
    9900012    2    1    2    0    0  0.76659166350E+01 -0.32108788425E+02  0.23736573880E+02  0.50528861894E+02  0.30000006213E+02 0.  0.
        -12    1    1    2    0    0 -0.76659166350E+01  0.32108788425E+02 -0.23736573880E+02  0.40659138106E+02  0.00000000000E+00 0.  1.
         11    1    3    3    0    0  0.65497369177E+01 -0.73203461972E+01  0.13388121020E+02  0.16605068710E+02  0.51100000000E-03 0. -1.
        -11    1    3    3    0    0 -0.52904952433E+01 -0.23389563540E+02  0.12473404801E+02  0.27030480019E+02  0.51100000000E-03 0.  1.
        -12    1    3    3    0    0  0.64066749607E+01 -0.13988786879E+01 -0.21249519410E+01  0.68933131647E+01  0.00000000000E+00 0.  1.
</event>
<event>
 7    1  0.9868142E-013  0.5052889E+02  0.7816164E-02  0.1300439E+00
        -11   -1    0    0    0    0  0.00000000000E+00  0.00000000000E+00  0.45593999997E+02  0.45594000000E+02  0.51100000000E-03 0. -1.
         11   -1    0    0    0    0 -0.00000000000E+00 -0.00000000000E+00 -0.45593999997E+02  0.45594000000E+02  0.51100000000E-03 0.  1.
    9900012    2    1    2    0    0  0.24992890635E+02  0.18568543218E+02 -0.26148190877E+02  0.50528889512E+02  0.30000090160E+02 0.  0.
        -12    1    1    2    0    0 -0.24992890635E+02 -0.18568543218E+02  0.26148190877E+02  0.40659110488E+02  0.00000000000E+00 0.  1.
         11    1    3    3    0    0  0.20724684443E+01  0.48019268015E+01  0.30054746064E+01  0.60321227052E+01  0.51100000000E-03 0. -1.
        -11    1    3    3    0    0  0.21386643721E+02  0.56557751027E+01 -0.28691127281E+02  0.36229230003E+02  0.51100000000E-03 0.  1.
        -12    1    3    3    0    0  0.15337784696E+01  0.81108413142E+01 -0.46253820196E+00  0.82675368041E+01  0.00000000000E+00 0.  1.
</event>
<event>
 7    1  0.9868142E-013  0.5052886E+02  0.7816164E-02  0.1300439E+00
        -11   -1    0    0    0    0  0.00000000000E+00  0.00000000000E+00  0.45593999997E+02  0.45594000000E+02  0.51100000000E-03 0.  1.
         11   -1    0    0    0    0 -0.00000000000E+00 -0.00000000000E+00 -0.45593999997E+02  0.45594000000E+02  0.51100000000E-03 0. -1.
    9900012    2    1    2    0    0 -0.39821752172E+02  0.39232064895E+01 -0.72112713807E+01  0.50528856747E+02  0.29999990567E+02 0.  0.
        -12    1    1    2    0    0  0.39821752172E+02 -0.39232064895E+01  0.72112713807E+01  0.40659143253E+02  0.00000000000E+00 0.  1.
         11    1    3    3    0    0 -0.28650278821E+02  0.19170338927E+01 -0.15025738025E+02  0.32408120879E+02  0.51100000000E-03 0. -1.
        -11    1    3    3    0    0 -0.11423713490E+02 -0.18780167621E+01  0.82328932698E+01  0.14205939206E+02  0.51100000000E-03 0.  1.
         12    1    3    3    0    0  0.25224013904E+00  0.38841893589E+01 -0.41842662576E+00  0.39147966620E+01  0.00000000000E+00 0. -1.
</event>
<event>
 7    1  0.9868142E-013  0.5052887E+02  0.7816164E-02  0.1300439E+00
        -11   -1    0    0    0    0  0.00000000000E+00  0.00000000000E+00  0.45593999997E+02  0.45594000000E+02  0.51100000000E-03 0. -1.
         11   -1    0    0    0    0 -0.00000000000E+00 -0.00000000000E+00 -0.45593999997E+02  0.45594000000E+02  0.51100000000E-03 0.  1.
    9900012    2    1    2    0    0 -0.66870867211E+01 -0.67245242323E+01  0.39537687774E+02  0.50528866838E+02  0.30000021242E+02 0.  0.
        -12    1    1    2    0    0  0.66870867211E+01  0.67245242323E+01 -0.39537687774E+02  0.40659133162E+02  0.00000000000E+00 0.  1.
         11    1    3    3    0    0 -0.31060904997E+01  0.72075436517E+01  0.46850834878E+01  0.91403769743E+01  0.51100000000E-03 0.  1.
        -11    1    3    3    0    0 -0.16536833075E+01 -0.72682935398E+01  0.33502145986E+02  0.34321371555E+02  0.51100000000E-03 0. -1.
        -12    1    3    3    0    0 -0.19273129139E+01 -0.66637743442E+01  0.13504582997E+01  0.70671183093E+01  0.00000000000E+00 0.  1.
</event>
<event>
 7    1  0.9868142E-013  0.5052886E+02  0.7816164E-02  0.1300439E+00
        -11   -1    0    0    0    0  0.00000000000E+00  0.00000000000E+00  0.45593999997E+02  0.45594000000E+02  0.51100000000E-03 0. -1.
         11   -1    0    0    0    0 -0.00000000000E+00 -0.00000000000E+00 -0.45593999997E+02  0.45594000000E+02  0.51100000000E-03 0.  1.
    9900012    2    1    2    0    0  0.12850984065E+01  0.33182310938E+02  0.23461636458E+02  0.50528860531E+02  0.30000002069E+02 0.  0.
        -12    1    1    2    0    0 -0.12850984065E+01 -0.33182310938E+02 -0.23461636458E+02  0.40659139469E+02  0.00000000000E+00 0.  1.
         11    1    3    3    0    0 -0.20479195307E+01  0.18467463303E+02  0.14946085664E+02  0.23845893823E+02  0.51100000000E-03 0. -1.
        -11    1    3    3    0    0  0.26821344127E+01 -0.34752183186E+01 -0.28410000010E+01  0.52289835185E+01  0.51100000000E-03 0.  1.
        -12    1    3    3    0    0  0.65088352455E+00  0.18190065953E+02  0.11356550795E+02  0.21453983190E+02  0.00000000000E+00 0.  1.
</event>
<event>
 7    1  0.9868142E-013  0.5052885E+02  0.7816164E-02  0.1300439E+00
        -11   -1    0    0    0    0  0.00000000000E+00  0.00000000000E+00  0.45593999997E+02  0.45594000000E+02  0.51100000000E-03 0.  1.
         11   -1    0    0    0    0 -0.00000000000E+00 -0.00000000000E+00 -0.45593999997E+02  0.45594000000E+02  0.51100000000E-03 0. -1.
    9900012    2    1    2    0    0 -0.39804274826E+02 -0.78258112695E+01 -0.27464207396E+01  0.50528850435E+02  0.29999971383E+02 0.  0.
        -12    1    1    2    0    0  0.39804274826E+02  0.78258112695E+01  0.27464207396E+01  0.40659149565E+02  0.00000000000E+00 0.  1.
         11    1    3    3    0    0 -0.76130003494E+01 -0.62416659331E+01  0.99558271188E+01  0.14001237867E+02  0.51100000000E-03 0. -1.
        -11    1    3    3    0    0 -0.68130503614E+01  0.73785189317E+00 -0.81360316220E+01  0.10637532207E+02  0.51100000000E-03 0.  1.
         12    1    3    3    0    0 -0.25378224115E+02 -0.23219972295E+01 -0.45662162364E+01  0.25890080361E+02  0.00000000000E+00 0. -1.
</event>
<event>
 7    1  0.9868142E-013  0.5052888E+02  0.7816164E-02  0.1300439E+00
        -11   -1    0    0    0    0  0.00000000000E+00  0.00000000000E+00  0.45593999997E+02  0.45594000000E+02  0.51100000000E-03 0.  1.
         11   -1    0    0    0    0 -0.00000000000E+00 -0.00000000000E+00 -0.45593999997E+02  0.45594000000E+02  0.51100000000E-03 0. -1.
    9900012    2    1    2    0    0 -0.22260643784E+02 -0.27925453161E+02 -0.19437004129E+02  0.50528876480E+02  0.30000050548E+02 0.  0.
        -12    1    1    2    0    0  0.22260643784E+02  0.27925453161E+02  0.19437004129E+02  0.40659123520E+02  0.00000000000E+00 0.  1.
         11    1    3    3    0    0  0.10701963468E+01 -0.54876580879E+01 -0.71277248921E+01  0.90589278564E+01  0.51100000000E-03 0. -1.
        -11    1    3    3    0    0 -0.15973444897E+02 -0.18459953642E+02  0.24205123810E+01  0.24531198723E+02  0.51100000000E-03 0.  1.
        -12    1    3    3    0    0 -0.73573952331E+01 -0.39778414310E+01 -0.14729791618E+02  0.16938749900E+02  0.00000000000E+00 0.  1.
</event>
<event>
 7    1  0.9868142E-013  0.5052887E+02  0.7816164E-02  0.1300439E+00
        -11   -1    0    0    0    0  0.00000000000E+00  0.00000000000E+00  0.45593999997E+02  0.45594000000E+02  0.51100000000E-03 0.  1.
         11   -1    0    0    0    0 -0.00000000000E+00 -0.00000000000E+00 -0.45593999997E+02  0.45594000000E+02  0.51100000000E-03 0. -1.
    9900012    2    1    2    0    0 -0.13504695755E+02 -0.31271448761E+02 -0.22201009310E+02  0.50528866592E+02  0.30000020494E+02 0.  0.
        -12    1    1    2    0    0  0.13504695755E+02  0.31271448761E+02  0.22201009310E+02  0.40659133408E+02  0.00000000000E+00 0.  1.
         11    1    3    3    0    0 -0.11312668767E+00  0.37631337931E+00 -0.12293357012E+02  0.12299635616E+02  0.51100000000E-03 0. -1.
        -11    1    3    3    0    0 -0.60290329629E+01 -0.55019852394E+01  0.22548854892E+01  0.84679152613E+01  0.51100000000E-03 0.  1.
         12    1    3    3    0    0 -0.73625361045E+01 -0.26145776901E+02 -0.12162537788E+02  0.29761315715E+02  0.00000000000E+00 0. -1.
</event>
<event>
 7    1  0.9868142E-013  0.5052886E+02  0.7816164E-02  0.1300439E+00
        -11   -1    0    0    0    0  0.00000000000E+00  0.00000000000E+00  0.45593999997E+02  0.45594000000E+02  0.51100000000E-03 0.  1.
         11   -1    0    0    0    0 -0.00000000000E+00 -0.00000000000E+00 -0.45593999997E+02  0.45594000000E+02  0.51100000000E-03 0. -1.
    9900012    2    1    2    0    0 -0.91382863558E+01 -0.92087418940E+01 -0.38533834459E+02  0.50528860771E+02  0.30000002798E+02 0.  0.
        -12    1    1    2    0    0  0.91382863558E+01  0.92087418940E+01  0.38533834459E+02  0.40659139229E+02  0.00000000000E+00 0.  1.
         11    1    3    3    0    0 -0.16767621848E+02 -0.89177955383E+01 -0.14169741476E+02  0.23695185027E+02  0.51100000000E-03 0. -1.
        -11    1    3    3    0    0  0.53640885493E+01  0.34271482995E+01 -0.10272509772E+02  0.12084835485E+02  0.51100000000E-03 0.  1.
         12    1    3    3    0    0  0.22652469432E+01 -0.37180946552E+01 -0.14091583211E+02  0.14748840258E+02  0.00000000000E+00 0. -1.
</event>
<event>
 7    1  0.9868142E-013  0.5052887E+02  0.7816164E-02  0.1300439E+00
        -11   -1    0    0    0    0  0.00000000000E+00  0.00000000000E+00  0.45593999997E+02  0.45594000000E+02  0.51100000000E-03 0.  1.
         11   -1    0    0    0    0 -0.00000000000E+00 -0.00000000000E+00 -0.45593999997E+02  0.45594000000E+02  0.51100000000E-03 0. -1.
    9900012    2    1    2    0    0  0.44958744193E+01 -0.18361398557E+02 -0.35997377525E+02  0.50528867786E+02  0.30000024121E+02 0.  0.
        -12    1    1    2    0    0 -0.44958744193E+01  0.18361398557E+02  0.35997377525E+02  0.40659132214E+02  0.00000000000E+00 0.  1.
         11    1    3    3    0    0  0.30768801611E+01 -0.11037411071E+02 -0.28013508994E+02  0.30266290177E+02  0.51100000000E-03 0. -1.
        -11    1    3    3    0    0 -0.62902665593E+01 -0.83979023841E+01 -0.26353051917E+01  0.10818366400E+02  0.51100000000E-03 0.  1.
        -12    1    3    3    0    0  0.77092608175E+01  0.10739148984E+01 -0.53485633391E+01  0.94442112086E+01  0.00000000000E+00 0.  1.
</event>
<event>
 7    1  0.9868142E-013  0.5052886E+02  0.7816164E-02  0.1300439E+00
        -11   -1    0    0    0    0  0.00000000000E+00  0.00000000000E+00  0.45593999997E+02  0.45594000000E+02  0.51100000000E-03 0.  1.
         11   -1    0    0    0    0 -0.00000000000E+00 -0.00000000000E+00 -0.45593999997E+02  0.45594000000E+02  0.51100000000E-03 0. -1.
    9900012    2    1    2    0    0  0.11443016936E+02  0.38737676188E+02 -0.46492708293E+01  0.50528856966E+02  0.29999991233E+02 0.  0.
        -12    1    1    2    0    0 -0.11443016936E+02 -0.38737676188E+02  0.46492708293E+01  0.40659143034E+02  0.00000000000E+00 0.  1.
         11    1    3    3    0    0  0.32402942497E+00  0.64170231846E+01  0.48627212440E+00  0.64435737336E+01  0.51100000000E-03 0. -1.
        -11    1    3    3    0    0  0.13030630985E+01  0.33634527170E+02 -0.20920519036E+01  0.33724710122E+02  0.51100000000E-03 0.  1.
        -12    1    3    3    0    0  0.98159244121E+01 -0.13138741668E+01 -0.30434910501E+01  0.10360573110E+02  0.00000000000E+00 0.  1.
</event>
<event>
 7    1  0.9868142E-013  0.5052885E+02  0.7816164E-02  0.1300439E+00
        -11   -1    0    0    0    0  0.00000000000E+00  0.00000000000E+00  0.45593999997E+02  0.45594000000E+02  0.51100000000E-03 0. -1.
         11   -1    0    0    0    0 -0.00000000000E+00 -0.00000000000E+00 -0.45593999997E+02  0.45594000000E+02  0.51100000000E-03 0.  1.
    9900012    2    1    2    0    0  0.28353222013E+02  0.18436987559E+01  0.29083710339E+02  0.50528848131E+02  0.29999964379E+02 0.  0.
        -12    1    1    2    0    0 -0.28353222013E+02 -0.18436987559E+01 -0.29083710339E+02  0.40659151869E+02  0.00000000000E+00 0.  1.
         11    1    3    3    0    0  0.13599103806E+02 -0.32761238305E+01  0.23112380094E+02  0.27015749583E+02  0.51100000000E-03 0. -1.
        -11    1    3    3    0    0 -0.34145894201E+01 -0.10139643102E+01  0.10986072967E+01  0.37275303867E+01  0.51100000000E-03 0.  1.
         12    1    3    3    0    0  0.18168707627E+02  0.61337868967E+01  0.48727229485E+01  0.19785568161E+02  0.00000000000E+00 0. -1.
</event>
<event>
 7    1  0.9868142E-013  0.5052887E+02  0.7816164E-02  0.1300439E+00
        -11   -1    0    0    0    0  0.00000000000E+00  0.00000000000E+00  0.45593999997E+02  0.45594000000E+02  0.51100000000E-03 0.  1.
         11   -1    0    0    0    0 -0.00000000000E+00 -0.00000000000E+00 -0.45593999997E+02  0.45594000000E+02  0.51100000000E-03 0. -1.
    9900012    2    1    2    0    0 -0.29916571933E+02  0.20270943759E+02 -0.18634706093E+02  0.50528871771E+02  0.30000036237E+02 0.  0.
        -12    1    1    2    0    0  0.29916571933E+02 -0.20270943759E+02  0.18634706093E+02  0.40659128229E+02  0.00000000000E+00 0.  1.
         11    1    3    3    0    0 -0.22969554024E+02  0.26175643716E+02 -0.18769958077E+02  0.39561042232E+02  0.51100000000E-03 0. -1.
        -11    1    3    3    0    0 -0.18226927950E+01 -0.47375448336E+01  0.19057844036E+01  0.54220433906E+01  0.51100000000E-03 0.  1.
         12    1    3    3    0    0 -0.51243251140E+01 -0.11671551235E+01 -0.17705324199E+01  0.55457861486E+01  0.00000000000E+00 0. -1.
</event>
<event>
 7    1  0.9868142E-013  0.5052886E+02  0.7816164E-02  0.1300439E+00
        -11   -1    0    0    0    0  0.00000000000E+00  0.00000000000E+00  0.45593999997E+02  0.45594000000E+02  0.51100000000E-03 0. -1.
         11   -1    0    0    0    0 -0.00000000000E+00 -0.00000000000E+00 -0.45593999997E+02  0.45594000000E+02  0.51100000000E-03 0.  1.
    9900012    2    1    2    0    0 -0.29664049552E+02  0.26659907092E+02  0.79031151160E+01  0.50528859447E+02  0.29999998775E+02 0.  0.
        -12    1    1    2    0    0  0.29664049552E+02 -0.26659907092E+02 -0.79031151160E+01  0.40659140553E+02  0.00000000000E+00 0.  1.
         11    1    3    3    0    0 -0.25206027227E+02  0.72422779701E+01  0.72963630335E+01  0.27221890319E+02  0.51100000000E-03 0. -1.
        -11    1    3    3    0    0 -0.26522920645E+01  0.46958922448E+01 -0.50925872421E+01  0.74175806197E+01  0.51100000000E-03 0.  1.
         12    1    3    3    0    0 -0.18057302609E+01  0.14721736877E+02  0.56993393245E+01  0.15889388509E+02  0.00000000000E+00 0. -1.
</event>
<event>
 7    1  0.9868142E-013  0.5052885E+02  0.7816164E-02  0.1300439E+00
        -11   -1    0    0    0    0  0.00000000000E+00  0.00000000000E+00  0.45593999997E+02  0.45594000000E+02  0.51100000000E-03 0.  1.
         11   -1    0    0    0    0 -0.00000000000E+00 -0.00000000000E+00 -0.45593999997E+02  0.45594000000E+02  0.51100000000E-03 0. -1.
    9900012    2    1    2    0    0  0.97860667280E+01 -0.24837359991E+02 -0.30667648384E+02  0.50528853296E+02  0.29999980077E+02 0.  0.
        -12    1    1    2    0    0 -0.97860667280E+01  0.24837359991E+02  0.30667648384E+02  0.40659146704E+02  0.00000000000E+00 0.  1.
         11    1    3    3    0    0  0.67363427775E+01  0.31012743303E+00 -0.10580776167E+02  0.12547004328E+02  0.51100000000E-03 0.  1.
        -11    1    3    3    0    0  0.98552216883E+00 -0.28365947522E+02 -0.18210685013E+02  0.33722800620E+02  0.51100000000E-03 0. -1.
        -12    1    3    3    0    0  0.20642017816E+01  0.32184600985E+01 -0.18761872043E+01  0.42590483475E+01  0.00000000000E+00 0.  1.
</event>
<event>
 7    1  0.9868142E-013  0.5052885E+02  0.7816164E-02  0.1300439E+00
        -11   -1    0    0    0    0  0.00000000000E+00  0.00000000000E+00  0.45593999997E+02  0.45594000000E+02  0.51100000000E-03 0.  1.
         11   -1    0    0    0    0 -0.00000000000E+00 -0.00000000000E+00 -0.45593999997E+02  0.45594000000E+02  0.51100000000E-03 0. -1.
    9900012    2    1    2    0    0 -0.26438125349E+02 -0.28095362124E+02  0.12839106088E+02  0.50528849862E+02  0.29999969641E+02 0.  0.
        -12    1    1    2    0    0  0.26438125349E+02  0.28095362124E+02 -0.12839106088E+02  0.40659150138E+02  0.00000000000E+00 0.  1.
         11    1    3    3    0    0 -0.23332102560E+02 -0.21494064662E+02  0.20303602050E+01  0.31788428529E+02  0.51100000000E-03 0. -1.
        -11    1    3    3    0    0 -0.33558821875E+01 -0.97053450729E+01  0.11634921526E+02  0.15518603913E+02  0.51100000000E-03 0.  1.
         12    1    3    3    0    0  0.24985939847E+00  0.31040476110E+01 -0.82617564325E+00  0.32218174194E+01  0.00000000000E+00 0. -1.
</event>
<event>
 7    1  0.9868142E-013  0.5052886E+02  0.7816164E-02  0.1300439E+00
        -11   -1    0    0    0    0  0.00000000000E+00  0.00000000000E+00  0.45593999997E+02  0.45594000000E+02  0.51100000000E-03 0.  1.
         11   -1    0    0    0    0 -0.00000000000E+00 -0.00000000000E+00 -0.45593999997E+02  0.45594000000E+02  0.51100000000E-03 0. -1.
    9900012    2    1    2    0    0 -0.12927078336E+02 -0.35827874142E+02 -0.14227428132E+02  0.50528860423E+02  0.30000001743E+02 0.  0.
        -12    1    1    2    0    0  0.12927078336E+02  0.35827874142E+02  0.14227428132E+02  0.40659139577E+02  0.00000000000E+00 0.  1.
         11    1    3    3    0    0 -0.16238121541E+02 -0.31936157438E+02 -0.18508747982E+02  0.40325779536E+02  0.51100000000E-03 0. -1.
        -11    1    3    3    0    0 -0.15976809003E+01 -0.28977017991E+01  0.39937802809E+01  0.51864767587E+01  0.51100000000E-03 0.  1.
         12    1    3    3    0    0  0.49087241054E+01 -0.99401490525E+00  0.28753956918E+00  0.50166041282E+01  0.00000000000E+00 0. -1.
</event>
<event>
 7    1  0.9868142E-013  0.5052886E+02  0.7816164E-02  0.1300439E+00
        -11   -1    0    0    0    0  0.00000000000E+00  0.00000000000E+00  0.45593999997E+02  0.45594000000E+02  0.51100000000E-03 0. -1.
         11   -1    0    0    0    0 -0.00000000000E+00 -0.00000000000E+00 -0.45593999997E+02  0.45594000000E+02  0.51100000000E-03 0.  1.
    9900012    2    1    2    0    0 -0.12051947030E+02  0.36316626618E+02 -0.13748404896E+02  0.50528862856E+02  0.30000009137E+02 0.  0.
        -12    1    1    2    0    0  0.12051947030E+02 -0.36316626618E+02  0.13748404896E+02  0.40659137144E+02  0.00000000000E+00 0.  1.
         11    1    3    3    0    0 -0.86001047821E+01  0.26027029401E+01  0.15527276190E+01  0.91184882616E+01  0.51100000000E-03 0.  1.
        -11    1    3    3    0    0  0.60204840586E+01  0.23653838948E+02 -0.74586727491E+01  0.25522188870E+02  0.51100000000E-03 0. -1.
         12    1    3    3    0    0 -0.94723263065E+01  0.10060084729E+02 -0.78424597659E+01  0.15888185724E+02  0.00000000000E+00 0. -1.
</event>
<event>
 7    1  0.9868142E-013  0.5052886E+02  0.7816164E-02  0.1300439E+00
        -11   -1    0    0    0    0  0.00000000000E+00  0.00000000000E+00  0.45593999997E+02  0.45594000000E+02  0.51100000000E-03 0.  1.
         11   -1    0    0    0    0 -0.00000000000E+00 -0.00000000000E+00 -0.45593999997E+02  0.45594000000E+02  0.51100000000E-03 0. -1.
    9900012    2    1    2    0    0  0.15602091633E+02 -0.28050722546E+02 -0.24957915488E+02  0.50528857803E+02  0.29999993779E+02 0.  0.
        -12    1    1    2    0    0 -0.15602091633E+02  0.28050722546E+02  0.24957915488E+02  0.40659142197E+02  0.00000000000E+00 0.  1.
         11    1    3    3    0    0  0.90492384242E+01 -0.78918640076E+01 -0.31267449094E+01  0.12407528665E+02  0.51100000000E-03 0. -1.
        -11    1    3    3    0    0  0.24834170344E+01 -0.15679140612E+02 -0.26216010754E+02  0.30647708407E+02  0.51100000000E-03 0.  1.
        -12    1    3    3    0    0  0.40694361743E+01 -0.44797179263E+01  0.43848401754E+01  0.74736207315E+01  0.00000000000E+00 0.  1.
</event>
<event>
 7    1  0.9868142E-013  0.5052886E+02  0.7816164E-02  0.1300439E+00
        -11   -1    0    0    0    0  0.00000000000E+00  0.00000000000E+00  0.45593999997E+02  0.45594000000E+02  0.51100000000E-03 0. -1.
         11   -1    0    0    0    0 -0.00000000000E+00 -0.00000000000E+00 -0.45593999997E+02  0.45594000000E+02  0.51100000000E-03 0.  1.
    9900012    2    1    2    0    0 -0.22175448423E+02 -0.13050250985E+02  0.31481832306E+02  0.50528864140E+02  0.30000013040E+02 0.  0.
        -12    1    1    2    0    0  0.22175448423E+02  0.13050250985E+02 -0.31481832306E+02  0.40659135860E+02  0.00000000000E+00 0.  1.
         11    1    3    3    0    0 -0.20351697467E+02 -0.75448212682E+01  0.35829183016E+02  0.41890885329E+02  0.51100000000E-03 0. -1.
        -11    1    3    3    0    0  0.22376979475E+00 -0.53868601273E+01 -0.28486274031E+01  0.60977875737E+01  0.51100000000E-03 0.  1.
         12    1    3    3    0    0 -0.20475207510E+01 -0.11856958963E+00 -0.14987233071E+01  0.25401912378E+01  0.00000000000E+00 0. -1.
</event>
<event>
 7    1  0.9868142E-013  0.5052890E+02  0.7816164E-02  0.1300439E+00
        -11   -1    0    0    0    0  0.00000000000E+00  0.00000000000E+00  0.45593999997E+02  0.45594000000E+02  0.51100000000E-03 0.  1.
         11   -1    0    0    0    0 -0.00000000000E+00 -0.00000000000E+00 -0.45593999997E+02  0.45594000000E+02  0.51100000000E-03 0. -1.
    9900012    2    1    2    0    0  0.18075098123E+02 -0.23309878037E+02 -0.27983969713E+02  0.50528903267E+02  0.30000131971E+02 0.  0.
        -12    1    1    2    0    0 -0.18075098123E+02  0.23309878037E+02  0.27983969713E+02  0.40659096733E+02  0.00000000000E+00 0.  1.
         11    1    3    3    0    0  0.18030870621E+02 -0.32275769141E+01 -0.12755589144E+02  0.22321169385E+02  0.51100000000E-03 0. -1.
        -11    1    3    3    0    0 -0.48601529440E+01 -0.48701971537E+01 -0.83175171292E+01  0.10794489261E+02  0.51100000000E-03 0.  1.
         12    1    3    3    0    0  0.49043804458E+01 -0.15212103969E+02 -0.69108634400E+01  0.17413244621E+02  0.00000000000E+00 0. -1.
</event>
<event>
 7    1  0.9868142E-013  0.5052886E+02  0.7816164E-02  0.1300439E+00
        -11   -1    0    0    0    0  0.00000000000E+00  0.00000000000E+00  0.45593999997E+02  0.45594000000E+02  0.51100000000E-03 0.  1.
         11   -1    0    0    0    0 -0.00000000000E+00 -0.00000000000E+00 -0.45593999997E+02  0.45594000000E+02  0.51100000000E-03 0. -1.
    9900012    2    1    2    0    0  0.35639856774E+02 -0.31859464619E+01 -0.19308442995E+02  0.50528860602E+02  0.30000002285E+02 0.  0.
        -12    1    1    2    0    0 -0.35639856774E+02  0.31859464619E+01  0.19308442995E+02  0.40659139398E+02  0.00000000000E+00 0.  1.
         11    1    3    3    0    0  0.21065768017E+02  0.78876020910E+01 -0.18675408209E+02  0.29236137243E+02  0.51100000000E-03 0. -1.
        -11    1    3    3    0    0  0.16347831261E+02 -0.96152303861E+01 -0.85934222531E+00  0.18985328853E+02  0.51100000000E-03 0.  1.
         12    1    3    3    0    0 -0.17737425044E+01 -0.14583181667E+01  0.22630743926E+00  0.23073945056E+01  0.00000000000E+00 0. -1.
</event>
<event>
 7    1  0.9868142E-013  0.5052885E+02  0.7816164E-02  0.1300439E+00
        -11   -1    0    0    0    0  0.00000000000E+00  0.00000000000E+00  0.45593999997E+02  0.45594000000E+02  0.51100000000E-03 0. -1.
         11   -1    0    0    0    0 -0.00000000000E+00 -0.00000000000E+00 -0.45593999997E+02  0.45594000000E+02  0.51100000000E-03 0.  1.
    9900012    2    1    2    0    0  0.22940338132E+02 -0.32140555799E+02  0.96897746512E+01  0.50528853753E+02  0.29999981468E+02 0.  0.
        -12    1    1    2    0    0 -0.22940338132E+02  0.32140555799E+02 -0.96897746512E+01  0.40659146247E+02  0.00000000000E+00 0.  1.
         11    1    3    3    0    0  0.36279629698E+01 -0.18515354618E+02  0.17980168403E+01  0.18952924227E+02  0.51100000000E-03 0. -1.
        -11    1    3    3    0    0  0.17704539582E+01  0.46535466589E+01  0.28756340995E+01  0.57497195983E+01  0.51100000000E-03 0.  1.
         12    1    3    3    0    0  0.17541921204E+02 -0.18278747841E+02  0.50161237114E+01  0.25826209928E+02  0.00000000000E+00 0. -1.
</event>
<event>
 7    1  0.9868142E-013  0.5052883E+02  0.7816164E-02  0.1300439E+00
        -11   -1    0    0    0    0  0.00000000000E+00  0.00000000000E+00  0.45593999997E+02  0.45594000000E+02  0.51100000000E-03 0.  1.
         11   -1    0    0    0    0 -0.00000000000E+00 -0.00000000000E+00 -0.45593999997E+02  0.45594000000E+02  0.51100000000E-03 0. -1.
    9900012    2    1    2    0    0  0.11419404012E+02  0.13296782904E+02 -0.36687339541E+02  0.50528829987E+02  0.29999909227E+02 0.  0.
        -12    1    1    2    0    0 -0.11419404012E+02 -0.13296782904E+02  0.36687339541E+02  0.40659170013E+02  0.00000000000E+00 0.  1.
         11    1    3    3    0    0  0.11957556227E+01  0.63649816488E+00 -0.36844997523E+01  0.39256209839E+01  0.51100000000E-03 0. -1.
        -11    1    3    3    0    0 -0.24701167308E+01  0.18424663108E+02 -0.22270414954E+02  0.29009327290E+02  0.51100000000E-03 0.  1.
        -12    1    3    3    0    0  0.12693765120E+02 -0.57643783688E+01 -0.10732424834E+02  0.17593881713E+02  0.00000000000E+00 0.  1.
</event>
<event>
 7    1  0.9868142E-013  0.5052885E+02  0.7816164E-02  0.1300439E+00
        -11   -1    0    0    0    0  0.00000000000E+00  0.00000000000E+00  0.45593999997E+02  0.45594000000E+02  0.51100000000E-03 0.  1.
         11   -1    0    0    0    0 -0.00000000000E+00 -0.00000000000E+00 -0.45593999997E+02  0.45594000000E+02  0.51100000000E-03 0. -1.
    9900012    2    1    2    0    0  0.36329702718E+02  0.15332164860E+02 -0.99117901474E+01  0.50528853884E+02  0.29999981867E+02 0.  0.
        -12    1    1    2    0    0 -0.36329702718E+02 -0.15332164860E+02  0.99117901474E+01  0.40659146116E+02  0.00000000000E+00 0.  1.
         11    1    3    3    0    0  0.15465263854E+02 -0.84113643695E+01 -0.10794085379E+01  0.17637759486E+02  0.51100000000E-03 0. -1.
        -11    1    3    3    0    0  0.14673131088E+02  0.16742770607E+02 -0.72430736861E+01  0.23411178104E+02  0.51100000000E-03 0.  1.
         12    1    3    3    0    0  0.61913077765E+01  0.70007586231E+01 -0.15893079235E+01  0.94799162949E+01  0.00000000000E+00 0. -1.
</event>
<event>
 7    1  0.9868142E-013  0.5052888E+02  0.7816164E-02  0.1300439E+00
        -11   -1    0    0    0    0  0.00000000000E+00  0.00000000000E+00  0.45593999997E+02  0.45594000000E+02  0.51100000000E-03 0.  1.
         11   -1    0    0    0    0 -0.00000000000E+00 -0.00000000000E+00 -0.45593999997E+02  0.45594000000E+02  0.51100000000E-03 0. -1.
    9900012    2    1    2    0    0 -0.76875121173E+01  0.61314882988E+01 -0.39452139152E+02  0.50528877100E+02  0.30000052434E+02 0.  0.
        -12    1    1    2    0    0  0.76875121173E+01 -0.61314882988E+01  0.39452139152E+02  0.40659122900E+02  0.00000000000E+00 0.  1.
         11    1    3    3    0    0 -0.28949376309E+01 -0.77287136701E+01 -0.30589789849E+02  0.31683574959E+02  0.51100000000E-03 0. -1.
        -11    1    3    3    0    0 -0.35992077828E+00  0.83919013286E+01 -0.12755872185E+01  0.84959210148E+01  0.51100000000E-03 0.  1.
        -12    1    3    3    0    0 -0.44326537080E+01  0.54683006404E+01 -0.75867620843E+01  0.10349381127E+02  0.00000000000E+00 0.  1.
</event>
<event>
 7    1  0.9868142E-013  0.5052886E+02  0.7816164E-02  0.1300439E+00
        -11   -1    0    0    0    0  0.00000000000E+00  0.00000000000E+00  0.45593999997E+02  0.45594000000E+02  0.51100000000E-03 0.  1.
         11   -1    0    0    0    0 -0.00000000000E+00 -0.00000000000E+00 -0.45593999997E+02  0.45594000000E+02  0.51100000000E-03 0. -1.
    9900012    2    1    2    0    0  0.25690331415E+02 -0.15561928043E+01 -0.31476197809E+02  0.50528857206E+02  0.29999991963E+02 0.  0.
        -12    1    1    2    0    0 -0.25690331415E+02  0.15561928043E+01  0.31476197809E+02  0.40659142794E+02  0.00000000000E+00 0.  1.
         11    1    3    3    0    0  0.17768853690E+02  0.12584760400E+01 -0.34617069739E+02  0.38931445400E+02  0.51100000000E-03 0. -1.
        -11    1    3    3    0    0  0.62996407193E+01  0.11598027102E+01  0.34828848685E+01  0.72911660787E+01  0.51100000000E-03 0.  1.
         12    1    3    3    0    0  0.16218370062E+01 -0.39744715545E+01 -0.34201293861E+00  0.43062457271E+01  0.00000000000E+00 0. -1.
</event>
<event>
 7    1  0.9868142E-013  0.5052886E+02  0.7816164E-02  0.1300439E+00
        -11   -1    0    0    0    0  0.00000000000E+00  0.00000000000E+00  0.45593999997E+02  0.45594000000E+02  0.51100000000E-03 0.  1.
         11   -1    0    0    0    0 -0.00000000000E+00 -0.00000000000E+00 -0.45593999997E+02  0.45594000000E+02  0.51100000000E-03 0. -1.
    9900012    2    1    2    0    0  0.34952283746E+02  0.23972212497E+01 -0.20633876392E+02  0.50528860022E+02  0.30000000523E+02 0.  0.
        -12    1    1    2    0    0 -0.34952283746E+02 -0.23972212497E+01  0.20633876392E+02  0.40659139978E+02  0.00000000000E+00 0.  1.
         11    1    3    3    0    0  0.39255889410E+01  0.60058706062E+01  0.72104687475E+00  0.72111468664E+01  0.51100000000E-03 0. -1.
        -11    1    3    3    0    0  0.26184849153E+02 -0.55398690665E+01 -0.25261720523E+02  0.36803410148E+02  0.51100000000E-03 0.  1.
        -12    1    3    3    0    0  0.48418456516E+01  0.19312197100E+01  0.39067972558E+01  0.65143030080E+01  0.00000000000E+00 0.  1.
</event>
<event>
 7    1  0.9868142E-013  0.5052886E+02  0.7816164E-02  0.1300439E+00
        -11   -1    0    0    0    0  0.00000000000E+00  0.00000000000E+00  0.45593999997E+02  0.45594000000E+02  0.51100000000E-03 0. -1.
         11   -1    0    0    0    0 -0.00000000000E+00 -0.00000000000E+00 -0.45593999997E+02  0.45594000000E+02  0.51100000000E-03 0.  1.
    9900012    2    1    2    0    0  0.40332888766E+02 -0.55185994506E+00  0.51106945802E+01  0.50528860010E+02  0.30000000487E+02 0.  0.
        -12    1    1    2    0    0 -0.40332888766E+02  0.55185994506E+00 -0.51106945802E+01  0.40659139990E+02  0.00000000000E+00 0.  1.
         11    1    3    3    0    0  0.40508661909E+02 -0.56982181652E+00  0.90126237724E+01  0.41503057407E+02  0.51100000000E-03 0. -1.
        -11    1    3    3    0    0  0.17375487515E+01  0.33170139925E+01 -0.26178877941E+00  0.37536903331E+01  0.51100000000E-03 0.  1.
         12    1    3    3    0    0 -0.19133218947E+01 -0.32990521211E+01 -0.36401404128E+01  0.52721122707E+01  0.00000000000E+00 0. -1.
</event>
<event>
 7    1  0.9868142E-013  0.5052886E+02  0.7816164E-02  0.1300439E+00
        -11   -1    0    0    0    0  0.00000000000E+00  0.00000000000E+00  0.45593999997E+02  0.45594000000E+02  0.51100000000E-03 0. -1.
         11   -1    0    0    0    0 -0.00000000000E+00 -0.00000000000E+00 -0.45593999997E+02  0.45594000000E+02  0.51100000000E-03 0.  1.
    9900012    2    1    2    0    0  0.16698839396E+02  0.27803453295E+02  0.24521067489E+02  0.50528855849E+02  0.29999987838E+02 0.  0.
        -12    1    1    2    0    0 -0.16698839396E+02 -0.27803453295E+02 -0.24521067489E+02  0.40659144151E+02  0.00000000000E+00 0.  1.
         11    1    3    3    0    0 -0.27206374715E+01  0.10686210638E+02 -0.17149702529E+01  0.11159663493E+02  0.51100000000E-03 0. -1.
        -11    1    3    3    0    0  0.72125676097E+01  0.19071757576E+01  0.15269670855E+02  0.16994743280E+02  0.51100000000E-03 0.  1.
         12    1    3    3    0    0  0.12206909258E+02  0.15210066899E+02  0.10966366888E+02  0.22374449075E+02  0.00000000000E+00 0. -1.
</event>
<event>
 7    1  0.9868142E-013  0.5052886E+02  0.7816164E-02  0.1300439E+00
        -11   -1    0    0    0    0  0.00000000000E+00  0.00000000000E+00  0.45593999997E+02  0.45594000000E+02  0.51100000000E-03 0.  1.
         11   -1    0    0    0    0 -0.00000000000E+00 -0.00000000000E+00 -0.45593999997E+02  0.45594000000E+02  0.51100000000E-03 0. -1.
    9900012    2    1    2    0    0 -0.32795550605E+02 -0.15949243654E+02 -0.17978849899E+02  0.50528861343E+02  0.30000004539E+02 0.  0.
        -12    1    1    2    0    0  0.32795550605E+02  0.15949243654E+02  0.17978849899E+02  0.40659138657E+02  0.00000000000E+00 0.  1.
         11    1    3    3    0    0 -0.27959430517E+02 -0.81116283927E+01 -0.10652116111E+02  0.30999933031E+02  0.51100000000E-03 0. -1.
        -11    1    3    3    0    0  0.33403673237E+01 -0.77347329197E+01 -0.76009683920E+01  0.11347196480E+02  0.51100000000E-03 0.  1.
         12    1    3    3    0    0 -0.81764874115E+01 -0.10288234167E+00  0.27423460335E+00  0.81817318329E+01  0.00000000000E+00 0. -1.
</event>
<event>
 7    1  0.9868142E-013  0.5052885E+02  0.7816164E-02  0.1300439E+00
        -11   -1    0    0    0    0  0.00000000000E+00  0.00000000000E+00  0.45593999997E+02  0.45594000000E+02  0.51100000000E-03 0.  1.
         11   -1    0    0    0    0 -0.00000000000E+00 -0.00000000000E+00 -0.45593999997E+02  0.45594000000E+02  0.51100000000E-03 0. -1.
    9900012    2    1    2    0    0  0.29328548709E+02 -0.13190576705E+02 -0.24879936141E+02  0.50528852129E+02  0.29999976533E+02 0.  0.
        -12    1    1    2    0    0 -0.29328548709E+02  0.13190576705E+02  0.24879936141E+02  0.40659147871E+02  0.00000000000E+00 0.  1.
         11    1    3    3    0    0  0.28481963247E+02 -0.16673892498E+02 -0.26534504415E+02  0.42347619134E+02  0.51100000000E-03 0. -1.
        -11    1    3    3    0    0  0.74650581190E+00  0.43582079502E+01 -0.16817171323E+01  0.47306891927E+01  0.51100000000E-03 0.  1.
         12    1    3    3    0    0  0.10007964938E+00 -0.87489215746E+00  0.33362854065E+01  0.34505438031E+01  0.00000000000E+00 0. -1.
</event>
<event>
 7    1  0.9868142E-013  0.5052885E+02  0.7816164E-02  0.1300439E+00
        -11   -1    0    0    0    0  0.00000000000E+00  0.00000000000E+00  0.45593999997E+02  0.45594000000E+02  0.51100000000E-03 0. -1.
         11   -1    0    0    0    0 -0.00000000000E+00 -0.00000000000E+00 -0.45593999997E+02  0.45594000000E+02  0.51100000000E-03 0.  1.
    9900012    2    1    2    0    0 -0.10112016085E+02 -0.19385962379E+02  0.34279697816E+02  0.50528854793E+02  0.29999984628E+02 0.  0.
        -12    1    1    2    0    0  0.10112016085E+02  0.19385962379E+02 -0.34279697816E+02  0.40659145207E+02  0.00000000000E+00 0.  1.
         11    1    3    3    0    0 -0.86485294971E+01 -0.25317804965E+02  0.18817067590E+02  0.32708872553E+02  0.51100000000E-03 0. -1.
        -11    1    3    3    0    0 -0.55188913602E+00  0.34458840229E+01  0.14635729177E+02  0.15046038254E+02  0.51100000000E-03 0.  1.
         12    1    3    3    0    0 -0.91159745198E+00  0.24859585638E+01  0.82690104844E+00  0.27739439863E+01  0.00000000000E+00 0. -1.
</event>
<event>
 7    1  0.9868142E-013  0.5052886E+02  0.7816164E-02  0.1300439E+00
        -11   -1    0    0    0    0  0.00000000000E+00  0.00000000000E+00  0.45593999997E+02  0.45594000000E+02  0.51100000000E-03 0.  1.
         11   -1    0    0    0    0 -0.00000000000E+00 -0.00000000000E+00 -0.45593999997E+02  0.45594000000E+02  0.51100000000E-03 0. -1.
    9900012    2    1    2    0    0 -0.30146853334E+02 -0.17610539247E+02 -0.20837518400E+02  0.50528855499E+02  0.29999986774E+02 0.  0.
        -12    1    1    2    0    0  0.30146853334E+02  0.17610539247E+02  0.20837518400E+02  0.40659144501E+02  0.00000000000E+00 0.  1.
         11    1    3    3    0    0 -0.35206380132E+02 -0.18805638653E+02 -0.20443722148E+02  0.44845144918E+02  0.51100000000E-03 0. -1.
        -11    1    3    3    0    0  0.25542576547E+01  0.17299807003E+01  0.41527599080E-01  0.30852536675E+01  0.51100000000E-03 0.  1.
         12    1    3    3    0    0  0.25052691431E+01 -0.53488129398E+00 -0.43532385076E+00  0.25984569138E+01  0.00000000000E+00 0. -1.
</event>
<event>
 7    1  0.9868142E-013  0.5052890E+02  0.7816164E-02  0.1300439E+00
        -11   -1    0    0    0    0  0.00000000000E+00  0.00000000000E+00  0.45593999997E+02  0.45594000000E+02  0.51100000000E-03 0. -1.
         11   -1    0    0    0    0 -0.00000000000E+00 -0.00000000000E+00 -0.45593999997E+02  0.45594000000E+02  0.51100000000E-03 0.  1.
    9900012    2    1    2    0    0  0.29944012170E+02  0.39332429559E+01  0.27222197021E+02  0.50528901687E+02  0.30000127169E+02 0.  0.
        -12    1    1    2    0    0 -0.29944012170E+02 -0.39332429559E+01 -0.27222197021E+02  0.40659098313E+02  0.00000000000E+00 0.  1.
         11    1    3    3    0    0  0.31488519010E+02 -0.75792256924E+00  0.22472939651E+02  0.38692819656E+02  0.51100000000E-03 0. -1.
        -11    1    3    3    0    0  0.23353548097E+01  0.56137037413E+01  0.64636089408E+00  0.61143547860E+01  0.51100000000E-03 0.  1.
         12    1    3    3    0    0 -0.38798616504E+01 -0.92253821620E+00  0.41028964751E+01  0.57217272455E+01  0.00000000000E+00 0. -1.
</event>
<event>
 7    1  0.9868142E-013  0.5052887E+02  0.7816164E-02  0.1300439E+00
        -11   -1    0    0    0    0  0.00000000000E+00  0.00000000000E+00  0.45593999997E+02  0.45594000000E+02  0.51100000000E-03 0. -1.
         11   -1    0    0    0    0 -0.00000000000E+00 -0.00000000000E+00 -0.45593999997E+02  0.45594000000E+02  0.51100000000E-03 0.  1.
    9900012    2    1    2    0    0  0.37007127550E+02  0.71547745340E+01  0.15246208032E+02  0.50528866371E+02  0.30000019820E+02 0.  0.
        -12    1    1    2    0    0 -0.37007127550E+02 -0.71547745340E+01 -0.15246208032E+02  0.40659133629E+02  0.00000000000E+00 0.  1.
         11    1    3    3    0    0  0.15981913520E+02  0.46989628644E+00  0.12921253508E+02  0.20557265255E+02  0.51100000000E-03 0. -1.
        -11    1    3    3    0    0  0.72966185747E+01  0.83916459490E+01 -0.71347657658E+01  0.13212314224E+02  0.51100000000E-03 0.  1.
        -12    1    3    3    0    0  0.13728595455E+02 -0.17067677015E+01  0.94597202890E+01  0.16759286891E+02  0.00000000000E+00 0.  1.
</event>
<event>
 7    1  0.9868142E-013  0.5052886E+02  0.7816164E-02  0.1300439E+00
        -11   -1    0    0    0    0  0.00000000000E+00  0.00000000000E+00  0.45593999997E+02  0.45594000000E+02  0.51100000000E-03 0.  1.
         11   -1    0    0    0    0 -0.00000000000E+00 -0.00000000000E+00 -0.45593999997E+02  0.45594000000E+02  0.51100000000E-03 0. -1.
    9900012    2    1    2    0    0 -0.29208237353E+02 -0.23465190793E+02 -0.15793320282E+02  0.50528864818E+02  0.30000015101E+02 0.  0.
        -12    1    1    2    0    0  0.29208237353E+02  0.23465190793E+02  0.15793320282E+02  0.40659135182E+02  0.00000000000E+00 0.  1.
         11    1    3    3    0    0 -0.13288350380E+02 -0.11480177305E+02 -0.15142099437E+02  0.23187451399E+02  0.51100000000E-03 0. -1.
        -11    1    3    3    0    0  0.39826407863E+01  0.27986795293E-01 -0.94189785666E+00  0.40926009733E+01  0.51100000000E-03 0.  1.
        -12    1    3    3    0    0 -0.19902527759E+02 -0.12013000283E+02  0.29067701124E+00  0.23248812445E+02  0.00000000000E+00 0.  1.
</event>
<event>
 7    1  0.9868142E-013  0.5052886E+02  0.7816164E-02  0.1300439E+00
        -11   -1    0    0    0    0  0.00000000000E+00  0.00000000000E+00  0.45593999997E+02  0.45594000000E+02  0.51100000000E-03 0. -1.
         11   -1    0    0    0    0 -0.00000000000E+00 -0.00000000000E+00 -0.45593999997E+02  0.45594000000E+02  0.51100000000E-03 0.  1.
    9900012    2    1    2    0    0  0.37756282568E+02 -0.99262326643E+01  0.11362162172E+02  0.50528859607E+02  0.29999999263E+02 0.  0.
        -12    1    1    2    0    0 -0.37756282568E+02  0.99262326643E+01 -0.11362162172E+02  0.40659140393E+02  0.00000000000E+00 0.  1.
         11    1    3    3    0    0  0.16172390174E+02 -0.13298148760E+02  0.15539991553E+02  0.26074476066E+02  0.51100000000E-03 0. -1.
        -11    1    3    3    0    0  0.12267146681E+02  0.34472158983E+01 -0.72294721981E+01  0.14650305583E+02  0.51100000000E-03 0.  1.
         12    1    3    3    0    0  0.93167457125E+01 -0.75299802288E-01  0.30516428173E+01  0.98040779585E+01  0.00000000000E+00 0. -1.
</event>
<event>
 7    1  0.9868142E-013  0.5052887E+02  0.7816164E-02  0.1300439E+00
        -11   -1    0    0    0    0  0.00000000000E+00  0.00000000000E+00  0.45593999997E+02  0.45594000000E+02  0.51100000000E-03 0.  1.
         11   -1    0    0    0    0 -0.00000000000E+00 -0.00000000000E+00 -0.45593999997E+02  0.45594000000E+02  0.51100000000E-03 0. -1.
    9900012    2    1    2    0    0  0.25347615262E+02  0.11107472919E+01 -0.31771526194E+02  0.50528865286E+02  0.30000016523E+02 0.  0.
        -12    1    1    2    0    0 -0.25347615262E+02 -0.11107472919E+01  0.31771526194E+02  0.40659134714E+02  0.00000000000E+00 0.  1.
         11    1    3    3    0    0  0.20953268482E+02  0.93283325645E+01 -0.22579708860E+02  0.32185408199E+02  0.51100000000E-03 0. -1.
        -11    1    3    3    0    0 -0.28415470400E+01 -0.42085593164E+01 -0.86788633819E+01  0.10055298651E+02  0.51100000000E-03 0.  1.
         12    1    3    3    0    0  0.72358938202E+01 -0.40090259563E+01 -0.51295395214E+00  0.82881584355E+01  0.00000000000E+00 0. -1.
</event>
<event>
 7    1  0.9868142E-013  0.5052891E+02  0.7816164E-02  0.1300439E+00
        -11   -1    0    0    0    0  0.00000000000E+00  0.00000000000E+00  0.45593999997E+02  0.45594000000E+02  0.51100000000E-03 0. -1.
         11   -1    0    0    0    0 -0.00000000000E+00 -0.00000000000E+00 -0.45593999997E+02  0.45594000000E+02  0.51100000000E-03 0.  1.
    9900012    2    1    2    0    0  0.11062626767E+02  0.32429133292E+02  0.21889062793E+02  0.50528911631E+02  0.30000157394E+02 0.  0.
        -12    1    1    2    0    0 -0.11062626767E+02 -0.32429133292E+02 -0.21889062793E+02  0.40659088369E+02  0.00000000000E+00 0.  1.
         11    1    3    3    0    0  0.50301497230E+00  0.25830170312E+02  0.64884354598E+01  0.26637389463E+02  0.51100000000E-03 0. -1.
        -11    1    3    3    0    0  0.47763932507E+01  0.11714216990E+01  0.15180530047E+02  0.15957275897E+02  0.51100000000E-03 0.  1.
         12    1    3    3    0    0  0.57832185441E+01  0.54275412804E+01  0.22009728617E+00  0.79342462714E+01  0.00000000000E+00 0. -1.
</event>
<event>
 7    1  0.9868142E-013  0.5052886E+02  0.7816164E-02  0.1300439E+00
        -11   -1    0    0    0    0  0.00000000000E+00  0.00000000000E+00  0.45593999997E+02  0.45594000000E+02  0.51100000000E-03 0.  1.
         11   -1    0    0    0    0 -0.00000000000E+00 -0.00000000000E+00 -0.45593999997E+02  0.45594000000E+02  0.51100000000E-03 0. -1.
    9900012    2    1    2    0    0  0.29440729565E+02 -0.28042851233E+02  0.85844542492E-01  0.50528862873E+02  0.30000009190E+02 0.  0.
        -12    1    1    2    0    0 -0.29440729565E+02  0.28042851233E+02 -0.85844542492E-01  0.40659137127E+02  0.00000000000E+00 0.  1.
         11    1    3    3    0    0  0.88966102458E+01 -0.17725555072E+02 -0.84166481892E+01  0.21544951694E+02  0.51100000000E-03 0. -1.
        -11    1    3    3    0    0  0.20173588365E+02 -0.32835617983E+01  0.46720643620E+01  0.20966249815E+02  0.51100000000E-03 0.  1.
        -12    1    3    3    0    0  0.37053095376E+00 -0.70337343622E+01  0.38304283698E+01  0.80176613648E+01  0.00000000000E+00 0.  1.
</event>
<event>
 7    1  0.9868142E-013  0.5052884E+02  0.7816164E-02  0.1300439E+00
        -11   -1    0    0    0    0  0.00000000000E+00  0.00000000000E+00  0.45593999997E+02  0.45594000000E+02  0.51100000000E-03 0. -1.
         11   -1    0    0    0    0 -0.00000000000E+00 -0.00000000000E+00 -0.45593999997E+02  0.45594000000E+02  0.51100000000E-03 0.  1.
    9900012    2    1    2    0    0 -0.15730083470E+02  0.30931351183E+02  0.21189227947E+02  0.50528838757E+02  0.29999935886E+02 0.  0.
        -12    1    1    2    0    0  0.15730083470E+02 -0.30931351183E+02 -0.21189227947E+02  0.40659161243E+02  0.00000000000E+00 0.  1.
         11    1    3    3    0    0 -0.12080900770E+01  0.85124890025E+01  0.96751767171E+01  0.12943376508E+02  0.51100000000E-03 0. -1.
        -11    1    3    3    0    0  0.32689560288E+01 -0.13913652649E+01 -0.28680516243E+01  0.45659272004E+01  0.51100000000E-03 0.  1.
        -12    1    3    3    0    0 -0.17790949422E+02  0.23810227446E+02  0.14382102854E+02  0.33019535049E+02  0.00000000000E+00 0.  1.
</event>
<event>
 7    1  0.9868142E-013  0.5052889E+02  0.7816164E-02  0.1300439E+00
        -11   -1    0    0    0    0  0.00000000000E+00  0.00000000000E+00  0.45593999997E+02  0.45594000000E+02  0.51100000000E-03 0.  1.
         11   -1    0    0    0    0 -0.00000000000E+00 -0.00000000000E+00 -0.45593999997E+02  0.45594000000E+02  0.51100000000E-03 0. -1.
    9900012    2    1    2    0    0  0.26462837924E+02 -0.37684810029E+01 -0.30637886623E+02  0.50528888637E+02  0.30000087502E+02 0.  0.
        -12    1    1    2    0    0 -0.26462837924E+02  0.37684810029E+01  0.30637886623E+02  0.40659111363E+02  0.00000000000E+00 0.  1.
         11    1    3    3    0    0  0.21069395841E+02  0.53105269869E+01 -0.24064931511E+02  0.32422863336E+02  0.51100000000E-03 0. -1.
        -11    1    3    3    0    0 -0.17090927126E+01  0.17285434302E+01  0.15040445014E+01  0.28584979296E+01  0.51100000000E-03 0.  1.
         12    1    3    3    0    0  0.71025347955E+01 -0.10807551420E+02 -0.80769996135E+01  0.15247527372E+02  0.00000000000E+00 0. -1.
</event>
<event>
 7    1  0.9868142E-013  0.5052886E+02  0.7816164E-02  0.1300439E+00
        -11   -1    0    0    0    0  0.00000000000E+00  0.00000000000E+00  0.45593999997E+02  0.45594000000E+02  0.51100000000E-03 0. -1.
         11   -1    0    0    0    0 -0.00000000000E+00 -0.00000000000E+00 -0.45593999997E+02  0.45594000000E+02  0.51100000000E-03 0.  1.
    9900012    2    1    2    0    0  0.32160634460E+02  0.24564800405E+02 -0.39281066349E+01  0.50528857737E+02  0.29999993577E+02 0.  0.
        -12    1    1    2    0    0 -0.32160634460E+02 -0.24564800405E+02  0.39281066349E+01  0.40659142263E+02  0.00000000000E+00 0.  1.
         11    1    3    3    0    0  0.17121241481E+02  0.22869495594E+02  0.94038508937E+01  0.30076288841E+02  0.51100000000E-03 0. -1.
        -11    1    3    3    0    0  0.93968642548E+01  0.27001196296E+01 -0.82539239845E+01  0.12795271206E+02  0.51100000000E-03 0.  1.
         12    1    3    3    0    0  0.56425287246E+01 -0.10048148186E+01 -0.50780335441E+01  0.76572976893E+01  0.00000000000E+00 0. -1.
</event>
<event>
 7    1  0.9868142E-013  0.5052887E+02  0.7816164E-02  0.1300439E+00
        -11   -1    0    0    0    0  0.00000000000E+00  0.00000000000E+00  0.45593999997E+02  0.45594000000E+02  0.51100000000E-03 0.  1.
         11   -1    0    0    0    0 -0.00000000000E+00 -0.00000000000E+00 -0.45593999997E+02  0.45594000000E+02  0.51100000000E-03 0. -1.
    9900012    2    1    2    0    0  0.46831638814E+01  0.25604917247E+01 -0.40307279931E+02  0.50528868711E+02  0.30000026933E+02 0.  0.
        -12    1    1    2    0    0 -0.46831638814E+01 -0.25604917247E+01  0.40307279931E+02  0.40659131289E+02  0.00000000000E+00 0.  1.
         11    1    3    3    0    0  0.23525598032E+01  0.21768013526E+01 -0.67877478487E+01  0.75064321003E+01  0.51100000000E-03 0. -1.
        -11    1    3    3    0    0  0.18869570977E+01  0.89021585546E+01 -0.71608056538E+00  0.91280778731E+01  0.51100000000E-03 0.  1.
        -12    1    3    3    0    0  0.44364698048E+00 -0.85184681825E+01 -0.32803451516E+02  0.33894358737E+02  0.00000000000E+00 0.  1.
</event>
<event>
 7    1  0.9868142E-013  0.5052886E+02  0.7816164E-02  0.1300439E+00
        -11   -1    0    0    0    0  0.00000000000E+00  0.00000000000E+00  0.45593999997E+02  0.45594000000E+02  0.51100000000E-03 0.  1.
         11   -1    0    0    0    0 -0.00000000000E+00 -0.00000000000E+00 -0.45593999997E+02  0.45594000000E+02  0.51100000000E-03 0. -1.
    9900012    2    1    2    0    0  0.71365819376E+01 -0.47835095635E+01 -0.39741074830E+02  0.50528858418E+02  0.29999995648E+02 0.  0.
        -12    1    1    2    0    0 -0.71365819376E+01  0.47835095635E+01  0.39741074830E+02  0.40659141582E+02  0.00000000000E+00 0.  1.
         11    1    3    3    0    0  0.10529651710E+02 -0.21925597960E+01 -0.15650089323E+02  0.18989633479E+02  0.51100000000E-03 0. -1.
        -11    1    3    3    0    0 -0.66108375547E+01  0.71672487666E+01 -0.89132196872E+01  0.13210530402E+02  0.51100000000E-03 0.  1.
        -12    1    3    3    0    0  0.32177677820E+01 -0.97581985341E+01 -0.15177765820E+02  0.18328694537E+02  0.00000000000E+00 0.  1.
</event>
<event>
 7    1  0.9868142E-013  0.5052886E+02  0.7816164E-02  0.1300439E+00
        -11   -1    0    0    0    0  0.00000000000E+00  0.00000000000E+00  0.45593999997E+02  0.45594000000E+02  0.51100000000E-03 0.  1.
         11   -1    0    0    0    0 -0.00000000000E+00 -0.00000000000E+00 -0.45593999997E+02  0.45594000000E+02  0.51100000000E-03 0. -1.
    9900012    2    1    2    0    0  0.36336423844E+01 -0.19147004246E+02 -0.35684090902E+02  0.50528862379E+02  0.30000007688E+02 0.  0.
        -12    1    1    2    0    0 -0.36336423844E+01  0.19147004246E+02  0.35684090902E+02  0.40659137621E+02  0.00000000000E+00 0.  1.
         11    1    3    3    0    0  0.11626655870E+02 -0.37529844542E+01 -0.17393977232E+02  0.21255927720E+02  0.51100000000E-03 0. -1.
        -11    1    3    3    0    0 -0.10826144675E+02 -0.15966701112E+02 -0.17971407688E+02  0.26364985255E+02  0.51100000000E-03 0.  1.
         12    1    3    3    0    0  0.28331311900E+01  0.57268132072E+00 -0.31870598183E+00  0.29079494043E+01  0.00000000000E+00 0. -1.
</event>
<event>
 7    1  0.9868142E-013  0.5052886E+02  0.7816164E-02  0.1300439E+00
        -11   -1    0    0    0    0  0.00000000000E+00  0.00000000000E+00  0.45593999997E+02  0.45594000000E+02  0.51100000000E-03 0. -1.
         11   -1    0    0    0    0 -0.00000000000E+00 -0.00000000000E+00 -0.45593999997E+02  0.45594000000E+02  0.51100000000E-03 0.  1.
    9900012    2    1    2    0    0  0.14889822965E+02  0.37266161228E+02 -0.65339234707E+01  0.50528858881E+02  0.29999997056E+02 0.  0.
        -12    1    1    2    0    0 -0.14889822965E+02 -0.37266161228E+02  0.65339234707E+01  0.40659141119E+02  0.00000000000E+00 0.  1.
         11    1    3    3    0    0 -0.88005083345E+01  0.76724999995E+01  0.33722555297E+00  0.11680322107E+02  0.51100000000E-03 0. -1.
        -11    1    3    3    0    0  0.78224834149E+01  0.11096808781E+02 -0.47586514443E+01  0.14386631841E+02  0.51100000000E-03 0.  1.
         12    1    3    3    0    0  0.15867847884E+02  0.18496852447E+02 -0.21124975793E+01  0.24461904933E+02  0.00000000000E+00 0. -1.
</event>
<event>
 7    1  0.9868142E-013  0.5052882E+02  0.7816164E-02  0.1300439E+00
        -11   -1    0    0    0    0  0.00000000000E+00  0.00000000000E+00  0.45593999997E+02  0.45594000000E+02  0.51100000000E-03 0. -1.
         11   -1    0    0    0    0 -0.00000000000E+00 -0.00000000000E+00 -0.45593999997E+02  0.45594000000E+02  0.51100000000E-03 0.  1.
    9900012    2    1    2    0    0  0.17822299909E+02  0.15466507501E+02  0.33110745982E+02  0.50528822342E+02  0.29999885990E+02 0.  0.
        -12    1    1    2    0    0 -0.17822299909E+02 -0.15466507501E+02 -0.33110745982E+02  0.40659177658E+02  0.00000000000E+00 0.  1.
         11    1    3    3    0    0  0.32442814124E+01  0.89165084699E+01  0.14099791645E+02  0.16995105468E+02  0.51100000000E-03 0. -1.
        -11    1    3    3    0    0  0.15363457427E+02 -0.40770399846E+01  0.66947765946E+01  0.17247553828E+02  0.51100000000E-03 0.  1.
        -12    1    3    3    0    0 -0.78543893041E+00  0.10627039016E+02  0.12316177743E+02  0.16286163046E+02  0.00000000000E+00 0.  1.
</event>
<event>
 7    1  0.9868142E-013  0.5052885E+02  0.7816164E-02  0.1300439E+00
        -11   -1    0    0    0    0  0.00000000000E+00  0.00000000000E+00  0.45593999997E+02  0.45594000000E+02  0.51100000000E-03 0.  1.
         11   -1    0    0    0    0 -0.00000000000E+00 -0.00000000000E+00 -0.45593999997E+02  0.45594000000E+02  0.51100000000E-03 0. -1.
    9900012    2    1    2    0    0  0.23801160897E+02 -0.21843606711E+02 -0.24688626734E+02  0.50528847227E+02  0.29999961633E+02 0.  0.
        -12    1    1    2    0    0 -0.23801160897E+02  0.21843606711E+02  0.24688626734E+02  0.40659152773E+02  0.00000000000E+00 0.  1.
         11    1    3    3    0    0  0.21847010689E+02 -0.25738104090E+02 -0.28332771240E+02  0.44073663390E+02  0.51100000000E-03 0. -1.
        -11    1    3    3    0    0  0.21810260476E+01  0.11752246524E+01  0.24239953274E+01  0.34660901911E+01  0.51100000000E-03 0.  1.
         12    1    3    3    0    0 -0.22687584024E+00  0.27192727267E+01  0.12201491787E+01  0.29890936465E+01  0.00000000000E+00 0. -1.
</event>
<event>
 7    1  0.9868142E-013  0.5052885E+02  0.7816164E-02  0.1300439E+00
        -11   -1    0    0    0    0  0.00000000000E+00  0.00000000000E+00  0.45593999997E+02  0.45594000000E+02  0.51100000000E-03 0. -1.
         11   -1    0    0    0    0 -0.00000000000E+00 -0.00000000000E+00 -0.45593999997E+02  0.45594000000E+02  0.51100000000E-03 0.  1.
    9900012    2    1    2    0    0 -0.15123719798E+02 -0.28364677696E+02  0.24897475899E+02  0.50528854073E+02  0.29999982441E+02 0.  0.
        -12    1    1    2    0    0  0.15123719798E+02  0.28364677696E+02 -0.24897475899E+02  0.40659145927E+02  0.00000000000E+00 0.  1.
         11    1    3    3    0    0 -0.84675325696E+00 -0.11751185849E+02  0.44820262485E+01  0.12605392477E+02  0.51100000000E-03 0. -1.
        -11    1    3    3    0    0 -0.12611024132E+02 -0.31995301285E+01 -0.50018245408E+00  0.13020180699E+02  0.51100000000E-03 0.  1.
        -12    1    3    3    0    0 -0.16659424091E+01 -0.13413961718E+02  0.20915632105E+02  0.24903280897E+02  0.00000000000E+00 0.  1.
</event>
<event>
 7    1  0.9868142E-013  0.5052887E+02  0.7816164E-02  0.1300439E+00
        -11   -1    0    0    0    0  0.00000000000E+00  0.00000000000E+00  0.45593999997E+02  0.45594000000E+02  0.51100000000E-03 0.  1.
         11   -1    0    0    0    0 -0.00000000000E+00 -0.00000000000E+00 -0.45593999997E+02  0.45594000000E+02  0.51100000000E-03 0. -1.
    9900012    2    1    2    0    0  0.27179236541E+02  0.26377381892E+02 -0.14788097507E+02  0.50528868156E+02  0.30000025246E+02 0.  0.
        -12    1    1    2    0    0 -0.27179236541E+02 -0.26377381892E+02  0.14788097507E+02  0.40659131844E+02  0.00000000000E+00 0.  1.
         11    1    3    3    0    0  0.19616151290E+02  0.18347917434E+02 -0.15550680444E+01  0.26904603741E+02  0.51100000000E-03 0. -1.
        -11    1    3    3    0    0 -0.69461737346E+00 -0.42742123535E+01 -0.10873139608E+01  0.44647101193E+01  0.51100000000E-03 0.  1.
        -12    1    3    3    0    0  0.82577026245E+01  0.12303676812E+02 -0.12145715502E+02  0.19159554295E+02  0.00000000000E+00 0.  1.
</event>
<event>
 7    1  0.9868142E-013  0.5052887E+02  0.7816164E-02  0.1300439E+00
        -11   -1    0    0    0    0  0.00000000000E+00  0.00000000000E+00  0.45593999997E+02  0.45594000000E+02  0.51100000000E-03 0.  1.
         11   -1    0    0    0    0 -0.00000000000E+00 -0.00000000000E+00 -0.45593999997E+02  0.45594000000E+02  0.51100000000E-03 0. -1.
    9900012    2    1    2    0    0 -0.99060826746E+01  0.26616782498E+02 -0.29096074910E+02  0.50528866221E+02  0.30000019365E+02 0.  0.
        -12    1    1    2    0    0  0.99060826746E+01 -0.26616782498E+02  0.29096074910E+02  0.40659133779E+02  0.00000000000E+00 0.  1.
         11    1    3    3    0    0 -0.12768578289E+02  0.18186266051E+02 -0.10005500470E+02  0.24369794918E+02  0.51100000000E-03 0. -1.
        -11    1    3    3    0    0 -0.11322744390E-01 -0.45668372098E+01 -0.45808167418E+01  0.64683856246E+01  0.51100000000E-03 0.  1.
        -12    1    3    3    0    0  0.28738183590E+01  0.12997353657E+02 -0.14509757698E+02  0.19690685679E+02  0.00000000000E+00 0.  1.
</event>
<event>
 7    1  0.9868142E-013  0.5052884E+02  0.7816164E-02  0.1300439E+00
        -11   -1    0    0    0    0  0.00000000000E+00  0.00000000000E+00  0.45593999997E+02  0.45594000000E+02  0.51100000000E-03 0.  1.
         11   -1    0    0    0    0 -0.00000000000E+00 -0.00000000000E+00 -0.45593999997E+02  0.45594000000E+02  0.51100000000E-03 0. -1.
    9900012    2    1    2    0    0  0.17560215944E+01  0.35085952175E+01 -0.40469408844E+02  0.50528844765E+02  0.29999954146E+02 0.  0.
        -12    1    1    2    0    0 -0.17560215944E+01 -0.35085952175E+01  0.40469408844E+02  0.40659155235E+02  0.00000000000E+00 0.  1.
         11    1    3    3    0    0 -0.11015796433E+02  0.19915478441E+01 -0.27104955726E+02  0.29325631434E+02  0.51100000000E-03 0. -1.
        -11    1    3    3    0    0  0.11474563616E+02  0.48752032473E+01 -0.12137731195E+02  0.17399934934E+02  0.51100000000E-03 0.  1.
        -12    1    3    3    0    0  0.12972544121E+01 -0.33581558738E+01 -0.12267219235E+01  0.38032783963E+01  0.00000000000E+00 0.  1.
</event>
<event>
 7    1  0.9868142E-013  0.5052887E+02  0.7816164E-02  0.1300439E+00
        -11   -1    0    0    0    0  0.00000000000E+00  0.00000000000E+00  0.45593999997E+02  0.45594000000E+02  0.51100000000E-03 0.  1.
         11   -1    0    0    0    0 -0.00000000000E+00 -0.00000000000E+00 -0.45593999997E+02  0.45594000000E+02  0.51100000000E-03 0. -1.
    9900012    2    1    2    0    0 -0.14214106343E+02 -0.22891356280E+02 -0.30448481429E+02  0.50528867781E+02  0.30000024108E+02 0.  0.
        -12    1    1    2    0    0  0.14214106343E+02  0.22891356280E+02  0.30448481429E+02  0.40659132219E+02  0.00000000000E+00 0.  1.
         11    1    3    3    0    0 -0.39337292415E+01 -0.83509008068E+01 -0.83941818314E+00  0.92691096216E+01  0.51100000000E-03 0. -1.
        -11    1    3    3    0    0 -0.14415702497E+02 -0.65310504934E+01 -0.27913288935E+02  0.32087673622E+02  0.51100000000E-03 0.  1.
        -12    1    3    3    0    0  0.41353253952E+01 -0.80094049794E+01 -0.16957743105E+01  0.91720845374E+01  0.00000000000E+00 0.  1.
</event>
<event>
 7    1  0.9868142E-013  0.5052886E+02  0.7816164E-02  0.1300439E+00
        -11   -1    0    0    0    0  0.00000000000E+00  0.00000000000E+00  0.45593999997E+02  0.45594000000E+02  0.51100000000E-03 0.  1.
         11   -1    0    0    0    0 -0.00000000000E+00 -0.00000000000E+00 -0.45593999997E+02  0.45594000000E+02  0.51100000000E-03 0. -1.
    9900012    2    1    2    0    0  0.28522242427E+02 -0.18844190602E+02 -0.22012349343E+02  0.50528863805E+02  0.30000012021E+02 0.  0.
        -12    1    1    2    0    0 -0.28522242427E+02  0.18844190602E+02  0.22012349343E+02  0.40659136195E+02  0.00000000000E+00 0.  1.
         11    1    3    3    0    0  0.18905213435E+02 -0.18028674946E+02 -0.29532618926E+01  0.26289959517E+02  0.51100000000E-03 0. -1.
        -11    1    3    3    0    0 -0.26344186507E+01 -0.54003692617E+00 -0.28457434056E+01  0.39153617075E+01  0.51100000000E-03 0.  1.
         12    1    3    3    0    0  0.12251447643E+02 -0.27547873002E+00 -0.16213344045E+02  0.20323542580E+02  0.00000000000E+00 0. -1.
</event>
<event>
 7    1  0.9868142E-013  0.5052887E+02  0.7816164E-02  0.1300439E+00
        -11   -1    0    0    0    0  0.00000000000E+00  0.00000000000E+00  0.45593999997E+02  0.45594000000E+02  0.51100000000E-03 0.  1.
         11   -1    0    0    0    0 -0.00000000000E+00 -0.00000000000E+00 -0.45593999997E+02  0.45594000000E+02  0.51100000000E-03 0. -1.
    9900012    2    1    2    0    0 -0.10953718031E+02 -0.14280863317E+02 -0.36458718703E+02  0.50528866152E+02  0.30000019156E+02 0.  0.
        -12    1    1    2    0    0  0.10953718031E+02  0.14280863317E+02  0.36458718703E+02  0.40659133848E+02  0.00000000000E+00 0.  1.
         11    1    3    3    0    0 -0.93384555635E+01  0.10967857397E+01  0.32476397520E+00  0.94082497400E+01  0.51100000000E-03 0. -1.
        -11    1    3    3    0    0 -0.49371869810E+01 -0.12429138682E+02 -0.22628832017E+02  0.26285420719E+02  0.51100000000E-03 0.  1.
         12    1    3    3    0    0  0.33219245139E+01 -0.29485103747E+01 -0.14154650661E+02  0.14835195693E+02  0.00000000000E+00 0. -1.
</event>
<event>
 7    1  0.9868142E-013  0.5052887E+02  0.7816164E-02  0.1300439E+00
        -11   -1    0    0    0    0  0.00000000000E+00  0.00000000000E+00  0.45593999997E+02  0.45594000000E+02  0.51100000000E-03 0. -1.
         11   -1    0    0    0    0 -0.00000000000E+00 -0.00000000000E+00 -0.45593999997E+02  0.45594000000E+02  0.51100000000E-03 0.  1.
    9900012    2    1    2    0    0  0.28114483288E+02  0.55720010869E+01  0.28839102364E+02  0.50528865826E+02  0.30000018164E+02 0.  0.
        -12    1    1    2    0    0 -0.28114483288E+02 -0.55720010869E+01 -0.28839102364E+02  0.40659134174E+02  0.00000000000E+00 0.  1.
         11    1    3    3    0    0  0.71296660120E+01  0.58636781906E+01 -0.35195735309E+01  0.98793854802E+01  0.51100000000E-03 0. -1.
        -11    1    3    3    0    0  0.19541154585E+01  0.16712636887E+01  0.13652007055E+02  0.13892047597E+02  0.51100000000E-03 0.  1.
         12    1    3    3    0    0  0.19030701817E+02 -0.19629407924E+01  0.18706668840E+02  0.26757432748E+02  0.00000000000E+00 0. -1.
</event>
<event>
 7    1  0.9868142E-013  0.5052886E+02  0.7816164E-02  0.1300439E+00
        -11   -1    0    0    0    0  0.00000000000E+00  0.00000000000E+00  0.45593999997E+02  0.45594000000E+02  0.51100000000E-03 0. -1.
         11   -1    0    0    0    0 -0.00000000000E+00 -0.00000000000E+00 -0.45593999997E+02  0.45594000000E+02  0.51100000000E-03 0.  1.
    9900012    2    1    2    0    0  0.14862754001E+02 -0.19828556942E+02  0.32234959723E+02  0.50528858897E+02  0.29999997103E+02 0.  0.
        -12    1    1    2    0    0 -0.14862754001E+02  0.19828556942E+02 -0.32234959723E+02  0.40659141103E+02  0.00000000000E+00 0.  1.
         11    1    3    3    0    0  0.12823831786E+02 -0.22254316434E+02  0.11647703577E+02  0.28202380405E+02  0.51100000000E-03 0. -1.
        -11    1    3    3    0    0 -0.24303373648E+01  0.79448021143E+00  0.13817743048E+02  0.14052322289E+02  0.51100000000E-03 0.  1.
         12    1    3    3    0    0  0.44692595801E+01  0.16312792809E+01  0.67695130981E+01  0.82741562030E+01  0.00000000000E+00 0. -1.
</event>
<event>
 7    1  0.9868142E-013  0.5052886E+02  0.7816164E-02  0.1300439E+00
        -11   -1    0    0    0    0  0.00000000000E+00  0.00000000000E+00  0.45593999997E+02  0.45594000000E+02  0.51100000000E-03 0.  1.
         11   -1    0    0    0    0 -0.00000000000E+00 -0.00000000000E+00 -0.45593999997E+02  0.45594000000E+02  0.51100000000E-03 0. -1.
    9900012    2    1    2    0    0 -0.95537646412E+01 -0.37997340539E+02 -0.10867083017E+02  0.50528858345E+02  0.29999995425E+02 0.  0.
        -12    1    1    2    0    0  0.95537646412E+01  0.37997340539E+02  0.10867083017E+02  0.40659141655E+02  0.00000000000E+00 0.  1.
         11    1    3    3    0    0  0.38284144234E+01 -0.30116404260E+02  0.55475345759E+00  0.30363832338E+02  0.51100000000E-03 0. -1.
        -11    1    3    3    0    0 -0.78111577402E+01 -0.17440530260E+01 -0.76033192965E+01  0.11039310250E+02  0.51100000000E-03 0.  1.
         12    1    3    3    0    0 -0.55710213244E+01 -0.61368832524E+01 -0.38185171784E+01  0.91257157578E+01  0.00000000000E+00 0. -1.
</event>
<event>
 7    1  0.9868142E-013  0.5052887E+02  0.7816164E-02  0.1300439E+00
        -11   -1    0    0    0    0  0.00000000000E+00  0.00000000000E+00  0.45593999997E+02  0.45594000000E+02  0.51100000000E-03 0.  1.
         11   -1    0    0    0    0 -0.00000000000E+00 -0.00000000000E+00 -0.45593999997E+02  0.45594000000E+02  0.51100000000E-03 0. -1.
    9900012    2    1    2    0    0  0.17238903013E+02 -0.20229870071E+02  0.30769103872E+02  0.50528866053E+02  0.30000018856E+02 0.  0.
        -12    1    1    2    0    0 -0.17238903013E+02  0.20229870071E+02 -0.30769103872E+02  0.40659133947E+02  0.00000000000E+00 0.  1.
         11    1    3    3    0    0  0.16547224424E+02 -0.45492309809E+01  0.72110589503E+01  0.18614658474E+02  0.51100000000E-03 0. -1.
        -11    1    3    3    0    0  0.36891363401E+01 -0.16624396548E+02  0.23159997851E+02  0.28746578723E+02  0.51100000000E-03 0.  1.
         12    1    3    3    0    0 -0.29974577508E+01  0.94375745729E+00  0.39804707029E+00  0.31676288571E+01  0.00000000000E+00 0. -1.
</event>
<event>
 7    1  0.9868142E-013  0.5052886E+02  0.7816164E-02  0.1300439E+00
        -11   -1    0    0    0    0  0.00000000000E+00  0.00000000000E+00  0.45593999997E+02  0.45594000000E+02  0.51100000000E-03 0.  1.
         11   -1    0    0    0    0 -0.00000000000E+00 -0.00000000000E+00 -0.45593999997E+02  0.45594000000E+02  0.51100000000E-03 0. -1.
    9900012    2    1    2    0    0 -0.22885428386E+02 -0.32498704514E+02  0.85590389209E+01  0.50528858657E+02  0.29999996373E+02 0.  0.
        -12    1    1    2    0    0  0.22885428386E+02  0.32498704514E+02 -0.85590389209E+01  0.40659141343E+02  0.00000000000E+00 0.  1.
         11    1    3    3    0    0  0.66533160616E+01 -0.29824046914E+01  0.19441777940E+01  0.75459379745E+01  0.51100000000E-03 0. -1.
        -11    1    3    3    0    0 -0.74521863658E+00  0.98523632975E-01  0.10696060655E+01  0.13073312966E+01  0.51100000000E-03 0.  1.
         12    1    3    3    0    0 -0.28793525811E+02 -0.29614823456E+02  0.55452550614E+01  0.41675589386E+02  0.00000000000E+00 0. -1.
</event>
<event>
 7    1  0.9868142E-013  0.5052894E+02  0.7816164E-02  0.1300439E+00
        -11   -1    0    0    0    0  0.00000000000E+00  0.00000000000E+00  0.45593999997E+02  0.45594000000E+02  0.51100000000E-03 0.  1.
         11   -1    0    0    0    0 -0.00000000000E+00 -0.00000000000E+00 -0.45593999997E+02  0.45594000000E+02  0.51100000000E-03 0. -1.
    9900012    2    1    2    0    0  0.82414347021E+01 -0.24208616430E+01 -0.39741383634E+02  0.50528937170E+02  0.30000235020E+02 0.  0.
        -12    1    1    2    0    0 -0.82414347021E+01  0.24208616430E+01  0.39741383634E+02  0.40659062830E+02  0.00000000000E+00 0.  1.
         11    1    3    3    0    0  0.21792240357E+01  0.96980257243E+01 -0.26081226804E+02  0.27911128824E+02  0.51100000000E-03 0. -1.
        -11    1    3    3    0    0  0.79829907204E+01 -0.59322680198E+01 -0.12602056297E+02  0.16054026532E+02  0.51100000000E-03 0.  1.
         12    1    3    3    0    0 -0.19207800539E+01 -0.61866193475E+01 -0.10581005329E+01  0.65637818142E+01  0.00000000000E+00 0. -1.
</event>
<event>
 7    1  0.9868142E-013  0.5052886E+02  0.7816164E-02  0.1300439E+00
        -11   -1    0    0    0    0  0.00000000000E+00  0.00000000000E+00  0.45593999997E+02  0.45594000000E+02  0.51100000000E-03 0. -1.
         11   -1    0    0    0    0 -0.00000000000E+00 -0.00000000000E+00 -0.45593999997E+02  0.45594000000E+02  0.51100000000E-03 0.  1.
    9900012    2    1    2    0    0 -0.71141496450E+00 -0.40405338575E+02  0.44797747415E+01  0.50528857383E+02  0.29999992502E+02 0.  0.
        -12    1    1    2    0    0  0.71141496450E+00  0.40405338575E+02 -0.44797747415E+01  0.40659142617E+02  0.00000000000E+00 0.  1.
         11    1    3    3    0    0 -0.42430148007E+01 -0.87352239656E+01  0.88355762339E+01  0.13129155341E+02  0.51100000000E-03 0. -1.
        -11    1    3    3    0    0  0.11308495530E+02 -0.18521947378E+02 -0.80329165652E+00  0.21716120362E+02  0.51100000000E-03 0.  1.
         12    1    3    3    0    0 -0.77768956943E+01 -0.13148167231E+02 -0.35525098358E+01  0.15683581680E+02  0.00000000000E+00 0. -1.
</event>
<event>
 7    1  0.9868142E-013  0.5052886E+02  0.7816164E-02  0.1300439E+00
        -11   -1    0    0    0    0  0.00000000000E+00  0.00000000000E+00  0.45593999997E+02  0.45594000000E+02  0.51100000000E-03 0. -1.
         11   -1    0    0    0    0 -0.00000000000E+00 -0.00000000000E+00 -0.45593999997E+02  0.45594000000E+02  0.51100000000E-03 0.  1.
    9900012    2    1    2    0    0  0.56454662622E+01  0.39896882223E+02  0.54344614300E+01  0.50528857468E+02  0.29999992759E+02 0.  0.
        -12    1    1    2    0    0 -0.56454662622E+01 -0.39896882223E+02 -0.54344614300E+01  0.40659142532E+02  0.00000000000E+00 0.  1.
         11    1    3    3    0    0  0.32037789383E+01  0.14412858266E+02  0.14524989033E+02  0.20711590706E+02  0.51100000000E-03 0. -1.
        -11    1    3    3    0    0  0.37350786852E+01  0.16102174733E+02 -0.11386993917E+02  0.20072231431E+02  0.51100000000E-03 0.  1.
        -12    1    3    3    0    0 -0.12933913612E+01  0.93818492235E+01  0.22964663131E+01  0.97450353305E+01  0.00000000000E+00 0.  1.
</event>
<event>
 7    1  0.9868142E-013  0.5052887E+02  0.7816164E-02  0.1300439E+00
        -11   -1    0    0    0    0  0.00000000000E+00  0.00000000000E+00  0.45593999997E+02  0.45594000000E+02  0.51100000000E-03 0. -1.
         11   -1    0    0    0    0 -0.00000000000E+00 -0.00000000000E+00 -0.45593999997E+02  0.45594000000E+02  0.51100000000E-03 0.  1.
    9900012    2    1    2    0    0 -0.33194219274E+02 -0.15314600480E+01  0.23429969840E+02  0.50528867572E+02  0.30000023471E+02 0.  0.
        -12    1    1    2    0    0  0.33194219274E+02  0.15314600480E+01 -0.23429969840E+02  0.40659132428E+02  0.00000000000E+00 0.  1.
         11    1    3    3    0    0 -0.35188632973E+02  0.18289542500E+01  0.21598676099E+02  0.41329018542E+02  0.51100000000E-03 0. -1.
        -11    1    3    3    0    0  0.75766031647E+00 -0.58387399716E+01  0.15091785215E-01  0.58877127677E+01  0.51100000000E-03 0.  1.
         12    1    3    3    0    0  0.12367533825E+01  0.24783256736E+01  0.18162019553E+01  0.33121362617E+01  0.00000000000E+00 0. -1.
</event>
<event>
 7    1  0.9868142E-013  0.5052882E+02  0.7816164E-02  0.1300439E+00
        -11   -1    0    0    0    0  0.00000000000E+00  0.00000000000E+00  0.45593999997E+02  0.45594000000E+02  0.51100000000E-03 0. -1.
         11   -1    0    0    0    0 -0.00000000000E+00 -0.00000000000E+00 -0.45593999997E+02  0.45594000000E+02  0.51100000000E-03 0.  1.
    9900012    2    1    2    0    0  0.13318297704E+02 -0.32542437489E+02  0.20415232229E+02  0.50528819015E+02  0.29999875877E+02 0.  0.
        -12    1    1    2    0    0 -0.13318297704E+02  0.32542437489E+02 -0.20415232229E+02  0.40659180985E+02  0.00000000000E+00 0.  1.
         11    1    3    3    0    0  0.12828766294E+01  0.16976013657E+01  0.52203076167E+01  0.56373073996E+01  0.51100000000E-03 0. -1.
        -11    1    3    3    0    0 -0.25394013019E+01 -0.19198883238E+02  0.62181104831E+00  0.19376076120E+02  0.51100000000E-03 0.  1.
        -12    1    3    3    0    0  0.14574822376E+02 -0.15041155617E+02  0.14573113564E+02  0.25515435495E+02  0.00000000000E+00 0.  1.
</event>
<event>
 7    1  0.9868142E-013  0.5052885E+02  0.7816164E-02  0.1300439E+00
        -11   -1    0    0    0    0  0.00000000000E+00  0.00000000000E+00  0.45593999997E+02  0.45594000000E+02  0.51100000000E-03 0.  1.
         11   -1    0    0    0    0 -0.00000000000E+00 -0.00000000000E+00 -0.45593999997E+02  0.45594000000E+02  0.51100000000E-03 0. -1.
    9900012    2    1    2    0    0  0.22712223438E+02 -0.28643769880E+02  0.17800436284E+02  0.50528853694E+02  0.29999981289E+02 0.  0.
        -12    1    1    2    0    0 -0.22712223438E+02  0.28643769880E+02 -0.17800436284E+02  0.40659146306E+02  0.00000000000E+00 0.  1.
         11    1    3    3    0    0  0.20504250107E+02 -0.15772891440E+02  0.49567438407E+01  0.26339659955E+02  0.51100000000E-03 0. -1.
        -11    1    3    3    0    0  0.56728016689E+00  0.11136715514E+01  0.96765464404E+01  0.97569268926E+01  0.51100000000E-03 0.  1.
        -12    1    3    3    0    0  0.16406931645E+01 -0.13984549991E+02  0.31671460027E+01  0.14432266846E+02  0.00000000000E+00 0.  1.
</event>
<event>
 7    1  0.9868142E-013  0.5052884E+02  0.7816164E-02  0.1300439E+00
        -11   -1    0    0    0    0  0.00000000000E+00  0.00000000000E+00  0.45593999997E+02  0.45594000000E+02  0.51100000000E-03 0.  1.
         11   -1    0    0    0    0 -0.00000000000E+00 -0.00000000000E+00 -0.45593999997E+02  0.45594000000E+02  0.51100000000E-03 0. -1.
    9900012    2    1    2    0    0 -0.38374679516E+02 -0.22174227004E+01 -0.13252705774E+02  0.50528841109E+02  0.29999943036E+02 0.  0.
        -12    1    1    2    0    0  0.38374679516E+02  0.22174227004E+01  0.13252705774E+02  0.40659158891E+02  0.00000000000E+00 0.  1.
         11    1    3    3    0    0 -0.95873457566E+01 -0.10046943615E+02 -0.14539741479E+02  0.20106276562E+02  0.51100000000E-03 0. -1.
        -11    1    3    3    0    0 -0.98498848041E+01  0.55756293400E+01  0.19334907321E+00  0.11320126206E+02  0.51100000000E-03 0.  1.
         12    1    3    3    0    0 -0.18937448955E+02  0.22538915746E+01  0.10936866316E+01  0.19102438342E+02  0.00000000000E+00 0. -1.
</event>
<event>
 7    1  0.9868142E-013  0.5052877E+02  0.7816164E-02  0.1300439E+00
        -11   -1    0    0    0    0  0.00000000000E+00  0.00000000000E+00  0.45593999997E+02  0.45594000000E+02  0.51100000000E-03 0. -1.
         11   -1    0    0    0    0 -0.00000000000E+00 -0.00000000000E+00 -0.45593999997E+02  0.45594000000E+02  0.51100000000E-03 0.  1.
    9900012    2    1    2    0    0 -0.30247686465E+02 -0.15310802605E+02  0.22446153664E+02  0.50528769471E+02  0.29999725283E+02 0.  0.
        -12    1    1    2    0    0  0.30247686465E+02  0.15310802605E+02 -0.22446153664E+02  0.40659230529E+02  0.00000000000E+00 0.  1.
         11    1    3    3    0    0 -0.16414230942E+02 -0.74520667852E+01  0.20136002730E+01  0.18138766858E+02  0.51100000000E-03 0. -1.
        -11    1    3    3    0    0 -0.65613083338E+00  0.59005658984E+01  0.63906803216E+01  0.87228424740E+01  0.51100000000E-03 0.  1.
        -12    1    3    3    0    0 -0.13177324689E+02 -0.13759301719E+02  0.14041873070E+02  0.23667160139E+02  0.00000000000E+00 0.  1.
</event>
<event>
 7    1  0.9868142E-013  0.5052886E+02  0.7816164E-02  0.1300439E+00
        -11   -1    0    0    0    0  0.00000000000E+00  0.00000000000E+00  0.45593999997E+02  0.45594000000E+02  0.51100000000E-03 0.  1.
         11   -1    0    0    0    0 -0.00000000000E+00 -0.00000000000E+00 -0.45593999997E+02  0.45594000000E+02  0.51100000000E-03 0. -1.
    9900012    2    1    2    0    0 -0.32431934114E+02  0.17366364296E+02 -0.17313128284E+02  0.50528863632E+02  0.30000011496E+02 0.  0.
        -12    1    1    2    0    0  0.32431934114E+02 -0.17366364296E+02  0.17313128284E+02  0.40659136368E+02  0.00000000000E+00 0.  1.
         11    1    3    3    0    0 -0.20347022536E+02  0.10471557554E+02 -0.25480785786E+02  0.34247996850E+02  0.51100000000E-03 0. -1.
        -11    1    3    3    0    0 -0.83512825027E+01  0.49876851989E+01  0.68092439636E+01  0.11873783167E+02  0.51100000000E-03 0.  1.
         12    1    3    3    0    0 -0.37336290751E+01  0.19071215433E+01  0.13584135384E+01  0.44070836154E+01  0.00000000000E+00 0. -1.
</event>
<event>
 7    1  0.9868142E-013  0.5052886E+02  0.7816164E-02  0.1300439E+00
        -11   -1    0    0    0    0  0.00000000000E+00  0.00000000000E+00  0.45593999997E+02  0.45594000000E+02  0.51100000000E-03 0.  1.
         11   -1    0    0    0    0 -0.00000000000E+00 -0.00000000000E+00 -0.45593999997E+02  0.45594000000E+02  0.51100000000E-03 0. -1.
    9900012    2    1    2    0    0 -0.15587624310E+02 -0.34533715462E+02  0.14751749909E+02  0.50528860061E+02  0.30000000641E+02 0.  0.
        -12    1    1    2    0    0  0.15587624310E+02  0.34533715462E+02 -0.14751749909E+02  0.40659139939E+02  0.00000000000E+00 0.  1.
         11    1    3    3    0    0 -0.70634702069E+01 -0.86132174185E+00 -0.26479254034E+01  0.75924960132E+01  0.51100000000E-03 0. -1.
        -11    1    3    3    0    0  0.16932599532E+01 -0.25898277473E+02  0.84820239288E+01  0.27304443512E+02  0.51100000000E-03 0.  1.
        -12    1    3    3    0    0 -0.10217414056E+02 -0.77741162472E+01  0.89176513841E+01  0.15631920535E+02  0.00000000000E+00 0.  1.
</event>
<event>
 7    1  0.9868142E-013  0.5052886E+02  0.7816164E-02  0.1300439E+00
        -11   -1    0    0    0    0  0.00000000000E+00  0.00000000000E+00  0.45593999997E+02  0.45594000000E+02  0.51100000000E-03 0. -1.
         11   -1    0    0    0    0 -0.00000000000E+00 -0.00000000000E+00 -0.45593999997E+02  0.45594000000E+02  0.51100000000E-03 0.  1.
    9900012    2    1    2    0    0 -0.97015353428E+01  0.39459698401E+02 -0.14063220695E+01  0.50528864155E+02  0.30000013085E+02 0.  0.
        -12    1    1    2    0    0  0.97015353428E+01 -0.39459698401E+02  0.14063220695E+01  0.40659135845E+02  0.00000000000E+00 0.  1.
         11    1    3    3    0    0 -0.69553677042E+01  0.60966862472E+01  0.10216105380E+02  0.13780984453E+02  0.51100000000E-03 0. -1.
        -11    1    3    3    0    0 -0.22566634976E+01  0.72012554023E+01 -0.67642216872E+01  0.10134362575E+02  0.51100000000E-03 0.  1.
         12    1    3    3    0    0 -0.48950414086E+00  0.26161756752E+02 -0.48582057624E+01  0.26613517127E+02  0.00000000000E+00 0. -1.
</event>
<event>
 7    1  0.9868142E-013  0.5052886E+02  0.7816164E-02  0.1300439E+00
        -11   -1    0    0    0    0  0.00000000000E+00  0.00000000000E+00  0.45593999997E+02  0.45594000000E+02  0.51100000000E-03 0. -1.
         11   -1    0    0    0    0 -0.00000000000E+00 -0.00000000000E+00 -0.45593999997E+02  0.45594000000E+02  0.51100000000E-03 0.  1.
    9900012    2    1    2    0    0 -0.22455820410E+01  0.39901131220E+02 -0.74848254913E+01  0.50528861741E+02  0.30000005748E+02 0.  0.
        -12    1    1    2    0    0  0.22455820410E+01 -0.39901131220E+02  0.74848254913E+01  0.40659138259E+02  0.00000000000E+00 0.  1.
         11    1    3    3    0    0 -0.30807268776E+01  0.25731616353E+02 -0.15175095973E+01  0.25959772608E+02  0.51100000000E-03 0. -1.
        -11    1    3    3    0    0  0.13187876917E+01 -0.43026796142E+01  0.13440896440E+01  0.46966828795E+01  0.51100000000E-03 0.  1.
        -12    1    3    3    0    0 -0.48364285508E+00  0.18472194481E+02 -0.73114055380E+01  0.19872406254E+02  0.00000000000E+00 0.  1.
</event>
<event>
 7    1  0.9868142E-013  0.5052887E+02  0.7816164E-02  0.1300439E+00
        -11   -1    0    0    0    0  0.00000000000E+00  0.00000000000E+00  0.45593999997E+02  0.45594000000E+02  0.51100000000E-03 0.  1.
         11   -1    0    0    0    0 -0.00000000000E+00 -0.00000000000E+00 -0.45593999997E+02  0.45594000000E+02  0.51100000000E-03 0. -1.
    9900012    2    1    2    0    0  0.40322079805E+01  0.27199473187E+02 -0.29951534536E+02  0.50528874777E+02  0.30000045371E+02 0.  0.
        -12    1    1    2    0    0 -0.40322079805E+01 -0.27199473187E+02  0.29951534536E+02  0.40659125223E+02  0.00000000000E+00 0.  1.
         11    1    3    3    0    0 -0.21107875312E+01  0.13865988929E+02 -0.30378819659E+02  0.33460331097E+02  0.51100000000E-03 0. -1.
        -11    1    3    3    0    0  0.67283957114E+01  0.70607369090E+01  0.30870230362E+01  0.10230103911E+02  0.51100000000E-03 0.  1.
        -12    1    3    3    0    0 -0.58540019966E+00  0.62727473496E+01 -0.26597379133E+01  0.68384397689E+01  0.00000000000E+00 0.  1.
</event>
<event>
 7    1  0.9868142E-013  0.5052885E+02  0.7816164E-02  0.1300439E+00
        -11   -1    0    0    0    0  0.00000000000E+00  0.00000000000E+00  0.45593999997E+02  0.45594000000E+02  0.51100000000E-03 0.  1.
         11   -1    0    0    0    0 -0.00000000000E+00 -0.00000000000E+00 -0.45593999997E+02  0.45594000000E+02  0.51100000000E-03 0. -1.
    9900012    2    1    2    0    0 -0.35185076912E+02 -0.13022835143E+02 -0.15671077760E+02  0.50528849115E+02  0.29999967371E+02 0.  0.
        -12    1    1    2    0    0  0.35185076912E+02  0.13022835143E+02  0.15671077760E+02  0.40659150885E+02  0.00000000000E+00 0.  1.
         11    1    3    3    0    0 -0.15629014870E+02 -0.50679740068E+01 -0.14108613188E+02  0.21656487081E+02  0.51100000000E-03 0. -1.
        -11    1    3    3    0    0 -0.10696397475E+02  0.58896688646E+01  0.93754892262E+00  0.12246636947E+02  0.51100000000E-03 0.  1.
        -12    1    3    3    0    0 -0.88596645672E+01 -0.13844530001E+02 -0.25000134953E+01  0.16625725087E+02  0.00000000000E+00 0.  1.
</event>
<event>
 7    1  0.9868142E-013  0.5052886E+02  0.7816164E-02  0.1300439E+00
        -11   -1    0    0    0    0  0.00000000000E+00  0.00000000000E+00  0.45593999997E+02  0.45594000000E+02  0.51100000000E-03 0.  1.
         11   -1    0    0    0    0 -0.00000000000E+00 -0.00000000000E+00 -0.45593999997E+02  0.45594000000E+02  0.51100000000E-03 0. -1.
    9900012    2    1    2    0    0  0.30269775634E+02 -0.46820406806E+01 -0.26739193350E+02  0.50528864705E+02  0.30000014758E+02 0.  0.
        -12    1    1    2    0    0 -0.30269775634E+02  0.46820406806E+01  0.26739193350E+02  0.40659135295E+02  0.00000000000E+00 0.  1.
         11    1    3    3    0    0  0.26739312161E+02  0.67313594641E+01 -0.25163252190E+02  0.37329496060E+02  0.51100000000E-03 0. -1.
        -11    1    3    3    0    0  0.39146930601E+01 -0.59266437209E+01 -0.26761115474E+01  0.75902240299E+01  0.51100000000E-03 0.  1.
         12    1    3    3    0    0 -0.38422958688E+00 -0.54867564239E+01  0.11001703871E+01  0.56091446149E+01  0.00000000000E+00 0. -1.
</event>
<event>
 7    1  0.9868142E-013  0.5052885E+02  0.7816164E-02  0.1300439E+00
        -11   -1    0    0    0    0  0.00000000000E+00  0.00000000000E+00  0.45593999997E+02  0.45594000000E+02  0.51100000000E-03 0.  1.
         11   -1    0    0    0    0 -0.00000000000E+00 -0.00000000000E+00 -0.45593999997E+02  0.45594000000E+02  0.51100000000E-03 0. -1.
    9900012    2    1    2    0    0 -0.11342326200E+02  0.27766121910E+02 -0.27451051319E+02  0.50528854558E+02  0.29999983915E+02 0.  0.
        -12    1    1    2    0    0  0.11342326200E+02 -0.27766121910E+02  0.27451051319E+02  0.40659145442E+02  0.00000000000E+00 0.  1.
         11    1    3    3    0    0  0.41792407570E+00  0.13610920287E+02 -0.26927680517E+02  0.30175019302E+02  0.51100000000E-03 0. -1.
        -11    1    3    3    0    0 -0.11791372036E+02  0.14853257009E+02 -0.16413164324E+01  0.19035483134E+02  0.51100000000E-03 0.  1.
         12    1    3    3    0    0  0.31121760138E-01 -0.69805538528E+00  0.11179456305E+01  0.13183521220E+01  0.00000000000E+00 0. -1.
</event>
<event>
 7    1  0.9868142E-013  0.5052883E+02  0.7816164E-02  0.1300439E+00
        -11   -1    0    0    0    0  0.00000000000E+00  0.00000000000E+00  0.45593999997E+02  0.45594000000E+02  0.51100000000E-03 0. -1.
         11   -1    0    0    0    0 -0.00000000000E+00 -0.00000000000E+00 -0.45593999997E+02  0.45594000000E+02  0.51100000000E-03 0.  1.
    9900012    2    1    2    0    0  0.28853764988E+02 -0.18509950761E+02 -0.21863441104E+02  0.50528830209E+02  0.29999909904E+02 0.  0.
        -12    1    1    2    0    0 -0.28853764988E+02  0.18509950761E+02  0.21863441104E+02  0.40659169791E+02  0.00000000000E+00 0.  1.
         11    1    3    3    0    0  0.14153354359E+01 -0.46631571678E+01  0.24316210217E+01  0.54461904320E+01  0.51100000000E-03 0. -1.
        -11    1    3    3    0    0  0.19840277287E+02 -0.22097246509E+01 -0.23952052677E+02  0.31180447616E+02  0.51100000000E-03 0.  1.
        -12    1    3    3    0    0  0.75981522658E+01 -0.11637068942E+02 -0.34300944875E+00  0.13902192162E+02  0.00000000000E+00 0.  1.
</event>
<event>
 7    1  0.9868142E-013  0.5052886E+02  0.7816164E-02  0.1300439E+00
        -11   -1    0    0    0    0  0.00000000000E+00  0.00000000000E+00  0.45593999997E+02  0.45594000000E+02  0.51100000000E-03 0.  1.
         11   -1    0    0    0    0 -0.00000000000E+00 -0.00000000000E+00 -0.45593999997E+02  0.45594000000E+02  0.51100000000E-03 0. -1.
    9900012    2    1    2    0    0 -0.13990853347E+02 -0.14268987336E+01 -0.38149514618E+02  0.50528862245E+02  0.30000007280E+02 0.  0.
        -12    1    1    2    0    0  0.13990853347E+02  0.14268987336E+01  0.38149514618E+02  0.40659137755E+02  0.00000000000E+00 0.  1.
         11    1    3    3    0    0 -0.19913102441E+02  0.47355038534E+01 -0.25475807161E+02  0.32679862245E+02  0.51100000000E-03 0. -1.
        -11    1    3    3    0    0 -0.18157013193E+01 -0.31883927019E+01 -0.15670674100E+01  0.39897769149E+01  0.51100000000E-03 0.  1.
         12    1    3    3    0    0  0.77379504133E+01 -0.29740098851E+01 -0.11106640047E+02  0.13859223086E+02  0.00000000000E+00 0. -1.
</event>
<event>
 7    1  0.9868142E-013  0.5052890E+02  0.7816164E-02  0.1300439E+00
        -11   -1    0    0    0    0  0.00000000000E+00  0.00000000000E+00  0.45593999997E+02  0.45594000000E+02  0.51100000000E-03 0. -1.
         11   -1    0    0    0    0 -0.00000000000E+00 -0.00000000000E+00 -0.45593999997E+02  0.45594000000E+02  0.51100000000E-03 0.  1.
    9900012    2    1    2    0    0  0.26925906530E+02 -0.16038621023E+02  0.25902140436E+02  0.50528896640E+02  0.30000111828E+02 0.  0.
        -12    1    1    2    0    0 -0.26925906530E+02  0.16038621023E+02 -0.25902140436E+02  0.40659103360E+02  0.00000000000E+00 0.  1.
         11    1    3    3    0    0  0.24707372177E+02 -0.18406363604E+02  0.19826305229E+02  0.36637833455E+02  0.51100000000E-03 0. -1.
        -11    1    3    3    0    0  0.42955222963E+00  0.52883381458E+01 -0.15532616054E+01  0.55284407691E+01  0.51100000000E-03 0.  1.
        -12    1    3    3    0    0  0.17889821240E+01 -0.29205955652E+01  0.76290968130E+01  0.83626224163E+01  0.00000000000E+00 0.  1.
</event>
<event>
 7    1  0.9868142E-013  0.5052886E+02  0.7816164E-02  0.1300439E+00
        -11   -1    0    0    0    0  0.00000000000E+00  0.00000000000E+00  0.45593999997E+02  0.45594000000E+02  0.51100000000E-03 0. -1.
         11   -1    0    0    0    0 -0.00000000000E+00 -0.00000000000E+00 -0.45593999997E+02  0.45594000000E+02  0.51100000000E-03 0.  1.
    9900012    2    1    2    0    0 -0.23599604999E+02  0.15766103764E+02  0.29114504320E+02  0.50528859013E+02  0.29999997454E+02 0.  0.
        -12    1    1    2    0    0  0.23599604999E+02 -0.15766103764E+02 -0.29114504320E+02  0.40659140987E+02  0.00000000000E+00 0.  1.
         11    1    3    3    0    0 -0.19789435623E+02  0.10737201702E+02  0.25088520586E+02  0.33709688936E+02  0.51100000000E-03 0. -1.
        -11    1    3    3    0    0 -0.15306943675E+01 -0.72335939227E+00 -0.53355079318E+01  0.55976708736E+01  0.51100000000E-03 0.  1.
        -12    1    3    3    0    0 -0.22794750082E+01  0.57522614545E+01  0.93614916658E+01  0.11221499203E+02  0.00000000000E+00 0.  1.
</event>
<event>
 7    1  0.9868142E-013  0.5052886E+02  0.7816164E-02  0.1300439E+00
        -11   -1    0    0    0    0  0.00000000000E+00  0.00000000000E+00  0.45593999997E+02  0.45594000000E+02  0.51100000000E-03 0. -1.
         11   -1    0    0    0    0 -0.00000000000E+00 -0.00000000000E+00 -0.45593999997E+02  0.45594000000E+02  0.51100000000E-03 0.  1.
    9900012    2    1    2    0    0  0.27901050439E+02  0.29017321301E+02  0.57177122191E+01  0.50528858542E+02  0.29999996024E+02 0.  0.
        -12    1    1    2    0    0 -0.27901050439E+02 -0.29017321301E+02 -0.57177122191E+01  0.40659141458E+02  0.00000000000E+00 0.  1.
         11    1    3    3    0    0  0.20017001794E+02  0.21776257492E+02 -0.57530930069E+01  0.30132770045E+02  0.51100000000E-03 0. -1.
        -11    1    3    3    0    0  0.66766530704E+00 -0.36526178984E+01  0.34190054689E+01  0.50474739357E+01  0.51100000000E-03 0.  1.
         12    1    3    3    0    0  0.72163833382E+01  0.10893681707E+02  0.80517997572E+01  0.15348614561E+02  0.00000000000E+00 0. -1.
</event>
<event>
 7    1  0.9868142E-013  0.5052886E+02  0.7816164E-02  0.1300439E+00
        -11   -1    0    0    0    0  0.00000000000E+00  0.00000000000E+00  0.45593999997E+02  0.45594000000E+02  0.51100000000E-03 0. -1.
         11   -1    0    0    0    0 -0.00000000000E+00 -0.00000000000E+00 -0.45593999997E+02  0.45594000000E+02  0.51100000000E-03 0.  1.
    9900012    2    1    2    0    0  0.19662945160E+02  0.22908004632E+02  0.27235223770E+02  0.50528862006E+02  0.30000006554E+02 0.  0.
        -12    1    1    2    0    0 -0.19662945160E+02 -0.22908004632E+02 -0.27235223770E+02  0.40659137994E+02  0.00000000000E+00 0.  1.
         11    1    3    3    0    0  0.13032660977E+02  0.27505581433E+02  0.23667512056E+02  0.38555912507E+02  0.51100000000E-03 0. -1.
        -11    1    3    3    0    0  0.22912978368E+01 -0.29259079821E+01 -0.23877195087E+01  0.44172602379E+01  0.51100000000E-03 0.  1.
         12    1    3    3    0    0  0.43389863464E+01 -0.16716688187E+01  0.59554312232E+01  0.75556892609E+01  0.00000000000E+00 0. -1.
</event>
<event>
 7    1  0.9868142E-013  0.5052886E+02  0.7816164E-02  0.1300439E+00
        -11   -1    0    0    0    0  0.00000000000E+00  0.00000000000E+00  0.45593999997E+02  0.45594000000E+02  0.51100000000E-03 0.  1.
         11   -1    0    0    0    0 -0.00000000000E+00 -0.00000000000E+00 -0.45593999997E+02  0.45594000000E+02  0.51100000000E-03 0. -1.
    9900012    2    1    2    0    0  0.17892463028E+02 -0.82847254250E+01 -0.35558243984E+02  0.50528860513E+02  0.30000002015E+02 0.  0.
        -12    1    1    2    0    0 -0.17892463028E+02  0.82847254250E+01  0.35558243984E+02  0.40659139487E+02  0.00000000000E+00 0.  1.
         11    1    3    3    0    0  0.18717022282E+02 -0.62577976055E+01 -0.15598505382E+02  0.25155522741E+02  0.51100000000E-03 0. -1.
        -11    1    3    3    0    0 -0.29428125077E+01  0.63562404705E+01 -0.83889632019E+01  0.10928707254E+02  0.51100000000E-03 0.  1.
         12    1    3    3    0    0  0.21182532538E+01 -0.83831682900E+01 -0.11570775401E+02  0.14444630518E+02  0.00000000000E+00 0. -1.
</event>
<event>
 7    1  0.9868142E-013  0.5052886E+02  0.7816164E-02  0.1300439E+00
        -11   -1    0    0    0    0  0.00000000000E+00  0.00000000000E+00  0.45593999997E+02  0.45594000000E+02  0.51100000000E-03 0.  1.
         11   -1    0    0    0    0 -0.00000000000E+00 -0.00000000000E+00 -0.45593999997E+02  0.45594000000E+02  0.51100000000E-03 0. -1.
    9900012    2    1    2    0    0  0.18342479275E+02  0.28801175629E+02 -0.22072870974E+02  0.50528857159E+02  0.29999991820E+02 0.  0.
        -12    1    1    2    0    0 -0.18342479275E+02 -0.28801175629E+02  0.22072870974E+02  0.40659142841E+02  0.00000000000E+00 0.  1.
         11    1    3    3    0    0 -0.29170801667E+01  0.54970347923E+01  0.22204099737E+01  0.66073420465E+01  0.51100000000E-03 0. -1.
        -11    1    3    3    0    0  0.24218101476E+02  0.22250846739E+02 -0.24104263094E+02  0.40775386194E+02  0.51100000000E-03 0.  1.
        -12    1    3    3    0    0 -0.29585420340E+01  0.10532940977E+01 -0.18901785347E+00  0.31461289186E+01  0.00000000000E+00 0.  1.
</event>
<event>
 7    1  0.9868142E-013  0.5052886E+02  0.7816164E-02  0.1300439E+00
        -11   -1    0    0    0    0  0.00000000000E+00  0.00000000000E+00  0.45593999997E+02  0.45594000000E+02  0.51100000000E-03 0. -1.
         11   -1    0    0    0    0 -0.00000000000E+00 -0.00000000000E+00 -0.45593999997E+02  0.45594000000E+02  0.51100000000E-03 0.  1.
    9900012    2    1    2    0    0  0.21988342988E+02 -0.32949761605E+02  0.91646740558E+01  0.50528864892E+02  0.30000015327E+02 0.  0.
        -12    1    1    2    0    0 -0.21988342988E+02  0.32949761605E+02 -0.91646740558E+01  0.40659135108E+02  0.00000000000E+00 0.  1.
         11    1    3    3    0    0  0.25495999235E+02 -0.16995910096E+02  0.11586016162E+02  0.32758856936E+02  0.51100000000E-03 0. -1.
        -11    1    3    3    0    0 -0.11002595898E+01 -0.14705115063E+02 -0.28650247555E+01  0.15021962165E+02  0.51100000000E-03 0.  1.
        -12    1    3    3    0    0 -0.24073966574E+01 -0.12487364460E+01  0.44368264893E+00  0.27480457913E+01  0.00000000000E+00 0.  1.
</event>
<event>
 7    1  0.9868142E-013  0.5052886E+02  0.7816164E-02  0.1300439E+00
        -11   -1    0    0    0    0  0.00000000000E+00  0.00000000000E+00  0.45593999997E+02  0.45594000000E+02  0.51100000000E-03 0.  1.
         11   -1    0    0    0    0 -0.00000000000E+00 -0.00000000000E+00 -0.45593999997E+02  0.45594000000E+02  0.51100000000E-03 0. -1.
    9900012    2    1    2    0    0 -0.17287395811E+02 -0.30429656113E+02 -0.20696558278E+02  0.50528861425E+02  0.30000004787E+02 0.  0.
        -12    1    1    2    0    0  0.17287395811E+02  0.30429656113E+02  0.20696558278E+02  0.40659138575E+02  0.00000000000E+00 0.  1.
         11    1    3    3    0    0 -0.16045320253E+01 -0.78166889562E+01  0.91457702886E+00  0.80319113952E+01  0.51100000000E-03 0. -1.
        -11    1    3    3    0    0 -0.94435881748E-01 -0.13717486645E+01 -0.15355635235E+02  0.15417073207E+02  0.51100000000E-03 0.  1.
        -12    1    3    3    0    0 -0.15588427904E+02 -0.21241218493E+02 -0.62555000712E+01  0.27079876823E+02  0.00000000000E+00 0.  1.
</event>
<event>
 7    1  0.9868142E-013  0.5052880E+02  0.7816164E-02  0.1300439E+00
        -11   -1    0    0    0    0  0.00000000000E+00  0.00000000000E+00  0.45593999997E+02  0.45594000000E+02  0.51100000000E-03 0.  1.
         11   -1    0    0    0    0 -0.00000000000E+00 -0.00000000000E+00 -0.45593999997E+02  0.45594000000E+02  0.51100000000E-03 0. -1.
    9900012    2    1    2    0    0 -0.27284800167E+02 -0.17818025793E+02 -0.24315177261E+02  0.50528804133E+02  0.29999830642E+02 0.  0.
        -12    1    1    2    0    0  0.27284800167E+02  0.17818025793E+02  0.24315177261E+02  0.40659195867E+02  0.00000000000E+00 0.  1.
         11    1    3    3    0    0 -0.13106996795E+02 -0.36669139991E+01 -0.26870325025E+00  0.13612928596E+02  0.51100000000E-03 0. -1.
        -11    1    3    3    0    0 -0.15495491621E-01 -0.11294748036E+02 -0.35504345742E+01  0.11839643543E+02  0.51100000000E-03 0.  1.
         12    1    3    3    0    0 -0.14162307880E+02 -0.28563637580E+01 -0.20496039436E+02  0.25076231993E+02  0.00000000000E+00 0. -1.
</event>
<event>
 7    1  0.9868142E-013  0.5052887E+02  0.7816164E-02  0.1300439E+00
        -11   -1    0    0    0    0  0.00000000000E+00  0.00000000000E+00  0.45593999997E+02  0.45594000000E+02  0.51100000000E-03 0.  1.
         11   -1    0    0    0    0 -0.00000000000E+00 -0.00000000000E+00 -0.45593999997E+02  0.45594000000E+02  0.51100000000E-03 0. -1.
    9900012    2    1    2    0    0  0.31032688526E+02 -0.24972326330E+02  0.81559960368E+01  0.50528866822E+02  0.30000021191E+02 0.  0.
        -12    1    1    2    0    0 -0.31032688526E+02  0.24972326330E+02 -0.81559960368E+01  0.40659133178E+02  0.00000000000E+00 0.  1.
         11    1    3    3    0    0  0.50297307214E+01 -0.18513301140E+02  0.10628295569E+02  0.21931739037E+02  0.51100000000E-03 0. -1.
        -11    1    3    3    0    0  0.72420047123E+01 -0.17298467870E+01  0.36654758591E+01  0.82990792076E+01  0.51100000000E-03 0.  1.
         12    1    3    3    0    0  0.18760953092E+02 -0.47291784032E+01 -0.61377753915E+01  0.20298048577E+02  0.00000000000E+00 0. -1.
</event>
<event>
 7    1  0.1032716E-012  0.5052885E+02  0.7816164E-02  0.1300439E+00
        -11   -1    0    0    0    0  0.00000000000E+00  0.00000000000E+00  0.45593999997E+02  0.45594000000E+02  0.51100000000E-03 0.  1.
         11   -1    0    0    0    0 -0.00000000000E+00 -0.00000000000E+00 -0.45593999997E+02  0.45594000000E+02  0.51100000000E-03 0. -1.
    9900012    2    1    2    0    0  0.25266023725E+02 -0.29888736659E+02 -0.11020796334E+02  0.50528849914E+02  0.29999969797E+02 0.  0.
        -12    1    1    2    0    0 -0.25266023725E+02  0.29888736659E+02  0.11020796334E+02  0.40659150086E+02  0.00000000000E+00 0.  1.
         11    1    3    3    0    0  0.88991159538E+01 -0.16869898435E+02 -0.13449672707E+02  0.23338411131E+02  0.51100000000E-03 0. -1.
        -11    1    3    3    0    0  0.28249718148E+01 -0.87761889798E+01  0.77403040699E+01  0.12038034147E+02  0.51100000000E-03 0.  1.
         12    1    3    3    0    0  0.13541935956E+02 -0.42426492442E+01 -0.53114276976E+01  0.15152404635E+02  0.00000000000E+00 0. -1.
</event>
<event>
 7    1  0.9868142E-013  0.5052885E+02  0.7816164E-02  0.1300439E+00
        -11   -1    0    0    0    0  0.00000000000E+00  0.00000000000E+00  0.45593999997E+02  0.45594000000E+02  0.51100000000E-03 0. -1.
         11   -1    0    0    0    0 -0.00000000000E+00 -0.00000000000E+00 -0.45593999997E+02  0.45594000000E+02  0.51100000000E-03 0.  1.
    9900012    2    1    2    0    0  0.33953693710E+02 -0.19850887400E+02  0.10308019087E+02  0.50528852141E+02  0.29999976569E+02 0.  0.
        -12    1    1    2    0    0 -0.33953693710E+02  0.19850887400E+02 -0.10308019087E+02  0.40659147859E+02  0.00000000000E+00 0.  1.
         11    1    3    3    0    0  0.45210750138E+01 -0.63606011420E+01  0.88551439655E+01  0.11803005595E+02  0.51100000000E-03 0. -1.
        -11    1    3    3    0    0  0.46275594189E+01  0.41411813247E+01 -0.45603659063E+01  0.77045847649E+01  0.51100000000E-03 0.  1.
        -12    1    3    3    0    0  0.24805059277E+02 -0.17631467582E+02  0.60132410274E+01  0.31021261781E+02  0.00000000000E+00 0.  1.
</event>
<event>
 7    1  0.9868142E-013  0.5052885E+02  0.7816164E-02  0.1300439E+00
        -11   -1    0    0    0    0  0.00000000000E+00  0.00000000000E+00  0.45593999997E+02  0.45594000000E+02  0.51100000000E-03 0.  1.
         11   -1    0    0    0    0 -0.00000000000E+00 -0.00000000000E+00 -0.45593999997E+02  0.45594000000E+02  0.51100000000E-03 0. -1.
    9900012    2    1    2    0    0 -0.83160248304E+01 -0.22525010887E+02 -0.32812097262E+02  0.50528854519E+02  0.29999983797E+02 0.  0.
        -12    1    1    2    0    0  0.83160248304E+01  0.22525010887E+02  0.32812097262E+02  0.40659145481E+02  0.00000000000E+00 0.  1.
         11    1    3    3    0    0 -0.10177460332E+02 -0.80872399460E+01 -0.10546123067E+02  0.16739320797E+02  0.51100000000E-03 0. -1.
        -11    1    3    3    0    0  0.60357145759E+01 -0.14354312075E+02 -0.55045405066E+01  0.16515934489E+02  0.51100000000E-03 0.  1.
        -12    1    3    3    0    0 -0.41742790746E+01 -0.83458866706E-01 -0.16761433689E+02  0.17273599234E+02  0.00000000000E+00 0.  1.
</event>
<event>
 7    1  0.9983550E-013  0.5052885E+02  0.7816164E-02  0.1300439E+00
        -11   -1    0    0    0    0  0.00000000000E+00  0.00000000000E+00  0.45593999997E+02  0.45594000000E+02  0.51100000000E-03 0.  1.
         11   -1    0    0    0    0 -0.00000000000E+00 -0.00000000000E+00 -0.45593999997E+02  0.45594000000E+02  0.51100000000E-03 0. -1.
    9900012    2    1    2    0    0 -0.40468967608E+02 -0.38506400948E+01 -0.77564035342E+00  0.50528851136E+02  0.29999973512E+02 0.  0.
        -12    1    1    2    0    0  0.40468967608E+02  0.38506400948E+01  0.77564035342E+00  0.40659148864E+02  0.00000000000E+00 0.  1.
         11    1    3    3    0    0 -0.19918653188E+02  0.40843362277E+01 -0.74646688714E+01  0.21660005283E+02  0.51100000000E-03 0. -1.
        -11    1    3    3    0    0 -0.22249130621E+02 -0.10703507060E+02  0.49382490000E+01  0.25178863760E+02  0.51100000000E-03 0.  1.
        -12    1    3    3    0    0  0.16988162006E+01  0.27685307373E+01  0.17507795180E+01  0.36899820931E+01  0.00000000000E+00 0.  1.
</event>
<event>
 7    1  0.9868142E-013  0.5052883E+02  0.7816164E-02  0.1300439E+00
        -11   -1    0    0    0    0  0.00000000000E+00  0.00000000000E+00  0.45593999997E+02  0.45594000000E+02  0.51100000000E-03 0. -1.
         11   -1    0    0    0    0 -0.00000000000E+00 -0.00000000000E+00 -0.45593999997E+02  0.45594000000E+02  0.51100000000E-03 0.  1.
    9900012    2    1    2    0    0 -0.46006811288E+01 -0.25607730570E+02  0.31244934170E+02  0.50528830763E+02  0.29999911587E+02 0.  0.
        -12    1    1    2    0    0  0.46006811288E+01  0.25607730570E+02 -0.31244934170E+02  0.40659169237E+02  0.00000000000E+00 0.  1.
         11    1    3    3    0    0 -0.11176748288E+02 -0.16559294804E+02  0.10347201075E+02  0.22498767012E+02  0.51100000000E-03 0. -1.
        -11    1    3    3    0    0  0.47840610214E+01  0.10257971803E+01  0.15912784309E+02  0.16648009023E+02  0.51100000000E-03 0.  1.
         12    1    3    3    0    0  0.17920061376E+01 -0.10074232946E+02  0.49849487853E+01  0.11382054728E+02  0.00000000000E+00 0. -1.
</event>
<event>
 7    1  0.9868142E-013  0.5052886E+02  0.7816164E-02  0.1300439E+00
        -11   -1    0    0    0    0  0.00000000000E+00  0.00000000000E+00  0.45593999997E+02  0.45594000000E+02  0.51100000000E-03 0.  1.
         11   -1    0    0    0    0 -0.00000000000E+00 -0.00000000000E+00 -0.45593999997E+02  0.45594000000E+02  0.51100000000E-03 0. -1.
    9900012    2    1    2    0    0  0.18315609630E+02  0.31246270194E+02 -0.18476331431E+02  0.50528858589E+02  0.29999996167E+02 0.  0.
        -12    1    1    2    0    0 -0.18315609630E+02 -0.31246270194E+02  0.18476331431E+02  0.40659141411E+02  0.00000000000E+00 0.  1.
         11    1    3    3    0    0 -0.38787416652E+01  0.14748865974E+02 -0.11295004927E+02  0.18977640026E+02  0.51100000000E-03 0. -1.
        -11    1    3    3    0    0  0.80962378759E+01  0.54390037308E+00  0.20131754230E+01  0.83604886762E+01  0.51100000000E-03 0.  1.
        -12    1    3    3    0    0  0.14098113419E+02  0.15953503847E+02 -0.91945019273E+01  0.23190729886E+02  0.00000000000E+00 0.  1.
</event>
<event>
 7    1  0.9868142E-013  0.5052885E+02  0.7816164E-02  0.1300439E+00
        -11   -1    0    0    0    0  0.00000000000E+00  0.00000000000E+00  0.45593999997E+02  0.45594000000E+02  0.51100000000E-03 0.  1.
         11   -1    0    0    0    0 -0.00000000000E+00 -0.00000000000E+00 -0.45593999997E+02  0.45594000000E+02  0.51100000000E-03 0. -1.
    9900012    2    1    2    0    0 -0.22886025342E+02  0.19658793770E+02 -0.27256701103E+02  0.50528854861E+02  0.29999984834E+02 0.  0.
        -12    1    1    2    0    0  0.22886025342E+02 -0.19658793770E+02  0.27256701103E+02  0.40659145139E+02  0.00000000000E+00 0.  1.
         11    1    3    3    0    0 -0.31323376602E+01  0.18270967828E+02 -0.15468915144E+02  0.24143884123E+02  0.51100000000E-03 0. -1.
        -11    1    3    3    0    0 -0.79613324854E+01  0.34380014098E+00  0.19962223742E+01  0.82149812848E+01  0.51100000000E-03 0.  1.
         12    1    3    3    0    0 -0.11792355197E+02  0.10440258009E+01 -0.13784008334E+02  0.18169989452E+02  0.00000000000E+00 0. -1.
</event>
<event>
 7    1  0.9868142E-013  0.5052887E+02  0.7816164E-02  0.1300439E+00
        -11   -1    0    0    0    0  0.00000000000E+00  0.00000000000E+00  0.45593999997E+02  0.45594000000E+02  0.51100000000E-03 0.  1.
         11   -1    0    0    0    0 -0.00000000000E+00 -0.00000000000E+00 -0.45593999997E+02  0.45594000000E+02  0.51100000000E-03 0. -1.
    9900012    2    1    2    0    0 -0.38124215308E+02 -0.14101230317E+02 -0.92974463575E+00  0.50528869237E+02  0.30000028533E+02 0.  0.
        -12    1    1    2    0    0  0.38124215308E+02  0.14101230317E+02  0.92974463575E+00  0.40659130763E+02  0.00000000000E+00 0.  1.
         11    1    3    3    0    0 -0.96625644828E+00 -0.40273568324E+00  0.88143126004E+01  0.88762579070E+01  0.51100000000E-03 0. -1.
        -11    1    3    3    0    0 -0.16404473575E+02 -0.22076604549E+01 -0.61584192940E+01  0.17660878982E+02  0.51100000000E-03 0.  1.
         12    1    3    3    0    0 -0.20753485285E+02 -0.11490834179E+02 -0.35856379421E+01  0.23991732348E+02  0.00000000000E+00 0. -1.
</event>
<event>
 7    1  0.9868142E-013  0.5052886E+02  0.7816164E-02  0.1300439E+00
        -11   -1    0    0    0    0  0.00000000000E+00  0.00000000000E+00  0.45593999997E+02  0.45594000000E+02  0.51100000000E-03 0.  1.
         11   -1    0    0    0    0 -0.00000000000E+00 -0.00000000000E+00 -0.45593999997E+02  0.45594000000E+02  0.51100000000E-03 0. -1.
    9900012    2    1    2    0    0  0.31565137403E+02  0.34289884903E+01 -0.25397826403E+02  0.50528862683E+02  0.30000008612E+02 0.  0.
        -12    1    1    2    0    0 -0.31565137403E+02 -0.34289884903E+01  0.25397826403E+02  0.40659137317E+02  0.00000000000E+00 0.  1.
         11    1    3    3    0    0  0.11236601879E+02  0.73302813011E+00 -0.88927993572E+01  0.14348534166E+02  0.51100000000E-03 0. -1.
        -11    1    3    3    0    0 -0.13861053482E+01  0.89001295587E+01 -0.80038499753E+01  0.12049697460E+02  0.51100000000E-03 0.  1.
        -12    1    3    3    0    0  0.21714640872E+02 -0.62041691986E+01 -0.85011770708E+01  0.24130631057E+02  0.00000000000E+00 0.  1.
</event>
<event>
 7    1  0.9868142E-013  0.5052886E+02  0.7816164E-02  0.1300439E+00
        -11   -1    0    0    0    0  0.00000000000E+00  0.00000000000E+00  0.45593999997E+02  0.45594000000E+02  0.51100000000E-03 0.  1.
         11   -1    0    0    0    0 -0.00000000000E+00 -0.00000000000E+00 -0.45593999997E+02  0.45594000000E+02  0.51100000000E-03 0. -1.
    9900012    2    1    2    0    0  0.38152209505E+02 -0.13550360634E+02  0.37365974047E+01  0.50528861746E+02  0.30000005763E+02 0.  0.
        -12    1    1    2    0    0 -0.38152209505E+02  0.13550360634E+02 -0.37365974047E+01  0.40659138254E+02  0.00000000000E+00 0.  1.
         11    1    3    3    0    0  0.24540481739E+02 -0.22886183471E+02  0.41867048027E+01  0.33816285059E+02  0.51100000000E-03 0. -1.
        -11    1    3    3    0    0  0.79131073941E+01  0.69280701857E+01 -0.42921323851E+00  0.10526141239E+02  0.51100000000E-03 0.  1.
         12    1    3    3    0    0  0.56986203721E+01  0.24077526516E+01 -0.20894159412E-01  0.61864354472E+01  0.00000000000E+00 0. -1.
</event>
<event>
 7    1  0.9868142E-013  0.5052886E+02  0.7816164E-02  0.1300439E+00
        -11   -1    0    0    0    0  0.00000000000E+00  0.00000000000E+00  0.45593999997E+02  0.45594000000E+02  0.51100000000E-03 0. -1.
         11   -1    0    0    0    0 -0.00000000000E+00 -0.00000000000E+00 -0.45593999997E+02  0.45594000000E+02  0.51100000000E-03 0.  1.
    9900012    2    1    2    0    0 -0.11082164464E+02 -0.38906952432E+02 -0.40743981499E+01  0.50528855432E+02  0.29999986571E+02 0.  0.
        -12    1    1    2    0    0  0.11082164464E+02  0.38906952432E+02  0.40743981499E+01  0.40659144568E+02  0.00000000000E+00 0.  1.
         11    1    3    3    0    0 -0.33897635517E+01 -0.73354322979E+01 -0.43467770009E+01  0.91757034875E+01  0.51100000000E-03 0. -1.
        -11    1    3    3    0    0  0.77085766818E+01 -0.19881581326E+02  0.39091289266E+01  0.21679038717E+02  0.51100000000E-03 0.  1.
        -12    1    3    3    0    0 -0.15400977594E+02 -0.11689938808E+02 -0.36367500756E+01  0.19674113228E+02  0.00000000000E+00 0.  1.
</event>
<event>
 7    1  0.9868142E-013  0.5052884E+02  0.7816164E-02  0.1300439E+00
        -11   -1    0    0    0    0  0.00000000000E+00  0.00000000000E+00  0.45593999997E+02  0.45594000000E+02  0.51100000000E-03 0.  1.
         11   -1    0    0    0    0 -0.00000000000E+00 -0.00000000000E+00 -0.45593999997E+02  0.45594000000E+02  0.51100000000E-03 0. -1.
    9900012    2    1    2    0    0  0.77001972487E+00  0.11734719626E+02 -0.38921341239E+02  0.50528838930E+02  0.29999936410E+02 0.  0.
        -12    1    1    2    0    0 -0.77001972487E+00 -0.11734719626E+02  0.38921341239E+02  0.40659161070E+02  0.00000000000E+00 0.  1.
         11    1    3    3    0    0  0.10223474778E+02  0.30420682980E+01 -0.22847067347E+02  0.25214323364E+02  0.51100000000E-03 0. -1.
        -11    1    3    3    0    0 -0.59305131563E+01  0.11380791176E+02 -0.57170838917E+01  0.14049143838E+02  0.51100000000E-03 0.  1.
        -12    1    3    3    0    0 -0.35229418972E+01 -0.26881398481E+01 -0.10357190001E+02  0.11265371728E+02  0.00000000000E+00 0.  1.
</event>
<event>
 7    1  0.9868142E-013  0.5052890E+02  0.7816164E-02  0.1300439E+00
        -11   -1    0    0    0    0  0.00000000000E+00  0.00000000000E+00  0.45593999997E+02  0.45594000000E+02  0.51100000000E-03 0.  1.
         11   -1    0    0    0    0 -0.00000000000E+00 -0.00000000000E+00 -0.45593999997E+02  0.45594000000E+02  0.51100000000E-03 0. -1.
    9900012    2    1    2    0    0 -0.17982087074E+02  0.29566190810E+02 -0.21345905519E+02  0.50528895522E+02  0.30000108429E+02 0.  0.
        -12    1    1    2    0    0  0.17982087074E+02 -0.29566190810E+02  0.21345905519E+02  0.40659104478E+02  0.00000000000E+00 0.  1.
         11    1    3    3    0    0 -0.12165402453E+02  0.11043840954E+02 -0.61473485759E+00  0.16442060061E+02  0.51100000000E-03 0. -1.
        -11    1    3    3    0    0  0.39126572756E+01  0.16608466551E+02 -0.11840439672E+02  0.20768872382E+02  0.51100000000E-03 0.  1.
        -12    1    3    3    0    0 -0.97293418961E+01  0.19138833044E+01 -0.88907309898E+01  0.13317963079E+02  0.00000000000E+00 0.  1.
</event>
<event>
 7    1  0.9868142E-013  0.5052886E+02  0.7816164E-02  0.1300439E+00
        -11   -1    0    0    0    0  0.00000000000E+00  0.00000000000E+00  0.45593999997E+02  0.45594000000E+02  0.51100000000E-03 0. -1.
         11   -1    0    0    0    0 -0.00000000000E+00 -0.00000000000E+00 -0.45593999997E+02  0.45594000000E+02  0.51100000000E-03 0.  1.
    9900012    2    1    2    0    0  0.32891089153E+02 -0.15398484022E+02 -0.18281916619E+02  0.50528861653E+02  0.30000005481E+02 0.  0.
        -12    1    1    2    0    0 -0.32891089153E+02  0.15398484022E+02  0.18281916619E+02  0.40659138347E+02  0.00000000000E+00 0.  1.
         11    1    3    3    0    0  0.30563010376E+01 -0.43812503936E+01  0.14381192518E+01  0.55321350568E+01  0.51100000000E-03 0. -1.
        -11    1    3    3    0    0  0.31042999004E+02 -0.77911120724E+01 -0.23631409828E+02  0.39784579239E+02  0.51100000000E-03 0.  1.
        -12    1    3    3    0    0 -0.12082108882E+01 -0.32261215558E+01  0.39113739577E+01  0.52121473579E+01  0.00000000000E+00 0.  1.
</event>
<event>
 7    1  0.9868142E-013  0.5052886E+02  0.7816164E-02  0.1300439E+00
        -11   -1    0    0    0    0  0.00000000000E+00  0.00000000000E+00  0.45593999997E+02  0.45594000000E+02  0.51100000000E-03 0. -1.
         11   -1    0    0    0    0 -0.00000000000E+00 -0.00000000000E+00 -0.45593999997E+02  0.45594000000E+02  0.51100000000E-03 0.  1.
    9900012    2    1    2    0    0 -0.37155823912E+02  0.55715698061E+01  0.15542447697E+02  0.50528864236E+02  0.30000013331E+02 0.  0.
        -12    1    1    2    0    0  0.37155823912E+02 -0.55715698061E+01 -0.15542447697E+02  0.40659135764E+02  0.00000000000E+00 0.  1.
         11    1    3    3    0    0 -0.20969839841E+02  0.51339454898E+01  0.14246870139E+01  0.21636111310E+02  0.51100000000E-03 0. -1.
        -11    1    3    3    0    0 -0.74068172483E+01 -0.48600824107E+01  0.16168046069E+02  0.18436026056E+02  0.51100000000E-03 0.  1.
        -12    1    3    3    0    0 -0.87791668221E+01  0.52977067270E+01 -0.20502853859E+01  0.10456726869E+02  0.00000000000E+00 0.  1.
</event>
<event>
 7    1  0.9868142E-013  0.5052886E+02  0.7816164E-02  0.1300439E+00
        -11   -1    0    0    0    0  0.00000000000E+00  0.00000000000E+00  0.45593999997E+02  0.45594000000E+02  0.51100000000E-03 0.  1.
         11   -1    0    0    0    0 -0.00000000000E+00 -0.00000000000E+00 -0.45593999997E+02  0.45594000000E+02  0.51100000000E-03 0. -1.
    9900012    2    1    2    0    0 -0.37588757558E+02  0.16979145705E+01 -0.15406746025E+02  0.50528862876E+02  0.30000009197E+02 0.  0.
        -12    1    1    2    0    0  0.37588757558E+02 -0.16979145705E+01  0.15406746025E+02  0.40659137124E+02  0.00000000000E+00 0.  1.
         11    1    3    3    0    0 -0.33546861045E+02  0.32513142489E+01 -0.66726698806E+00  0.33710653744E+02  0.51100000000E-03 0. -1.
        -11    1    3    3    0    0  0.24458169217E+00 -0.14715007738E+01 -0.11084524125E+02  0.11184445005E+02  0.51100000000E-03 0.  1.
         12    1    3    3    0    0 -0.42864782047E+01 -0.81898904537E-01 -0.36549549123E+01  0.56337641272E+01  0.00000000000E+00 0. -1.
</event>
<event>
 7    1  0.9868142E-013  0.5052886E+02  0.7816164E-02  0.1300439E+00
        -11   -1    0    0    0    0  0.00000000000E+00  0.00000000000E+00  0.45593999997E+02  0.45594000000E+02  0.51100000000E-03 0. -1.
         11   -1    0    0    0    0 -0.00000000000E+00 -0.00000000000E+00 -0.45593999997E+02  0.45594000000E+02  0.51100000000E-03 0.  1.
    9900012    2    1    2    0    0  0.27673080316E+02  0.27941111166E+02  0.10327656539E+02  0.50528861335E+02  0.30000004514E+02 0.  0.
        -12    1    1    2    0    0 -0.27673080316E+02 -0.27941111166E+02 -0.10327656539E+02  0.40659138665E+02  0.00000000000E+00 0.  1.
         11    1    3    3    0    0  0.33203307293E+01  0.20695589782E+01  0.11276099096E+01  0.40717532938E+01  0.51100000000E-03 0. -1.
        -11    1    3    3    0    0  0.28527059385E+02  0.12072868532E+02  0.45468368723E+01  0.31308481240E+02  0.51100000000E-03 0.  1.
        -12    1    3    3    0    0 -0.41743097981E+01  0.13798683656E+02  0.46532097567E+01  0.15148626801E+02  0.00000000000E+00 0.  1.
</event>
<event>
 7    1  0.9868142E-013  0.5052887E+02  0.7816164E-02  0.1300439E+00
        -11   -1    0    0    0    0  0.00000000000E+00  0.00000000000E+00  0.45593999997E+02  0.45594000000E+02  0.51100000000E-03 0.  1.
         11   -1    0    0    0    0 -0.00000000000E+00 -0.00000000000E+00 -0.45593999997E+02  0.45594000000E+02  0.51100000000E-03 0. -1.
    9900012    2    1    2    0    0  0.12377182093E+02 -0.90323371680E+01 -0.37661484816E+02  0.50528865850E+02  0.30000018238E+02 0.  0.
        -12    1    1    2    0    0 -0.12377182093E+02  0.90323371680E+01  0.37661484816E+02  0.40659134150E+02  0.00000000000E+00 0.  1.
         11    1    3    3    0    0  0.19296573520E+01 -0.13290271412E+02 -0.27141754511E+02  0.30282498739E+02  0.51100000000E-03 0. -1.
        -11    1    3    3    0    0  0.69611654684E+01  0.61262219572E+01 -0.28884428358E+00  0.92774916561E+01  0.51100000000E-03 0.  1.
        -12    1    3    3    0    0  0.34863592724E+01 -0.18682877136E+01 -0.10230886021E+02  0.10968875455E+02  0.00000000000E+00 0.  1.
</event>
<event>
 7    1  0.9868142E-013  0.5052887E+02  0.7816164E-02  0.1300439E+00
        -11   -1    0    0    0    0  0.00000000000E+00  0.00000000000E+00  0.45593999997E+02  0.45594000000E+02  0.51100000000E-03 0. -1.
         11   -1    0    0    0    0 -0.00000000000E+00 -0.00000000000E+00 -0.45593999997E+02  0.45594000000E+02  0.51100000000E-03 0.  1.
    9900012    2    1    2    0    0  0.33207569719E+02 -0.23453022314E+02 -0.61455796068E+00  0.50528872811E+02  0.30000039397E+02 0.  0.
        -12    1    1    2    0    0 -0.33207569719E+02  0.23453022314E+02  0.61455796068E+00  0.40659127189E+02  0.00000000000E+00 0.  1.
         11    1    3    3    0    0  0.29396631791E+02 -0.10294514948E+02  0.42751905182E+01  0.31439087978E+02  0.51100000000E-03 0. -1.
        -11    1    3    3    0    0 -0.24762041773E+00 -0.11918185080E+02 -0.75223015041E+01  0.14095725297E+02  0.51100000000E-03 0.  1.
         12    1    3    3    0    0  0.40585583457E+01 -0.12403222852E+01  0.26325530252E+01  0.49940595358E+01  0.00000000000E+00 0. -1.
</event>
<event>
 7    1  0.1135484E-012  0.5052886E+02  0.7816164E-02  0.1300439E+00
        -11   -1    0    0    0    0  0.00000000000E+00  0.00000000000E+00  0.45593999997E+02  0.45594000000E+02  0.51100000000E-03 0. -1.
         11   -1    0    0    0    0 -0.00000000000E+00 -0.00000000000E+00 -0.45593999997E+02  0.45594000000E+02  0.51100000000E-03 0.  1.
    9900012    2    1    2    0    0  0.35073929645E+02 -0.12617485584E+02 -0.16241431943E+02  0.50528860871E+02  0.30000003103E+02 0.  0.
        -12    1    1    2    0    0 -0.35073929645E+02  0.12617485584E+02  0.16241431943E+02  0.40659139129E+02  0.00000000000E+00 0.  1.
         11    1    3    3    0    0  0.32844247374E+02 -0.75593906400E+01 -0.11626785696E+02  0.35652084347E+02  0.51100000000E-03 0. -1.
        -11    1    3    3    0    0 -0.54729488230E+00 -0.29811574813E+01 -0.88780320318E+01  0.93811664859E+01  0.51100000000E-03 0.  1.
        -12    1    3    3    0    0  0.27769771527E+01 -0.20769374625E+01  0.42633857855E+01  0.54956100376E+01  0.00000000000E+00 0.  1.
</event>
<event>
 7    1  0.9868142E-013  0.5052885E+02  0.7816164E-02  0.1300439E+00
        -11   -1    0    0    0    0  0.00000000000E+00  0.00000000000E+00  0.45593999997E+02  0.45594000000E+02  0.51100000000E-03 0. -1.
         11   -1    0    0    0    0 -0.00000000000E+00 -0.00000000000E+00 -0.45593999997E+02  0.45594000000E+02  0.51100000000E-03 0.  1.
    9900012    2    1    2    0    0  0.19037100655E+02  0.21860894809E+02  0.28510632889E+02  0.50528854523E+02  0.29999983809E+02 0.  0.
        -12    1    1    2    0    0 -0.19037100655E+02 -0.21860894809E+02 -0.28510632889E+02  0.40659145477E+02  0.00000000000E+00 0.  1.
         11    1    3    3    0    0  0.18167355869E+02  0.10075227820E+02  0.98304697340E+01  0.22982627577E+02  0.51100000000E-03 0. -1.
        -11    1    3    3    0    0 -0.15718232205E+01  0.15584980974E+02  0.13550483658E+02  0.20711780894E+02  0.51100000000E-03 0.  1.
        -12    1    3    3    0    0  0.24415680061E+01 -0.37993139854E+01  0.51296794975E+01  0.68344460518E+01  0.00000000000E+00 0.  1.
</event>
<event>
 7    1  0.9868142E-013  0.5052886E+02  0.7816164E-02  0.1300439E+00
        -11   -1    0    0    0    0  0.00000000000E+00  0.00000000000E+00  0.45593999997E+02  0.45594000000E+02  0.51100000000E-03 0.  1.
         11   -1    0    0    0    0 -0.00000000000E+00 -0.00000000000E+00 -0.45593999997E+02  0.45594000000E+02  0.51100000000E-03 0. -1.
    9900012    2    1    2    0    0 -0.32467445068E+02 -0.24357907339E+02 -0.23922937353E+01  0.50528859472E+02  0.29999998851E+02 0.  0.
        -12    1    1    2    0    0  0.32467445068E+02  0.24357907339E+02  0.23922937353E+01  0.40659140528E+02  0.00000000000E+00 0.  1.
         11    1    3    3    0    0 -0.26405670876E+02 -0.22256013560E+02 -0.88898862209E+01  0.35659776658E+02  0.51100000000E-03 0. -1.
        -11    1    3    3    0    0  0.17719468967E+01 -0.37868722536E+01  0.53259941188E+01  0.67709977761E+01  0.51100000000E-03 0.  1.
         12    1    3    3    0    0 -0.78337210883E+01  0.16849784746E+01  0.11715983668E+01  0.80980850380E+01  0.00000000000E+00 0. -1.
</event>
<event>
 7    1  0.9868142E-013  0.5052874E+02  0.7816164E-02  0.1300439E+00
        -11   -1    0    0    0    0  0.00000000000E+00  0.00000000000E+00  0.45593999997E+02  0.45594000000E+02  0.51100000000E-03 0.  1.
         11   -1    0    0    0    0 -0.00000000000E+00 -0.00000000000E+00 -0.45593999997E+02  0.45594000000E+02  0.51100000000E-03 0. -1.
    9900012    2    1    2    0    0  0.15153078721E+02  0.14929321993E+02 -0.34650751500E+02  0.50528744849E+02  0.29999650442E+02 0.  0.
        -12    1    1    2    0    0 -0.15153078721E+02 -0.14929321993E+02  0.34650751500E+02  0.40659255151E+02  0.00000000000E+00 0.  1.
         11    1    3    3    0    0  0.13237822208E+02  0.22499923014E+02 -0.30469842845E+02  0.40123531695E+02  0.51100000000E-03 0. -1.
        -11    1    3    3    0    0  0.31849719859E+01 -0.19157382101E+01 -0.19283759884E+01  0.41872107249E+01  0.51100000000E-03 0.  1.
         12    1    3    3    0    0 -0.12697154732E+01 -0.56548628108E+01 -0.22525326670E+01  0.62180024291E+01  0.00000000000E+00 0. -1.
</event>
<event>
 7    1  0.9868142E-013  0.5052886E+02  0.7816164E-02  0.1300439E+00
        -11   -1    0    0    0    0  0.00000000000E+00  0.00000000000E+00  0.45593999997E+02  0.45594000000E+02  0.51100000000E-03 0.  1.
         11   -1    0    0    0    0 -0.00000000000E+00 -0.00000000000E+00 -0.45593999997E+02  0.45594000000E+02  0.51100000000E-03 0. -1.
    9900012    2    1    2    0    0 -0.22587237010E+02 -0.11767174949E+02 -0.31694096675E+02  0.50528862699E+02  0.30000008659E+02 0.  0.
        -12    1    1    2    0    0  0.22587237010E+02  0.11767174949E+02  0.31694096675E+02  0.40659137301E+02  0.00000000000E+00 0.  1.
         11    1    3    3    0    0 -0.54856367687E+01  0.53195462183E+00  0.11888268545E+01  0.56381287701E+01  0.51100000000E-03 0. -1.
        -11    1    3    3    0    0 -0.21574469251E+02 -0.12752380309E+02 -0.31360320456E+02  0.40144123187E+02  0.51100000000E-03 0.  1.
        -12    1    3    3    0    0  0.44728690104E+01  0.45325073842E+00 -0.15226030736E+01  0.47466107420E+01  0.00000000000E+00 0.  1.
</event>
<event>
 7    1  0.9868142E-013  0.5052886E+02  0.7816164E-02  0.1300439E+00
        -11   -1    0    0    0    0  0.00000000000E+00  0.00000000000E+00  0.45593999997E+02  0.45594000000E+02  0.51100000000E-03 0.  1.
         11   -1    0    0    0    0 -0.00000000000E+00 -0.00000000000E+00 -0.45593999997E+02  0.45594000000E+02  0.51100000000E-03 0. -1.
    9900012    2    1    2    0    0 -0.26166815519E+02 -0.15851603912E+02 -0.26780404672E+02  0.50528860125E+02  0.30000000836E+02 0.  0.
        -12    1    1    2    0    0  0.26166815519E+02  0.15851603912E+02  0.26780404672E+02  0.40659139875E+02  0.00000000000E+00 0.  1.
         11    1    3    3    0    0 -0.66220505705E+00 -0.84040433449E+00 -0.83162109755E+01  0.83847576133E+01  0.51100000000E-03 0. -1.
        -11    1    3    3    0    0 -0.53922386128E+01 -0.14832260934E+02 -0.15384353486E+01  0.15856827718E+02  0.51100000000E-03 0.  1.
        -12    1    3    3    0    0 -0.20112371849E+02 -0.17893864272E+00 -0.16925758348E+02  0.26287274794E+02  0.00000000000E+00 0.  1.
</event>
<event>
 7    1  0.9868142E-013  0.5052886E+02  0.7816164E-02  0.1300439E+00
        -11   -1    0    0    0    0  0.00000000000E+00  0.00000000000E+00  0.45593999997E+02  0.45594000000E+02  0.51100000000E-03 0.  1.
         11   -1    0    0    0    0 -0.00000000000E+00 -0.00000000000E+00 -0.45593999997E+02  0.45594000000E+02  0.51100000000E-03 0. -1.
    9900012    2    1    2    0    0  0.99149975641E+01 -0.39333017333E+02  0.27878953740E+01  0.50528858472E+02  0.29999995811E+02 0.  0.
        -12    1    1    2    0    0 -0.99149975641E+01  0.39333017333E+02 -0.27878953740E+01  0.40659141528E+02  0.00000000000E+00 0.  1.
         11    1    3    3    0    0  0.17580205818E+02 -0.23296873807E+02  0.96289417752E+01  0.30733117085E+02  0.51100000000E-03 0. -1.
        -11    1    3    3    0    0 -0.77738957892E+01 -0.12006903986E+02 -0.66131920140E+01  0.15758601078E+02  0.51100000000E-03 0.  1.
         12    1    3    3    0    0  0.10868753537E+00 -0.40292395400E+01 -0.22785438722E+00  0.40371403088E+01  0.00000000000E+00 0. -1.
</event>
<event>
 7    1  0.9868142E-013  0.5052886E+02  0.7816164E-02  0.1300439E+00
        -11   -1    0    0    0    0  0.00000000000E+00  0.00000000000E+00  0.45593999997E+02  0.45594000000E+02  0.51100000000E-03 0. -1.
         11   -1    0    0    0    0 -0.00000000000E+00 -0.00000000000E+00 -0.45593999997E+02  0.45594000000E+02  0.51100000000E-03 0.  1.
    9900012    2    1    2    0    0  0.15552956681E+02 -0.21553298027E+02  0.30768922161E+02  0.50528859720E+02  0.29999999606E+02 0.  0.
        -12    1    1    2    0    0 -0.15552956681E+02  0.21553298027E+02 -0.30768922161E+02  0.40659140280E+02  0.00000000000E+00 0.  1.
         11    1    3    3    0    0  0.60995844410E+01  0.16020650601E+00  0.11028472002E+02  0.12603880015E+02  0.51100000000E-03 0. -1.
        -11    1    3    3    0    0 -0.28552296410E+01 -0.17697176092E+02  0.16970237776E+02  0.24684637903E+02  0.51100000000E-03 0.  1.
        -12    1    3    3    0    0  0.12308601881E+02 -0.40163284411E+01  0.27702123823E+01  0.13240341802E+02  0.00000000000E+00 0.  1.
</event>
<event>
 7    1  0.9868142E-013  0.5052885E+02  0.7816164E-02  0.1300439E+00
        -11   -1    0    0    0    0  0.00000000000E+00  0.00000000000E+00  0.45593999997E+02  0.45594000000E+02  0.51100000000E-03 0.  1.
         11   -1    0    0    0    0 -0.00000000000E+00 -0.00000000000E+00 -0.45593999997E+02  0.45594000000E+02  0.51100000000E-03 0. -1.
    9900012    2    1    2    0    0 -0.31299836433E+02  0.38340003524E+01 -0.25666853624E+02  0.50528847347E+02  0.29999961997E+02 0.  0.
        -12    1    1    2    0    0  0.31299836433E+02 -0.38340003524E+01  0.25666853624E+02  0.40659152653E+02  0.00000000000E+00 0.  1.
         11    1    3    3    0    0 -0.13953502693E+02  0.93573501400E+01 -0.28396027226E+01  0.17038884439E+02  0.51100000000E-03 0. -1.
        -11    1    3    3    0    0 -0.15401302042E+02 -0.96354099592E+01 -0.12071850673E+02  0.21812171111E+02  0.51100000000E-03 0.  1.
         12    1    3    3    0    0 -0.19450316980E+01  0.41120601716E+01 -0.10755400229E+02  0.11677791797E+02  0.00000000000E+00 0. -1.
</event>
<event>
 7    1  0.9868142E-013  0.5052885E+02  0.7816164E-02  0.1300439E+00
        -11   -1    0    0    0    0  0.00000000000E+00  0.00000000000E+00  0.45593999997E+02  0.45594000000E+02  0.51100000000E-03 0.  1.
         11   -1    0    0    0    0 -0.00000000000E+00 -0.00000000000E+00 -0.45593999997E+02  0.45594000000E+02  0.51100000000E-03 0. -1.
    9900012    2    1    2    0    0  0.25830326213E+02  0.10940988101E+02 -0.29432213867E+02  0.50528853600E+02  0.29999981001E+02 0.  0.
        -12    1    1    2    0    0 -0.25830326213E+02 -0.10940988101E+02  0.29432213867E+02  0.40659146400E+02  0.00000000000E+00 0.  1.
         11    1    3    3    0    0  0.12284444923E+02 -0.28332548668E+01 -0.28437082848E+02  0.31106311279E+02  0.51100000000E-03 0. -1.
        -11    1    3    3    0    0  0.10143064245E+02  0.91888584509E+01 -0.63338066225E+00  0.13701023438E+02  0.51100000000E-03 0.  1.
         12    1    3    3    0    0  0.34028170449E+01  0.45853845168E+01 -0.36175035658E+00  0.57215188830E+01  0.00000000000E+00 0. -1.
</event>
<event>
 7    1  0.9868142E-013  0.5052886E+02  0.7816164E-02  0.1300439E+00
        -11   -1    0    0    0    0  0.00000000000E+00  0.00000000000E+00  0.45593999997E+02  0.45594000000E+02  0.51100000000E-03 0.  1.
         11   -1    0    0    0    0 -0.00000000000E+00 -0.00000000000E+00 -0.45593999997E+02  0.45594000000E+02  0.51100000000E-03 0. -1.
    9900012    2    1    2    0    0 -0.22488727112E+02 -0.19864687890E+02 -0.27437510709E+02  0.50528859994E+02  0.30000000439E+02 0.  0.
        -12    1    1    2    0    0  0.22488727112E+02  0.19864687890E+02  0.27437510709E+02  0.40659140006E+02  0.00000000000E+00 0.  1.
         11    1    3    3    0    0 -0.13839854588E+02  0.18868229661E+01  0.27627473107E+00  0.13970612152E+02  0.51100000000E-03 0. -1.
        -11    1    3    3    0    0 -0.20455138931E+01 -0.61746897086E+01 -0.48420493220E+01  0.81090296572E+01  0.51100000000E-03 0.  1.
         12    1    3    3    0    0 -0.66033586315E+01 -0.15576821147E+02 -0.22871736118E+02  0.28449218185E+02  0.00000000000E+00 0. -1.
</event>
<event>
 7    1  0.9868142E-013  0.5052885E+02  0.7816164E-02  0.1300439E+00
        -11   -1    0    0    0    0  0.00000000000E+00  0.00000000000E+00  0.45593999997E+02  0.45594000000E+02  0.51100000000E-03 0.  1.
         11   -1    0    0    0    0 -0.00000000000E+00 -0.00000000000E+00 -0.45593999997E+02  0.45594000000E+02  0.51100000000E-03 0. -1.
    9900012    2    1    2    0    0  0.38071405373E+02 -0.13174982936E+00  0.14272950848E+02  0.50528851079E+02  0.29999973340E+02 0.  0.
        -12    1    1    2    0    0 -0.38071405373E+02  0.13174982936E+00 -0.14272950848E+02  0.40659148921E+02  0.00000000000E+00 0.  1.
         11    1    3    3    0    0  0.23812952141E+02  0.62811644802E+01  0.60255659000E+01  0.25353839188E+02  0.51100000000E-03 0. -1.
        -11    1    3    3    0    0  0.14953528412E+02 -0.93011813839E+01  0.13462209983E+01  0.17661605203E+02  0.51100000000E-03 0.  1.
        -12    1    3    3    0    0 -0.69507518058E+00  0.28882670744E+01  0.69011639494E+01  0.75134066878E+01  0.00000000000E+00 0.  1.
</event>
<event>
 7    1  0.9868142E-013  0.5052885E+02  0.7816164E-02  0.1300439E+00
        -11   -1    0    0    0    0  0.00000000000E+00  0.00000000000E+00  0.45593999997E+02  0.45594000000E+02  0.51100000000E-03 0. -1.
         11   -1    0    0    0    0 -0.00000000000E+00 -0.00000000000E+00 -0.45593999997E+02  0.45594000000E+02  0.51100000000E-03 0.  1.
    9900012    2    1    2    0    0  0.35621938623E+01 -0.31491789242E+02 -0.25470455405E+02  0.50528854493E+02  0.29999983717E+02 0.  0.
        -12    1    1    2    0    0 -0.35621938623E+01  0.31491789242E+02  0.25470455405E+02  0.40659145507E+02  0.00000000000E+00 0.  1.
         11    1    3    3    0    0 -0.24933869285E+01 -0.84476342190E+01 -0.12679998474E+02  0.15438972240E+02  0.51100000000E-03 0. -1.
        -11    1    3    3    0    0  0.12619461120E+02 -0.17672109859E+02 -0.26603192261E+01  0.21877649885E+02  0.51100000000E-03 0.  1.
        -12    1    3    3    0    0 -0.65638803292E+01 -0.53720451641E+01 -0.10130137706E+02  0.13212232368E+02  0.00000000000E+00 0.  1.
</event>
<event>
 7    1  0.9868142E-013  0.5052887E+02  0.7816164E-02  0.1300439E+00
        -11   -1    0    0    0    0  0.00000000000E+00  0.00000000000E+00  0.45593999997E+02  0.45594000000E+02  0.51100000000E-03 0.  1.
         11   -1    0    0    0    0 -0.00000000000E+00 -0.00000000000E+00 -0.45593999997E+02  0.45594000000E+02  0.51100000000E-03 0. -1.
    9900012    2    1    2    0    0  0.20312045767E+01 -0.20927415198E+01 -0.40554405034E+02  0.50528866625E+02  0.30000020594E+02 0.  0.
        -12    1    1    2    0    0 -0.20312045767E+01  0.20927415198E+01  0.40554405034E+02  0.40659133375E+02  0.00000000000E+00 0.  1.
         11    1    3    3    0    0  0.80483944620E+01 -0.91407936366E+01 -0.97751027060E+01  0.15616766467E+02  0.51100000000E-03 0. -1.
        -11    1    3    3    0    0 -0.21507547519E+00  0.85013429377E+01 -0.25682156882E+02  0.27053507565E+02  0.51100000000E-03 0.  1.
        -12    1    3    3    0    0 -0.58021144102E+01 -0.14532908209E+01 -0.50971454463E+01  0.78585925928E+01  0.00000000000E+00 0.  1.
</event>
<event>
 7    1  0.9868142E-013  0.5052887E+02  0.7816164E-02  0.1300439E+00
        -11   -1    0    0    0    0  0.00000000000E+00  0.00000000000E+00  0.45593999997E+02  0.45594000000E+02  0.51100000000E-03 0. -1.
         11   -1    0    0    0    0 -0.00000000000E+00 -0.00000000000E+00 -0.45593999997E+02  0.45594000000E+02  0.51100000000E-03 0.  1.
    9900012    2    1    2    0    0  0.12685177056E+02 -0.13870899250E+02  0.36053427145E+02  0.50528866071E+02  0.30000018909E+02 0.  0.
        -12    1    1    2    0    0 -0.12685177056E+02  0.13870899250E+02 -0.36053427145E+02  0.40659133929E+02  0.00000000000E+00 0.  1.
         11    1    3    3    0    0 -0.18111023263E+01 -0.10128961175E+01  0.10921379669E+02  0.11116770409E+02  0.51100000000E-03 0. -1.
        -11    1    3    3    0    0  0.18826746700E+02 -0.11315855933E+02  0.11029695701E+02  0.24579446176E+02  0.51100000000E-03 0.  1.
        -12    1    3    3    0    0 -0.43304673180E+01 -0.15421471996E+01  0.14102351775E+02  0.14832649486E+02  0.00000000000E+00 0.  1.
</event>
<event>
 7    1  0.9868142E-013  0.5052893E+02  0.7816164E-02  0.1300439E+00
        -11   -1    0    0    0    0  0.00000000000E+00  0.00000000000E+00  0.45593999997E+02  0.45594000000E+02  0.51100000000E-03 0.  1.
         11   -1    0    0    0    0 -0.00000000000E+00 -0.00000000000E+00 -0.45593999997E+02  0.45594000000E+02  0.51100000000E-03 0. -1.
    9900012    2    1    2    0    0 -0.20717375185E+02  0.16097802358E+02 -0.31061409673E+02  0.50528929104E+02  0.30000210503E+02 0.  0.
        -12    1    1    2    0    0  0.20717375185E+02 -0.16097802358E+02  0.31061409673E+02  0.40659070896E+02  0.00000000000E+00 0.  1.
         11    1    3    3    0    0  0.65790736120E-01  0.15634952001E+01 -0.17857967069E+02  0.17926400469E+02  0.51100000000E-03 0. -1.
        -11    1    3    3    0    0 -0.10614241011E+02  0.33974487174E+01  0.18465804858E+01  0.11296664542E+02  0.51100000000E-03 0.  1.
        -12    1    3    3    0    0 -0.10168924910E+02  0.11136858440E+02 -0.15050023090E+02  0.21305864093E+02  0.00000000000E+00 0.  1.
</event>
<event>
 7    1  0.9868142E-013  0.5052887E+02  0.7816164E-02  0.1300439E+00
        -11   -1    0    0    0    0  0.00000000000E+00  0.00000000000E+00  0.45593999997E+02  0.45594000000E+02  0.51100000000E-03 0.  1.
         11   -1    0    0    0    0 -0.00000000000E+00 -0.00000000000E+00 -0.45593999997E+02  0.45594000000E+02  0.51100000000E-03 0. -1.
    9900012    2    1    2    0    0  0.37158159287E+02  0.10044627555E+02 -0.13097388452E+02  0.50528869062E+02  0.30000028001E+02 0.  0.
        -12    1    1    2    0    0 -0.37158159287E+02 -0.10044627555E+02  0.13097388452E+02  0.40659130938E+02  0.00000000000E+00 0.  1.
         11    1    3    3    0    0  0.13057270335E+02  0.73308294729E+01  0.58768788982E+01  0.16086363020E+02  0.51100000000E-03 0. -1.
        -11    1    3    3    0    0  0.11863688690E+02 -0.51431269891E+01 -0.14036751396E+02  0.19084791185E+02  0.51100000000E-03 0.  1.
         12    1    3    3    0    0  0.12237200262E+02  0.78569250714E+01 -0.49375159539E+01  0.15357714857E+02  0.00000000000E+00 0. -1.
</event>
<event>
 7    1  0.9868142E-013  0.5052886E+02  0.7816164E-02  0.1300439E+00
        -11   -1    0    0    0    0  0.00000000000E+00  0.00000000000E+00  0.45593999997E+02  0.45594000000E+02  0.51100000000E-03 0. -1.
         11   -1    0    0    0    0 -0.00000000000E+00 -0.00000000000E+00 -0.45593999997E+02  0.45594000000E+02  0.51100000000E-03 0.  1.
    9900012    2    1    2    0    0 -0.98686920151E+01 -0.34758916369E+02  0.18643826287E+02  0.50528860709E+02  0.30000002612E+02 0.  0.
        -12    1    1    2    0    0  0.98686920151E+01  0.34758916369E+02 -0.18643826287E+02  0.40659139291E+02  0.00000000000E+00 0.  1.
         11    1    3    3    0    0  0.12528998194E+01 -0.13380608446E+02  0.78719249220E+01  0.15574904256E+02  0.51100000000E-03 0. -1.
        -11    1    3    3    0    0 -0.10696508457E+02 -0.56542410432E+01  0.14403053393E+02  0.18810467358E+02  0.51100000000E-03 0.  1.
        -12    1    3    3    0    0 -0.42508337769E+00 -0.15724066879E+02 -0.36311520273E+01  0.16143489095E+02  0.00000000000E+00 0.  1.
</event>
<event>
 7    1  0.9868142E-013  0.5052886E+02  0.7816164E-02  0.1300439E+00
        -11   -1    0    0    0    0  0.00000000000E+00  0.00000000000E+00  0.45593999997E+02  0.45594000000E+02  0.51100000000E-03 0. -1.
         11   -1    0    0    0    0 -0.00000000000E+00 -0.00000000000E+00 -0.45593999997E+02  0.45594000000E+02  0.51100000000E-03 0.  1.
    9900012    2    1    2    0    0  0.32637438063E+02  0.22003907784E+02 -0.10187801669E+02  0.50528860512E+02  0.30000002013E+02 0.  0.
        -12    1    1    2    0    0 -0.32637438063E+02 -0.22003907784E+02  0.10187801669E+02  0.40659139488E+02  0.00000000000E+00 0.  1.
         11    1    3    3    0    0  0.35298626104E+01  0.54728491766E+00  0.53429310913E+00  0.36117752168E+01  0.51100000000E-03 0. -1.
        -11    1    3    3    0    0  0.22021431927E+02  0.27338612900E+01 -0.14550358571E+02  0.26535455460E+02  0.51100000000E-03 0.  1.
        -12    1    3    3    0    0  0.70861435254E+01  0.18722761576E+02  0.38282637927E+01  0.20381629836E+02  0.00000000000E+00 0.  1.
</event>
<event>
 7    1  0.9868142E-013  0.5052886E+02  0.7816164E-02  0.1300439E+00
        -11   -1    0    0    0    0  0.00000000000E+00  0.00000000000E+00  0.45593999997E+02  0.45594000000E+02  0.51100000000E-03 0.  1.
         11   -1    0    0    0    0 -0.00000000000E+00 -0.00000000000E+00 -0.45593999997E+02  0.45594000000E+02  0.51100000000E-03 0. -1.
    9900012    2    1    2    0    0  0.33652191174E+02  0.12119527586E+02 -0.19334240506E+02  0.50528858646E+02  0.29999996340E+02 0.  0.
        -12    1    1    2    0    0 -0.33652191174E+02 -0.12119527586E+02  0.19334240506E+02  0.40659141354E+02  0.00000000000E+00 0.  1.
         11    1    3    3    0    0  0.65377916217E+01 -0.18620982817E+01 -0.15076043772E+02  0.16537751521E+02  0.51100000000E-03 0. -1.
        -11    1    3    3    0    0  0.13204451966E+02  0.14283308642E+02 -0.49126081635E+01  0.20062506740E+02  0.51100000000E-03 0.  1.
        -12    1    3    3    0    0  0.13909947587E+02 -0.30168277419E+00  0.65441142937E+00  0.13928600385E+02  0.00000000000E+00 0.  1.
</event>
<event>
 7    1  0.9868142E-013  0.5052886E+02  0.7816164E-02  0.1300439E+00
        -11   -1    0    0    0    0  0.00000000000E+00  0.00000000000E+00  0.45593999997E+02  0.45594000000E+02  0.51100000000E-03 0.  1.
         11   -1    0    0    0    0 -0.00000000000E+00 -0.00000000000E+00 -0.45593999997E+02  0.45594000000E+02  0.51100000000E-03 0. -1.
    9900012    2    1    2    0    0  0.15304977222E+02  0.37349001136E+02 -0.48964795029E+01  0.50528859267E+02  0.29999998228E+02 0.  0.
        -12    1    1    2    0    0 -0.15304977222E+02 -0.37349001136E+02  0.48964795029E+01  0.40659140733E+02  0.00000000000E+00 0.  1.
         11    1    3    3    0    0  0.37910040303E+01  0.17790368469E+02 -0.14440162325E+02  0.23224711195E+02  0.51100000000E-03 0. -1.
        -11    1    3    3    0    0  0.12372131822E+02  0.20545707263E+02  0.99035874049E+01  0.25947577469E+02  0.51100000000E-03 0.  1.
         12    1    3    3    0    0 -0.85815863099E+00 -0.98707459579E+00 -0.35990458241E+00  0.13565706034E+01  0.00000000000E+00 0. -1.
</event>
<event>
 7    1  0.9868142E-013  0.5052885E+02  0.7816164E-02  0.1300439E+00
        -11   -1    0    0    0    0  0.00000000000E+00  0.00000000000E+00  0.45593999997E+02  0.45594000000E+02  0.51100000000E-03 0.  1.
         11   -1    0    0    0    0 -0.00000000000E+00 -0.00000000000E+00 -0.45593999997E+02  0.45594000000E+02  0.51100000000E-03 0. -1.
    9900012    2    1    2    0    0 -0.83308828771E+01 -0.30572821326E+02 -0.25476755602E+02  0.50528854788E+02  0.29999984615E+02 0.  0.
        -12    1    1    2    0    0  0.83308828771E+01  0.30572821326E+02  0.25476755602E+02  0.40659145212E+02  0.00000000000E+00 0.  1.
         11    1    3    3    0    0  0.87539954614E+01 -0.26849808031E+01 -0.90212628156E+01  0.12853977653E+02  0.51100000000E-03 0. -1.
        -11    1    3    3    0    0 -0.93534033027E+01 -0.22597494712E+02 -0.12937571194E+02  0.27667917689E+02  0.51100000000E-03 0.  1.
        -12    1    3    3    0    0 -0.77314750358E+01 -0.52903458106E+01 -0.35179215925E+01  0.10006959446E+02  0.00000000000E+00 0.  1.
</event>
<event>
 7    1  0.9868142E-013  0.5052886E+02  0.7816164E-02  0.1300439E+00
        -11   -1    0    0    0    0  0.00000000000E+00  0.00000000000E+00  0.45593999997E+02  0.45594000000E+02  0.51100000000E-03 0. -1.
         11   -1    0    0    0    0 -0.00000000000E+00 -0.00000000000E+00 -0.45593999997E+02  0.45594000000E+02  0.51100000000E-03 0.  1.
    9900012    2    1    2    0    0  0.34588879006E+02  0.38443629459E+00  0.21368838310E+02  0.50528860893E+02  0.30000003172E+02 0.  0.
        -12    1    1    2    0    0 -0.34588879006E+02 -0.38443629459E+00 -0.21368838310E+02  0.40659139107E+02  0.00000000000E+00 0.  1.
         11    1    3    3    0    0  0.23107382086E+02  0.26339165715E+01  0.79175260562E+01  0.24567780577E+02  0.51100000000E-03 0. -1.
        -11    1    3    3    0    0  0.12826464120E+01 -0.84918136325E+01  0.91545284683E+00  0.86367896098E+01  0.51100000000E-03 0.  1.
         12    1    3    3    0    0  0.10198850508E+02  0.62423333556E+01  0.12535859407E+02  0.17324290706E+02  0.00000000000E+00 0. -1.
</event>
<event>
 7    1  0.9868142E-013  0.5052886E+02  0.7816164E-02  0.1300439E+00
        -11   -1    0    0    0    0  0.00000000000E+00  0.00000000000E+00  0.45593999997E+02  0.45594000000E+02  0.51100000000E-03 0.  1.
         11   -1    0    0    0    0 -0.00000000000E+00 -0.00000000000E+00 -0.45593999997E+02  0.45594000000E+02  0.51100000000E-03 0. -1.
    9900012    2    1    2    0    0 -0.33446564479E+02  0.22175869456E+02 -0.65363307794E+01  0.50528862261E+02  0.30000007328E+02 0.  0.
        -12    1    1    2    0    0  0.33446564479E+02 -0.22175869456E+02  0.65363307794E+01  0.40659137739E+02  0.00000000000E+00 0.  1.
         11    1    3    3    0    0  0.24179817425E+01 -0.74514447010E+00  0.15963218212E+01  0.29916750503E+01  0.51100000000E-03 0. -1.
        -11    1    3    3    0    0 -0.29955287282E+02  0.25561232890E+02 -0.34122745342E+01  0.39526440274E+02  0.51100000000E-03 0.  1.
        -12    1    3    3    0    0 -0.59092589399E+01 -0.26402189630E+01 -0.47203780664E+01  0.80107469365E+01  0.00000000000E+00 0.  1.
</event>
<event>
 7    1  0.9868142E-013  0.5052885E+02  0.7816164E-02  0.1300439E+00
        -11   -1    0    0    0    0  0.00000000000E+00  0.00000000000E+00  0.45593999997E+02  0.45594000000E+02  0.51100000000E-03 0.  1.
         11   -1    0    0    0    0 -0.00000000000E+00 -0.00000000000E+00 -0.45593999997E+02  0.45594000000E+02  0.51100000000E-03 0. -1.
    9900012    2    1    2    0    0 -0.22385403827E+02 -0.33579452512E+02  0.49477488243E+01  0.50528853994E+02  0.29999982200E+02 0.  0.
        -12    1    1    2    0    0  0.22385403827E+02  0.33579452512E+02 -0.49477488243E+01  0.40659146006E+02  0.00000000000E+00 0.  1.
         11    1    3    3    0    0 -0.79812395408E+01 -0.42598948619E+01  0.12813623141E+02  0.15685529226E+02  0.51100000000E-03 0.  1.
        -11    1    3    3    0    0 -0.35742430605E+01 -0.15066426873E+02 -0.67968166684E+01  0.16910622379E+02  0.51100000000E-03 0. -1.
        -12    1    3    3    0    0 -0.10829921226E+02 -0.14253130778E+02 -0.10690576480E+01  0.17932702389E+02  0.00000000000E+00 0.  1.
</event>
<event>
 7    1  0.9868142E-013  0.5052888E+02  0.7816164E-02  0.1300439E+00
        -11   -1    0    0    0    0  0.00000000000E+00  0.00000000000E+00  0.45593999997E+02  0.45594000000E+02  0.51100000000E-03 0. -1.
         11   -1    0    0    0    0 -0.00000000000E+00 -0.00000000000E+00 -0.45593999997E+02  0.45594000000E+02  0.51100000000E-03 0.  1.
    9900012    2    1    2    0    0  0.24443577725E+00  0.29242777325E+02  0.28248265441E+02  0.50528877101E+02  0.30000052435E+02 0.  0.
        -12    1    1    2    0    0 -0.24443577725E+00 -0.29242777325E+02 -0.28248265441E+02  0.40659122899E+02  0.00000000000E+00 0.  1.
         11    1    3    3    0    0 -0.11149148996E+02  0.17278712100E+01  0.72601055236E+01  0.13416340587E+02  0.51100000000E-03 0. -1.
        -11    1    3    3    0    0  0.72119571138E+01  0.18785078670E+02  0.17957078870E+02  0.26969393539E+02  0.51100000000E-03 0.  1.
         12    1    3    3    0    0  0.41816276598E+01  0.87298274445E+01  0.30310810478E+01  0.10143142975E+02  0.00000000000E+00 0. -1.
</event>
<event>
 7    1  0.9868142E-013  0.5052889E+02  0.7816164E-02  0.1300439E+00
        -11   -1    0    0    0    0  0.00000000000E+00  0.00000000000E+00  0.45593999997E+02  0.45594000000E+02  0.51100000000E-03 0.  1.
         11   -1    0    0    0    0 -0.00000000000E+00 -0.00000000000E+00 -0.45593999997E+02  0.45594000000E+02  0.51100000000E-03 0. -1.
    9900012    2    1    2    0    0  0.29841933008E+02 -0.27123627999E+02  0.51895326420E+01  0.50528887731E+02  0.30000084748E+02 0.  0.
        -12    1    1    2    0    0 -0.29841933008E+02  0.27123627999E+02 -0.51895326420E+01  0.40659112269E+02  0.00000000000E+00 0.  1.
         11    1    3    3    0    0  0.18491982489E+02 -0.21967041726E+02  0.82201205066E+01  0.29867619925E+02  0.51100000000E-03 0. -1.
        -11    1    3    3    0    0  0.14164097707E+02  0.11443514872E+00 -0.50311051454E+00  0.14173492149E+02  0.51100000000E-03 0.  1.
         12    1    3    3    0    0 -0.28141471884E+01 -0.52710214215E+01 -0.25274773500E+01  0.64877756573E+01  0.00000000000E+00 0. -1.
</event>
<event>
 7    1  0.9868142E-013  0.5052886E+02  0.7816164E-02  0.1300439E+00
        -11   -1    0    0    0    0  0.00000000000E+00  0.00000000000E+00  0.45593999997E+02  0.45594000000E+02  0.51100000000E-03 0. -1.
         11   -1    0    0    0    0 -0.00000000000E+00 -0.00000000000E+00 -0.45593999997E+02  0.45594000000E+02  0.51100000000E-03 0.  1.
    9900012    2    1    2    0    0 -0.16475504944E+02  0.37116139332E+02 -0.20287056028E+01  0.50528859471E+02  0.29999998849E+02 0.  0.
        -12    1    1    2    0    0  0.16475504944E+02 -0.37116139332E+02  0.20287056028E+01  0.40659140529E+02  0.00000000000E+00 0.  1.
         11    1    3    3    0    0 -0.18159572395E+02  0.32061024002E+02  0.51100789739E+01  0.37199358019E+02  0.51100000000E-03 0. -1.
        -11    1    3    3    0    0  0.28075306726E+00  0.98213766294E+00 -0.86907121164E+01  0.87505367849E+01  0.51100000000E-03 0.  1.
        -12    1    3    3    0    0  0.14033143840E+01  0.40729776677E+01  0.15519275397E+01  0.45789646679E+01  0.00000000000E+00 0.  1.
</event>
<event>
 7    1  0.9868142E-013  0.5052887E+02  0.7816164E-02  0.1300439E+00
        -11   -1    0    0    0    0  0.00000000000E+00  0.00000000000E+00  0.45593999997E+02  0.45594000000E+02  0.51100000000E-03 0.  1.
         11   -1    0    0    0    0 -0.00000000000E+00 -0.00000000000E+00 -0.45593999997E+02  0.45594000000E+02  0.51100000000E-03 0. -1.
    9900012    2    1    2    0    0  0.95480467092E+00  0.12266758188E+02 -0.38752809235E+02  0.50528865332E+02  0.30000016662E+02 0.  0.
        -12    1    1    2    0    0 -0.95480467092E+00 -0.12266758188E+02  0.38752809235E+02  0.40659134668E+02  0.00000000000E+00 0.  1.
         11    1    3    3    0    0  0.65157077136E+01  0.13780620056E+02 -0.65662886019E+01  0.16597472169E+02  0.51100000000E-03 0. -1.
        -11    1    3    3    0    0 -0.17558845725E+01 -0.31644533742E+01 -0.38154740115E+01  0.52587772326E+01  0.51100000000E-03 0.  1.
         12    1    3    3    0    0 -0.38050184702E+01  0.16505915064E+01 -0.28371046621E+02  0.28672615930E+02  0.00000000000E+00 0. -1.
</event>
<event>
 7    1  0.9868142E-013  0.5052885E+02  0.7816164E-02  0.1300439E+00
        -11   -1    0    0    0    0  0.00000000000E+00  0.00000000000E+00  0.45593999997E+02  0.45594000000E+02  0.51100000000E-03 0.  1.
         11   -1    0    0    0    0 -0.00000000000E+00 -0.00000000000E+00 -0.45593999997E+02  0.45594000000E+02  0.51100000000E-03 0. -1.
    9900012    2    1    2    0    0 -0.64391799687E+01  0.38392867745E+02 -0.11734180417E+02  0.50528851923E+02  0.29999975904E+02 0.  0.
        -12    1    1    2    0    0  0.64391799687E+01 -0.38392867745E+02  0.11734180417E+02  0.40659148077E+02  0.00000000000E+00 0.  1.
         11    1    3    3    0    0 -0.15275877654E+02  0.30013100823E+02 -0.42255826113E+01  0.33941040169E+02  0.51100000000E-03 0. -1.
        -11    1    3    3    0    0 -0.24846077131E+00 -0.14089215726E+01 -0.59688350235E+00  0.15501815794E+01  0.51100000000E-03 0.  1.
         12    1    3    3    0    0  0.90851584570E+01  0.97886884942E+01 -0.69117143036E+01  0.15037630174E+02  0.00000000000E+00 0. -1.
</event>
<event>
 7    1  0.9868142E-013  0.5052885E+02  0.7816164E-02  0.1300439E+00
        -11   -1    0    0    0    0  0.00000000000E+00  0.00000000000E+00  0.45593999997E+02  0.45594000000E+02  0.51100000000E-03 0.  1.
         11   -1    0    0    0    0 -0.00000000000E+00 -0.00000000000E+00 -0.45593999997E+02  0.45594000000E+02  0.51100000000E-03 0. -1.
    9900012    2    1    2    0    0  0.38007549152E+01  0.15534462605E+02 -0.37381828903E+02  0.50528850986E+02  0.29999973058E+02 0.  0.
        -12    1    1    2    0    0 -0.38007549152E+01 -0.15534462605E+02  0.37381828903E+02  0.40659149014E+02  0.00000000000E+00 0.  1.
         11    1    3    3    0    0  0.13790651335E+01  0.84678142387E+01 -0.26014633464E+02  0.27392824848E+02  0.51100000000E-03 0. -1.
        -11    1    3    3    0    0  0.20480878421E+01  0.56513376278E+01  0.43062806040E+01  0.73943447103E+01  0.51100000000E-03 0.  1.
         12    1    3    3    0    0  0.37360193956E+00  0.14153107388E+01 -0.15673476044E+02  0.15741681428E+02  0.00000000000E+00 0. -1.
</event>
<event>
 7    1  0.9868142E-013  0.5052886E+02  0.7816164E-02  0.1300439E+00
        -11   -1    0    0    0    0  0.00000000000E+00  0.00000000000E+00  0.45593999997E+02  0.45594000000E+02  0.51100000000E-03 0.  1.
         11   -1    0    0    0    0 -0.00000000000E+00 -0.00000000000E+00 -0.45593999997E+02  0.45594000000E+02  0.51100000000E-03 0. -1.
    9900012    2    1    2    0    0  0.35426181305E+02  0.36416275825E+01 -0.19618602126E+02  0.50528864216E+02  0.30000013270E+02 0.  0.
        -12    1    1    2    0    0 -0.35426181305E+02 -0.36416275825E+01  0.19618602126E+02  0.40659135784E+02  0.00000000000E+00 0.  1.
         11    1    3    3    0    0  0.20659936393E+02  0.57338981476E+01 -0.62172122585E+01  0.22324074186E+02  0.51100000000E-03 0. -1.
        -11    1    3    3    0    0  0.38474227185E+01 -0.75254283105E+01 -0.13594159759E+02  0.16007370572E+02  0.51100000000E-03 0.  1.
        -12    1    3    3    0    0  0.10918822194E+02  0.54331577454E+01  0.19276989089E+00  0.12197419458E+02  0.00000000000E+00 0.  1.
</event>
<event>
 7    1  0.9868142E-013  0.5052885E+02  0.7816164E-02  0.1300439E+00
        -11   -1    0    0    0    0  0.00000000000E+00  0.00000000000E+00  0.45593999997E+02  0.45594000000E+02  0.51100000000E-03 0.  1.
         11   -1    0    0    0    0 -0.00000000000E+00 -0.00000000000E+00 -0.45593999997E+02  0.45594000000E+02  0.51100000000E-03 0. -1.
    9900012    2    1    2    0    0 -0.22843773341E+02 -0.16079331920E+02 -0.29542904919E+02  0.50528854331E+02  0.29999983226E+02 0.  0.
        -12    1    1    2    0    0  0.22843773341E+02  0.16079331920E+02  0.29542904919E+02  0.40659145669E+02  0.00000000000E+00 0.  1.
         11    1    3    3    0    0 -0.12611850252E+02 -0.74607304165E+01 -0.21646606569E+02  0.26139947233E+02  0.51100000000E-03 0. -1.
        -11    1    3    3    0    0 -0.88316539858E+01 -0.67187596448E+01  0.43487150273E+01  0.11918521970E+02  0.51100000000E-03 0.  1.
        -12    1    3    3    0    0 -0.14002691024E+01 -0.18998418588E+01 -0.12245013377E+02  0.12470385129E+02  0.00000000000E+00 0.  1.
</event>
<event>
 7    1  0.9868142E-013  0.5052886E+02  0.7816164E-02  0.1300439E+00
        -11   -1    0    0    0    0  0.00000000000E+00  0.00000000000E+00  0.45593999997E+02  0.45594000000E+02  0.51100000000E-03 0.  1.
         11   -1    0    0    0    0 -0.00000000000E+00 -0.00000000000E+00 -0.45593999997E+02  0.45594000000E+02  0.51100000000E-03 0. -1.
    9900012    2    1    2    0    0  0.15525314839E+02  0.57701455693E+01 -0.37132675106E+02  0.50528861528E+02  0.30000005100E+02 0.  0.
        -12    1    1    2    0    0 -0.15525314839E+02 -0.57701455693E+01  0.37132675106E+02  0.40659138472E+02  0.00000000000E+00 0.  1.
         11    1    3    3    0    0  0.15601751159E+02  0.41576757223E+01 -0.23825989745E+02  0.28781568655E+02  0.51100000000E-03 0. -1.
        -11    1    3    3    0    0 -0.56449775659E+01  0.72793351470E+01 -0.79214383498E+01  0.12149225395E+02  0.51100000000E-03 0.  1.
        -12    1    3    3    0    0  0.55685412459E+01 -0.56668653001E+01 -0.53852470112E+01  0.95980674778E+01  0.00000000000E+00 0.  1.
</event>
<event>
 7    1  0.9868142E-013  0.5052887E+02  0.7816164E-02  0.1300439E+00
        -11   -1    0    0    0    0  0.00000000000E+00  0.00000000000E+00  0.45593999997E+02  0.45594000000E+02  0.51100000000E-03 0. -1.
         11   -1    0    0    0    0 -0.00000000000E+00 -0.00000000000E+00 -0.45593999997E+02  0.45594000000E+02  0.51100000000E-03 0.  1.
    9900012    2    1    2    0    0  0.25879387387E+02  0.30324176909E+02  0.79916723956E+01  0.50528865425E+02  0.30000016945E+02 0.  0.
        -12    1    1    2    0    0 -0.25879387387E+02 -0.30324176909E+02 -0.79916723956E+01  0.40659134575E+02  0.00000000000E+00 0.  1.
         11    1    3    3    0    0  0.17799600077E+00  0.10969292473E+02  0.45051851672E+01  0.11859753521E+02  0.51100000000E-03 0.  1.
        -11    1    3    3    0    0  0.17775494238E+02  0.19216191549E+02 -0.54344227002E+01  0.26735054954E+02  0.51100000000E-03 0. -1.
        -12    1    3    3    0    0  0.79258971482E+01  0.13869288748E+00  0.89209099286E+01  0.11934056950E+02  0.00000000000E+00 0.  1.
</event>
<event>
 7    1  0.9868142E-013  0.5052885E+02  0.7816164E-02  0.1300439E+00
        -11   -1    0    0    0    0  0.00000000000E+00  0.00000000000E+00  0.45593999997E+02  0.45594000000E+02  0.51100000000E-03 0.  1.
         11   -1    0    0    0    0 -0.00000000000E+00 -0.00000000000E+00 -0.45593999997E+02  0.45594000000E+02  0.51100000000E-03 0. -1.
    9900012    2    1    2    0    0 -0.14644818933E+02 -0.12431510619E+02 -0.35835081274E+02  0.50528853086E+02  0.29999979440E+02 0.  0.
        -12    1    1    2    0    0  0.14644818933E+02  0.12431510619E+02  0.35835081274E+02  0.40659146914E+02  0.00000000000E+00 0.  1.
         11    1    3    3    0    0  0.10988479430E+01 -0.56683069549E+01 -0.83275404938E+01  0.10133365752E+02  0.51100000000E-03 0. -1.
        -11    1    3    3    0    0 -0.14110253944E+02  0.46183566720E+01 -0.24268584512E+02  0.28449827401E+02  0.51100000000E-03 0.  1.
        -12    1    3    3    0    0 -0.16334129323E+01 -0.11381560336E+02 -0.32389562689E+01  0.11945659932E+02  0.00000000000E+00 0.  1.
</event>
<event>
 7    1  0.9868142E-013  0.5052886E+02  0.7816164E-02  0.1300439E+00
        -11   -1    0    0    0    0  0.00000000000E+00  0.00000000000E+00  0.45593999997E+02  0.45594000000E+02  0.51100000000E-03 0.  1.
         11   -1    0    0    0    0 -0.00000000000E+00 -0.00000000000E+00 -0.45593999997E+02  0.45594000000E+02  0.51100000000E-03 0. -1.
    9900012    2    1    2    0    0  0.18577340073E+02 -0.24326668619E+02 -0.26763064575E+02  0.50528855940E+02  0.29999988115E+02 0.  0.
        -12    1    1    2    0    0 -0.18577340073E+02  0.24326668619E+02  0.26763064575E+02  0.40659144060E+02  0.00000000000E+00 0.  1.
         11    1    3    3    0    0  0.20004876809E+02 -0.16607717148E+02 -0.15625749633E+02  0.30334393300E+02  0.51100000000E-03 0. -1.
        -11    1    3    3    0    0 -0.29043216041E+01  0.15397780813E+01 -0.10264648534E+02  0.10778172865E+02  0.51100000000E-03 0.  1.
         12    1    3    3    0    0  0.14767848676E+01 -0.92587295525E+01 -0.87266640817E+00  0.94162897753E+01  0.00000000000E+00 0. -1.
</event>
<event>
 7    1  0.9868142E-013  0.5052887E+02  0.7816164E-02  0.1300439E+00
        -11   -1    0    0    0    0  0.00000000000E+00  0.00000000000E+00  0.45593999997E+02  0.45594000000E+02  0.51100000000E-03 0. -1.
         11   -1    0    0    0    0 -0.00000000000E+00 -0.00000000000E+00 -0.45593999997E+02  0.45594000000E+02  0.51100000000E-03 0.  1.
    9900012    2    1    2    0    0  0.38874380342E+02 -0.26538707315E+01  0.11614846791E+02  0.50528866428E+02  0.30000019996E+02 0.  0.
        -12    1    1    2    0    0 -0.38874380342E+02  0.26538707315E+01 -0.11614846791E+02  0.40659133572E+02  0.00000000000E+00 0.  1.
         11    1    3    3    0    0  0.32587167355E+02  0.43584849840E+00  0.19759658872E+02  0.38112433131E+02  0.51100000000E-03 0. -1.
        -11    1    3    3    0    0  0.27004369574E+01 -0.46994822064E+01 -0.51201832361E+01  0.74561229470E+01  0.51100000000E-03 0.  1.
         12    1    3    3    0    0  0.35867760292E+01  0.16097629765E+01 -0.30246288449E+01  0.49603103505E+01  0.00000000000E+00 0. -1.
</event>
<event>
 7    1  0.9868142E-013  0.5052886E+02  0.7816164E-02  0.1300439E+00
        -11   -1    0    0    0    0  0.00000000000E+00  0.00000000000E+00  0.45593999997E+02  0.45594000000E+02  0.51100000000E-03 0.  1.
         11   -1    0    0    0    0 -0.00000000000E+00 -0.00000000000E+00 -0.45593999997E+02  0.45594000000E+02  0.51100000000E-03 0. -1.
    9900012    2    1    2    0    0  0.33699041995E+02 -0.14704630692E+02  0.17358397555E+02  0.50528861287E+02  0.30000004369E+02 0.  0.
        -12    1    1    2    0    0 -0.33699041995E+02  0.14704630692E+02 -0.17358397555E+02  0.40659138713E+02  0.00000000000E+00 0.  1.
         11    1    3    3    0    0  0.17822047486E+02 -0.15007174435E+02  0.15506599504E+02  0.27987413055E+02  0.51100000000E-03 0. -1.
        -11    1    3    3    0    0  0.76128153695E+01  0.21561922144E+00 -0.70617055444E+01  0.10386006690E+02  0.51100000000E-03 0.  1.
        -12    1    3    3    0    0  0.82641791401E+01  0.86924521765E-01  0.89135035960E+01  0.12155441542E+02  0.00000000000E+00 0.  1.
</event>
<event>
 7    1  0.9868142E-013  0.5052886E+02  0.7816164E-02  0.1300439E+00
        -11   -1    0    0    0    0  0.00000000000E+00  0.00000000000E+00  0.45593999997E+02  0.45594000000E+02  0.51100000000E-03 0. -1.
         11   -1    0    0    0    0 -0.00000000000E+00 -0.00000000000E+00 -0.45593999997E+02  0.45594000000E+02  0.51100000000E-03 0.  1.
    9900012    2    1    2    0    0 -0.26770089232E+02 -0.24514157129E+02  0.18318955200E+02  0.50528859615E+02  0.29999999285E+02 0.  0.
        -12    1    1    2    0    0  0.26770089232E+02  0.24514157129E+02 -0.18318955200E+02  0.40659140385E+02  0.00000000000E+00 0.  1.
         11    1    3    3    0    0  0.29056322316E+00 -0.93626181377E+01 -0.12813452956E+01  0.94543583286E+01  0.51100000000E-03 0. -1.
        -11    1    3    3    0    0 -0.21373743306E+02 -0.70542053941E+01  0.21353760953E+02  0.31025502797E+02  0.51100000000E-03 0.  1.
        -12    1    3    3    0    0 -0.56869091491E+01 -0.80973335977E+01 -0.17534604580E+01  0.10048998489E+02  0.00000000000E+00 0.  1.
</event>
<event>
 7    1  0.9868142E-013  0.5052886E+02  0.7816164E-02  0.1300439E+00
        -11   -1    0    0    0    0  0.00000000000E+00  0.00000000000E+00  0.45593999997E+02  0.45594000000E+02  0.51100000000E-03 0.  1.
         11   -1    0    0    0    0 -0.00000000000E+00 -0.00000000000E+00 -0.45593999997E+02  0.45594000000E+02  0.51100000000E-03 0. -1.
    9900012    2    1    2    0    0  0.14703542081E+02  0.36270899778E+02 -0.11017849674E+02  0.50528864103E+02  0.30000012927E+02 0.  0.
        -12    1    1    2    0    0 -0.14703542081E+02 -0.36270899778E+02  0.11017849674E+02  0.40659135897E+02  0.00000000000E+00 0.  1.
         11    1    3    3    0    0 -0.18115182351E+01  0.29505583784E+02 -0.25792329655E+01  0.29673447992E+02  0.51100000000E-03 0. -1.
        -11    1    3    3    0    0  0.11928025749E+02  0.67925960837E+01 -0.87159601557E+01  0.16259923786E+02  0.51100000000E-03 0.  1.
         12    1    3    3    0    0  0.45870345672E+01 -0.27280089789E-01  0.27734344717E+00  0.45954923253E+01  0.00000000000E+00 0. -1.
</event>
<event>
 7    1  0.9868142E-013  0.5052888E+02  0.7816164E-02  0.1300439E+00
        -11   -1    0    0    0    0  0.00000000000E+00  0.00000000000E+00  0.45593999997E+02  0.45594000000E+02  0.51100000000E-03 0.  1.
         11   -1    0    0    0    0 -0.00000000000E+00 -0.00000000000E+00 -0.45593999997E+02  0.45594000000E+02  0.51100000000E-03 0. -1.
    9900012    2    1    2    0    0 -0.13119703170E+02 -0.30582693358E+02 -0.23361000907E+02  0.50528879158E+02  0.30000058688E+02 0.  0.
        -12    1    1    2    0    0  0.13119703170E+02  0.30582693358E+02  0.23361000907E+02  0.40659120842E+02  0.00000000000E+00 0.  1.
         11    1    3    3    0    0 -0.10420804524E+02 -0.14830043530E+02 -0.19742002992E+02  0.26800560450E+02  0.51100000000E-03 0. -1.
        -11    1    3    3    0    0  0.71615952709E+01 -0.45500269361E+01 -0.19949537868E+01  0.87161363468E+01  0.51100000000E-03 0.  1.
         12    1    3    3    0    0 -0.98604939161E+01 -0.11202622891E+02 -0.16240441290E+01  0.15012182361E+02  0.00000000000E+00 0. -1.
</event>
<event>
 7    1  0.9868142E-013  0.5052886E+02  0.7816164E-02  0.1300439E+00
        -11   -1    0    0    0    0  0.00000000000E+00  0.00000000000E+00  0.45593999997E+02  0.45594000000E+02  0.51100000000E-03 0.  1.
         11   -1    0    0    0    0 -0.00000000000E+00 -0.00000000000E+00 -0.45593999997E+02  0.45594000000E+02  0.51100000000E-03 0. -1.
    9900012    2    1    2    0    0 -0.16601914210E+02 -0.35321756033E+02  0.11398064593E+02  0.50528857349E+02  0.29999992397E+02 0.  0.
        -12    1    1    2    0    0  0.16601914210E+02  0.35321756033E+02 -0.11398064593E+02  0.40659142651E+02  0.00000000000E+00 0.  1.
         11    1    3    3    0    0  0.78094761568E+00  0.30622219103E+01  0.17905761316E+01  0.36322507279E+01  0.51100000000E-03 0. -1.
        -11    1    3    3    0    0 -0.97495054302E+01 -0.34459110415E+02  0.12356915305E+02  0.37883723455E+02  0.51100000000E-03 0.  1.
         12    1    3    3    0    0 -0.76333563959E+01 -0.39248675283E+01 -0.27494268441E+01  0.90128831654E+01  0.00000000000E+00 0. -1.
</event>
<event>
 7    1  0.9868142E-013  0.5052885E+02  0.7816164E-02  0.1300439E+00
        -11   -1    0    0    0    0  0.00000000000E+00  0.00000000000E+00  0.45593999997E+02  0.45594000000E+02  0.51100000000E-03 0.  1.
         11   -1    0    0    0    0 -0.00000000000E+00 -0.00000000000E+00 -0.45593999997E+02  0.45594000000E+02  0.51100000000E-03 0. -1.
    9900012    2    1    2    0    0 -0.21967306819E+02  0.44907110901E+01 -0.33918093805E+02  0.50528854136E+02  0.29999982633E+02 0.  0.
        -12    1    1    2    0    0  0.21967306819E+02 -0.44907110901E+01  0.33918093805E+02  0.40659145864E+02  0.00000000000E+00 0.  1.
         11    1    3    3    0    0  0.36362619263E+01 -0.54283372850E+00  0.11602577485E+01  0.38552908525E+01  0.51100000000E-03 0.  1.
        -11    1    3    3    0    0 -0.18923880286E+02  0.10604391767E+02 -0.21454965492E+02  0.30510357493E+02  0.51100000000E-03 0. -1.
        -12    1    3    3    0    0 -0.66796884601E+01 -0.55708469489E+01 -0.13623386062E+02  0.16163205791E+02  0.00000000000E+00 0.  1.
</event>
<event>
 7    1  0.9868142E-013  0.5052885E+02  0.7816164E-02  0.1300439E+00
        -11   -1    0    0    0    0  0.00000000000E+00  0.00000000000E+00  0.45593999997E+02  0.45594000000E+02  0.51100000000E-03 0.  1.
         11   -1    0    0    0    0 -0.00000000000E+00 -0.00000000000E+00 -0.45593999997E+02  0.45594000000E+02  0.51100000000E-03 0. -1.
    9900012    2    1    2    0    0  0.62520737499E+01  0.70433864987E+01 -0.39553361903E+02  0.50528853951E+02  0.29999982071E+02 0.  0.
        -12    1    1    2    0    0 -0.62520737499E+01 -0.70433864987E+01  0.39553361903E+02  0.40659146049E+02  0.00000000000E+00 0.  1.
         11    1    3    3    0    0 -0.96010205305E+01  0.22456768911E+01 -0.10480242003E+02  0.14389514677E+02  0.51100000000E-03 0. -1.
        -11    1    3    3    0    0  0.80291928525E+01  0.24616425601E+01 -0.31644642571E+01  0.89744891917E+01  0.51100000000E-03 0.  1.
         12    1    3    3    0    0  0.78239014278E+01  0.23360670476E+01 -0.25908655643E+02  0.27164850083E+02  0.00000000000E+00 0. -1.
</event>
<event>
 7    1  0.9868142E-013  0.5052886E+02  0.7816164E-02  0.1300439E+00
        -11   -1    0    0    0    0  0.00000000000E+00  0.00000000000E+00  0.45593999997E+02  0.45594000000E+02  0.51100000000E-03 0. -1.
         11   -1    0    0    0    0 -0.00000000000E+00 -0.00000000000E+00 -0.45593999997E+02  0.45594000000E+02  0.51100000000E-03 0.  1.
    9900012    2    1    2    0    0  0.33932275968E+01 -0.40375941618E+02  0.33815189021E+01  0.50528864186E+02  0.30000013181E+02 0.  0.
        -12    1    1    2    0    0 -0.33932275968E+01  0.40375941618E+02 -0.33815189021E+01  0.40659135814E+02  0.00000000000E+00 0.  1.
         11    1    3    3    0    0  0.22813251452E+01 -0.26238373958E+02  0.12630347234E+02  0.29209285919E+02  0.51100000000E-03 0. -1.
        -11    1    3    3    0    0 -0.10393172503E+01  0.72621797853E+00 -0.57641693946E+01  0.59019676355E+01  0.51100000000E-03 0.  1.
         12    1    3    3    0    0  0.21512197019E+01 -0.14863785638E+02 -0.34846589368E+01  0.15417610632E+02  0.00000000000E+00 0. -1.
</event>
<event>
 7    1  0.9868142E-013  0.5052887E+02  0.7816164E-02  0.1300439E+00
        -11   -1    0    0    0    0  0.00000000000E+00  0.00000000000E+00  0.45593999997E+02  0.45594000000E+02  0.51100000000E-03 0.  1.
         11   -1    0    0    0    0 -0.00000000000E+00 -0.00000000000E+00 -0.45593999997E+02  0.45594000000E+02  0.51100000000E-03 0. -1.
    9900012    2    1    2    0    0 -0.32766312531E+02 -0.35703323851E+01 -0.23807276475E+02  0.50528869127E+02  0.30000028198E+02 0.  0.
        -12    1    1    2    0    0  0.32766312531E+02  0.35703323851E+01  0.23807276475E+02  0.40659130873E+02  0.00000000000E+00 0.  1.
         11    1    3    3    0    0 -0.25459117373E+02 -0.91043075261E+01 -0.28722125133E+02  0.39446362892E+02  0.51100000000E-03 0. -1.
        -11    1    3    3    0    0 -0.28327845420E+01  0.11112117820E+01  0.34928707170E+01  0.46324514021E+01  0.51100000000E-03 0.  1.
         12    1    3    3    0    0 -0.44744106154E+01  0.44227633590E+01  0.14219779411E+01  0.64500548331E+01  0.00000000000E+00 0. -1.
</event>
<event>
 7    1  0.9868142E-013  0.5052887E+02  0.7816164E-02  0.1300439E+00
        -11   -1    0    0    0    0  0.00000000000E+00  0.00000000000E+00  0.45593999997E+02  0.45594000000E+02  0.51100000000E-03 0.  1.
         11   -1    0    0    0    0 -0.00000000000E+00 -0.00000000000E+00 -0.45593999997E+02  0.45594000000E+02  0.51100000000E-03 0. -1.
    9900012    2    1    2    0    0 -0.61779744211E+01 -0.37322999109E+02 -0.14899363781E+02  0.50528872224E+02  0.30000037613E+02 0.  0.
        -12    1    1    2    0    0  0.61779744211E+01  0.37322999109E+02  0.14899363781E+02  0.40659127776E+02  0.00000000000E+00 0.  1.
         11    1    3    3    0    0 -0.63649500121E+00 -0.19032030350E+01 -0.88931520329E+01  0.91167681236E+01  0.51100000000E-03 0. -1.
        -11    1    3    3    0    0  0.76707007703E+00 -0.17686807281E+02  0.64500986872E+01  0.18841850271E+02  0.51100000000E-03 0.  1.
        -12    1    3    3    0    0 -0.63085494969E+01 -0.17732988792E+02 -0.12456310435E+02  0.22570253829E+02  0.00000000000E+00 0.  1.
</event>
<event>
 7    1  0.9868142E-013  0.5052886E+02  0.7816164E-02  0.1300439E+00
        -11   -1    0    0    0    0  0.00000000000E+00  0.00000000000E+00  0.45593999997E+02  0.45594000000E+02  0.51100000000E-03 0.  1.
         11   -1    0    0    0    0 -0.00000000000E+00 -0.00000000000E+00 -0.45593999997E+02  0.45594000000E+02  0.51100000000E-03 0. -1.
    9900012    2    1    2    0    0 -0.18621987770E+02  0.29641285475E+02 -0.20682871944E+02  0.50528862958E+02  0.30000009448E+02 0.  0.
        -12    1    1    2    0    0  0.18621987770E+02 -0.29641285475E+02  0.20682871944E+02  0.40659137042E+02  0.00000000000E+00 0.  1.
         11    1    3    3    0    0  0.30596614200E+01 -0.18481884998E+01  0.50155327636E+00  0.36095546382E+01  0.51100000000E-03 0. -1.
        -11    1    3    3    0    0 -0.13702867583E+02  0.22036386674E+02 -0.22673869823E+02  0.34459763358E+02  0.51100000000E-03 0.  1.
        -12    1    3    3    0    0 -0.79787816062E+01  0.94530873015E+01  0.14894446029E+01  0.12459544963E+02  0.00000000000E+00 0.  1.
</event>
<event>
 7    1  0.9868142E-013  0.5052886E+02  0.7816164E-02  0.1300439E+00
        -11   -1    0    0    0    0  0.00000000000E+00  0.00000000000E+00  0.45593999997E+02  0.45594000000E+02  0.51100000000E-03 0.  1.
         11   -1    0    0    0    0 -0.00000000000E+00 -0.00000000000E+00 -0.45593999997E+02  0.45594000000E+02  0.51100000000E-03 0. -1.
    9900012    2    1    2    0    0 -0.14129249476E+02  0.32182162179E+02 -0.20441097370E+02  0.50528859392E+02  0.29999998609E+02 0.  0.
        -12    1    1    2    0    0  0.14129249476E+02 -0.32182162179E+02  0.20441097370E+02  0.40659140608E+02  0.00000000000E+00 0.  1.
         11    1    3    3    0    0 -0.30476133681E+01  0.22298013805E+02 -0.20615473212E+02  0.30520273638E+02  0.51100000000E-03 0. -1.
        -11    1    3    3    0    0 -0.92410780011E+01 -0.28933529591E+00  0.21271349967E+01  0.94871460983E+01  0.51100000000E-03 0.  1.
        -12    1    3    3    0    0 -0.18405581066E+01  0.10173483670E+02 -0.19527591538E+01  0.10521439656E+02  0.00000000000E+00 0.  1.
</event>
<event>
 7    1  0.9868142E-013  0.5052886E+02  0.7816164E-02  0.1300439E+00
        -11   -1    0    0    0    0  0.00000000000E+00  0.00000000000E+00  0.45593999997E+02  0.45594000000E+02  0.51100000000E-03 0.  1.
         11   -1    0    0    0    0 -0.00000000000E+00 -0.00000000000E+00 -0.45593999997E+02  0.45594000000E+02  0.51100000000E-03 0. -1.
    9900012    2    1    2    0    0  0.11925343613E+02 -0.31454096500E+02 -0.22838373021E+02  0.50528864628E+02  0.30000014524E+02 0.  0.
        -12    1    1    2    0    0 -0.11925343613E+02  0.31454096500E+02  0.22838373021E+02  0.40659135372E+02  0.00000000000E+00 0.  1.
         11    1    3    3    0    0  0.88899300943E+01 -0.79809691023E+01 -0.15312696311E+02  0.19421776270E+02  0.51100000000E-03 0. -1.
        -11    1    3    3    0    0 -0.72858787571E+01 -0.12565648740E+02 -0.51447009446E+00  0.14534243608E+02  0.51100000000E-03 0.  1.
        -12    1    3    3    0    0  0.10321292276E+02 -0.10907478658E+02 -0.70112066153E+01  0.16572844750E+02  0.00000000000E+00 0.  1.
</event>
<event>
 7    1  0.9868142E-013  0.5052894E+02  0.7816164E-02  0.1300439E+00
        -11   -1    0    0    0    0  0.00000000000E+00  0.00000000000E+00  0.45593999997E+02  0.45594000000E+02  0.51100000000E-03 0. -1.
         11   -1    0    0    0    0 -0.00000000000E+00 -0.00000000000E+00 -0.45593999997E+02  0.45594000000E+02  0.51100000000E-03 0.  1.
    9900012    2    1    2    0    0 -0.10531569351E+02  0.23951620339E+02  0.31121783903E+02  0.50528935781E+02  0.30000230800E+02 0.  0.
        -12    1    1    2    0    0  0.10531569351E+02 -0.23951620339E+02 -0.31121783903E+02  0.40659064219E+02  0.00000000000E+00 0.  1.
         11    1    3    3    0    0 -0.70917991631E+01 -0.41209747975E+01  0.69558880726E+01  0.10754553816E+02  0.51100000000E-03 0. -1.
        -11    1    3    3    0    0 -0.47008795579E+01  0.11075004212E+02  0.26399525950E+01  0.12317602725E+02  0.51100000000E-03 0.  1.
         12    1    3    3    0    0  0.12611093699E+01  0.16997590924E+02  0.21525943235E+02  0.27456779240E+02  0.00000000000E+00 0. -1.
</event>
<event>
 7    1  0.9868142E-013  0.5052886E+02  0.7816164E-02  0.1300439E+00
        -11   -1    0    0    0    0  0.00000000000E+00  0.00000000000E+00  0.45593999997E+02  0.45594000000E+02  0.51100000000E-03 0.  1.
         11   -1    0    0    0    0 -0.00000000000E+00 -0.00000000000E+00 -0.45593999997E+02  0.45594000000E+02  0.51100000000E-03 0. -1.
    9900012    2    1    2    0    0 -0.19755732433E+02 -0.54340469267E+01 -0.35119048424E+02  0.50528863362E+02  0.30000010674E+02 0.  0.
        -12    1    1    2    0    0  0.19755732433E+02  0.54340469267E+01  0.35119048424E+02  0.40659136638E+02  0.00000000000E+00 0.  1.
         11    1    3    3    0    0  0.69349322683E+01  0.20943279447E+00 -0.15185426615E+02  0.16695338553E+02  0.51100000000E-03 0. -1.
        -11    1    3    3    0    0 -0.13783714951E+02 -0.37066099077E+01 -0.10933009399E+02  0.17979445198E+02  0.51100000000E-03 0.  1.
         12    1    3    3    0    0 -0.12906949751E+02 -0.19368698135E+01 -0.90006124098E+01  0.15854079610E+02  0.00000000000E+00 0. -1.
</event>
<event>
 7    1  0.9868142E-013  0.5052886E+02  0.7816164E-02  0.1300439E+00
        -11   -1    0    0    0    0  0.00000000000E+00  0.00000000000E+00  0.45593999997E+02  0.45594000000E+02  0.51100000000E-03 0.  1.
         11   -1    0    0    0    0 -0.00000000000E+00 -0.00000000000E+00 -0.45593999997E+02  0.45594000000E+02  0.51100000000E-03 0. -1.
    9900012    2    1    2    0    0  0.21819466144E+01 -0.10692244634E+02 -0.39167345219E+02  0.50528856897E+02  0.29999991024E+02 0.  0.
        -12    1    1    2    0    0 -0.21819466144E+01  0.10692244634E+02  0.39167345219E+02  0.40659143103E+02  0.00000000000E+00 0.  1.
         11    1    3    3    0    0 -0.80825056335E+00  0.52463552095E+01 -0.16322880650E+02  0.17164321861E+02  0.51100000000E-03 0. -1.
        -11    1    3    3    0    0  0.22585179782E+01 -0.11987466341E+02 -0.22780715089E+01  0.12409265200E+02  0.51100000000E-03 0.  1.
         12    1    3    3    0    0  0.73167919957E+00 -0.39511335017E+01 -0.20566393060E+02  0.20955269836E+02  0.00000000000E+00 0. -1.
</event>
<event>
 7    1  0.9868142E-013  0.5052886E+02  0.7816164E-02  0.1300439E+00
        -11   -1    0    0    0    0  0.00000000000E+00  0.00000000000E+00  0.45593999997E+02  0.45594000000E+02  0.51100000000E-03 0.  1.
         11   -1    0    0    0    0 -0.00000000000E+00 -0.00000000000E+00 -0.45593999997E+02  0.45594000000E+02  0.51100000000E-03 0. -1.
    9900012    2    1    2    0    0 -0.82406054423E+01  0.24201875315E+02 -0.31615304100E+02  0.50528858345E+02  0.29999995425E+02 0.  0.
        -12    1    1    2    0    0  0.82406054423E+01 -0.24201875315E+02  0.31615304100E+02  0.40659141655E+02  0.00000000000E+00 0.  1.
         11    1    3    3    0    0  0.56428274937E+01  0.16106026394E+02 -0.10944759051E+02  0.20273957169E+02  0.51100000000E-03 0. -1.
        -11    1    3    3    0    0 -0.14745618190E+02  0.11175203187E+02 -0.15318476061E+02  0.24020285826E+02  0.51100000000E-03 0.  1.
        -12    1    3    3    0    0  0.86218525402E+00 -0.30793542668E+01 -0.53520689878E+01  0.62346153501E+01  0.00000000000E+00 0.  1.
</event>
<event>
 7    1  0.9868142E-013  0.5052885E+02  0.7816164E-02  0.1300439E+00
        -11   -1    0    0    0    0  0.00000000000E+00  0.00000000000E+00  0.45593999997E+02  0.45594000000E+02  0.51100000000E-03 0.  1.
         11   -1    0    0    0    0 -0.00000000000E+00 -0.00000000000E+00 -0.45593999997E+02  0.45594000000E+02  0.51100000000E-03 0. -1.
    9900012    2    1    2    0    0 -0.44254691374E+01 -0.40030345485E+02 -0.55814769410E+01  0.50528853162E+02  0.29999979672E+02 0.  0.
        -12    1    1    2    0    0  0.44254691374E+01  0.40030345485E+02  0.55814769410E+01  0.40659146838E+02  0.00000000000E+00 0.  1.
         11    1    3    3    0    0  0.10048246676E+02 -0.10442156460E+02  0.11173564772E+01  0.14534592480E+02  0.51100000000E-03 0.  1.
        -11    1    3    3    0    0 -0.20934021399E+01 -0.80978504873E+01 -0.74221199727E+01  0.11182369167E+02  0.51100000000E-03 0. -1.
         12    1    3    3    0    0 -0.12380313674E+02 -0.21490338538E+02  0.72328655444E+00  0.24811891516E+02  0.00000000000E+00 0. -1.
</event>
<event>
 7    1  0.9868142E-013  0.5052888E+02  0.7816164E-02  0.1300439E+00
        -11   -1    0    0    0    0  0.00000000000E+00  0.00000000000E+00  0.45593999997E+02  0.45594000000E+02  0.51100000000E-03 0. -1.
         11   -1    0    0    0    0 -0.00000000000E+00 -0.00000000000E+00 -0.45593999997E+02  0.45594000000E+02  0.51100000000E-03 0.  1.
    9900012    2    1    2    0    0  0.35100917711E+02  0.19469504071E+02 -0.64828918598E+01  0.50528881714E+02  0.30000066459E+02 0.  0.
        -12    1    1    2    0    0 -0.35100917711E+02 -0.19469504071E+02  0.64828918598E+01  0.40659118286E+02  0.00000000000E+00 0.  1.
         11    1    3    3    0    0 -0.30522963096E+01  0.77263910934E+00  0.34949228476E+01  0.47040376196E+01  0.51100000000E-03 0. -1.
        -11    1    3    3    0    0  0.19630532765E+02  0.14459049243E+02 -0.38083514497E-01  0.24380799254E+02  0.51100000000E-03 0.  1.
         12    1    3    3    0    0  0.18522681256E+02  0.42378157189E+01 -0.99397311929E+01  0.21444044841E+02  0.00000000000E+00 0. -1.
</event>
<event>
 7    1  0.9868142E-013  0.5052882E+02  0.7816164E-02  0.1300439E+00
        -11   -1    0    0    0    0  0.00000000000E+00  0.00000000000E+00  0.45593999997E+02  0.45594000000E+02  0.51100000000E-03 0.  1.
         11   -1    0    0    0    0 -0.00000000000E+00 -0.00000000000E+00 -0.45593999997E+02  0.45594000000E+02  0.51100000000E-03 0. -1.
    9900012    2    1    2    0    0 -0.10497258404E+02 -0.16287942800E+02 -0.35744641661E+02  0.50528819952E+02  0.29999878727E+02 0.  0.
        -12    1    1    2    0    0  0.10497258404E+02  0.16287942800E+02  0.35744641661E+02  0.40659180048E+02  0.00000000000E+00 0.  1.
         11    1    3    3    0    0  0.21690994238E+01 -0.28378578633E+01 -0.29217418490E+01  0.46146511521E+01  0.51100000000E-03 0. -1.
        -11    1    3    3    0    0 -0.16934749171E+02 -0.17130748617E+02 -0.18044191252E+02  0.30097194485E+02  0.51100000000E-03 0.  1.
        -12    1    3    3    0    0  0.42683913434E+01  0.36806636801E+01 -0.14778708560E+02  0.15816974315E+02  0.00000000000E+00 0.  1.
</event>
<event>
 7    1  0.9868142E-013  0.5052884E+02  0.7816164E-02  0.1300439E+00
        -11   -1    0    0    0    0  0.00000000000E+00  0.00000000000E+00  0.45593999997E+02  0.45594000000E+02  0.51100000000E-03 0. -1.
         11   -1    0    0    0    0 -0.00000000000E+00 -0.00000000000E+00 -0.45593999997E+02  0.45594000000E+02  0.51100000000E-03 0.  1.
    9900012    2    1    2    0    0 -0.10906557194E+02 -0.19727704762E+02  0.33838317928E+02  0.50528842542E+02  0.29999947390E+02 0.  0.
        -12    1    1    2    0    0  0.10906557194E+02  0.19727704762E+02 -0.33838317928E+02  0.40659157458E+02  0.00000000000E+00 0.  1.
         11    1    3    3    0    0  0.34172323384E+01 -0.94071141462E+01  0.49947883627E+01  0.11185668709E+02  0.51100000000E-03 0. -1.
        -11    1    3    3    0    0 -0.79830120734E+01  0.52930729414E+01  0.76005668417E+01  0.12227580280E+02  0.51100000000E-03 0.  1.
        -12    1    3    3    0    0 -0.63407774592E+01 -0.15613663557E+02  0.21242962723E+02  0.27115593553E+02  0.00000000000E+00 0.  1.
</event>
<event>
 7    1  0.9868142E-013  0.5052886E+02  0.7816164E-02  0.1300439E+00
        -11   -1    0    0    0    0  0.00000000000E+00  0.00000000000E+00  0.45593999997E+02  0.45594000000E+02  0.51100000000E-03 0. -1.
         11   -1    0    0    0    0 -0.00000000000E+00 -0.00000000000E+00 -0.45593999997E+02  0.45594000000E+02  0.51100000000E-03 0.  1.
    9900012    2    1    2    0    0  0.29201427287E+02 -0.28064369942E+02  0.35823811060E+01  0.50528859942E+02  0.30000000281E+02 0.  0.
        -12    1    1    2    0    0 -0.29201427287E+02  0.28064369942E+02 -0.35823811060E+01  0.40659140058E+02  0.00000000000E+00 0.  1.
         11    1    3    3    0    0  0.56589489080E+01 -0.14246938253E+02 -0.98706525529E+01  0.18232628291E+02  0.51100000000E-03 0. -1.
        -11    1    3    3    0    0  0.26840303219E+01 -0.15359932891E+01  0.63613847909E+01  0.70732249273E+01  0.51100000000E-03 0.  1.
         12    1    3    3    0    0  0.20858448057E+02 -0.12281438400E+02  0.70916488681E+01  0.25223006724E+02  0.00000000000E+00 0. -1.
</event>
<event>
 7    1  0.9868142E-013  0.5052886E+02  0.7816164E-02  0.1300439E+00
        -11   -1    0    0    0    0  0.00000000000E+00  0.00000000000E+00  0.45593999997E+02  0.45594000000E+02  0.51100000000E-03 0.  1.
         11   -1    0    0    0    0 -0.00000000000E+00 -0.00000000000E+00 -0.45593999997E+02  0.45594000000E+02  0.51100000000E-03 0. -1.
    9900012    2    1    2    0    0 -0.20755810347E+01 -0.39173762165E+02 -0.10689899119E+02  0.50528860536E+02  0.30000002086E+02 0.  0.
        -12    1    1    2    0    0  0.20755810347E+01  0.39173762165E+02  0.10689899119E+02  0.40659139464E+02  0.00000000000E+00 0.  1.
         11    1    3    3    0    0 -0.21952400023E+01 -0.27303403320E+02 -0.58001790130E+01  0.27998874769E+02  0.51100000000E-03 0. -1.
        -11    1    3    3    0    0 -0.21131173571E+01  0.35962440673E+01  0.28891415609E+01  0.50739901041E+01  0.51100000000E-03 0.  1.
        -12    1    3    3    0    0  0.22327763247E+01 -0.15466602912E+02 -0.77788616664E+01  0.17455995663E+02  0.00000000000E+00 0.  1.
</event>
<event>
 7    1  0.9868142E-013  0.5052886E+02  0.7816164E-02  0.1300439E+00
        -11   -1    0    0    0    0  0.00000000000E+00  0.00000000000E+00  0.45593999997E+02  0.45594000000E+02  0.51100000000E-03 0. -1.
         11   -1    0    0    0    0 -0.00000000000E+00 -0.00000000000E+00 -0.45593999997E+02  0.45594000000E+02  0.51100000000E-03 0.  1.
    9900012    2    1    2    0    0 -0.26658428738E+02 -0.14422731570E+02  0.27101267495E+02  0.50528859470E+02  0.29999998846E+02 0.  0.
        -12    1    1    2    0    0  0.26658428738E+02  0.14422731570E+02 -0.27101267495E+02  0.40659140530E+02  0.00000000000E+00 0.  1.
         11    1    3    3    0    0 -0.68468181904E+01 -0.11630609662E+02  0.10716022883E+02  0.17233198982E+02  0.51100000000E-03 0. -1.
        -11    1    3    3    0    0 -0.22085683811E+02  0.34383937889E+01  0.12727159979E+02  0.25721208810E+02  0.51100000000E-03 0.  1.
        -12    1    3    3    0    0  0.22740732627E+01 -0.62305156971E+01  0.36580846326E+01  0.75744516789E+01  0.00000000000E+00 0.  1.
</event>
<event>
 7    1  0.9868142E-013  0.5052886E+02  0.7816164E-02  0.1300439E+00
        -11   -1    0    0    0    0  0.00000000000E+00  0.00000000000E+00  0.45593999997E+02  0.45594000000E+02  0.51100000000E-03 0. -1.
         11   -1    0    0    0    0 -0.00000000000E+00 -0.00000000000E+00 -0.45593999997E+02  0.45594000000E+02  0.51100000000E-03 0.  1.
    9900012    2    1    2    0    0 -0.20683945198E+02  0.34323103127E+02  0.68749244415E+01  0.50528861011E+02  0.30000003530E+02 0.  0.
        -12    1    1    2    0    0  0.20683945198E+02 -0.34323103127E+02 -0.68749244415E+01  0.40659138989E+02  0.00000000000E+00 0.  1.
         11    1    3    3    0    0 -0.50575382803E+00  0.59033218595E+01  0.90586508875E+01  0.10824239099E+02  0.51100000000E-03 0. -1.
        -11    1    3    3    0    0 -0.17004006185E+00  0.86351341111E+01 -0.70498441896E+01  0.11148755899E+02  0.51100000000E-03 0.  1.
        -12    1    3    3    0    0 -0.20008151308E+02  0.19784647156E+02  0.48661177436E+01  0.28555866013E+02  0.00000000000E+00 0.  1.
</event>
<event>
 7    1  0.9868142E-013  0.5052886E+02  0.7816164E-02  0.1300439E+00
        -11   -1    0    0    0    0  0.00000000000E+00  0.00000000000E+00  0.45593999997E+02  0.45594000000E+02  0.51100000000E-03 0. -1.
         11   -1    0    0    0    0 -0.00000000000E+00 -0.00000000000E+00 -0.45593999997E+02  0.45594000000E+02  0.51100000000E-03 0.  1.
    9900012    2    1    2    0    0 -0.18103460575E+01  0.36987777919E+02  0.16786672570E+02  0.50528862722E+02  0.30000008731E+02 0.  0.
        -12    1    1    2    0    0  0.18103460575E+01 -0.36987777919E+02 -0.16786672570E+02  0.40659137278E+02  0.00000000000E+00 0.  1.
         11    1    3    3    0    0  0.67544254726E+01  0.12239385718E+02  0.10880835811E+02  0.17714892448E+02  0.51100000000E-03 0. -1.
        -11    1    3    3    0    0 -0.89028679286E+01  0.27425702292E+02  0.73454182621E+01  0.29755425947E+02  0.51100000000E-03 0.  1.
         12    1    3    3    0    0  0.33809639842E+00 -0.26773100913E+01 -0.14395815039E+01  0.30585443279E+01  0.00000000000E+00 0. -1.
</event>
<event>
 7    1  0.9868142E-013  0.5052886E+02  0.7816164E-02  0.1300439E+00
        -11   -1    0    0    0    0  0.00000000000E+00  0.00000000000E+00  0.45593999997E+02  0.45594000000E+02  0.51100000000E-03 0.  1.
         11   -1    0    0    0    0 -0.00000000000E+00 -0.00000000000E+00 -0.45593999997E+02  0.45594000000E+02  0.51100000000E-03 0. -1.
    9900012    2    1    2    0    0 -0.30363988824E+02  0.26630575693E+02 -0.46910840739E+01  0.50528860205E+02  0.30000001080E+02 0.  0.
        -12    1    1    2    0    0  0.30363988824E+02 -0.26630575693E+02  0.46910840739E+01  0.40659139795E+02  0.00000000000E+00 0.  1.
         11    1    3    3    0    0 -0.66301365840E+01 -0.15164038430E+01 -0.47661738919E+01  0.83050951570E+01  0.51100000000E-03 0. -1.
        -11    1    3    3    0    0 -0.92362834884E+01  0.79197074711E+01  0.96806192835E+01  0.15548153880E+02  0.51100000000E-03 0.  1.
        -12    1    3    3    0    0 -0.14497568752E+02  0.20227272065E+02 -0.96055294655E+01  0.26675611168E+02  0.00000000000E+00 0.  1.
</event>
<event>
 7    1  0.9868142E-013  0.5052886E+02  0.7816164E-02  0.1300439E+00
        -11   -1    0    0    0    0  0.00000000000E+00  0.00000000000E+00  0.45593999997E+02  0.45594000000E+02  0.51100000000E-03 0.  1.
         11   -1    0    0    0    0 -0.00000000000E+00 -0.00000000000E+00 -0.45593999997E+02  0.45594000000E+02  0.51100000000E-03 0. -1.
    9900012    2    1    2    0    0  0.84006936289E+01 -0.16307762729E+02 -0.36285679954E+02  0.50528863900E+02  0.30000012311E+02 0.  0.
        -12    1    1    2    0    0 -0.84006936289E+01  0.16307762729E+02  0.36285679954E+02  0.40659136100E+02  0.00000000000E+00 0.  1.
         11    1    3    3    0    0  0.12243409675E+02 -0.22312721941E+01 -0.21151185184E+02  0.24540829062E+02  0.51100000000E-03 0. -1.
        -11    1    3    3    0    0 -0.26493244661E+01 -0.16856565378E+02 -0.93429133912E+01  0.19453862017E+02  0.51100000000E-03 0.  1.
        -12    1    3    3    0    0 -0.11933915804E+01  0.27800748433E+01 -0.57915813783E+01  0.65341728214E+01  0.00000000000E+00 0.  1.
</event>
<event>
 7    1  0.9868142E-013  0.5052887E+02  0.7816164E-02  0.1300439E+00
        -11   -1    0    0    0    0  0.00000000000E+00  0.00000000000E+00  0.45593999997E+02  0.45594000000E+02  0.51100000000E-03 0. -1.
         11   -1    0    0    0    0 -0.00000000000E+00 -0.00000000000E+00 -0.45593999997E+02  0.45594000000E+02  0.51100000000E-03 0.  1.
    9900012    2    1    2    0    0 -0.13998644883E+02 -0.33613854202E+02  0.18091758193E+02  0.50528868585E+02  0.30000026552E+02 0.  0.
        -12    1    1    2    0    0  0.13998644883E+02  0.33613854202E+02 -0.18091758193E+02  0.40659131415E+02  0.00000000000E+00 0.  1.
         11    1    3    3    0    0  0.43853732498E+01 -0.15410765543E+02 -0.79244091938E+00  0.16042168059E+02  0.51100000000E-03 0. -1.
        -11    1    3    3    0    0 -0.16442322481E+02 -0.91965749881E+01  0.16314350308E+02  0.24921576722E+02  0.51100000000E-03 0.  1.
        -12    1    3    3    0    0 -0.19416956523E+01 -0.90065136711E+01  0.25698488037E+01  0.95651238041E+01  0.00000000000E+00 0.  1.
</event>
<event>
 7    1  0.9868142E-013  0.5052885E+02  0.7816164E-02  0.1300439E+00
        -11   -1    0    0    0    0  0.00000000000E+00  0.00000000000E+00  0.45593999997E+02  0.45594000000E+02  0.51100000000E-03 0.  1.
         11   -1    0    0    0    0 -0.00000000000E+00 -0.00000000000E+00 -0.45593999997E+02  0.45594000000E+02  0.51100000000E-03 0. -1.
    9900012    2    1    2    0    0  0.35399001852E+02 -0.15034973358E+02 -0.13191906283E+02  0.50528854075E+02  0.29999982446E+02 0.  0.
        -12    1    1    2    0    0 -0.35399001852E+02  0.15034973358E+02  0.13191906283E+02  0.40659145925E+02  0.00000000000E+00 0.  1.
         11    1    3    3    0    0  0.26791458161E+02 -0.78747764025E+01 -0.17462427240E+02  0.32935250100E+02  0.51100000000E-03 0. -1.
        -11    1    3    3    0    0  0.68108467222E+01 -0.10325465625E+02  0.53926204199E+00  0.12381182385E+02  0.51100000000E-03 0.  1.
         12    1    3    3    0    0  0.17966969682E+01  0.31652686694E+01  0.37312589142E+01  0.52124215898E+01  0.00000000000E+00 0. -1.
</event>
<event>
 7    1  0.9868142E-013  0.5052886E+02  0.7816164E-02  0.1300439E+00
        -11   -1    0    0    0    0  0.00000000000E+00  0.00000000000E+00  0.45593999997E+02  0.45594000000E+02  0.51100000000E-03 0. -1.
         11   -1    0    0    0    0 -0.00000000000E+00 -0.00000000000E+00 -0.45593999997E+02  0.45594000000E+02  0.51100000000E-03 0.  1.
    9900012    2    1    2    0    0  0.73100153207E+01 -0.73138945509E+01  0.39322211301E+02  0.50528859833E+02  0.29999999949E+02 0.  0.
        -12    1    1    2    0    0 -0.73100153207E+01  0.73138945509E+01 -0.39322211301E+02  0.40659140167E+02  0.00000000000E+00 0.  1.
         11    1    3    3    0    0  0.11045107430E+01 -0.62730270077E+01  0.13526100112E+01  0.65115563366E+01  0.51100000000E-03 0. -1.
        -11    1    3    3    0    0  0.88561741368E+00  0.94989466095E+01  0.23363777957E+02  0.25236489962E+02  0.51100000000E-03 0.  1.
        -12    1    3    3    0    0  0.53198871641E+01 -0.10539814153E+02  0.14605823332E+02  0.18780813535E+02  0.00000000000E+00 0.  1.
</event>
<event>
 7    1  0.9868142E-013  0.5052885E+02  0.7816164E-02  0.1300439E+00
        -11   -1    0    0    0    0  0.00000000000E+00  0.00000000000E+00  0.45593999997E+02  0.45594000000E+02  0.51100000000E-03 0.  1.
         11   -1    0    0    0    0 -0.00000000000E+00 -0.00000000000E+00 -0.45593999997E+02  0.45594000000E+02  0.51100000000E-03 0. -1.
    9900012    2    1    2    0    0 -0.27093061065E+02  0.80149771305E+01 -0.29238540836E+02  0.50528854823E+02  0.29999984720E+02 0.  0.
        -12    1    1    2    0    0  0.27093061065E+02 -0.80149771305E+01  0.29238540836E+02  0.40659145177E+02  0.00000000000E+00 0.  1.
         11    1    3    3    0    0  0.47379494170E+00  0.10644614149E+02 -0.78778255826E+01  0.13251129318E+02  0.51100000000E-03 0. -1.
        -11    1    3    3    0    0 -0.97258009487E+01 -0.63365766012E+01 -0.44933046895E+01  0.12447216332E+02  0.51100000000E-03 0.  1.
         12    1    3    3    0    0 -0.17841055058E+02  0.37069395827E+01 -0.16867410564E+02  0.24830509173E+02  0.00000000000E+00 0. -1.
</event>
<event>
 7    1  0.9868142E-013  0.5052887E+02  0.7816164E-02  0.1300439E+00
        -11   -1    0    0    0    0  0.00000000000E+00  0.00000000000E+00  0.45593999997E+02  0.45594000000E+02  0.51100000000E-03 0.  1.
         11   -1    0    0    0    0 -0.00000000000E+00 -0.00000000000E+00 -0.45593999997E+02  0.45594000000E+02  0.51100000000E-03 0. -1.
    9900012    2    1    2    0    0 -0.48361699027E+01 -0.57194270210E+01 -0.39963289876E+02  0.50528869138E+02  0.30000028231E+02 0.  0.
        -12    1    1    2    0    0  0.48361699027E+01  0.57194270210E+01  0.39963289876E+02  0.40659130862E+02  0.00000000000E+00 0.  1.
         11    1    3    3    0    0 -0.20516028102E+01 -0.77779451364E+01 -0.42872266021E+02  0.43620370226E+02  0.51100000000E-03 0. -1.
        -11    1    3    3    0    0  0.33755836350E+00  0.21697521611E+01  0.30766606349E+01  0.37798956351E+01  0.51100000000E-03 0.  1.
         12    1    3    3    0    0 -0.31221254560E+01 -0.11123404569E+00 -0.16768449006E+00  0.31286032769E+01  0.00000000000E+00 0. -1.
</event>
<event>
 7    1  0.9940544E-013  0.5052886E+02  0.7816164E-02  0.1300439E+00
        -11   -1    0    0    0    0  0.00000000000E+00  0.00000000000E+00  0.45593999997E+02  0.45594000000E+02  0.51100000000E-03 0.  1.
         11   -1    0    0    0    0 -0.00000000000E+00 -0.00000000000E+00 -0.45593999997E+02  0.45594000000E+02  0.51100000000E-03 0. -1.
    9900012    2    1    2    0    0 -0.31147857066E+02  0.19109713431E+02 -0.17826809716E+02  0.50528864595E+02  0.30000014422E+02 0.  0.
        -12    1    1    2    0    0  0.31147857066E+02 -0.19109713431E+02  0.17826809716E+02  0.40659135405E+02  0.00000000000E+00 0.  1.
         11    1    3    3    0    0 -0.14538208400E+02  0.13442236264E+02 -0.16257485149E+02  0.25619505126E+02  0.51100000000E-03 0. -1.
        -11    1    3    3    0    0 -0.16443486845E+01  0.52746131650E+01  0.59812722007E+01  0.81425453045E+01  0.51100000000E-03 0.  1.
         12    1    3    3    0    0 -0.14965299982E+02  0.39286400275E+00 -0.75505967679E+01  0.16766814164E+02  0.00000000000E+00 0. -1.
</event>
<event>
 7    1  0.9868142E-013  0.5052888E+02  0.7816164E-02  0.1300439E+00
        -11   -1    0    0    0    0  0.00000000000E+00  0.00000000000E+00  0.45593999997E+02  0.45594000000E+02  0.51100000000E-03 0. -1.
         11   -1    0    0    0    0 -0.00000000000E+00 -0.00000000000E+00 -0.45593999997E+02  0.45594000000E+02  0.51100000000E-03 0.  1.
    9900012    2    1    2    0    0 -0.33605858288E+02 -0.12886353733E+02  0.18914347633E+02  0.50528875929E+02  0.30000048874E+02 0.  0.
        -12    1    1    2    0    0  0.33605858288E+02  0.12886353733E+02 -0.18914347633E+02  0.40659124071E+02  0.00000000000E+00 0.  1.
         11    1    3    3    0    0 -0.26411231828E+02 -0.88316054145E+01  0.12795230434E+02  0.30647485101E+02  0.51100000000E-03 0. -1.
        -11    1    3    3    0    0 -0.38771592497E+00  0.60426722839E+01 -0.40072503476E+00  0.60683434958E+01  0.51100000000E-03 0.  1.
        -12    1    3    3    0    0 -0.68069105346E+01 -0.10097420603E+02  0.65198422342E+01  0.13813047333E+02  0.00000000000E+00 0.  1.
</event>
<event>
 7    1  0.9868142E-013  0.5052889E+02  0.7816164E-02  0.1300439E+00
        -11   -1    0    0    0    0  0.00000000000E+00  0.00000000000E+00  0.45593999997E+02  0.45594000000E+02  0.51100000000E-03 0.  1.
         11   -1    0    0    0    0 -0.00000000000E+00 -0.00000000000E+00 -0.45593999997E+02  0.45594000000E+02  0.51100000000E-03 0. -1.
    9900012    2    1    2    0    0 -0.29625215657E+02  0.24051593063E+02 -0.14036753504E+02  0.50528893019E+02  0.30000100819E+02 0.  0.
        -12    1    1    2    0    0  0.29625215657E+02 -0.24051593063E+02  0.14036753504E+02  0.40659106981E+02  0.00000000000E+00 0.  1.
         11    1    3    3    0    0 -0.49473826944E+01  0.15390931127E+02 -0.95663963831E+01  0.18784922052E+02  0.51100000000E-03 0. -1.
        -11    1    3    3    0    0 -0.20197478108E+02  0.88420274848E+00 -0.84685774810E+01  0.21918867244E+02  0.51100000000E-03 0.  1.
        -12    1    3    3    0    0 -0.44803548542E+01  0.77764591882E+01  0.39982203602E+01  0.98251037233E+01  0.00000000000E+00 0.  1.
</event>
<event>
 7    1  0.9868142E-013  0.5052885E+02  0.7816164E-02  0.1300439E+00
        -11   -1    0    0    0    0  0.00000000000E+00  0.00000000000E+00  0.45593999997E+02  0.45594000000E+02  0.51100000000E-03 0.  1.
         11   -1    0    0    0    0 -0.00000000000E+00 -0.00000000000E+00 -0.45593999997E+02  0.45594000000E+02  0.51100000000E-03 0. -1.
    9900012    2    1    2    0    0  0.18189499400E+02 -0.16009134456E+02 -0.32649898206E+02  0.50528854321E+02  0.29999983195E+02 0.  0.
        -12    1    1    2    0    0 -0.18189499400E+02  0.16009134456E+02  0.32649898206E+02  0.40659145679E+02  0.00000000000E+00 0.  1.
         11    1    3    3    0    0  0.15191951375E+02 -0.14369775906E+02 -0.97332311676E+01  0.23065594191E+02  0.51100000000E-03 0. -1.
        -11    1    3    3    0    0  0.62839776171E+01  0.26871564475E+01 -0.20325628712E+02  0.21443888809E+02  0.51100000000E-03 0.  1.
        -12    1    3    3    0    0 -0.32864295923E+01 -0.43265149973E+01 -0.25910383264E+01  0.60193713207E+01  0.00000000000E+00 0.  1.
</event>
<event>
 7    1  0.9868142E-013  0.5052886E+02  0.7816164E-02  0.1300439E+00
        -11   -1    0    0    0    0  0.00000000000E+00  0.00000000000E+00  0.45593999997E+02  0.45594000000E+02  0.51100000000E-03 0. -1.
         11   -1    0    0    0    0 -0.00000000000E+00 -0.00000000000E+00 -0.45593999997E+02  0.45594000000E+02  0.51100000000E-03 0.  1.
    9900012    2    1    2    0    0 -0.75643787231E+01  0.14899111267E+02  0.37066997678E+02  0.50528860082E+02  0.30000000706E+02 0.  0.
        -12    1    1    2    0    0  0.75643787231E+01 -0.14899111267E+02 -0.37066997678E+02  0.40659139918E+02  0.00000000000E+00 0.  1.
         11    1    3    3    0    0  0.58280838481E+01 -0.51615423476E+01  0.18218737335E+02  0.19812381762E+02  0.51100000000E-03 0. -1.
        -11    1    3    3    0    0 -0.38402809648E+01  0.52078505202E+01  0.37236450385E+01  0.74655875564E+01  0.51100000000E-03 0.  1.
         12    1    3    3    0    0 -0.95521816064E+01  0.14852803094E+02  0.15124615305E+02  0.23250890764E+02  0.00000000000E+00 0. -1.
</event>
<event>
 7    1  0.9868142E-013  0.5052885E+02  0.7816164E-02  0.1300439E+00
        -11   -1    0    0    0    0  0.00000000000E+00  0.00000000000E+00  0.45593999997E+02  0.45594000000E+02  0.51100000000E-03 0.  1.
         11   -1    0    0    0    0 -0.00000000000E+00 -0.00000000000E+00 -0.45593999997E+02  0.45594000000E+02  0.51100000000E-03 0. -1.
    9900012    2    1    2    0    0 -0.16979052161E+02  0.15888594038E+02 -0.33353129531E+02  0.50528845037E+02  0.29999954974E+02 0.  0.
        -12    1    1    2    0    0  0.16979052161E+02 -0.15888594038E+02  0.33353129531E+02  0.40659154963E+02  0.00000000000E+00 0.  1.
         11    1    3    3    0    0  0.43632119974E+01  0.48922890120E+01 -0.18639863278E+02  0.19758962878E+02  0.51100000000E-03 0. -1.
        -11    1    3    3    0    0 -0.17029277672E+02  0.68922861513E+01 -0.44462113727E+01  0.18901552906E+02  0.51100000000E-03 0.  1.
         12    1    3    3    0    0 -0.43129864870E+01  0.41040188751E+01 -0.10267054880E+02  0.11868329254E+02  0.00000000000E+00 0. -1.
</event>
<event>
 7    1  0.9868142E-013  0.5052886E+02  0.7816164E-02  0.1300439E+00
        -11   -1    0    0    0    0  0.00000000000E+00  0.00000000000E+00  0.45593999997E+02  0.45594000000E+02  0.51100000000E-03 0. -1.
         11   -1    0    0    0    0 -0.00000000000E+00 -0.00000000000E+00 -0.45593999997E+02  0.45594000000E+02  0.51100000000E-03 0.  1.
    9900012    2    1    2    0    0  0.23651669675E+02  0.12275467351E+02  0.30709557962E+02  0.50528861700E+02  0.30000005622E+02 0.  0.
        -12    1    1    2    0    0 -0.23651669675E+02 -0.12275467351E+02 -0.30709557962E+02  0.40659138300E+02  0.00000000000E+00 0.  1.
         11    1    3    3    0    0  0.79741923593E+01  0.70143836321E+01 -0.15432433469E+01  0.10731771606E+02  0.51100000000E-03 0.  1.
        -11    1    3    3    0    0  0.11846228636E+02 -0.45992209363E+01  0.18573414427E+02  0.22504614857E+02  0.51100000000E-03 0. -1.
         12    1    3    3    0    0  0.38312486796E+01  0.98603046550E+01  0.13679386882E+02  0.17292475237E+02  0.00000000000E+00 0. -1.
</event>
<event>
 7    1  0.9868142E-013  0.5052889E+02  0.7816164E-02  0.1300439E+00
        -11   -1    0    0    0    0  0.00000000000E+00  0.00000000000E+00  0.45593999997E+02  0.45594000000E+02  0.51100000000E-03 0.  1.
         11   -1    0    0    0    0 -0.00000000000E+00 -0.00000000000E+00 -0.45593999997E+02  0.45594000000E+02  0.51100000000E-03 0. -1.
    9900012    2    1    2    0    0 -0.21325851672E+02  0.10385407285E+02 -0.33022937090E+02  0.50528892680E+02  0.30000099791E+02 0.  0.
        -12    1    1    2    0    0  0.21325851672E+02 -0.10385407285E+02  0.33022937090E+02  0.40659107320E+02  0.00000000000E+00 0.  1.
         11    1    3    3    0    0  0.36088937228E+01  0.12441378869E+02 -0.88459429509E+01  0.15686386742E+02  0.51100000000E-03 0. -1.
        -11    1    3    3    0    0 -0.76937592559E+01 -0.14804150018E+01 -0.72707596829E+01  0.10688756087E+02  0.51100000000E-03 0.  1.
         12    1    3    3    0    0 -0.17240986139E+02 -0.57555658182E+00 -0.16906234456E+02  0.24153749851E+02  0.00000000000E+00 0. -1.
</event>
<event>
 7    1  0.9868142E-013  0.5052886E+02  0.7816164E-02  0.1300439E+00
        -11   -1    0    0    0    0  0.00000000000E+00  0.00000000000E+00  0.45593999997E+02  0.45594000000E+02  0.51100000000E-03 0. -1.
         11   -1    0    0    0    0 -0.00000000000E+00 -0.00000000000E+00 -0.45593999997E+02  0.45594000000E+02  0.51100000000E-03 0.  1.
    9900012    2    1    2    0    0  0.93004879702E+01 -0.34536420460E+02  0.19336555986E+02  0.50528858198E+02  0.29999994979E+02 0.  0.
        -12    1    1    2    0    0 -0.93004879702E+01  0.34536420460E+02 -0.19336555986E+02  0.40659141802E+02  0.00000000000E+00 0.  1.
         11    1    3    3    0    0  0.11760120320E+02 -0.17831405907E+02  0.18084801909E+02  0.27987846057E+02  0.51100000000E-03 0. -1.
        -11    1    3    3    0    0  0.20622549350E+01 -0.11912918239E+02 -0.53436879343E+01  0.13218378016E+02  0.51100000000E-03 0.  1.
         12    1    3    3    0    0 -0.45218872849E+01 -0.47920963137E+01  0.65954420115E+01  0.93226341248E+01  0.00000000000E+00 0. -1.
</event>
<event>
 7    1  0.9868142E-013  0.5052886E+02  0.7816164E-02  0.1300439E+00
        -11   -1    0    0    0    0  0.00000000000E+00  0.00000000000E+00  0.45593999997E+02  0.45594000000E+02  0.51100000000E-03 0.  1.
         11   -1    0    0    0    0 -0.00000000000E+00 -0.00000000000E+00 -0.45593999997E+02  0.45594000000E+02  0.51100000000E-03 0. -1.
    9900012    2    1    2    0    0  0.79364078281E+01 -0.15367454078E+02 -0.36797014372E+02  0.50528862272E+02  0.30000007363E+02 0.  0.
        -12    1    1    2    0    0 -0.79364078281E+01  0.15367454078E+02  0.36797014372E+02  0.40659137728E+02  0.00000000000E+00 0.  1.
         11    1    3    3    0    0  0.15487689569E+02  0.12316967333E+01 -0.18950366336E+02  0.24505142105E+02  0.51100000000E-03 0. -1.
        -11    1    3    3    0    0 -0.27737497733E+01 -0.18317336015E+01 -0.42026818954E+01  0.53583086106E+01  0.51100000000E-03 0.  1.
         12    1    3    3    0    0 -0.47775319679E+01 -0.14767417210E+02 -0.13643966141E+02  0.20665411557E+02  0.00000000000E+00 0. -1.
</event>
<event>
 7    1  0.9868142E-013  0.5052895E+02  0.7816164E-02  0.1300438E+00
        -11   -1    0    0    0    0  0.00000000000E+00  0.00000000000E+00  0.45593999997E+02  0.45594000000E+02  0.51100000000E-03 0.  1.
         11   -1    0    0    0    0 -0.00000000000E+00 -0.00000000000E+00 -0.45593999997E+02  0.45594000000E+02  0.51100000000E-03 0. -1.
    9900012    2    1    2    0    0  0.34431463443E+02 -0.61020461651E+01  0.20746020856E+02  0.50528953976E+02  0.30000286104E+02 0.  0.
        -12    1    1    2    0    0 -0.34431463443E+02  0.61020461651E+01 -0.20746020856E+02  0.40659046024E+02  0.00000000000E+00 0.  1.
         11    1    3    3    0    0  0.32074996484E+00  0.54451145755E+00  0.56798740186E+01  0.57149227812E+01  0.51100000000E-03 0. -1.
        -11    1    3    3    0    0  0.26628009597E+02 -0.99455796817E+01  0.87847554052E+00  0.28438304623E+02  0.51100000000E-03 0.  1.
        -12    1    3    3    0    0  0.74827038813E+01  0.32990220590E+01  0.14187671297E+02  0.16375726572E+02  0.00000000000E+00 0.  1.
</event>
<event>
 7    1  0.9868142E-013  0.5052886E+02  0.7816164E-02  0.1300439E+00
        -11   -1    0    0    0    0  0.00000000000E+00  0.00000000000E+00  0.45593999997E+02  0.45594000000E+02  0.51100000000E-03 0. -1.
         11   -1    0    0    0    0 -0.00000000000E+00 -0.00000000000E+00 -0.45593999997E+02  0.45594000000E+02  0.51100000000E-03 0.  1.
    9900012    2    1    2    0    0  0.62284121553E+00 -0.37146709949E+02  0.16519670837E+02  0.50528861842E+02  0.30000006054E+02 0.  0.
        -12    1    1    2    0    0 -0.62284121553E+00  0.37146709949E+02 -0.16519670837E+02  0.40659138158E+02  0.00000000000E+00 0.  1.
         11    1    3    3    0    0  0.84248976147E+00 -0.17435874067E+02  0.11341901173E+02  0.20817257647E+02  0.51100000000E-03 0. -1.
        -11    1    3    3    0    0  0.10584550640E+02 -0.11872190752E+02  0.30389901626E+01  0.16193118507E+02  0.51100000000E-03 0.  1.
        -12    1    3    3    0    0 -0.10804199186E+02 -0.78386451305E+01  0.21387795013E+01  0.13518485688E+02  0.00000000000E+00 0.  1.
</event>
<event>
 7    1  0.9868142E-013  0.5052886E+02  0.7816164E-02  0.1300439E+00
        -11   -1    0    0    0    0  0.00000000000E+00  0.00000000000E+00  0.45593999997E+02  0.45594000000E+02  0.51100000000E-03 0.  1.
         11   -1    0    0    0    0 -0.00000000000E+00 -0.00000000000E+00 -0.45593999997E+02  0.45594000000E+02  0.51100000000E-03 0. -1.
    9900012    2    1    2    0    0  0.32424964803E+02 -0.69526243142E+01 -0.23525478741E+02  0.50528862315E+02  0.30000007492E+02 0.  0.
        -12    1    1    2    0    0 -0.32424964803E+02  0.69526243142E+01  0.23525478741E+02  0.40659137685E+02  0.00000000000E+00 0.  1.
         11    1    3    3    0    0 -0.53305768200E+00 -0.66465441892E+01  0.20051383730E+01  0.69628500133E+01  0.51100000000E-03 0. -1.
        -11    1    3    3    0    0  0.17304894486E+02  0.34380317844E+01 -0.19705331627E+02  0.26449565791E+02  0.51100000000E-03 0.  1.
         12    1    3    3    0    0  0.15653127999E+02 -0.37441119094E+01 -0.58252854867E+01  0.17116446511E+02  0.00000000000E+00 0. -1.
</event>
<event>
 7    1  0.9868142E-013  0.5052886E+02  0.7816164E-02  0.1300439E+00
        -11   -1    0    0    0    0  0.00000000000E+00  0.00000000000E+00  0.45593999997E+02  0.45594000000E+02  0.51100000000E-03 0. -1.
         11   -1    0    0    0    0 -0.00000000000E+00 -0.00000000000E+00 -0.45593999997E+02  0.45594000000E+02  0.51100000000E-03 0.  1.
    9900012    2    1    2    0    0  0.31714960615E+02 -0.22117157899E+02 -0.12576108140E+02  0.50528857163E+02  0.29999991832E+02 0.  0.
        -12    1    1    2    0    0 -0.31714960615E+02  0.22117157899E+02  0.12576108140E+02  0.40659142837E+02  0.00000000000E+00 0.  1.
         11    1    3    3    0    0 -0.31068826741E+01 -0.85868889395E+01  0.33687648827E+01  0.97332398873E+01  0.51100000000E-03 0. -1.
        -11    1    3    3    0    0  0.53719057905E+01 -0.10807900453E+01 -0.34044747391E+01  0.64510408039E+01  0.51100000000E-03 0.  1.
         12    1    3    3    0    0  0.29449937498E+02 -0.12449478914E+02 -0.12540398283E+02  0.34344576471E+02  0.00000000000E+00 0. -1.
</event>
<event>
 7    1  0.9868142E-013  0.5052886E+02  0.7816164E-02  0.1300439E+00
        -11   -1    0    0    0    0  0.00000000000E+00  0.00000000000E+00  0.45593999997E+02  0.45594000000E+02  0.51100000000E-03 0.  1.
         11   -1    0    0    0    0 -0.00000000000E+00 -0.00000000000E+00 -0.45593999997E+02  0.45594000000E+02  0.51100000000E-03 0. -1.
    9900012    2    1    2    0    0  0.40351081701E+02  0.36793259948E+01  0.33791347754E+01  0.50528858518E+02  0.29999995952E+02 0.  0.
        -12    1    1    2    0    0 -0.40351081701E+02 -0.36793259948E+01 -0.33791347754E+01  0.40659141482E+02  0.00000000000E+00 0.  1.
         11    1    3    3    0    0  0.10848193618E+02  0.67084536898E+01 -0.22409489090E+01  0.12950231966E+02  0.51100000000E-03 0. -1.
        -11    1    3    3    0    0  0.32667737917E+02 -0.53956203244E+01  0.58370260609E+01  0.33620896668E+02  0.51100000000E-03 0.  1.
        -12    1    3    3    0    0 -0.31648498345E+01  0.23664926294E+01 -0.21694237656E+00  0.39577298840E+01  0.00000000000E+00 0.  1.
</event>
<event>
 7    1  0.9868142E-013  0.5052886E+02  0.7816164E-02  0.1300439E+00
        -11   -1    0    0    0    0  0.00000000000E+00  0.00000000000E+00  0.45593999997E+02  0.45594000000E+02  0.51100000000E-03 0.  1.
         11   -1    0    0    0    0 -0.00000000000E+00 -0.00000000000E+00 -0.45593999997E+02  0.45594000000E+02  0.51100000000E-03 0. -1.
    9900012    2    1    2    0    0 -0.11620798532E+01  0.28420909986E+02 -0.29052838499E+02  0.50528856147E+02  0.29999988743E+02 0.  0.
        -12    1    1    2    0    0  0.11620798532E+01 -0.28420909986E+02  0.29052838499E+02  0.40659143853E+02  0.00000000000E+00 0.  1.
         11    1    3    3    0    0 -0.67033458047E+01 -0.20740039483E+01 -0.39469258062E+00  0.70279527495E+01  0.51100000000E-03 0. -1.
        -11    1    3    3    0    0  0.61651850257E+01  0.17051147492E+02 -0.10678974903E+02  0.21042614914E+02  0.51100000000E-03 0.  1.
         12    1    3    3    0    0 -0.62391907423E+00  0.13443766443E+02 -0.17979171015E+02  0.22458288483E+02  0.00000000000E+00 0. -1.
</event>
<event>
 7    1  0.9868142E-013  0.5052885E+02  0.7816164E-02  0.1300439E+00
        -11   -1    0    0    0    0  0.00000000000E+00  0.00000000000E+00  0.45593999997E+02  0.45594000000E+02  0.51100000000E-03 0.  1.
         11   -1    0    0    0    0 -0.00000000000E+00 -0.00000000000E+00 -0.45593999997E+02  0.45594000000E+02  0.51100000000E-03 0. -1.
    9900012    2    1    2    0    0 -0.23773461447E+02  0.19771410266E+02 -0.26402271853E+02  0.50528854755E+02  0.29999984513E+02 0.  0.
        -12    1    1    2    0    0  0.23773461447E+02 -0.19771410266E+02  0.26402271853E+02  0.40659145245E+02  0.00000000000E+00 0.  1.
         11    1    3    3    0    0 -0.17792098924E+02  0.97613989116E+01 -0.10019914918E+01  0.20318653500E+02  0.51100000000E-03 0. -1.
        -11    1    3    3    0    0 -0.92393720043E+00  0.98541596204E+01 -0.10299124329E+02  0.14283909968E+02  0.51100000000E-03 0.  1.
         12    1    3    3    0    0 -0.50574253225E+01  0.15585173388E+00 -0.15101156032E+02  0.15926291287E+02  0.00000000000E+00 0. -1.
</event>
<event>
 7    1  0.9868142E-013  0.5052887E+02  0.7816164E-02  0.1300439E+00
        -11   -1    0    0    0    0  0.00000000000E+00  0.00000000000E+00  0.45593999997E+02  0.45594000000E+02  0.51100000000E-03 0. -1.
         11   -1    0    0    0    0 -0.00000000000E+00 -0.00000000000E+00 -0.45593999997E+02  0.45594000000E+02  0.51100000000E-03 0.  1.
    9900012    2    1    2    0    0  0.96678031772E+01 -0.38408692606E+02 -0.91908157063E+01  0.50528865980E+02  0.30000018632E+02 0.  0.
        -12    1    1    2    0    0 -0.96678031772E+01  0.38408692606E+02  0.91908157063E+01  0.40659134020E+02  0.00000000000E+00 0.  1.
         11    1    3    3    0    0  0.15529272819E+02 -0.18286619421E+02  0.41580657899E+01  0.24348475835E+02  0.51100000000E-03 0. -1.
        -11    1    3    3    0    0 -0.39621973645E+01 -0.53410050024E+01 -0.78677497637E+01  0.10301787660E+02  0.51100000000E-03 0.  1.
         12    1    3    3    0    0 -0.18992722768E+01 -0.14781068182E+02 -0.54811317325E+01  0.15878602484E+02  0.00000000000E+00 0. -1.
</event>
<event>
 7    1  0.9868142E-013  0.5052885E+02  0.7816164E-02  0.1300439E+00
        -11   -1    0    0    0    0  0.00000000000E+00  0.00000000000E+00  0.45593999997E+02  0.45594000000E+02  0.51100000000E-03 0.  1.
         11   -1    0    0    0    0 -0.00000000000E+00 -0.00000000000E+00 -0.45593999997E+02  0.45594000000E+02  0.51100000000E-03 0. -1.
    9900012    2    1    2    0    0 -0.39819021021E+02 -0.77440302696E+01 -0.27644606252E+01  0.50528847495E+02  0.29999962447E+02 0.  0.
        -12    1    1    2    0    0  0.39819021021E+02  0.77440302696E+01  0.27644606252E+01  0.40659152505E+02  0.00000000000E+00 0.  1.
         11    1    3    3    0    0 -0.25138404042E+02 -0.20591827696E+01 -0.55603689839E+01  0.25828226710E+02  0.51100000000E-03 0. -1.
        -11    1    3    3    0    0 -0.80568897955E+01  0.10093404107E+01  0.99727381344E+01  0.12860316769E+02  0.51100000000E-03 0.  1.
         12    1    3    3    0    0 -0.66237271830E+01 -0.66941879107E+01 -0.71768297756E+01  0.11840304017E+02  0.00000000000E+00 0. -1.
</event>
<event>
 7    1  0.9868142E-013  0.5052886E+02  0.7816164E-02  0.1300439E+00
        -11   -1    0    0    0    0  0.00000000000E+00  0.00000000000E+00  0.45593999997E+02  0.45594000000E+02  0.51100000000E-03 0.  1.
         11   -1    0    0    0    0 -0.00000000000E+00 -0.00000000000E+00 -0.45593999997E+02  0.45594000000E+02  0.51100000000E-03 0. -1.
    9900012    2    1    2    0    0 -0.34930559916E+02 -0.97857514715E+01 -0.18364670270E+02  0.50528855124E+02  0.29999985634E+02 0.  0.
        -12    1    1    2    0    0  0.34930559916E+02  0.97857514715E+01  0.18364670270E+02  0.40659144876E+02  0.00000000000E+00 0.  1.
         11    1    3    3    0    0 -0.16100501098E+02 -0.11425692826E+02  0.37613380509E+01  0.20097767447E+02  0.51100000000E-03 0.  1.
        -11    1    3    3    0    0 -0.16633629588E+02  0.45178467103E+01 -0.17585351526E+02  0.24623833185E+02  0.51100000000E-03 0. -1.
        -12    1    3    3    0    0 -0.21964292305E+01 -0.28779053555E+01 -0.45406567952E+01  0.58072544917E+01  0.00000000000E+00 0.  1.
</event>
<event>
 7    1  0.9868142E-013  0.5052886E+02  0.7816164E-02  0.1300439E+00
        -11   -1    0    0    0    0  0.00000000000E+00  0.00000000000E+00  0.45593999997E+02  0.45594000000E+02  0.51100000000E-03 0. -1.
         11   -1    0    0    0    0 -0.00000000000E+00 -0.00000000000E+00 -0.45593999997E+02  0.45594000000E+02  0.51100000000E-03 0.  1.
    9900012    2    1    2    0    0 -0.24540570814E+01 -0.40199692878E+02 -0.55792612370E+01  0.50528857613E+02  0.29999993201E+02 0.  0.
        -12    1    1    2    0    0  0.24540570814E+01  0.40199692878E+02  0.55792612370E+01  0.40659142387E+02  0.00000000000E+00 0.  1.
         11    1    3    3    0    0 -0.12295768590E+01 -0.40071156667E+02 -0.67336853797E+01  0.40651592527E+02  0.51100000000E-03 0. -1.
        -11    1    3    3    0    0 -0.40672431112E+01 -0.34908114758E+01  0.11123916845E+01  0.54740886735E+01  0.51100000000E-03 0.  1.
         12    1    3    3    0    0  0.28427628888E+01  0.33622752645E+01  0.42032458182E-01  0.44031764129E+01  0.00000000000E+00 0. -1.
</event>
<event>
 7    1  0.9868142E-013  0.5052887E+02  0.7816164E-02  0.1300439E+00
        -11   -1    0    0    0    0  0.00000000000E+00  0.00000000000E+00  0.45593999997E+02  0.45594000000E+02  0.51100000000E-03 0.  1.
         11   -1    0    0    0    0 -0.00000000000E+00 -0.00000000000E+00 -0.45593999997E+02  0.45594000000E+02  0.51100000000E-03 0. -1.
    9900012    2    1    2    0    0  0.11960825151E+02 -0.80256185049E+01 -0.38022274172E+02  0.50528865431E+02  0.30000016965E+02 0.  0.
        -12    1    1    2    0    0 -0.11960825151E+02  0.80256185049E+01  0.38022274172E+02  0.40659134569E+02  0.00000000000E+00 0.  1.
         11    1    3    3    0    0 -0.22595865157E+01  0.85062342429E+01 -0.11310887412E+02  0.14331710524E+02  0.51100000000E-03 0. -1.
        -11    1    3    3    0    0  0.13221664127E+02 -0.13842821849E+02 -0.15518806766E+02  0.24642838366E+02  0.51100000000E-03 0.  1.
        -12    1    3    3    0    0  0.99874753938E+00 -0.26890308985E+01 -0.11192579994E+02  0.11554316542E+02  0.00000000000E+00 0.  1.
</event>
<event>
 7    1  0.1067574E-012  0.5052886E+02  0.7816164E-02  0.1300439E+00
        -11   -1    0    0    0    0  0.00000000000E+00  0.00000000000E+00  0.45593999997E+02  0.45594000000E+02  0.51100000000E-03 0.  1.
         11   -1    0    0    0    0 -0.00000000000E+00 -0.00000000000E+00 -0.45593999997E+02  0.45594000000E+02  0.51100000000E-03 0. -1.
    9900012    2    1    2    0    0 -0.23539736241E+02 -0.29949404317E+02  0.14215471092E+02  0.50528860565E+02  0.30000002172E+02 0.  0.
        -12    1    1    2    0    0  0.23539736241E+02  0.29949404317E+02 -0.14215471092E+02  0.40659139435E+02  0.00000000000E+00 0.  1.
         11    1    3    3    0    0 -0.14132940674E+02 -0.26507406934E+02  0.55932189494E+01  0.30555960677E+02  0.51100000000E-03 0. -1.
        -11    1    3    3    0    0 -0.34711316779E+01  0.79957431416E+00  0.11568917000E+02  0.12104871541E+02  0.51100000000E-03 0.  1.
        -12    1    3    3    0    0 -0.59356638896E+01 -0.42415716979E+01 -0.29466648574E+01  0.78680283465E+01  0.00000000000E+00 0.  1.
</event>
<event>
 7    1  0.9868142E-013  0.5052887E+02  0.7816164E-02  0.1300439E+00
        -11   -1    0    0    0    0  0.00000000000E+00  0.00000000000E+00  0.45593999997E+02  0.45594000000E+02  0.51100000000E-03 0.  1.
         11   -1    0    0    0    0 -0.00000000000E+00 -0.00000000000E+00 -0.45593999997E+02  0.45594000000E+02  0.51100000000E-03 0. -1.
    9900012    2    1    2    0    0 -0.27400285853E+01  0.11697739027E+02 -0.38843532537E+02  0.50528869722E+02  0.30000030007E+02 0.  0.
        -12    1    1    2    0    0  0.27400285853E+01 -0.11697739027E+02  0.38843532537E+02  0.40659130278E+02  0.00000000000E+00 0.  1.
         11    1    3    3    0    0 -0.40574059578E+01  0.42972212501E+00 -0.36051436940E+02  0.36281583620E+02  0.51100000000E-03 0. -1.
        -11    1    3    3    0    0 -0.28165811414E+01  0.81715015164E+01 -0.27892545897E+01  0.90822083100E+01  0.51100000000E-03 0.  1.
         12    1    3    3    0    0  0.41339585140E+01  0.30965153858E+01 -0.28410072186E-02  0.51650777923E+01  0.00000000000E+00 0. -1.
</event>
<event>
 7    1  0.9868142E-013  0.5052884E+02  0.7816164E-02  0.1300439E+00
        -11   -1    0    0    0    0  0.00000000000E+00  0.00000000000E+00  0.45593999997E+02  0.45594000000E+02  0.51100000000E-03 0.  1.
         11   -1    0    0    0    0 -0.00000000000E+00 -0.00000000000E+00 -0.45593999997E+02  0.45594000000E+02  0.51100000000E-03 0. -1.
    9900012    2    1    2    0    0 -0.78183226730E+01 -0.35600555775E+02 -0.18017818172E+02  0.50528837286E+02  0.29999931413E+02 0.  0.
        -12    1    1    2    0    0  0.78183226730E+01  0.35600555775E+02  0.18017818172E+02  0.40659162714E+02  0.00000000000E+00 0.  1.
         11    1    3    3    0    0 -0.12335181334E+01 -0.13293369424E+02  0.77628954223E+01  0.15443373440E+02  0.51100000000E-03 0. -1.
        -11    1    3    3    0    0  0.33140904262E+00 -0.36459725717E+01 -0.59794452696E+01  0.70111849170E+01  0.51100000000E-03 0.  1.
         12    1    3    3    0    0 -0.69162135822E+01 -0.18661213780E+02 -0.19801268325E+02  0.28074278928E+02  0.00000000000E+00 0. -1.
</event>
<event>
 7    1  0.9868142E-013  0.5052886E+02  0.7816164E-02  0.1300439E+00
        -11   -1    0    0    0    0  0.00000000000E+00  0.00000000000E+00  0.45593999997E+02  0.45594000000E+02  0.51100000000E-03 0.  1.
         11   -1    0    0    0    0 -0.00000000000E+00 -0.00000000000E+00 -0.45593999997E+02  0.45594000000E+02  0.51100000000E-03 0. -1.
    9900012    2    1    2    0    0  0.27926023826E+02  0.29431934667E+02  0.26578748596E+01  0.50528857317E+02  0.29999992301E+02 0.  0.
        -12    1    1    2    0    0 -0.27926023826E+02 -0.29431934667E+02 -0.26578748596E+01  0.40659142683E+02  0.00000000000E+00 0.  1.
         11    1    3    3    0    0  0.20870191076E+02  0.26825496581E+02  0.74722806484E+01  0.34799527593E+02  0.51100000000E-03 0. -1.
        -11    1    3    3    0    0  0.49450376537E+01  0.22568252450E+01 -0.92929580975E+01  0.10765952259E+02  0.51100000000E-03 0.  1.
        -12    1    3    3    0    0  0.21107950962E+01  0.34961284120E+00  0.44785523087E+01  0.49633774648E+01  0.00000000000E+00 0.  1.
</event>
<event>
 7    1  0.9868142E-013  0.5052886E+02  0.7816164E-02  0.1300439E+00
        -11   -1    0    0    0    0  0.00000000000E+00  0.00000000000E+00  0.45593999997E+02  0.45594000000E+02  0.51100000000E-03 0.  1.
         11   -1    0    0    0    0 -0.00000000000E+00 -0.00000000000E+00 -0.45593999997E+02  0.45594000000E+02  0.51100000000E-03 0. -1.
    9900012    2    1    2    0    0  0.28304366888E+01  0.80079213164E+01 -0.39762137085E+02  0.50528859315E+02  0.29999998374E+02 0.  0.
        -12    1    1    2    0    0 -0.28304366888E+01 -0.80079213164E+01  0.39762137085E+02  0.40659140685E+02  0.00000000000E+00 0.  1.
         11    1    3    3    0    0 -0.45730581382E+01 -0.44139112308E+00 -0.30097964946E+02  0.30446595557E+02  0.51100000000E-03 0. -1.
        -11    1    3    3    0    0  0.11086215618E+01  0.86383515848E+01 -0.19659808797E+00  0.87114184229E+01  0.51100000000E-03 0.  1.
         12    1    3    3    0    0  0.62948732652E+01 -0.18903914533E+00 -0.94675740509E+01  0.11370845335E+02  0.00000000000E+00 0. -1.
</event>
<event>
 7    1  0.9868142E-013  0.5052887E+02  0.7816164E-02  0.1300439E+00
        -11   -1    0    0    0    0  0.00000000000E+00  0.00000000000E+00  0.45593999997E+02  0.45594000000E+02  0.51100000000E-03 0. -1.
         11   -1    0    0    0    0 -0.00000000000E+00 -0.00000000000E+00 -0.45593999997E+02  0.45594000000E+02  0.51100000000E-03 0.  1.
    9900012    2    1    2    0    0 -0.40531867298E+02 -0.18240250873E+01  0.26468469026E+01  0.50528866553E+02  0.30000020374E+02 0.  0.
        -12    1    1    2    0    0  0.40531867298E+02  0.18240250873E+01 -0.26468469026E+01  0.40659133447E+02  0.00000000000E+00 0.  1.
         11    1    3    3    0    0 -0.27462421202E+02  0.58133150564E+01 -0.43229800705E+01  0.28401890205E+02  0.51100000000E-03 0. -1.
        -11    1    3    3    0    0 -0.21434121732E+01 -0.12641477998E+01  0.89807972646E+01  0.93191740606E+01  0.51100000000E-03 0.  1.
        -12    1    3    3    0    0 -0.10926033922E+02 -0.63731923440E+01 -0.20109702915E+01  0.12807802288E+02  0.00000000000E+00 0.  1.
</event>
<event>
 7    1  0.9868142E-013  0.5052889E+02  0.7816164E-02  0.1300439E+00
        -11   -1    0    0    0    0  0.00000000000E+00  0.00000000000E+00  0.45593999997E+02  0.45594000000E+02  0.51100000000E-03 0.  1.
         11   -1    0    0    0    0 -0.00000000000E+00 -0.00000000000E+00 -0.45593999997E+02  0.45594000000E+02  0.51100000000E-03 0. -1.
    9900012    2    1    2    0    0  0.16992731799E+02  0.36636281985E+02 -0.47109506962E+01  0.50528890957E+02  0.30000094554E+02 0.  0.
        -12    1    1    2    0    0 -0.16992731799E+02 -0.36636281985E+02  0.47109506962E+01  0.40659109043E+02  0.00000000000E+00 0.  1.
         11    1    3    3    0    0  0.82585882908E+00  0.16491105509E+02 -0.26053238767E+01  0.16716049667E+02  0.51100000000E-03 0. -1.
        -11    1    3    3    0    0  0.16431198056E+01  0.56286835389E+01  0.87903391599E+01  0.10566550236E+02  0.51100000000E-03 0.  1.
        -12    1    3    3    0    0  0.14523753164E+02  0.14516492937E+02 -0.10895965979E+02  0.23246291055E+02  0.00000000000E+00 0.  1.
</event>
<event>
 7    1  0.9868142E-013  0.5052886E+02  0.7816164E-02  0.1300439E+00
        -11   -1    0    0    0    0  0.00000000000E+00  0.00000000000E+00  0.45593999997E+02  0.45594000000E+02  0.51100000000E-03 0.  1.
         11   -1    0    0    0    0 -0.00000000000E+00 -0.00000000000E+00 -0.45593999997E+02  0.45594000000E+02  0.51100000000E-03 0. -1.
    9900012    2    1    2    0    0  0.14416222791E+02 -0.86540370177E+01 -0.37019530605E+02  0.50528862251E+02  0.30000007300E+02 0.  0.
        -12    1    1    2    0    0 -0.14416222791E+02  0.86540370177E+01  0.37019530605E+02  0.40659137749E+02  0.00000000000E+00 0.  1.
         11    1    3    3    0    0  0.19649257072E+01  0.85416387184E+00 -0.28354254269E+01  0.35538945633E+01  0.51100000000E-03 0. -1.
        -11    1    3    3    0    0  0.10358120924E+02  0.76332235043E+01 -0.23139733591E+02  0.26476480904E+02  0.51100000000E-03 0.  1.
        -12    1    3    3    0    0  0.20931761599E+01 -0.17141424394E+02 -0.11044371587E+02  0.20498486784E+02  0.00000000000E+00 0.  1.
</event>
<event>
 7    1  0.9868142E-013  0.5052886E+02  0.7816164E-02  0.1300439E+00
        -11   -1    0    0    0    0  0.00000000000E+00  0.00000000000E+00  0.45593999997E+02  0.45594000000E+02  0.51100000000E-03 0.  1.
         11   -1    0    0    0    0 -0.00000000000E+00 -0.00000000000E+00 -0.45593999997E+02  0.45594000000E+02  0.51100000000E-03 0. -1.
    9900012    2    1    2    0    0  0.48230575443E+01  0.39292599599E+02  0.92733812978E+01  0.50528857510E+02  0.29999992888E+02 0.  0.
        -12    1    1    2    0    0 -0.48230575443E+01 -0.39292599599E+02 -0.92733812978E+01  0.40659142490E+02  0.00000000000E+00 0.  1.
         11    1    3    3    0    0  0.54305700265E+01  0.36129708898E+02  0.81430704811E+01  0.37432025767E+02  0.51100000000E-03 0. -1.
        -11    1    3    3    0    0 -0.46907591133E+01 -0.30500734777E+01  0.82729620703E+00  0.56560223262E+01  0.51100000000E-03 0.  1.
        -12    1    3    3    0    0  0.40832466312E+01  0.62129641783E+01  0.30301460968E+00  0.74408094174E+01  0.00000000000E+00 0.  1.
</event>
<event>
 7    1  0.9868142E-013  0.5052886E+02  0.7816164E-02  0.1300439E+00
        -11   -1    0    0    0    0  0.00000000000E+00  0.00000000000E+00  0.45593999997E+02  0.45594000000E+02  0.51100000000E-03 0. -1.
         11   -1    0    0    0    0 -0.00000000000E+00 -0.00000000000E+00 -0.45593999997E+02  0.45594000000E+02  0.51100000000E-03 0.  1.
    9900012    2    1    2    0    0  0.34972540111E+02 -0.93597040803E+01  0.18506294541E+02  0.50528861299E+02  0.30000004404E+02 0.  0.
        -12    1    1    2    0    0 -0.34972540111E+02  0.93597040803E+01 -0.18506294541E+02  0.40659138701E+02  0.00000000000E+00 0.  1.
         11    1    3    3    0    0  0.33219610942E+02 -0.30768591302E+01  0.13457688172E+02  0.35973865297E+02  0.51100000000E-03 0. -1.
        -11    1    3    3    0    0 -0.55814673411E+00  0.21681916460E+01 -0.22334962403E+01  0.31624497635E+01  0.51100000000E-03 0.  1.
        -12    1    3    3    0    0  0.23110759033E+01 -0.84510365960E+01  0.72821026092E+01  0.11392546238E+02  0.00000000000E+00 0.  1.
</event>
<event>
 7    1  0.1134903E-012  0.5052886E+02  0.7816164E-02  0.1300439E+00
        -11   -1    0    0    0    0  0.00000000000E+00  0.00000000000E+00  0.45593999997E+02  0.45594000000E+02  0.51100000000E-03 0. -1.
         11   -1    0    0    0    0 -0.00000000000E+00 -0.00000000000E+00 -0.45593999997E+02  0.45594000000E+02  0.51100000000E-03 0.  1.
    9900012    2    1    2    0    0 -0.74367598910E+01  0.39052626986E+02 -0.85295296837E+01  0.50528856517E+02  0.29999989868E+02 0.  0.
        -12    1    1    2    0    0  0.74367598910E+01 -0.39052626986E+02  0.85295296837E+01  0.40659143483E+02  0.00000000000E+00 0.  1.
         11    1    3    3    0    0 -0.65926880007E+01  0.20285542933E+02 -0.11378084448E+02  0.24174937293E+02  0.51100000000E-03 0. -1.
        -11    1    3    3    0    0 -0.44235766656E+01 -0.15613864017E+01  0.32532709626E+01  0.57087415626E+01  0.51100000000E-03 0.  1.
        -12    1    3    3    0    0  0.35795047753E+01  0.20328470454E+02 -0.40471619813E+00  0.20645177661E+02  0.00000000000E+00 0.  1.
</event>
<event>
 7    1  0.9868142E-013  0.5052884E+02  0.7816164E-02  0.1300439E+00
        -11   -1    0    0    0    0  0.00000000000E+00  0.00000000000E+00  0.45593999997E+02  0.45594000000E+02  0.51100000000E-03 0.  1.
         11   -1    0    0    0    0 -0.00000000000E+00 -0.00000000000E+00 -0.45593999997E+02  0.45594000000E+02  0.51100000000E-03 0. -1.
    9900012    2    1    2    0    0 -0.15986406863E+01  0.35005384266E+02 -0.20621216078E+02  0.50528841964E+02  0.29999945635E+02 0.  0.
        -12    1    1    2    0    0  0.15986406863E+01 -0.35005384266E+02  0.20621216078E+02  0.40659158036E+02  0.00000000000E+00 0.  1.
         11    1    3    3    0    0 -0.12053756352E+02  0.78014958599E+01  0.20831799025E+00  0.14359657952E+02  0.51100000000E-03 0. -1.
        -11    1    3    3    0    0  0.72520114775E+01  0.12005466122E+02 -0.10380689213E+02  0.17449401023E+02  0.51100000000E-03 0.  1.
         12    1    3    3    0    0  0.32031041883E+01  0.15198422284E+02 -0.10448844855E+02  0.18719782989E+02  0.00000000000E+00 0. -1.
</event>
<event>
 7    1  0.9868142E-013  0.5052885E+02  0.7816164E-02  0.1300439E+00
        -11   -1    0    0    0    0  0.00000000000E+00  0.00000000000E+00  0.45593999997E+02  0.45594000000E+02  0.51100000000E-03 0.  1.
         11   -1    0    0    0    0 -0.00000000000E+00 -0.00000000000E+00 -0.45593999997E+02  0.45594000000E+02  0.51100000000E-03 0. -1.
    9900012    2    1    2    0    0  0.15229094704E+02  0.96359672401E+01 -0.36447070644E+02  0.50528854059E+02  0.29999982397E+02 0.  0.
        -12    1    1    2    0    0 -0.15229094704E+02 -0.96359672401E+01  0.36447070644E+02  0.40659145941E+02  0.00000000000E+00 0.  1.
         11    1    3    3    0    0  0.10085843082E+02 -0.12584741560E+01 -0.25619948374E+02  0.27562469825E+02  0.51100000000E-03 0. -1.
        -11    1    3    3    0    0 -0.95844190713E-01  0.13921922889E+02 -0.92442999915E+01  0.16711858234E+02  0.51100000000E-03 0.  1.
        -12    1    3    3    0    0  0.52390958125E+01 -0.30274814928E+01 -0.15828222783E+01  0.62545260001E+01  0.00000000000E+00 0.  1.
</event>
<event>
 7    1  0.9868142E-013  0.5052889E+02  0.7816164E-02  0.1300439E+00
        -11   -1    0    0    0    0  0.00000000000E+00  0.00000000000E+00  0.45593999997E+02  0.45594000000E+02  0.51100000000E-03 0.  1.
         11   -1    0    0    0    0 -0.00000000000E+00 -0.00000000000E+00 -0.45593999997E+02  0.45594000000E+02  0.51100000000E-03 0. -1.
    9900012    2    1    2    0    0  0.18533504331E+02  0.26783339530E+02 -0.24337738057E+02  0.50528885980E+02  0.30000079425E+02 0.  0.
        -12    1    1    2    0    0 -0.18533504331E+02 -0.26783339530E+02  0.24337738057E+02  0.40659114020E+02  0.00000000000E+00 0.  1.
         11    1    3    3    0    0 -0.42953658253E+01  0.45898597926E+01 -0.81690929111E+01  0.10307815469E+02  0.51100000000E-03 0. -1.
        -11    1    3    3    0    0  0.19525990240E+02  0.16162708471E+02 -0.20055858264E+02  0.32322358994E+02  0.51100000000E-03 0.  1.
         12    1    3    3    0    0  0.33028799168E+01  0.60307712666E+01  0.38872131182E+01  0.78987115177E+01  0.00000000000E+00 0. -1.
</event>
<event>
 7    1  0.9868142E-013  0.5052887E+02  0.7816164E-02  0.1300439E+00
        -11   -1    0    0    0    0  0.00000000000E+00  0.00000000000E+00  0.45593999997E+02  0.45594000000E+02  0.51100000000E-03 0.  1.
         11   -1    0    0    0    0 -0.00000000000E+00 -0.00000000000E+00 -0.45593999997E+02  0.45594000000E+02  0.51100000000E-03 0. -1.
    9900012    2    1    2    0    0  0.13017354213E+02  0.38450017698E+02 -0.23043152265E+01  0.50528865229E+02  0.30000016349E+02 0.  0.
        -12    1    1    2    0    0 -0.13017354213E+02 -0.38450017698E+02  0.23043152265E+01  0.40659134771E+02  0.00000000000E+00 0.  1.
         11    1    3    3    0    0 -0.66090935883E+01  0.96103292813E+01 -0.30227557564E+01  0.12048883748E+02  0.51100000000E-03 0. -1.
        -11    1    3    3    0    0  0.14416814460E+02  0.23942780844E+02  0.71661150333E+01  0.28852287581E+02  0.51100000000E-03 0.  1.
         12    1    3    3    0    0  0.52096333408E+01  0.48969075731E+01 -0.64476745033E+01  0.96276938997E+01  0.00000000000E+00 0. -1.
</event>
<event>
 7    1  0.9868142E-013  0.5052887E+02  0.7816164E-02  0.1300439E+00
        -11   -1    0    0    0    0  0.00000000000E+00  0.00000000000E+00  0.45593999997E+02  0.45594000000E+02  0.51100000000E-03 0.  1.
         11   -1    0    0    0    0 -0.00000000000E+00 -0.00000000000E+00 -0.45593999997E+02  0.45594000000E+02  0.51100000000E-03 0. -1.
    9900012    2    1    2    0    0  0.10528357574E+01  0.37820224731E+02 -0.14889146139E+02  0.50528873908E+02  0.30000042729E+02 0.  0.
        -12    1    1    2    0    0 -0.10528357574E+01 -0.37820224731E+02  0.14889146139E+02  0.40659126092E+02  0.00000000000E+00 0.  1.
         11    1    3    3    0    0 -0.20707373891E+01  0.32902898402E+02 -0.53011189433E+01  0.33391474045E+02  0.51100000000E-03 0. -1.
        -11    1    3    3    0    0  0.92194240404E+00 -0.29623925464E+01 -0.82925818169E+01  0.88539630023E+01  0.51100000000E-03 0.  1.
         12    1    3    3    0    0  0.22016307425E+01  0.78797188757E+01 -0.12954453784E+01  0.82834368600E+01  0.00000000000E+00 0. -1.
</event>
<event>
 7    1  0.9868142E-013  0.5052884E+02  0.7816164E-02  0.1300439E+00
        -11   -1    0    0    0    0  0.00000000000E+00  0.00000000000E+00  0.45593999997E+02  0.45594000000E+02  0.51100000000E-03 0. -1.
         11   -1    0    0    0    0 -0.00000000000E+00 -0.00000000000E+00 -0.45593999997E+02  0.45594000000E+02  0.51100000000E-03 0.  1.
    9900012    2    1    2    0    0 -0.37288283606E+02 -0.15341982622E+02  0.52321244747E+01  0.50528835577E+02  0.29999926219E+02 0.  0.
        -12    1    1    2    0    0  0.37288283606E+02  0.15341982622E+02 -0.52321244747E+01  0.40659164423E+02  0.00000000000E+00 0.  1.
         11    1    3    3    0    0 -0.28852899420E+02 -0.10568737940E+02  0.26360302892E+01  0.30840503928E+02  0.51100000000E-03 0. -1.
        -11    1    3    3    0    0  0.40136935813E+01 -0.28936899434E+01  0.48149676645E+01  0.69041358275E+01  0.51100000000E-03 0.  1.
        -12    1    3    3    0    0 -0.12449077767E+02 -0.18795547393E+01 -0.22188734790E+01  0.12784195821E+02  0.00000000000E+00 0.  1.
</event>
<event>
 7    1  0.9868142E-013  0.5052886E+02  0.7816164E-02  0.1300439E+00
        -11   -1    0    0    0    0  0.00000000000E+00  0.00000000000E+00  0.45593999997E+02  0.45594000000E+02  0.51100000000E-03 0. -1.
         11   -1    0    0    0    0 -0.00000000000E+00 -0.00000000000E+00 -0.45593999997E+02  0.45594000000E+02  0.51100000000E-03 0.  1.
    9900012    2    1    2    0    0  0.19880318292E+02  0.11311691404E+02  0.33615234547E+02  0.50528863124E+02  0.30000009953E+02 0.  0.
        -12    1    1    2    0    0 -0.19880318292E+02 -0.11311691404E+02 -0.33615234547E+02  0.40659136876E+02  0.00000000000E+00 0.  1.
         11    1    3    3    0    0 -0.21350416744E+01  0.83981403661E+01  0.23821738492E+02  0.25348814363E+02  0.51100000000E-03 0. -1.
        -11    1    3    3    0    0 -0.42627107344E+00 -0.28363048930E+00  0.79582179805E-01  0.51815718366E+00  0.51100000000E-03 0.  1.
         12    1    3    3    0    0  0.22441631039E+02  0.31971815276E+01  0.97139138755E+01  0.24661891578E+02  0.00000000000E+00 0. -1.
</event>
<event>
 7    1  0.9868142E-013  0.5052886E+02  0.7816164E-02  0.1300439E+00
        -11   -1    0    0    0    0  0.00000000000E+00  0.00000000000E+00  0.45593999997E+02  0.45594000000E+02  0.51100000000E-03 0.  1.
         11   -1    0    0    0    0 -0.00000000000E+00 -0.00000000000E+00 -0.45593999997E+02  0.45594000000E+02  0.51100000000E-03 0. -1.
    9900012    2    1    2    0    0 -0.18409338509E+02 -0.36182387050E+02  0.22576201194E+01  0.50528859262E+02  0.29999998212E+02 0.  0.
        -12    1    1    2    0    0  0.18409338509E+02  0.36182387050E+02 -0.22576201194E+01  0.40659140738E+02  0.00000000000E+00 0.  1.
         11    1    3    3    0    0 -0.21657806183E+01 -0.20043098136E+02 -0.65905335639E+01  0.21209703475E+02  0.51100000000E-03 0. -1.
        -11    1    3    3    0    0 -0.14660599238E+02 -0.34901416964E+01  0.62188402669E+01  0.16303013022E+02  0.51100000000E-03 0.  1.
        -12    1    3    3    0    0 -0.15829586531E+01 -0.12649147217E+02  0.26293134163E+01  0.13016142764E+02  0.00000000000E+00 0.  1.
</event>
<event>
 7    1  0.9868142E-013  0.5052886E+02  0.7816164E-02  0.1300439E+00
        -11   -1    0    0    0    0  0.00000000000E+00  0.00000000000E+00  0.45593999997E+02  0.45594000000E+02  0.51100000000E-03 0.  1.
         11   -1    0    0    0    0 -0.00000000000E+00 -0.00000000000E+00 -0.45593999997E+02  0.45594000000E+02  0.51100000000E-03 0. -1.
    9900012    2    1    2    0    0 -0.47984482280E+01  0.39086414123E+02 -0.10118942018E+02  0.50528857585E+02  0.29999993114E+02 0.  0.
        -12    1    1    2    0    0  0.47984482280E+01 -0.39086414123E+02  0.10118942018E+02  0.40659142415E+02  0.00000000000E+00 0.  1.
         11    1    3    3    0    0 -0.13001664901E+01  0.38850348633E+02 -0.44452773504E+01  0.39125445848E+02  0.51100000000E-03 0. -1.
        -11    1    3    3    0    0 -0.12678313900E+01 -0.93556951872E+00  0.24416985736E+01  0.29059557710E+01  0.51100000000E-03 0.  1.
         12    1    3    3    0    0 -0.22304503479E+01  0.11716350081E+01 -0.81153632412E+01  0.84974559654E+01  0.00000000000E+00 0. -1.
</event>
<event>
 7    1  0.9868142E-013  0.5052885E+02  0.7816164E-02  0.1300439E+00
        -11   -1    0    0    0    0  0.00000000000E+00  0.00000000000E+00  0.45593999997E+02  0.45594000000E+02  0.51100000000E-03 0.  1.
         11   -1    0    0    0    0 -0.00000000000E+00 -0.00000000000E+00 -0.45593999997E+02  0.45594000000E+02  0.51100000000E-03 0. -1.
    9900012    2    1    2    0    0 -0.73277378479E+01  0.39083387436E+02  0.84829136711E+01  0.50528846789E+02  0.29999960301E+02 0.  0.
        -12    1    1    2    0    0  0.73277378479E+01 -0.39083387436E+02 -0.84829136711E+01  0.40659153211E+02  0.00000000000E+00 0.  1.
         11    1    3    3    0    0 -0.57774392246E+01 -0.33316922832E+00  0.77584692025E+01  0.96790314782E+01  0.51100000000E-03 0. -1.
        -11    1    3    3    0    0 -0.29666135486E+01  0.13489784466E+02  0.46828745157E+01  0.14584388738E+02  0.51100000000E-03 0.  1.
         12    1    3    3    0    0  0.14163149253E+01  0.25926772199E+02 -0.39584300470E+01  0.26265426573E+02  0.00000000000E+00 0. -1.
</event>
<event>
 7    1  0.9868142E-013  0.5052892E+02  0.7816164E-02  0.1300439E+00
        -11   -1    0    0    0    0  0.00000000000E+00  0.00000000000E+00  0.45593999997E+02  0.45594000000E+02  0.51100000000E-03 0.  1.
         11   -1    0    0    0    0 -0.00000000000E+00 -0.00000000000E+00 -0.45593999997E+02  0.45594000000E+02  0.51100000000E-03 0. -1.
    9900012    2    1    2    0    0 -0.19682986080E+02 -0.12560371427E+02 -0.33286299394E+02  0.50528922308E+02  0.30000189848E+02 0.  0.
        -12    1    1    2    0    0  0.19682986080E+02  0.12560371427E+02  0.33286299394E+02  0.40659077692E+02  0.00000000000E+00 0.  1.
         11    1    3    3    0    0 -0.19828295512E+01 -0.98915141465E+01 -0.16255539293E+02  0.19131550463E+02  0.51100000000E-03 0. -1.
        -11    1    3    3    0    0 -0.29533215069E+01  0.75069996126E+01 -0.78875578645E+01  0.11282318930E+02  0.51100000000E-03 0.  1.
        -12    1    3    3    0    0 -0.14746835022E+02 -0.10175856893E+02 -0.91432022361E+01  0.20115052916E+02  0.00000000000E+00 0.  1.
</event>
<event>
 7    1  0.9868142E-013  0.5052886E+02  0.7816164E-02  0.1300439E+00
        -11   -1    0    0    0    0  0.00000000000E+00  0.00000000000E+00  0.45593999997E+02  0.45594000000E+02  0.51100000000E-03 0.  1.
         11   -1    0    0    0    0 -0.00000000000E+00 -0.00000000000E+00 -0.45593999997E+02  0.45594000000E+02  0.51100000000E-03 0. -1.
    9900012    2    1    2    0    0  0.31350235424E+01  0.15317329321E+01 -0.40509152826E+02  0.50528855382E+02  0.29999986419E+02 0.  0.
        -12    1    1    2    0    0 -0.31350235424E+01 -0.15317329321E+01  0.40509152826E+02  0.40659144618E+02  0.00000000000E+00 0.  1.
         11    1    3    3    0    0 -0.92232388112E+00  0.12222502865E+02 -0.28986723892E+02  0.31471740020E+02  0.51100000000E-03 0. -1.
        -11    1    3    3    0    0  0.74067616691E+01 -0.69318814477E+01 -0.77007130082E+01  0.12736250623E+02  0.51100000000E-03 0.  1.
         12    1    3    3    0    0 -0.33494142455E+01 -0.37588884854E+01 -0.38217159253E+01  0.63208647389E+01  0.00000000000E+00 0. -1.
</event>
<event>
 7    1  0.9868142E-013  0.5052888E+02  0.7816164E-02  0.1300439E+00
        -11   -1    0    0    0    0  0.00000000000E+00  0.00000000000E+00  0.45593999997E+02  0.45594000000E+02  0.51100000000E-03 0.  1.
         11   -1    0    0    0    0 -0.00000000000E+00 -0.00000000000E+00 -0.45593999997E+02  0.45594000000E+02  0.51100000000E-03 0. -1.
    9900012    2    1    2    0    0 -0.20230730971E+02 -0.10454639216E+01 -0.35253201551E+02  0.50528884293E+02  0.30000074298E+02 0.  0.
        -12    1    1    2    0    0  0.20230730971E+02  0.10454639216E+01  0.35253201551E+02  0.40659115707E+02  0.00000000000E+00 0.  1.
         11    1    3    3    0    0  0.32197951795E+00 -0.88887840334E+00 -0.23168877369E+02  0.23188157633E+02  0.51100000000E-03 0. -1.
        -11    1    3    3    0    0 -0.14891192030E+02 -0.16046658370E+01 -0.12482336345E+01  0.15029325999E+02  0.51100000000E-03 0.  1.
        -12    1    3    3    0    0 -0.56615184583E+01  0.14480803187E+01 -0.10836090548E+02  0.12311400661E+02  0.00000000000E+00 0.  1.
</event>
<event>
 7    1  0.9868142E-013  0.5052885E+02  0.7816164E-02  0.1300439E+00
        -11   -1    0    0    0    0  0.00000000000E+00  0.00000000000E+00  0.45593999997E+02  0.45594000000E+02  0.51100000000E-03 0. -1.
         11   -1    0    0    0    0 -0.00000000000E+00 -0.00000000000E+00 -0.45593999997E+02  0.45594000000E+02  0.51100000000E-03 0.  1.
    9900012    2    1    2    0    0  0.12836705800E+02 -0.13712449052E+02  0.36060422092E+02  0.50528851998E+02  0.29999976134E+02 0.  0.
        -12    1    1    2    0    0 -0.12836705800E+02  0.13712449052E+02 -0.36060422092E+02  0.40659148002E+02  0.00000000000E+00 0.  1.
         11    1    3    3    0    0  0.23029382851E+01 -0.20712462664E+02  0.24680127689E+02  0.32301986585E+02  0.51100000000E-03 0. -1.
        -11    1    3    3    0    0  0.10394558358E+02  0.65111333758E+01  0.76359246327E+01  0.14448150281E+02  0.51100000000E-03 0.  1.
         12    1    3    3    0    0  0.13920915728E+00  0.48888023621E+00  0.37443697695E+01  0.37787151315E+01  0.00000000000E+00 0. -1.
</event>
<event>
 7    1  0.9868142E-013  0.5052899E+02  0.7816164E-02  0.1300438E+00
        -11   -1    0    0    0    0  0.00000000000E+00  0.00000000000E+00  0.45593999997E+02  0.45594000000E+02  0.51100000000E-03 0.  1.
         11   -1    0    0    0    0 -0.00000000000E+00 -0.00000000000E+00 -0.45593999997E+02  0.45594000000E+02  0.51100000000E-03 0. -1.
    9900012    2    1    2    0    0 -0.18699020876E+02 -0.33855703307E+02 -0.12541661887E+02  0.50528987333E+02  0.30000387496E+02 0.  0.
        -12    1    1    2    0    0  0.18699020876E+02  0.33855703307E+02  0.12541661887E+02  0.40659012667E+02  0.00000000000E+00 0.  1.
         11    1    3    3    0    0 -0.14327117494E+02 -0.33157277987E+02 -0.11338472642E+02  0.37858055171E+02  0.51100000000E-03 0. -1.
        -11    1    3    3    0    0 -0.24298486024E+00 -0.18286197631E+01  0.48888196714E+01  0.52252703204E+01  0.51100000000E-03 0.  1.
         12    1    3    3    0    0 -0.41289185211E+01  0.11301944427E+01 -0.60920089167E+01  0.74456618425E+01  0.00000000000E+00 0. -1.
</event>
<event>
 7    1  0.9868142E-013  0.5052887E+02  0.7816164E-02  0.1300439E+00
        -11   -1    0    0    0    0  0.00000000000E+00  0.00000000000E+00  0.45593999997E+02  0.45594000000E+02  0.51100000000E-03 0.  1.
         11   -1    0    0    0    0 -0.00000000000E+00 -0.00000000000E+00 -0.45593999997E+02  0.45594000000E+02  0.51100000000E-03 0. -1.
    9900012    2    1    2    0    0  0.18508156103E+02  0.32021038891E+02 -0.16889828165E+02  0.50528867330E+02  0.30000022738E+02 0.  0.
        -12    1    1    2    0    0 -0.18508156103E+02 -0.32021038891E+02  0.16889828165E+02  0.40659132670E+02  0.00000000000E+00 0.  1.
         11    1    3    3    0    0  0.84162440031E+01  0.16425907834E+02 -0.50766251540E+01  0.19141988781E+02  0.51100000000E-03 0. -1.
        -11    1    3    3    0    0  0.10647460152E+02  0.56154520923E+01 -0.16437514777E+02  0.20373846033E+02  0.51100000000E-03 0.  1.
        -12    1    3    3    0    0 -0.55554805235E+00  0.99796789655E+01  0.46243117660E+01  0.11013032516E+02  0.00000000000E+00 0.  1.
</event>
<event>
 7    1  0.9868142E-013  0.5052886E+02  0.7816164E-02  0.1300439E+00
        -11   -1    0    0    0    0  0.00000000000E+00  0.00000000000E+00  0.45593999997E+02  0.45594000000E+02  0.51100000000E-03 0.  1.
         11   -1    0    0    0    0 -0.00000000000E+00 -0.00000000000E+00 -0.45593999997E+02  0.45594000000E+02  0.51100000000E-03 0. -1.
    9900012    2    1    2    0    0  0.16435859126E+02 -0.29131598063E+02 -0.23116618255E+02  0.50528861907E+02  0.30000006253E+02 0.  0.
        -12    1    1    2    0    0 -0.16435859126E+02  0.29131598063E+02  0.23116618255E+02  0.40659138093E+02  0.00000000000E+00 0.  1.
         11    1    3    3    0    0  0.19666955702E+00  0.37775753752E+01  0.14032719884E+01  0.40345913256E+01  0.51100000000E-03 0. -1.
        -11    1    3    3    0    0  0.11023967516E+02 -0.10493225414E+02 -0.41886881241E+01  0.15785460013E+02  0.51100000000E-03 0.  1.
         12    1    3    3    0    0  0.52152220527E+01 -0.22415948025E+02 -0.20331202119E+02  0.30708810568E+02  0.00000000000E+00 0. -1.
</event>
<event>
 7    1  0.9868142E-013  0.5052886E+02  0.7816164E-02  0.1300439E+00
        -11   -1    0    0    0    0  0.00000000000E+00  0.00000000000E+00  0.45593999997E+02  0.45594000000E+02  0.51100000000E-03 0.  1.
         11   -1    0    0    0    0 -0.00000000000E+00 -0.00000000000E+00 -0.45593999997E+02  0.45594000000E+02  0.51100000000E-03 0. -1.
    9900012    2    1    2    0    0 -0.36196261931E+02 -0.10971880294E+01 -0.18487628482E+02  0.50528860729E+02  0.30000002672E+02 0.  0.
        -12    1    1    2    0    0  0.36196261931E+02  0.10971880294E+01  0.18487628482E+02  0.40659139271E+02  0.00000000000E+00 0.  1.
         11    1    3    3    0    0 -0.51561165723E+01  0.84291506449E+01 -0.14093029914E+02  0.17211903182E+02  0.51100000000E-03 0. -1.
        -11    1    3    3    0    0 -0.23346206131E+02 -0.76389002056E+01 -0.69597577407E+00  0.24574021234E+02  0.51100000000E-03 0.  1.
         12    1    3    3    0    0 -0.76939392276E+01 -0.18874384687E+01 -0.36986227930E+01  0.87429363132E+01  0.00000000000E+00 0. -1.
</event>
<event>
 7    1  0.9868142E-013  0.5052886E+02  0.7816164E-02  0.1300439E+00
        -11   -1    0    0    0    0  0.00000000000E+00  0.00000000000E+00  0.45593999997E+02  0.45594000000E+02  0.51100000000E-03 0.  1.
         11   -1    0    0    0    0 -0.00000000000E+00 -0.00000000000E+00 -0.45593999997E+02  0.45594000000E+02  0.51100000000E-03 0. -1.
    9900012    2    1    2    0    0  0.20568664161E+02  0.31632823981E+02  0.15147946173E+02  0.50528858695E+02  0.29999996490E+02 0.  0.
        -12    1    1    2    0    0 -0.20568664161E+02 -0.31632823981E+02 -0.15147946173E+02  0.40659141305E+02  0.00000000000E+00 0.  1.
         11    1    3    3    0    0  0.28511974906E+01  0.15260296543E+02 -0.48550076353E+01  0.16265825436E+02  0.51100000000E-03 0. -1.
        -11    1    3    3    0    0  0.13755576237E+02  0.16941773146E+02  0.20838467748E+02  0.30174182562E+02  0.51100000000E-03 0.  1.
        -12    1    3    3    0    0  0.39618904332E+01 -0.56924570805E+00 -0.83551393950E+00  0.40888506972E+01  0.00000000000E+00 0.  1.
</event>
<event>
 7    1  0.1009085E-012  0.5052888E+02  0.7816164E-02  0.1300439E+00
        -11   -1    0    0    0    0  0.00000000000E+00  0.00000000000E+00  0.45593999997E+02  0.45594000000E+02  0.51100000000E-03 0. -1.
         11   -1    0    0    0    0 -0.00000000000E+00 -0.00000000000E+00 -0.45593999997E+02  0.45594000000E+02  0.51100000000E-03 0.  1.
    9900012    2    1    2    0    0 -0.32624799310E+02  0.84655767518E+01  0.22740277189E+02  0.50528883846E+02  0.30000072939E+02 0.  0.
        -12    1    1    2    0    0  0.32624799310E+02 -0.84655767518E+01 -0.22740277189E+02  0.40659116154E+02  0.00000000000E+00 0.  1.
         11    1    3    3    0    0 -0.10410631274E+02  0.10215374731E+02  0.19593758313E+02  0.24426430143E+02  0.51100000000E-03 0. -1.
        -11    1    3    3    0    0 -0.22917775669E+02 -0.37509991174E+00  0.52291147792E+01  0.23509759318E+02  0.51100000000E-03 0.  1.
        -12    1    3    3    0    0  0.70360763273E+00 -0.13746980680E+01 -0.20825959034E+01  0.25926943853E+01  0.00000000000E+00 0.  1.
</event>
<event>
 7    1  0.9868142E-013  0.5052886E+02  0.7816164E-02  0.1300439E+00
        -11   -1    0    0    0    0  0.00000000000E+00  0.00000000000E+00  0.45593999997E+02  0.45594000000E+02  0.51100000000E-03 0.  1.
         11   -1    0    0    0    0 -0.00000000000E+00 -0.00000000000E+00 -0.45593999997E+02  0.45594000000E+02  0.51100000000E-03 0. -1.
    9900012    2    1    2    0    0  0.91950561503E+01  0.39383200031E+02  0.41929034011E+01  0.50528856610E+02  0.29999990151E+02 0.  0.
        -12    1    1    2    0    0 -0.91950561503E+01 -0.39383200031E+02 -0.41929034011E+01  0.40659143390E+02  0.00000000000E+00 0.  1.
         11    1    3    3    0    0  0.10731755777E+02  0.13601900808E+01  0.32580366912E+00  0.10822515762E+02  0.51100000000E-03 0.  1.
        -11    1    3    3    0    0 -0.49224093744E+01  0.24772309593E+02 -0.76095890750E+00  0.25268092436E+02  0.51100000000E-03 0. -1.
        -12    1    3    3    0    0  0.33857097475E+01  0.13250700357E+02  0.46280586395E+01  0.14438248412E+02  0.00000000000E+00 0.  1.
</event>
<event>
 7    1  0.9868142E-013  0.5052886E+02  0.7816164E-02  0.1300439E+00
        -11   -1    0    0    0    0  0.00000000000E+00  0.00000000000E+00  0.45593999997E+02  0.45594000000E+02  0.51100000000E-03 0.  1.
         11   -1    0    0    0    0 -0.00000000000E+00 -0.00000000000E+00 -0.45593999997E+02  0.45594000000E+02  0.51100000000E-03 0. -1.
    9900012    2    1    2    0    0  0.37783589264E+02  0.13261284536E+02 -0.70501107575E+01  0.50528863918E+02  0.30000012366E+02 0.  0.
        -12    1    1    2    0    0 -0.37783589264E+02 -0.13261284536E+02  0.70501107575E+01  0.40659136082E+02  0.00000000000E+00 0.  1.
         11    1    3    3    0    0  0.14464790199E+02  0.47493551141E+01  0.90388541990E+01  0.17705575816E+02  0.51100000000E-03 0. -1.
        -11    1    3    3    0    0  0.82532516230E+01  0.19340406561E+01 -0.13842137815E+02  0.16231495777E+02  0.51100000000E-03 0.  1.
         12    1    3    3    0    0  0.15065547442E+02  0.65778887660E+01 -0.22468271417E+01  0.16591792325E+02  0.00000000000E+00 0. -1.
</event>
<event>
 7    1  0.9868142E-013  0.5052886E+02  0.7816164E-02  0.1300439E+00
        -11   -1    0    0    0    0  0.00000000000E+00  0.00000000000E+00  0.45593999997E+02  0.45594000000E+02  0.51100000000E-03 0. -1.
         11   -1    0    0    0    0 -0.00000000000E+00 -0.00000000000E+00 -0.45593999997E+02  0.45594000000E+02  0.51100000000E-03 0.  1.
    9900012    2    1    2    0    0  0.40757345386E+01  0.30475200232E+02  0.26604812910E+02  0.50528861898E+02  0.30000006226E+02 0.  0.
        -12    1    1    2    0    0 -0.40757345386E+01 -0.30475200232E+02 -0.26604812910E+02  0.40659138102E+02  0.00000000000E+00 0.  1.
         11    1    3    3    0    0  0.10490608556E+02  0.24358879612E+02  0.27144722985E+02  0.37950545055E+02  0.51100000000E-03 0. -1.
        -11    1    3    3    0    0 -0.31880830424E+01 -0.14882474059E+01 -0.22037991057E+01  0.41515641131E+01  0.51100000000E-03 0.  1.
        -12    1    3    3    0    0 -0.32267909752E+01  0.76045680262E+01  0.16638890307E+01  0.84267527298E+01  0.00000000000E+00 0.  1.
</event>
<event>
 7    1  0.9868142E-013  0.5052887E+02  0.7816164E-02  0.1300439E+00
        -11   -1    0    0    0    0  0.00000000000E+00  0.00000000000E+00  0.45593999997E+02  0.45594000000E+02  0.51100000000E-03 0. -1.
         11   -1    0    0    0    0 -0.00000000000E+00 -0.00000000000E+00 -0.45593999997E+02  0.45594000000E+02  0.51100000000E-03 0.  1.
    9900012    2    1    2    0    0  0.25641086512E+02  0.31134471505E+02  0.51327006620E+01  0.50528865116E+02  0.30000016006E+02 0.  0.
        -12    1    1    2    0    0 -0.25641086512E+02 -0.31134471505E+02 -0.51327006620E+01  0.40659134884E+02  0.00000000000E+00 0.  1.
         11    1    3    3    0    0  0.30614629933E+01  0.17713373311E+02 -0.25676465455E+01  0.18158440428E+02  0.51100000000E-03 0. -1.
        -11    1    3    3    0    0  0.55634226519E+01  0.24190863283E+01  0.10287231294E+02  0.11942812828E+02  0.51100000000E-03 0.  1.
         12    1    3    3    0    0  0.17016200867E+02  0.11002011866E+02 -0.25868840869E+01  0.20427611861E+02  0.00000000000E+00 0. -1.
</event>
<event>
 7    1  0.9868142E-013  0.5052886E+02  0.7816164E-02  0.1300439E+00
        -11   -1    0    0    0    0  0.00000000000E+00  0.00000000000E+00  0.45593999997E+02  0.45594000000E+02  0.51100000000E-03 0.  1.
         11   -1    0    0    0    0 -0.00000000000E+00 -0.00000000000E+00 -0.45593999997E+02  0.45594000000E+02  0.51100000000E-03 0. -1.
    9900012    2    1    2    0    0 -0.21257684124E+02 -0.29590311065E+02  0.18046887930E+02  0.50528858258E+02  0.29999995161E+02 0.  0.
        -12    1    1    2    0    0  0.21257684124E+02  0.29590311065E+02 -0.18046887930E+02  0.40659141742E+02  0.00000000000E+00 0.  1.
         11    1    3    3    0    0 -0.62676303788E+01  0.55342507465E+01  0.59430701480E+01  0.10258226208E+02  0.51100000000E-03 0. -1.
        -11    1    3    3    0    0 -0.76449070042E+01 -0.22783808704E+02  0.70275385292E+01  0.25038626963E+02  0.51100000000E-03 0.  1.
         12    1    3    3    0    0 -0.73451467414E+01 -0.12340753107E+02  0.50762792529E+01  0.15232005087E+02  0.00000000000E+00 0. -1.
</event>
<event>
 7    1  0.9868142E-013  0.5052886E+02  0.7816164E-02  0.1300439E+00
        -11   -1    0    0    0    0  0.00000000000E+00  0.00000000000E+00  0.45593999997E+02  0.45594000000E+02  0.51100000000E-03 0. -1.
         11   -1    0    0    0    0 -0.00000000000E+00 -0.00000000000E+00 -0.45593999997E+02  0.45594000000E+02  0.51100000000E-03 0.  1.
    9900012    2    1    2    0    0 -0.35407516661E+02  0.47238608715E+01  0.19420580669E+02  0.50528855258E+02  0.29999986042E+02 0.  0.
        -12    1    1    2    0    0  0.35407516661E+02 -0.47238608715E+01 -0.19420580669E+02  0.40659144742E+02  0.00000000000E+00 0.  1.
         11    1    3    3    0    0 -0.12988127066E+02  0.13565257091E+02  0.36811798528E+00  0.18784119776E+02  0.51100000000E-03 0. -1.
        -11    1    3    3    0    0 -0.14901285377E+02 -0.87301720474E+01  0.99248085173E+01  0.19918986777E+02  0.51100000000E-03 0.  1.
         12    1    3    3    0    0 -0.75181042181E+01 -0.11122417211E+00  0.91276541668E+01  0.11825748705E+02  0.00000000000E+00 0. -1.
</event>
<event>
 7    1  0.9868142E-013  0.5052885E+02  0.7816164E-02  0.1300439E+00
        -11   -1    0    0    0    0  0.00000000000E+00  0.00000000000E+00  0.45593999997E+02  0.45594000000E+02  0.51100000000E-03 0.  1.
         11   -1    0    0    0    0 -0.00000000000E+00 -0.00000000000E+00 -0.45593999997E+02  0.45594000000E+02  0.51100000000E-03 0. -1.
    9900012    2    1    2    0    0 -0.25237463613E+02 -0.31878298986E+02 -0.10291045253E+00  0.50528854578E+02  0.29999983976E+02 0.  0.
        -12    1    1    2    0    0  0.25237463613E+02  0.31878298986E+02  0.10291045253E+00  0.40659145422E+02  0.00000000000E+00 0.  1.
         11    1    3    3    0    0 -0.18429099082E+02 -0.30346031253E+02 -0.10070867404E+02  0.36904412694E+02  0.51100000000E-03 0. -1.
        -11    1    3    3    0    0 -0.52021782369E+01  0.15613972353E+01  0.41233080523E+01  0.68192587054E+01  0.51100000000E-03 0.  1.
         12    1    3    3    0    0 -0.16061862943E+01 -0.30936649686E+01  0.58446488988E+01  0.68051831790E+01  0.00000000000E+00 0. -1.
</event>
<event>
 7    1  0.9868142E-013  0.5052886E+02  0.7816164E-02  0.1300439E+00
        -11   -1    0    0    0    0  0.00000000000E+00  0.00000000000E+00  0.45593999997E+02  0.45594000000E+02  0.51100000000E-03 0.  1.
         11   -1    0    0    0    0 -0.00000000000E+00 -0.00000000000E+00 -0.45593999997E+02  0.45594000000E+02  0.51100000000E-03 0. -1.
    9900012    2    1    2    0    0 -0.31599170611E+01  0.32230386933E+02 -0.24584192881E+02  0.50528862561E+02  0.30000008240E+02 0.  0.
        -12    1    1    2    0    0  0.31599170611E+01 -0.32230386933E+02  0.24584192881E+02  0.40659137439E+02  0.00000000000E+00 0.  1.
         11    1    3    3    0    0  0.27563121784E+01  0.30882816347E+02 -0.95683959423E+01  0.32448417581E+02  0.51100000000E-03 0. -1.
        -11    1    3    3    0    0 -0.64579910411E+01  0.33446631498E+01 -0.82145793275E+01  0.10971405273E+02  0.51100000000E-03 0.  1.
         12    1    3    3    0    0  0.54176180162E+00 -0.19970925639E+01 -0.68012176115E+01  0.71090397072E+01  0.00000000000E+00 0. -1.
</event>
<event>
 7    1  0.9868142E-013  0.5052888E+02  0.7816164E-02  0.1300439E+00
        -11   -1    0    0    0    0  0.00000000000E+00  0.00000000000E+00  0.45593999997E+02  0.45594000000E+02  0.51100000000E-03 0.  1.
         11   -1    0    0    0    0 -0.00000000000E+00 -0.00000000000E+00 -0.45593999997E+02  0.45594000000E+02  0.51100000000E-03 0. -1.
    9900012    2    1    2    0    0  0.17611361628E+02 -0.33625396313E+02 -0.14571785972E+02  0.50528877014E+02  0.30000052172E+02 0.  0.
        -12    1    1    2    0    0 -0.17611361628E+02  0.33625396313E+02  0.14571785972E+02  0.40659122986E+02  0.00000000000E+00 0.  1.
         11    1    3    3    0    0  0.28529817789E+01 -0.26876500735E+02 -0.78338113719E+01  0.28139907563E+02  0.51100000000E-03 0. -1.
        -11    1    3    3    0    0  0.13752482073E+02 -0.78450090148E+01 -0.35687484381E+00  0.15836738602E+02  0.51100000000E-03 0.  1.
        -12    1    3    3    0    0  0.10058977754E+01  0.10961134371E+01 -0.63810997561E+01  0.65522308490E+01  0.00000000000E+00 0.  1.
</event>
<event>
 7    1  0.9868142E-013  0.5052886E+02  0.7816164E-02  0.1300439E+00
        -11   -1    0    0    0    0  0.00000000000E+00  0.00000000000E+00  0.45593999997E+02  0.45594000000E+02  0.51100000000E-03 0. -1.
         11   -1    0    0    0    0 -0.00000000000E+00 -0.00000000000E+00 -0.45593999997E+02  0.45594000000E+02  0.51100000000E-03 0.  1.
    9900012    2    1    2    0    0 -0.31139708245E+01  0.30937517796E+02 -0.26198074196E+02  0.50528856954E+02  0.29999991197E+02 0.  0.
        -12    1    1    2    0    0  0.31139708245E+01 -0.30937517796E+02  0.26198074196E+02  0.40659143046E+02  0.00000000000E+00 0.  1.
         11    1    3    3    0    0 -0.14020891932E+02  0.16217159863E+02 -0.77479812978E+01  0.22795019172E+02  0.51100000000E-03 0. -1.
        -11    1    3    3    0    0  0.12144876840E+02  0.13834426650E+02 -0.14291234839E+02  0.23305123636E+02  0.51100000000E-03 0.  1.
         12    1    3    3    0    0 -0.12379557321E+01  0.88593128297E+00 -0.41588580589E+01  0.44287141460E+01  0.00000000000E+00 0. -1.
</event>
<event>
 7    1  0.9868142E-013  0.5052883E+02  0.7816164E-02  0.1300439E+00
        -11   -1    0    0    0    0  0.00000000000E+00  0.00000000000E+00  0.45593999997E+02  0.45594000000E+02  0.51100000000E-03 0.  1.
         11   -1    0    0    0    0 -0.00000000000E+00 -0.00000000000E+00 -0.45593999997E+02  0.45594000000E+02  0.51100000000E-03 0. -1.
    9900012    2    1    2    0    0  0.24415493658E+02  0.28035159832E+02 -0.16464563661E+02  0.50528826694E+02  0.29999899218E+02 0.  0.
        -12    1    1    2    0    0 -0.24415493658E+02 -0.28035159832E+02  0.16464563661E+02  0.40659173306E+02  0.00000000000E+00 0.  1.
         11    1    3    3    0    0  0.28229116569E+01  0.17627025142E+02 -0.96005239792E+01  0.20269457479E+02  0.51100000000E-03 0. -1.
        -11    1    3    3    0    0  0.58317654267E+01 -0.28597825625E+01  0.33012661631E+01  0.72860279191E+01  0.51100000000E-03 0.  1.
         12    1    3    3    0    0  0.15760816575E+02  0.13267917253E+02 -0.10165305845E+02  0.22973341295E+02  0.00000000000E+00 0. -1.
</event>
<event>
 7    1  0.9868142E-013  0.5052885E+02  0.7816164E-02  0.1300439E+00
        -11   -1    0    0    0    0  0.00000000000E+00  0.00000000000E+00  0.45593999997E+02  0.45594000000E+02  0.51100000000E-03 0.  1.
         11   -1    0    0    0    0 -0.00000000000E+00 -0.00000000000E+00 -0.45593999997E+02  0.45594000000E+02  0.51100000000E-03 0. -1.
    9900012    2    1    2    0    0  0.11549210266E+01 -0.31051606480E+02 -0.26222700716E+02  0.50528854160E+02  0.29999982705E+02 0.  0.
        -12    1    1    2    0    0 -0.11549210266E+01  0.31051606480E+02  0.26222700716E+02  0.40659145840E+02  0.00000000000E+00 0.  1.
         11    1    3    3    0    0  0.35940402368E+01 -0.20451504445E+02 -0.10986684159E+02  0.23492304875E+02  0.51100000000E-03 0. -1.
        -11    1    3    3    0    0 -0.74486717580E+01 -0.62207397937E+01  0.73743410979E+00  0.97326319085E+01  0.51100000000E-03 0.  1.
        -12    1    3    3    0    0  0.50095525479E+01 -0.43793622420E+01 -0.15973450666E+02  0.17303917376E+02  0.00000000000E+00 0.  1.
</event>
<event>
 7    1  0.9868142E-013  0.5052886E+02  0.7816164E-02  0.1300439E+00
        -11   -1    0    0    0    0  0.00000000000E+00  0.00000000000E+00  0.45593999997E+02  0.45594000000E+02  0.51100000000E-03 0.  1.
         11   -1    0    0    0    0 -0.00000000000E+00 -0.00000000000E+00 -0.45593999997E+02  0.45594000000E+02  0.51100000000E-03 0. -1.
    9900012    2    1    2    0    0 -0.21916754044E+02 -0.35892175147E+00 -0.34244602480E+02  0.50528859187E+02  0.29999997984E+02 0.  0.
        -12    1    1    2    0    0  0.21916754044E+02  0.35892175147E+00  0.34244602480E+02  0.40659140813E+02  0.00000000000E+00 0.  1.
         11    1    3    3    0    0  0.65106196903E+01 -0.12583382168E+01 -0.26096022297E+01  0.71261215172E+01  0.51100000000E-03 0. -1.
        -11    1    3    3    0    0 -0.15640886787E+02  0.46363653506E+01 -0.18996659096E+02  0.25040093455E+02  0.51100000000E-03 0.  1.
         12    1    3    3    0    0 -0.12786486947E+02 -0.37369488853E+01 -0.12638341155E+02  0.18362644215E+02  0.00000000000E+00 0. -1.
</event>
<event>
 7    1  0.9868142E-013  0.5052884E+02  0.7816164E-02  0.1300439E+00
        -11   -1    0    0    0    0  0.00000000000E+00  0.00000000000E+00  0.45593999997E+02  0.45594000000E+02  0.51100000000E-03 0.  1.
         11   -1    0    0    0    0 -0.00000000000E+00 -0.00000000000E+00 -0.45593999997E+02  0.45594000000E+02  0.51100000000E-03 0. -1.
    9900012    2    1    2    0    0  0.26195583142E+02 -0.15391127426E+02 -0.27019843907E+02  0.50528839355E+02  0.29999937702E+02 0.  0.
        -12    1    1    2    0    0 -0.26195583142E+02  0.15391127426E+02  0.27019843907E+02  0.40659160645E+02  0.00000000000E+00 0.  1.
         11    1    3    3    0    0 -0.13042449247E+00 -0.88121026094E+01 -0.13777337905E+02  0.16354974869E+02  0.51100000000E-03 0. -1.
        -11    1    3    3    0    0  0.20866119863E+02 -0.39761223004E+01 -0.19088350875E+01  0.21327169487E+02  0.51100000000E-03 0.  1.
         12    1    3    3    0    0  0.54598877722E+01 -0.26029025166E+01 -0.11333670915E+02  0.12846694999E+02  0.00000000000E+00 0. -1.
</event>
<event>
 7    1  0.1010211E-012  0.5052886E+02  0.7816164E-02  0.1300439E+00
        -11   -1    0    0    0    0  0.00000000000E+00  0.00000000000E+00  0.45593999997E+02  0.45594000000E+02  0.51100000000E-03 0.  1.
         11   -1    0    0    0    0 -0.00000000000E+00 -0.00000000000E+00 -0.45593999997E+02  0.45594000000E+02  0.51100000000E-03 0. -1.
    9900012    2    1    2    0    0  0.33565136773E+02  0.58648238969E+01 -0.22184486028E+02  0.50528856056E+02  0.29999988468E+02 0.  0.
        -12    1    1    2    0    0 -0.33565136773E+02 -0.58648238969E+01  0.22184486028E+02  0.40659143944E+02  0.00000000000E+00 0.  1.
         11    1    3    3    0    0  0.11041690672E+02  0.11251963594E+02 -0.90324886730E+01  0.18168969963E+02  0.51100000000E-03 0. -1.
        -11    1    3    3    0    0  0.54078802169E+01 -0.59112934689E+01 -0.12958504945E+02  0.15235202971E+02  0.51100000000E-03 0.  1.
        -12    1    3    3    0    0  0.17115565884E+02  0.52415377129E+00 -0.19349241063E+00  0.17124683122E+02  0.00000000000E+00 0.  1.
</event>
<event>
 7    1  0.9868142E-013  0.5052884E+02  0.7816164E-02  0.1300439E+00
        -11   -1    0    0    0    0  0.00000000000E+00  0.00000000000E+00  0.45593999997E+02  0.45594000000E+02  0.51100000000E-03 0. -1.
         11   -1    0    0    0    0 -0.00000000000E+00 -0.00000000000E+00 -0.45593999997E+02  0.45594000000E+02  0.51100000000E-03 0.  1.
    9900012    2    1    2    0    0  0.32511096730E+02 -0.19095644596E+02  0.15216832940E+02  0.50528842878E+02  0.29999948413E+02 0.  0.
        -12    1    1    2    0    0 -0.32511096730E+02  0.19095644596E+02 -0.15216832940E+02  0.40659157122E+02  0.00000000000E+00 0.  1.
         11    1    3    3    0    0  0.12204825151E+02 -0.16433007100E+02  0.10513740346E+02  0.23011740821E+02  0.51100000000E-03 0. -1.
        -11    1    3    3    0    0  0.17873341438E+02  0.39815866053E+01  0.76592214091E+01  0.19848754090E+02  0.51100000000E-03 0.  1.
         12    1    3    3    0    0  0.24329301405E+01 -0.66442241012E+01 -0.29561288145E+01  0.76683479671E+01  0.00000000000E+00 0. -1.
</event>
<event>
 7    1  0.1580004E-012  0.5052885E+02  0.7816164E-02  0.1300439E+00
        -11   -1    0    0    0    0  0.00000000000E+00  0.00000000000E+00  0.45593999997E+02  0.45594000000E+02  0.51100000000E-03 0.  1.
         11   -1    0    0    0    0 -0.00000000000E+00 -0.00000000000E+00 -0.45593999997E+02  0.45594000000E+02  0.51100000000E-03 0. -1.
    9900012    2    1    2    0    0  0.39330836144E+02 -0.98517642559E+01  0.30322269547E+01  0.50528851816E+02  0.29999975579E+02 0.  0.
        -12    1    1    2    0    0 -0.39330836144E+02  0.98517642559E+01 -0.30322269547E+01  0.40659148184E+02  0.00000000000E+00 0.  1.
         11    1    3    3    0    0  0.29560469581E+02 -0.92930912760E+01  0.28308087392E+01  0.31115854250E+02  0.51100000000E-03 0. -1.
        -11    1    3    3    0    0 -0.80285276519E+00 -0.22260096251E+01  0.65525286605E+01  0.69667297580E+01  0.51100000000E-03 0.  1.
        -12    1    3    3    0    0  0.10573219329E+02  0.16673366452E+01 -0.63511104449E+01  0.12446267808E+02  0.00000000000E+00 0.  1.
</event>
<event>
 7    1  0.9868142E-013  0.5052885E+02  0.7816164E-02  0.1300439E+00
        -11   -1    0    0    0    0  0.00000000000E+00  0.00000000000E+00  0.45593999997E+02  0.45594000000E+02  0.51100000000E-03 0.  1.
         11   -1    0    0    0    0 -0.00000000000E+00 -0.00000000000E+00 -0.45593999997E+02  0.45594000000E+02  0.51100000000E-03 0. -1.
    9900012    2    1    2    0    0  0.30262979395E+02  0.26725888152E+02 -0.48005527110E+01  0.50528851882E+02  0.29999975780E+02 0.  0.
        -12    1    1    2    0    0 -0.30262979395E+02 -0.26725888152E+02  0.48005527110E+01  0.40659148118E+02  0.00000000000E+00 0.  1.
         11    1    3    3    0    0  0.76572508565E+00  0.16618606841E+02  0.28049225386E+01  0.16871040838E+02  0.51100000000E-03 0. -1.
        -11    1    3    3    0    0  0.57476702035E+01  0.19971122047E+01  0.25332479834E+01  0.65910177919E+01  0.51100000000E-03 0.  1.
         12    1    3    3    0    0  0.23749584106E+02  0.81101691058E+01 -0.10138723233E+02  0.27066793252E+02  0.00000000000E+00 0. -1.
</event>
<event>
 7    1  0.9868142E-013  0.5052884E+02  0.7816164E-02  0.1300439E+00
        -11   -1    0    0    0    0  0.00000000000E+00  0.00000000000E+00  0.45593999997E+02  0.45594000000E+02  0.51100000000E-03 0.  1.
         11   -1    0    0    0    0 -0.00000000000E+00 -0.00000000000E+00 -0.45593999997E+02  0.45594000000E+02  0.51100000000E-03 0. -1.
    9900012    2    1    2    0    0  0.45896121866E+01  0.39768822932E+01 -0.40203074672E+02  0.50528839336E+02  0.29999937645E+02 0.  0.
        -12    1    1    2    0    0 -0.45896121866E+01 -0.39768822932E+01  0.40203074672E+02  0.40659160664E+02  0.00000000000E+00 0.  1.
         11    1    3    3    0    0  0.70051363846E+01 -0.14402232534E+01 -0.32733070391E+02  0.33505224612E+02  0.51100000000E-03 0. -1.
        -11    1    3    3    0    0  0.56496647883E+01  0.31904929710E+01 -0.12737309807E+01  0.66121364543E+01  0.51100000000E-03 0.  1.
        -12    1    3    3    0    0 -0.80651889863E+01  0.22266125756E+01 -0.61962733005E+01  0.10411478270E+02  0.00000000000E+00 0.  1.
</event>
<event>
 7    1  0.9868142E-013  0.5052887E+02  0.7816164E-02  0.1300439E+00
        -11   -1    0    0    0    0  0.00000000000E+00  0.00000000000E+00  0.45593999997E+02  0.45594000000E+02  0.51100000000E-03 0. -1.
         11   -1    0    0    0    0 -0.00000000000E+00 -0.00000000000E+00 -0.45593999997E+02  0.45594000000E+02  0.51100000000E-03 0.  1.
    9900012    2    1    2    0    0 -0.89150460915E+01 -0.33651151295E+02  0.21006827364E+02  0.50528870322E+02  0.30000031831E+02 0.  0.
        -12    1    1    2    0    0  0.89150460915E+01  0.33651151295E+02 -0.21006827364E+02  0.40659129678E+02  0.00000000000E+00 0.  1.
         11    1    3    3    0    0 -0.31371319713E+01 -0.21143594690E+02  0.13227451076E+02  0.25136798835E+02  0.51100000000E-03 0. -1.
        -11    1    3    3    0    0 -0.75204230676E+01 -0.15379475960E+01 -0.44491179768E+01  0.88722430623E+01  0.51100000000E-03 0.  1.
        -12    1    3    3    0    0  0.17425089474E+01 -0.10969609008E+02  0.12228494264E+02  0.16519828425E+02  0.00000000000E+00 0.  1.
</event>
<event>
 7    1  0.9868142E-013  0.5052886E+02  0.7816164E-02  0.1300439E+00
        -11   -1    0    0    0    0  0.00000000000E+00  0.00000000000E+00  0.45593999997E+02  0.45594000000E+02  0.51100000000E-03 0.  1.
         11   -1    0    0    0    0 -0.00000000000E+00 -0.00000000000E+00 -0.45593999997E+02  0.45594000000E+02  0.51100000000E-03 0. -1.
    9900012    2    1    2    0    0  0.30256798397E+02 -0.20149668551E+02 -0.18212148775E+02  0.50528863819E+02  0.30000012065E+02 0.  0.
        -12    1    1    2    0    0 -0.30256798397E+02  0.20149668551E+02  0.18212148775E+02  0.40659136181E+02  0.00000000000E+00 0.  1.
         11    1    3    3    0    0  0.16712340024E+02 -0.10287594620E+01  0.27999266076E+01  0.16976461480E+02  0.51100000000E-03 0. -1.
        -11    1    3    3    0    0  0.45471816511E+01 -0.15918871188E+02 -0.12289197621E+02  0.20618237056E+02  0.51100000000E-03 0.  1.
         12    1    3    3    0    0  0.89972767220E+01 -0.32020379016E+01 -0.87228777612E+01  0.12934165283E+02  0.00000000000E+00 0. -1.
</event>
<event>
 7    1  0.9868142E-013  0.5052886E+02  0.7816164E-02  0.1300439E+00
        -11   -1    0    0    0    0  0.00000000000E+00  0.00000000000E+00  0.45593999997E+02  0.45594000000E+02  0.51100000000E-03 0. -1.
         11   -1    0    0    0    0 -0.00000000000E+00 -0.00000000000E+00 -0.45593999997E+02  0.45594000000E+02  0.51100000000E-03 0.  1.
    9900012    2    1    2    0    0  0.10529271250E+02  0.21598834831E+02  0.32799241335E+02  0.50528862635E+02  0.30000008465E+02 0.  0.
        -12    1    1    2    0    0 -0.10529271250E+02 -0.21598834831E+02 -0.32799241335E+02  0.40659137365E+02  0.00000000000E+00 0.  1.
         11    1    3    3    0    0  0.79296484939E+01  0.13673688223E+02  0.48912257361E+01  0.16546092117E+02  0.51100000000E-03 0. -1.
        -11    1    3    3    0    0  0.52478292012E+01 -0.39363403629E+01  0.14328711994E+02  0.15759012483E+02  0.51100000000E-03 0.  1.
        -12    1    3    3    0    0 -0.26482064447E+01  0.11861486971E+02  0.13579303605E+02  0.18223758035E+02  0.00000000000E+00 0.  1.
</event>
<event>
 7    1  0.9868142E-013  0.5052887E+02  0.7816164E-02  0.1300439E+00
        -11   -1    0    0    0    0  0.00000000000E+00  0.00000000000E+00  0.45593999997E+02  0.45594000000E+02  0.51100000000E-03 0.  1.
         11   -1    0    0    0    0 -0.00000000000E+00 -0.00000000000E+00 -0.45593999997E+02  0.45594000000E+02  0.51100000000E-03 0. -1.
    9900012    2    1    2    0    0 -0.39950075242E+02 -0.60245260734E+01 -0.45674364775E+01  0.50528869387E+02  0.30000028989E+02 0.  0.
        -12    1    1    2    0    0  0.39950075242E+02  0.60245260734E+01  0.45674364775E+01  0.40659130613E+02  0.00000000000E+00 0.  1.
         11    1    3    3    0    0 -0.30925141665E+01  0.62757696332E+01 -0.43564930331E+01  0.82418420373E+01  0.51100000000E-03 0. -1.
        -11    1    3    3    0    0 -0.27514741741E+02 -0.87648082183E+00 -0.16188103108E+00  0.27529174296E+02  0.51100000000E-03 0.  1.
         12    1    3    3    0    0 -0.93428193347E+01 -0.11423814885E+02 -0.49062413386E-01  0.14757853054E+02  0.00000000000E+00 0. -1.
</event>
<event>
 7    1  0.9868142E-013  0.5052885E+02  0.7816164E-02  0.1300439E+00
        -11   -1    0    0    0    0  0.00000000000E+00  0.00000000000E+00  0.45593999997E+02  0.45594000000E+02  0.51100000000E-03 0. -1.
         11   -1    0    0    0    0 -0.00000000000E+00 -0.00000000000E+00 -0.45593999997E+02  0.45594000000E+02  0.51100000000E-03 0.  1.
    9900012    2    1    2    0    0  0.64741748229E+00 -0.28843880851E+02  0.28649214726E+02  0.50528854456E+02  0.29999983605E+02 0.  0.
        -12    1    1    2    0    0 -0.64741748229E+00  0.28843880851E+02 -0.28649214726E+02  0.40659145544E+02  0.00000000000E+00 0.  1.
         11    1    3    3    0    0  0.89534469030E+01 -0.21535070683E+02  0.14753287028E+02  0.27596792552E+02  0.51100000000E-03 0. -1.
        -11    1    3    3    0    0 -0.54577149982E+01  0.12464634822E+01  0.12644896338E+02  0.13828728353E+02  0.51100000000E-03 0.  1.
        -12    1    3    3    0    0 -0.28483144225E+01 -0.85552736495E+01  0.12510313609E+01  0.91033335505E+01  0.00000000000E+00 0.  1.
</event>
<event>
 7    1  0.9868142E-013  0.5052885E+02  0.7816164E-02  0.1300439E+00
        -11   -1    0    0    0    0  0.00000000000E+00  0.00000000000E+00  0.45593999997E+02  0.45594000000E+02  0.51100000000E-03 0.  1.
         11   -1    0    0    0    0 -0.00000000000E+00 -0.00000000000E+00 -0.45593999997E+02  0.45594000000E+02  0.51100000000E-03 0. -1.
    9900012    2    1    2    0    0 -0.34628833496E+02  0.17307170093E+02 -0.12428672382E+02  0.50528854127E+02  0.29999982606E+02 0.  0.
        -12    1    1    2    0    0  0.34628833496E+02 -0.17307170093E+02  0.12428672382E+02  0.40659145873E+02  0.00000000000E+00 0.  1.
         11    1    3    3    0    0 -0.20137268644E+02  0.14638938755E+02 -0.19340182067E+02  0.31525398633E+02  0.51100000000E-03 0. -1.
        -11    1    3    3    0    0 -0.12659798123E+02  0.35158222680E+01  0.91334881341E+01  0.16001628058E+02  0.51100000000E-03 0.  1.
         12    1    3    3    0    0 -0.18317667287E+01 -0.84759093043E+00 -0.22219784481E+01  0.30018274364E+01  0.00000000000E+00 0. -1.
</event>
<event>
 7    1  0.9868142E-013  0.5052883E+02  0.7816164E-02  0.1300439E+00
        -11   -1    0    0    0    0  0.00000000000E+00  0.00000000000E+00  0.45593999997E+02  0.45594000000E+02  0.51100000000E-03 0.  1.
         11   -1    0    0    0    0 -0.00000000000E+00 -0.00000000000E+00 -0.45593999997E+02  0.45594000000E+02  0.51100000000E-03 0. -1.
    9900012    2    1    2    0    0  0.38431859965E+02 -0.90833615730E+01 -0.96774271378E+01  0.50528832352E+02  0.29999916418E+02 0.  0.
        -12    1    1    2    0    0 -0.38431859965E+02  0.90833615730E+01  0.96774271378E+01  0.40659167648E+02  0.00000000000E+00 0.  1.
         11    1    3    3    0    0  0.10312268988E+02 -0.14956549850E+02  0.13419958462E+01  0.18216537218E+02  0.51100000000E-03 0. -1.
        -11    1    3    3    0    0  0.17593270676E+02  0.33072020016E+01 -0.16302795556E+01  0.17975499155E+02  0.51100000000E-03 0.  1.
         12    1    3    3    0    0  0.10526320300E+02  0.25659862759E+01 -0.93891434284E+01  0.14336795979E+02  0.00000000000E+00 0. -1.
</event>
<event>
 7    1  0.9868142E-013  0.5052887E+02  0.7816164E-02  0.1300439E+00
        -11   -1    0    0    0    0  0.00000000000E+00  0.00000000000E+00  0.45593999997E+02  0.45594000000E+02  0.51100000000E-03 0.  1.
         11   -1    0    0    0    0 -0.00000000000E+00 -0.00000000000E+00 -0.45593999997E+02  0.45594000000E+02  0.51100000000E-03 0. -1.
    9900012    2    1    2    0    0  0.36880475115E+01 -0.23367749879E+02 -0.33068282829E+02  0.50528871159E+02  0.30000034374E+02 0.  0.
        -12    1    1    2    0    0 -0.36880475115E+01  0.23367749879E+02  0.33068282829E+02  0.40659128841E+02  0.00000000000E+00 0.  1.
         11    1    3    3    0    0 -0.74567414638E+01 -0.21308388159E+02 -0.20637489083E+02  0.30586865728E+02  0.51100000000E-03 0. -1.
        -11    1    3    3    0    0  0.51208547153E+01 -0.63646193383E+01 -0.60110362182E+01  0.10142193501E+02  0.51100000000E-03 0.  1.
         12    1    3    3    0    0  0.60239342601E+01  0.43052576181E+01 -0.64197575280E+01  0.97998119292E+01  0.00000000000E+00 0. -1.
</event>
<event>
 7    1  0.9868142E-013  0.5052884E+02  0.7816164E-02  0.1300439E+00
        -11   -1    0    0    0    0  0.00000000000E+00  0.00000000000E+00  0.45593999997E+02  0.45594000000E+02  0.51100000000E-03 0.  1.
         11   -1    0    0    0    0 -0.00000000000E+00 -0.00000000000E+00 -0.45593999997E+02  0.45594000000E+02  0.51100000000E-03 0. -1.
    9900012    2    1    2    0    0  0.22048321594E+02  0.31251482483E+02 -0.13797960994E+02  0.50528839038E+02  0.29999936741E+02 0.  0.
        -12    1    1    2    0    0 -0.22048321594E+02 -0.31251482483E+02  0.13797960994E+02  0.40659160962E+02  0.00000000000E+00 0.  1.
         11    1    3    3    0    0  0.13245831818E+02  0.10149056786E+02 -0.10172900944E+02  0.19543370438E+02  0.51100000000E-03 0. -1.
        -11    1    3    3    0    0 -0.47551222583E+01 -0.82336017401E+00  0.59875552061E+00  0.48628816665E+01  0.51100000000E-03 0.  1.
         12    1    3    3    0    0  0.13557612035E+02  0.21925785871E+02 -0.42238155711E+01  0.26122586934E+02  0.00000000000E+00 0. -1.
</event>
<event>
 7    1  0.9868142E-013  0.5052886E+02  0.7816164E-02  0.1300439E+00
        -11   -1    0    0    0    0  0.00000000000E+00  0.00000000000E+00  0.45593999997E+02  0.45594000000E+02  0.51100000000E-03 0.  1.
         11   -1    0    0    0    0 -0.00000000000E+00 -0.00000000000E+00 -0.45593999997E+02  0.45594000000E+02  0.51100000000E-03 0. -1.
    9900012    2    1    2    0    0  0.13675638627E+02  0.38071099493E+02 -0.40907302276E+01  0.50528858565E+02  0.29999996093E+02 0.  0.
        -12    1    1    2    0    0 -0.13675638627E+02 -0.38071099493E+02  0.40907302276E+01  0.40659141435E+02  0.00000000000E+00 0.  1.
         11    1    3    3    0    0  0.72744004879E+01  0.35880407504E+02 -0.74797175717E+01  0.37366652517E+02  0.51100000000E-03 0. -1.
        -11    1    3    3    0    0  0.56742809472E+01 -0.36359519006E+01  0.95781088105E+00  0.68069826235E+01  0.51100000000E-03 0.  1.
         12    1    3    3    0    0  0.72695719220E+00  0.58266438896E+01  0.24311764630E+01  0.63552234241E+01  0.00000000000E+00 0. -1.
</event>
<event>
 7    1  0.9868142E-013  0.5052886E+02  0.7816164E-02  0.1300439E+00
        -11   -1    0    0    0    0  0.00000000000E+00  0.00000000000E+00  0.45593999997E+02  0.45594000000E+02  0.51100000000E-03 0. -1.
         11   -1    0    0    0    0 -0.00000000000E+00 -0.00000000000E+00 -0.45593999997E+02  0.45594000000E+02  0.51100000000E-03 0.  1.
    9900012    2    1    2    0    0  0.32782443646E+02 -0.22096708385E+02  0.94980092415E+01  0.50528864343E+02  0.30000013657E+02 0.  0.
        -12    1    1    2    0    0 -0.32782443646E+02  0.22096708385E+02 -0.94980092415E+01  0.40659135657E+02  0.00000000000E+00 0.  1.
         11    1    3    3    0    0  0.13327652869E+02 -0.18811258213E+02  0.10580303341E+02  0.25365972987E+02  0.51100000000E-03 0. -1.
        -11    1    3    3    0    0 -0.43334962078E+00  0.39192245146E+01 -0.71117220840E+00  0.40067291974E+01  0.51100000000E-03 0.  1.
        -12    1    3    3    0    0  0.19888140398E+02 -0.72046746867E+01 -0.37112189105E+00  0.21156162158E+02  0.00000000000E+00 0.  1.
</event>
<event>
 7    1  0.9868142E-013  0.5052886E+02  0.7816164E-02  0.1300439E+00
        -11   -1    0    0    0    0  0.00000000000E+00  0.00000000000E+00  0.45593999997E+02  0.45594000000E+02  0.51100000000E-03 0.  1.
         11   -1    0    0    0    0 -0.00000000000E+00 -0.00000000000E+00 -0.45593999997E+02  0.45594000000E+02  0.51100000000E-03 0. -1.
    9900012    2    1    2    0    0 -0.27353464539E+02  0.26898528998E+02  0.13469329996E+02  0.50528859145E+02  0.29999997857E+02 0.  0.
        -12    1    1    2    0    0  0.27353464539E+02 -0.26898528998E+02 -0.13469329996E+02  0.40659140855E+02  0.00000000000E+00 0.  1.
         11    1    3    3    0    0 -0.23652399720E+02  0.91666938230E+01  0.94300588491E+01  0.27062710476E+02  0.51100000000E-03 0. -1.
        -11    1    3    3    0    0 -0.44448283183E+01  0.82193850939E+01 -0.47599030374E+01  0.10486728150E+02  0.51100000000E-03 0.  1.
         12    1    3    3    0    0  0.74376349918E+00  0.95124500810E+01  0.87991741840E+01  0.12979420519E+02  0.00000000000E+00 0. -1.
</event>
<event>
 7    1  0.9868142E-013  0.5052885E+02  0.7816164E-02  0.1300439E+00
        -11   -1    0    0    0    0  0.00000000000E+00  0.00000000000E+00  0.45593999997E+02  0.45594000000E+02  0.51100000000E-03 0. -1.
         11   -1    0    0    0    0 -0.00000000000E+00 -0.00000000000E+00 -0.45593999997E+02  0.45594000000E+02  0.51100000000E-03 0.  1.
    9900012    2    1    2    0    0  0.14031250116E+02 -0.63039021228E+01  0.37637095009E+02  0.50528854872E+02  0.29999984869E+02 0.  0.
        -12    1    1    2    0    0 -0.14031250116E+02  0.63039021228E+01 -0.37637095009E+02  0.40659145128E+02  0.00000000000E+00 0.  1.
         11    1    3    3    0    0 -0.70172595910E+01 -0.23699582324E+01  0.29722844210E+01  0.79807962717E+01  0.51100000000E-03 0. -1.
        -11    1    3    3    0    0  0.21687440546E+02 -0.10784745005E+01  0.31209008437E+02  0.38019868392E+02  0.51100000000E-03 0.  1.
         12    1    3    3    0    0 -0.63893083839E+00 -0.28554693899E+01  0.34558021516E+01  0.45281902084E+01  0.00000000000E+00 0. -1.
</event>
<event>
 7    1  0.9868142E-013  0.5052886E+02  0.7816164E-02  0.1300439E+00
        -11   -1    0    0    0    0  0.00000000000E+00  0.00000000000E+00  0.45593999997E+02  0.45594000000E+02  0.51100000000E-03 0.  1.
         11   -1    0    0    0    0 -0.00000000000E+00 -0.00000000000E+00 -0.45593999997E+02  0.45594000000E+02  0.51100000000E-03 0. -1.
    9900012    2    1    2    0    0  0.10082314874E+02 -0.30112850775E+02 -0.25391512665E+02  0.50528858710E+02  0.29999996536E+02 0.  0.
        -12    1    1    2    0    0 -0.10082314874E+02  0.30112850775E+02  0.25391512665E+02  0.40659141290E+02  0.00000000000E+00 0.  1.
         11    1    3    3    0    0  0.11509118563E+02 -0.13158526846E+02 -0.99835976836E+01  0.20131538983E+02  0.51100000000E-03 0. -1.
        -11    1    3    3    0    0 -0.37844198197E+01  0.26009501587E+01 -0.82467363883E+01  0.94390378969E+01  0.51100000000E-03 0.  1.
        -12    1    3    3    0    0  0.23576161307E+01 -0.19555274087E+02 -0.71611785935E+01  0.20958281830E+02  0.00000000000E+00 0.  1.
</event>
<event>
 7    1  0.9868142E-013  0.5052888E+02  0.7816164E-02  0.1300439E+00
        -11   -1    0    0    0    0  0.00000000000E+00  0.00000000000E+00  0.45593999997E+02  0.45594000000E+02  0.51100000000E-03 0.  1.
         11   -1    0    0    0    0 -0.00000000000E+00 -0.00000000000E+00 -0.45593999997E+02  0.45594000000E+02  0.51100000000E-03 0. -1.
    9900012    2    1    2    0    0 -0.29760692369E+02 -0.27668352625E+02  0.13884243766E+01  0.50528877168E+02  0.30000052639E+02 0.  0.
        -12    1    1    2    0    0  0.29760692369E+02  0.27668352625E+02 -0.13884243766E+01  0.40659122832E+02  0.00000000000E+00 0.  1.
         11    1    3    3    0    0 -0.10820131913E+01 -0.24508781075E+01 -0.42640435561E+01  0.50358339680E+01  0.51100000000E-03 0. -1.
        -11    1    3    3    0    0 -0.30532520951E+02 -0.25075139653E+02 -0.34894343863E-01  0.39509475852E+02  0.51100000000E-03 0.  1.
        -12    1    3    3    0    0  0.18538417736E+01 -0.14233486438E+00  0.56873622765E+01  0.59835673473E+01  0.00000000000E+00 0.  1.
</event>
<event>
 7    1  0.9868142E-013  0.5052886E+02  0.7816164E-02  0.1300439E+00
        -11   -1    0    0    0    0  0.00000000000E+00  0.00000000000E+00  0.45593999997E+02  0.45594000000E+02  0.51100000000E-03 0.  1.
         11   -1    0    0    0    0 -0.00000000000E+00 -0.00000000000E+00 -0.45593999997E+02  0.45594000000E+02  0.51100000000E-03 0. -1.
    9900012    2    1    2    0    0  0.30627670236E+02 -0.66364107690E+01 -0.25905011388E+02  0.50528858998E+02  0.29999997412E+02 0.  0.
        -12    1    1    2    0    0 -0.30627670236E+02  0.66364107690E+01  0.25905011388E+02  0.40659141002E+02  0.00000000000E+00 0.  1.
         11    1    3    3    0    0  0.20594863343E+02 -0.56833828318E+01 -0.28533368261E+02  0.35645509410E+02  0.51100000000E-03 0. -1.
        -11    1    3    3    0    0  0.12053152874E+02 -0.20129970579E+01  0.29714563423E+01  0.12576176065E+02  0.51100000000E-03 0.  1.
        -12    1    3    3    0    0 -0.20203459814E+01  0.10599691206E+01 -0.34309946920E+00  0.23071735234E+01  0.00000000000E+00 0.  1.
</event>
<event>
 7    1  0.9868142E-013  0.5052886E+02  0.7816164E-02  0.1300439E+00
        -11   -1    0    0    0    0  0.00000000000E+00  0.00000000000E+00  0.45593999997E+02  0.45594000000E+02  0.51100000000E-03 0.  1.
         11   -1    0    0    0    0 -0.00000000000E+00 -0.00000000000E+00 -0.45593999997E+02  0.45594000000E+02  0.51100000000E-03 0. -1.
    9900012    2    1    2    0    0 -0.10168900376E+02  0.32189306149E+02  0.22662922333E+02  0.50528855716E+02  0.29999987436E+02 0.  0.
        -12    1    1    2    0    0  0.10168900376E+02 -0.32189306149E+02 -0.22662922333E+02  0.40659144284E+02  0.00000000000E+00 0.  1.
         11    1    3    3    0    0 -0.71401264070E+01  0.35103497894E+02  0.17208976765E+02  0.39741487781E+02  0.51100000000E-03 0. -1.
        -11    1    3    3    0    0 -0.23399638175E+01 -0.13553241347E+01  0.75885019862E+01  0.80559106768E+01  0.51100000000E-03 0.  1.
        -12    1    3    3    0    0 -0.68881015162E+00 -0.15588676099E+01 -0.21345564189E+01  0.27314572586E+01  0.00000000000E+00 0.  1.
</event>
<event>
 7    1  0.9868142E-013  0.5052886E+02  0.7816164E-02  0.1300439E+00
        -11   -1    0    0    0    0  0.00000000000E+00  0.00000000000E+00  0.45593999997E+02  0.45594000000E+02  0.51100000000E-03 0. -1.
         11   -1    0    0    0    0 -0.00000000000E+00 -0.00000000000E+00 -0.45593999997E+02  0.45594000000E+02  0.51100000000E-03 0.  1.
    9900012    2    1    2    0    0  0.14438949399E+02 -0.23556485668E+02  0.29829082905E+02  0.50528862482E+02  0.30000007999E+02 0.  0.
        -12    1    1    2    0    0 -0.14438949399E+02  0.23556485668E+02 -0.29829082905E+02  0.40659137518E+02  0.00000000000E+00 0.  1.
         11    1    3    3    0    0  0.45464684087E+01  0.61221798324E+00  0.58749394607E+00  0.46249686754E+01  0.51100000000E-03 0.  1.
        -11    1    3    3    0    0  0.10259276673E+02 -0.25773858499E+02  0.14940136633E+02  0.31507970779E+02  0.51100000000E-03 0. -1.
        -12    1    3    3    0    0 -0.36679568279E+00  0.16051548478E+01  0.14301452326E+02  0.14395923027E+02  0.00000000000E+00 0.  1.
</event>
<event>
 7    1  0.9868142E-013  0.5052886E+02  0.7816164E-02  0.1300439E+00
        -11   -1    0    0    0    0  0.00000000000E+00  0.00000000000E+00  0.45593999997E+02  0.45594000000E+02  0.51100000000E-03 0.  1.
         11   -1    0    0    0    0 -0.00000000000E+00 -0.00000000000E+00 -0.45593999997E+02  0.45594000000E+02  0.51100000000E-03 0. -1.
    9900012    2    1    2    0    0  0.70355354010E+01  0.30636066951E+02 -0.25789503190E+02  0.50528857961E+02  0.29999994257E+02 0.  0.
        -12    1    1    2    0    0 -0.70355354010E+01 -0.30636066951E+02  0.25789503190E+02  0.40659142039E+02  0.00000000000E+00 0.  1.
         11    1    3    3    0    0  0.84868608913E+00  0.33564433459E+02 -0.21191085759E+02  0.39703319476E+02  0.51100000000E-03 0. -1.
        -11    1    3    3    0    0  0.47971577097E+01 -0.28420909257E+00 -0.58638557694E+01  0.75814445620E+01  0.51100000000E-03 0.  1.
         12    1    3    3    0    0  0.13896916022E+01 -0.26441574161E+01  0.12654383380E+01  0.32440939224E+01  0.00000000000E+00 0. -1.
</event>
<event>
 7    1  0.1003303E-012  0.5052886E+02  0.7816164E-02  0.1300439E+00
        -11   -1    0    0    0    0  0.00000000000E+00  0.00000000000E+00  0.45593999997E+02  0.45594000000E+02  0.51100000000E-03 0. -1.
         11   -1    0    0    0    0 -0.00000000000E+00 -0.00000000000E+00 -0.45593999997E+02  0.45594000000E+02  0.51100000000E-03 0.  1.
    9900012    2    1    2    0    0  0.23492820104E+02  0.25819537195E+02  0.20847170020E+02  0.50528860865E+02  0.30000003084E+02 0.  0.
        -12    1    1    2    0    0 -0.23492820104E+02 -0.25819537195E+02 -0.20847170020E+02  0.40659139135E+02  0.00000000000E+00 0.  1.
         11    1    3    3    0    0  0.20232984078E+02  0.21148870018E+02  0.11691941400E+02  0.31517452970E+02  0.51100000000E-03 0. -1.
        -11    1    3    3    0    0  0.44245496130E+01 -0.48858077853E+01  0.16245667096E+01  0.67887387818E+01  0.51100000000E-03 0.  1.
        -12    1    3    3    0    0 -0.11647135873E+01  0.95564749622E+01  0.75306619097E+01  0.12222669113E+02  0.00000000000E+00 0.  1.
</event>
<event>
 7    1  0.9868142E-013  0.5052885E+02  0.7816164E-02  0.1300439E+00
        -11   -1    0    0    0    0  0.00000000000E+00  0.00000000000E+00  0.45593999997E+02  0.45594000000E+02  0.51100000000E-03 0. -1.
         11   -1    0    0    0    0 -0.00000000000E+00 -0.00000000000E+00 -0.45593999997E+02  0.45594000000E+02  0.51100000000E-03 0.  1.
    9900012    2    1    2    0    0  0.78211172361E+01  0.15920370948E+02  0.36586045889E+02  0.50528845560E+02  0.29999956565E+02 0.  0.
        -12    1    1    2    0    0 -0.78211172361E+01 -0.15920370948E+02 -0.36586045889E+02  0.40659154440E+02  0.00000000000E+00 0.  1.
         11    1    3    3    0    0  0.15882158667E+02  0.18011551574E+01  0.14651700335E+02  0.21683160443E+02  0.51100000000E-03 0.  1.
        -11    1    3    3    0    0 -0.36192385962E+01  0.40976889561E+01  0.15201372938E+01  0.56745713891E+01  0.51100000000E-03 0. -1.
         12    1    3    3    0    0 -0.44418028346E+01  0.10021526835E+02  0.20414208260E+02  0.23171113728E+02  0.00000000000E+00 0. -1.
</event>
<event>
 7    1  0.9868142E-013  0.5052886E+02  0.7816164E-02  0.1300439E+00
        -11   -1    0    0    0    0  0.00000000000E+00  0.00000000000E+00  0.45593999997E+02  0.45594000000E+02  0.51100000000E-03 0.  1.
         11   -1    0    0    0    0 -0.00000000000E+00 -0.00000000000E+00 -0.45593999997E+02  0.45594000000E+02  0.51100000000E-03 0. -1.
    9900012    2    1    2    0    0  0.34244624060E+02  0.12849263983E+02 -0.17758599698E+02  0.50528859267E+02  0.29999998228E+02 0.  0.
        -12    1    1    2    0    0 -0.34244624060E+02 -0.12849263983E+02  0.17758599698E+02  0.40659140733E+02  0.00000000000E+00 0.  1.
         11    1    3    3    0    0  0.91290435956E+01 -0.49582188989E+01 -0.35576378894E+00  0.10394707295E+02  0.51100000000E-03 0. -1.
        -11    1    3    3    0    0  0.70846902921E+01  0.15303880025E+02 -0.13289852897E+02  0.21471417528E+02  0.51100000000E-03 0.  1.
        -12    1    3    3    0    0  0.18030890172E+02  0.25036028564E+01 -0.41129830126E+01  0.18662734444E+02  0.00000000000E+00 0.  1.
</event>
<event>
 7    1  0.9868142E-013  0.5052887E+02  0.7816164E-02  0.1300439E+00
        -11   -1    0    0    0    0  0.00000000000E+00  0.00000000000E+00  0.45593999997E+02  0.45594000000E+02  0.51100000000E-03 0. -1.
         11   -1    0    0    0    0 -0.00000000000E+00 -0.00000000000E+00 -0.45593999997E+02  0.45594000000E+02  0.51100000000E-03 0.  1.
    9900012    2    1    2    0    0 -0.72428536675E+01  0.35511710817E+02  0.18428900924E+02  0.50528869123E+02  0.30000028186E+02 0.  0.
        -12    1    1    2    0    0  0.72428536675E+01 -0.35511710817E+02 -0.18428900924E+02  0.40659130877E+02  0.00000000000E+00 0.  1.
         11    1    3    3    0    0 -0.11523859899E+02  0.14124036194E+02 -0.23401221451E+01  0.18378354586E+02  0.51100000000E-03 0. -1.
        -11    1    3    3    0    0  0.80023234790E+01  0.15016964011E+02  0.12817816389E+02  0.21303586703E+02  0.51100000000E-03 0.  1.
         12    1    3    3    0    0 -0.37213172475E+01  0.63707106123E+01  0.79512066799E+01  0.10846927834E+02  0.00000000000E+00 0. -1.
</event>
<event>
 7    1  0.9868142E-013  0.5052885E+02  0.7816164E-02  0.1300439E+00
        -11   -1    0    0    0    0  0.00000000000E+00  0.00000000000E+00  0.45593999997E+02  0.45594000000E+02  0.51100000000E-03 0.  1.
         11   -1    0    0    0    0 -0.00000000000E+00 -0.00000000000E+00 -0.45593999997E+02  0.45594000000E+02  0.51100000000E-03 0. -1.
    9900012    2    1    2    0    0 -0.26163509923E+01 -0.98987393049E+01 -0.39348899563E+02  0.50528853069E+02  0.29999979389E+02 0.  0.
        -12    1    1    2    0    0  0.26163509923E+01  0.98987393049E+01  0.39348899563E+02  0.40659146931E+02  0.00000000000E+00 0.  1.
         11    1    3    3    0    0  0.65585802757E+01 -0.37435836463E+01 -0.14713518723E+02  0.16538350197E+02  0.51100000000E-03 0. -1.
        -11    1    3    3    0    0 -0.88556941483E+01  0.52234360848E+01 -0.53344654687E+01  0.11582923874E+02  0.51100000000E-03 0.  1.
        -12    1    3    3    0    0 -0.31923711972E+00 -0.11378591743E+02 -0.19300915371E+02  0.22407578998E+02  0.00000000000E+00 0.  1.
</event>
<event>
 7    1  0.9868142E-013  0.5052885E+02  0.7816164E-02  0.1300439E+00
        -11   -1    0    0    0    0  0.00000000000E+00  0.00000000000E+00  0.45593999997E+02  0.45594000000E+02  0.51100000000E-03 0.  1.
         11   -1    0    0    0    0 -0.00000000000E+00 -0.00000000000E+00 -0.45593999997E+02  0.45594000000E+02  0.51100000000E-03 0. -1.
    9900012    2    1    2    0    0 -0.35578756620E+02 -0.71997224074E+01 -0.18316177300E+02  0.50528852490E+02  0.29999977628E+02 0.  0.
        -12    1    1    2    0    0  0.35578756620E+02  0.71997224074E+01  0.18316177300E+02  0.40659147510E+02  0.00000000000E+00 0.  1.
         11    1    3    3    0    0 -0.23913872326E+02 -0.16946011223E+01 -0.52298593099E+01  0.24537652522E+02  0.51100000000E-03 0. -1.
        -11    1    3    3    0    0 -0.19479549225E+01 -0.37840314820E+01 -0.15297349502E+02  0.15878360265E+02  0.51100000000E-03 0.  1.
        -12    1    3    3    0    0 -0.97169293712E+01 -0.17210898030E+01  0.22110315122E+01  0.10112839703E+02  0.00000000000E+00 0.  1.
</event>
<event>
 7    1  0.9868142E-013  0.5052886E+02  0.7816164E-02  0.1300439E+00
        -11   -1    0    0    0    0  0.00000000000E+00  0.00000000000E+00  0.45593999997E+02  0.45594000000E+02  0.51100000000E-03 0. -1.
         11   -1    0    0    0    0 -0.00000000000E+00 -0.00000000000E+00 -0.45593999997E+02  0.45594000000E+02  0.51100000000E-03 0.  1.
    9900012    2    1    2    0    0  0.30035761967E+02  0.43695142406E+01  0.27054124591E+02  0.50528864384E+02  0.30000013782E+02 0.  0.
        -12    1    1    2    0    0 -0.30035761967E+02 -0.43695142406E+01 -0.27054124591E+02  0.40659135616E+02  0.00000000000E+00 0.  1.
         11    1    3    3    0    0  0.82527433549E+01  0.99012001257E+01  0.21144519178E+02  0.24763526170E+02  0.51100000000E-03 0. -1.
        -11    1    3    3    0    0  0.11181420205E+02 -0.61072743922E+00 -0.23645698296E+01  0.11445013611E+02  0.51100000000E-03 0.  1.
         12    1    3    3    0    0  0.10601598407E+02 -0.49209584458E+01  0.82741752429E+01  0.14320324603E+02  0.00000000000E+00 0. -1.
</event>
<event>
 7    1  0.9868142E-013  0.5052886E+02  0.7816164E-02  0.1300439E+00
        -11   -1    0    0    0    0  0.00000000000E+00  0.00000000000E+00  0.45593999997E+02  0.45594000000E+02  0.51100000000E-03 0.  1.
         11   -1    0    0    0    0 -0.00000000000E+00 -0.00000000000E+00 -0.45593999997E+02  0.45594000000E+02  0.51100000000E-03 0. -1.
    9900012    2    1    2    0    0 -0.17023771851E+02 -0.16109450389E+02 -0.33224126802E+02  0.50528858327E+02  0.29999995371E+02 0.  0.
        -12    1    1    2    0    0  0.17023771851E+02  0.16109450389E+02  0.33224126802E+02  0.40659141673E+02  0.00000000000E+00 0.  1.
         11    1    3    3    0    0 -0.19230966302E+02 -0.12566245283E+02 -0.29675772058E+02  0.37528549571E+02  0.51100000000E-03 0. -1.
        -11    1    3    3    0    0  0.50317965584E+00 -0.21732119924E+01  0.43048140030E+01  0.48484496482E+01  0.51100000000E-03 0.  1.
        -12    1    3    3    0    0  0.17040147949E+01 -0.13699931137E+01 -0.78531687468E+01  0.81518591081E+01  0.00000000000E+00 0.  1.
</event>
<event>
 7    1  0.9868142E-013  0.5052886E+02  0.7816164E-02  0.1300439E+00
        -11   -1    0    0    0    0  0.00000000000E+00  0.00000000000E+00  0.45593999997E+02  0.45594000000E+02  0.51100000000E-03 0. -1.
         11   -1    0    0    0    0 -0.00000000000E+00 -0.00000000000E+00 -0.45593999997E+02  0.45594000000E+02  0.51100000000E-03 0.  1.
    9900012    2    1    2    0    0 -0.33461014067E+02 -0.22786664679E+02  0.37807867851E+01  0.50528857138E+02  0.29999991757E+02 0.  0.
        -12    1    1    2    0    0  0.33461014067E+02  0.22786664679E+02 -0.37807867851E+01  0.40659142862E+02  0.00000000000E+00 0.  1.
         11    1    3    3    0    0 -0.16109668281E+02 -0.25133448381E+02  0.10341440834E+01  0.29871074535E+02  0.51100000000E-03 0. -1.
        -11    1    3    3    0    0 -0.66921289632E+01  0.57885849760E+01 -0.86086312890E+00  0.88900726472E+01  0.51100000000E-03 0.  1.
         12    1    3    3    0    0 -0.10659216823E+02 -0.34418012736E+01  0.36075058306E+01  0.11767709956E+02  0.00000000000E+00 0. -1.
</event>
<event>
 7    1  0.9868142E-013  0.5052884E+02  0.7816164E-02  0.1300439E+00
        -11   -1    0    0    0    0  0.00000000000E+00  0.00000000000E+00  0.45593999997E+02  0.45594000000E+02  0.51100000000E-03 0.  1.
         11   -1    0    0    0    0 -0.00000000000E+00 -0.00000000000E+00 -0.45593999997E+02  0.45594000000E+02  0.51100000000E-03 0. -1.
    9900012    2    1    2    0    0 -0.92806308839E+01  0.31809705653E+02 -0.23562253357E+02  0.50528840311E+02  0.29999940610E+02 0.  0.
        -12    1    1    2    0    0  0.92806308839E+01 -0.31809705653E+02  0.23562253357E+02  0.40659159689E+02  0.00000000000E+00 0.  1.
         11    1    3    3    0    0  0.45453950138E+00  0.30337077145E+01 -0.29633266254E+01  0.42651252743E+01  0.51100000000E-03 0. -1.
        -11    1    3    3    0    0  0.76731588501E+01  0.12040639781E+02 -0.16415691711E+02  0.21756132646E+02  0.51100000000E-03 0.  1.
        -12    1    3    3    0    0 -0.17408329235E+02  0.16735358158E+02 -0.41832350200E+01  0.24507582391E+02  0.00000000000E+00 0.  1.
</event>
<event>
 7    1  0.9868142E-013  0.5052886E+02  0.7816164E-02  0.1300439E+00
        -11   -1    0    0    0    0  0.00000000000E+00  0.00000000000E+00  0.45593999997E+02  0.45594000000E+02  0.51100000000E-03 0.  1.
         11   -1    0    0    0    0 -0.00000000000E+00 -0.00000000000E+00 -0.45593999997E+02  0.45594000000E+02  0.51100000000E-03 0. -1.
    9900012    2    1    2    0    0 -0.13450584033E+02  0.23297938466E+02 -0.30486939714E+02  0.50528860305E+02  0.30000001384E+02 0.  0.
        -12    1    1    2    0    0  0.13450584033E+02 -0.23297938466E+02  0.30486939714E+02  0.40659139695E+02  0.00000000000E+00 0.  1.
         11    1    3    3    0    0 -0.57417444102E+01  0.11362118263E+02 -0.13457349812E+02  0.18524730080E+02  0.51100000000E-03 0. -1.
        -11    1    3    3    0    0 -0.68712781070E+01 -0.54021027021E+01 -0.99871235304E+01  0.13271767520E+02  0.51100000000E-03 0.  1.
        -12    1    3    3    0    0 -0.83756151599E+00  0.17337922905E+02 -0.70424663713E+01  0.18732362705E+02  0.00000000000E+00 0.  1.
</event>
<event>
 7    1  0.9868142E-013  0.5052885E+02  0.7816164E-02  0.1300439E+00
        -11   -1    0    0    0    0  0.00000000000E+00  0.00000000000E+00  0.45593999997E+02  0.45594000000E+02  0.51100000000E-03 0. -1.
         11   -1    0    0    0    0 -0.00000000000E+00 -0.00000000000E+00 -0.45593999997E+02  0.45594000000E+02  0.51100000000E-03 0.  1.
    9900012    2    1    2    0    0  0.39915218948E+01 -0.39181441206E+02 -0.10101909962E+02  0.50528853835E+02  0.29999981717E+02 0.  0.
        -12    1    1    2    0    0 -0.39915218948E+01  0.39181441206E+02  0.10101909962E+02  0.40659146165E+02  0.00000000000E+00 0.  1.
         11    1    3    3    0    0  0.65390513018E+01 -0.15887680883E+02  0.75119124758E+01  0.18751171299E+02  0.51100000000E-03 0. -1.
        -11    1    3    3    0    0 -0.69278302189E+01 -0.87619349588E+01 -0.88551073289E+01  0.14254096318E+02  0.51100000000E-03 0.  1.
         12    1    3    3    0    0  0.43803008119E+01 -0.14531825364E+02 -0.87587151088E+01  0.17523586219E+02  0.00000000000E+00 0. -1.
</event>
<event>
 7    1  0.9868142E-013  0.5052886E+02  0.7816164E-02  0.1300439E+00
        -11   -1    0    0    0    0  0.00000000000E+00  0.00000000000E+00  0.45593999997E+02  0.45594000000E+02  0.51100000000E-03 0.  1.
         11   -1    0    0    0    0 -0.00000000000E+00 -0.00000000000E+00 -0.45593999997E+02  0.45594000000E+02  0.51100000000E-03 0. -1.
    9900012    2    1    2    0    0 -0.90122630513E+01 -0.28923707506E+02 -0.27117597125E+02  0.50528858162E+02  0.29999994869E+02 0.  0.
        -12    1    1    2    0    0  0.90122630513E+01  0.28923707506E+02  0.27117597125E+02  0.40659141838E+02  0.00000000000E+00 0.  1.
         11    1    3    3    0    0  0.64881931654E+01 -0.12505028528E+02 -0.22491821981E+02  0.26539676812E+02  0.51100000000E-03 0. -1.
        -11    1    3    3    0    0 -0.13344062795E+02 -0.10055267744E+02 -0.22331753835E+01  0.16857030991E+02  0.51100000000E-03 0.  1.
        -12    1    3    3    0    0 -0.21563934222E+01 -0.63634112341E+01 -0.23925997608E+01  0.71321503588E+01  0.00000000000E+00 0.  1.
</event>
<event>
 7    1  0.9868142E-013  0.5052885E+02  0.7816164E-02  0.1300439E+00
        -11   -1    0    0    0    0  0.00000000000E+00  0.00000000000E+00  0.45593999997E+02  0.45594000000E+02  0.51100000000E-03 0.  1.
         11   -1    0    0    0    0 -0.00000000000E+00 -0.00000000000E+00 -0.45593999997E+02  0.45594000000E+02  0.51100000000E-03 0. -1.
    9900012    2    1    2    0    0  0.33717993824E+00 -0.49193301391E+01 -0.40359053694E+02  0.50528847102E+02  0.29999961250E+02 0.  0.
        -12    1    1    2    0    0 -0.33717993824E+00  0.49193301391E+01  0.40359053694E+02  0.40659152898E+02  0.00000000000E+00 0.  1.
         11    1    3    3    0    0 -0.21308576359E+01  0.50493284368E+01 -0.16785839830E+02  0.17657879006E+02  0.51100000000E-03 0. -1.
        -11    1    3    3    0    0  0.92909843929E+01 -0.12515002841E+02 -0.15156011619E+02  0.21740569808E+02  0.51100000000E-03 0.  1.
        -12    1    3    3    0    0 -0.68229468188E+01  0.25463442654E+01 -0.84172022448E+01  0.11130398288E+02  0.00000000000E+00 0.  1.
</event>
<event>
 7    1  0.9868142E-013  0.5052886E+02  0.7816164E-02  0.1300439E+00
        -11   -1    0    0    0    0  0.00000000000E+00  0.00000000000E+00  0.45593999997E+02  0.45594000000E+02  0.51100000000E-03 0.  1.
         11   -1    0    0    0    0 -0.00000000000E+00 -0.00000000000E+00 -0.45593999997E+02  0.45594000000E+02  0.51100000000E-03 0. -1.
    9900012    2    1    2    0    0  0.39536710397E+02 -0.83084143649E+01 -0.45808711860E+01  0.50528860817E+02  0.30000002939E+02 0.  0.
        -12    1    1    2    0    0 -0.39536710397E+02  0.83084143649E+01  0.45808711860E+01  0.40659139183E+02  0.00000000000E+00 0.  1.
         11    1    3    3    0    0  0.50167267059E+01 -0.61797444447E+01  0.28832885910E+01  0.84658219686E+01  0.51100000000E-03 0. -1.
        -11    1    3    3    0    0  0.37374368973E+02  0.67649774304E+00 -0.64295786778E+01  0.37929415861E+02  0.51100000000E-03 0.  1.
        -12    1    3    3    0    0 -0.28543852812E+01 -0.28051676632E+01 -0.10345810992E+01  0.41336229876E+01  0.00000000000E+00 0.  1.
</event>
<event>
 7    1  0.9868142E-013  0.5052888E+02  0.7816164E-02  0.1300439E+00
        -11   -1    0    0    0    0  0.00000000000E+00  0.00000000000E+00  0.45593999997E+02  0.45594000000E+02  0.51100000000E-03 0.  1.
         11   -1    0    0    0    0 -0.00000000000E+00 -0.00000000000E+00 -0.45593999997E+02  0.45594000000E+02  0.51100000000E-03 0. -1.
    9900012    2    1    2    0    0 -0.30971250157E+02 -0.13352327915E+01  0.26308995499E+02  0.50528875230E+02  0.30000046749E+02 0.  0.
        -12    1    1    2    0    0  0.30971250157E+02  0.13352327915E+01 -0.26308995499E+02  0.40659124770E+02  0.00000000000E+00 0.  1.
         11    1    3    3    0    0 -0.31264382517E+01 -0.68112687955E+01  0.18938521585E+02  0.20367513319E+02  0.51100000000E-03 0.  1.
        -11    1    3    3    0    0 -0.26072241704E+02  0.47804531883E+01  0.86322838401E+01  0.27877066645E+02  0.51100000000E-03 0. -1.
         12    1    3    3    0    0 -0.17725702010E+01  0.69558281572E+00 -0.12618099260E+01  0.22842952656E+01  0.00000000000E+00 0. -1.
</event>
<event>
 7    1  0.9868142E-013  0.5052886E+02  0.7816164E-02  0.1300439E+00
        -11   -1    0    0    0    0  0.00000000000E+00  0.00000000000E+00  0.45593999997E+02  0.45594000000E+02  0.51100000000E-03 0. -1.
         11   -1    0    0    0    0 -0.00000000000E+00 -0.00000000000E+00 -0.45593999997E+02  0.45594000000E+02  0.51100000000E-03 0.  1.
    9900012    2    1    2    0    0 -0.22736741886E+02  0.32498110147E+02 -0.89486695036E+01  0.50528864733E+02  0.30000014844E+02 0.  0.
        -12    1    1    2    0    0  0.22736741886E+02 -0.32498110147E+02  0.89486695036E+01  0.40659135267E+02  0.00000000000E+00 0.  1.
         11    1    3    3    0    0 -0.15273471324E+02  0.94382219852E+01  0.18303277302E+01  0.18047411459E+02  0.51100000000E-03 0. -1.
        -11    1    3    3    0    0 -0.61524867730E+01  0.91919532764E+01 -0.14333752056E+02  0.18105290574E+02  0.51100000000E-03 0.  1.
        -12    1    3    3    0    0 -0.13107837897E+01  0.13867934886E+02  0.35547548217E+01  0.14376162700E+02  0.00000000000E+00 0.  1.
</event>
<event>
 7    1  0.9868142E-013  0.5052886E+02  0.7816164E-02  0.1300439E+00
        -11   -1    0    0    0    0  0.00000000000E+00  0.00000000000E+00  0.45593999997E+02  0.45594000000E+02  0.51100000000E-03 0.  1.
         11   -1    0    0    0    0 -0.00000000000E+00 -0.00000000000E+00 -0.45593999997E+02  0.45594000000E+02  0.51100000000E-03 0. -1.
    9900012    2    1    2    0    0  0.34619850643E+02  0.89891317210E+01 -0.19334611806E+02  0.50528858822E+02  0.29999996874E+02 0.  0.
        -12    1    1    2    0    0 -0.34619850643E+02 -0.89891317210E+01  0.19334611806E+02  0.40659141178E+02  0.00000000000E+00 0.  1.
         11    1    3    3    0    0  0.17207080109E+02  0.55938279106E+01 -0.16301518778E+02  0.24353932564E+02  0.51100000000E-03 0. -1.
        -11    1    3    3    0    0  0.11852420534E+02 -0.57257621096E+01  0.35420782606E+01  0.13631234093E+02  0.51100000000E-03 0.  1.
        -12    1    3    3    0    0  0.55603500001E+01  0.91210659200E+01 -0.65751712885E+01  0.12543692164E+02  0.00000000000E+00 0.  1.
</event>
<event>
 7    1  0.9868142E-013  0.5052886E+02  0.7816164E-02  0.1300439E+00
        -11   -1    0    0    0    0  0.00000000000E+00  0.00000000000E+00  0.45593999997E+02  0.45594000000E+02  0.51100000000E-03 0.  1.
         11   -1    0    0    0    0 -0.00000000000E+00 -0.00000000000E+00 -0.45593999997E+02  0.45594000000E+02  0.51100000000E-03 0. -1.
    9900012    2    1    2    0    0  0.39324429202E+02  0.79333778867E+01 -0.66193907250E+01  0.50528861417E+02  0.30000004763E+02 0.  0.
        -12    1    1    2    0    0 -0.39324429202E+02 -0.79333778867E+01  0.66193907250E+01  0.40659138583E+02  0.00000000000E+00 0.  1.
         11    1    3    3    0    0  0.60211589070E+01  0.11453374100E+01 -0.86076416119E+01  0.10566818194E+02  0.51100000000E-03 0. -1.
        -11    1    3    3    0    0  0.34926680542E+02  0.49368896453E+01  0.54722752189E+01  0.35695821736E+02  0.51100000000E-03 0.  1.
        -12    1    3    3    0    0 -0.16234102470E+01  0.18511508314E+01 -0.34840243320E+01  0.42662214871E+01  0.00000000000E+00 0.  1.
</event>
<event>
 7    1  0.9868142E-013  0.5052886E+02  0.7816164E-02  0.1300439E+00
        -11   -1    0    0    0    0  0.00000000000E+00  0.00000000000E+00  0.45593999997E+02  0.45594000000E+02  0.51100000000E-03 0.  1.
         11   -1    0    0    0    0 -0.00000000000E+00 -0.00000000000E+00 -0.45593999997E+02  0.45594000000E+02  0.51100000000E-03 0. -1.
    9900012    2    1    2    0    0 -0.38337704898E+02  0.90550024792E+00 -0.13511710242E+02  0.50528857594E+02  0.29999993142E+02 0.  0.
        -12    1    1    2    0    0  0.38337704898E+02 -0.90550024792E+00  0.13511710242E+02  0.40659142406E+02  0.00000000000E+00 0.  1.
         11    1    3    3    0    0 -0.39320949408E+02 -0.71263623630E+01 -0.12840938421E+02  0.41973941948E+02  0.51100000000E-03 0. -1.
        -11    1    3    3    0    0  0.11671779109E+01  0.33944611943E+01 -0.14077819222E+01  0.38557128104E+01  0.51100000000E-03 0.  1.
         12    1    3    3    0    0 -0.18393340085E+00  0.46374014167E+01  0.73701010147E+00  0.46992028350E+01  0.00000000000E+00 0. -1.
</event>
<event>
 7    1  0.9868142E-013  0.5052885E+02  0.7816164E-02  0.1300439E+00
        -11   -1    0    0    0    0  0.00000000000E+00  0.00000000000E+00  0.45593999997E+02  0.45594000000E+02  0.51100000000E-03 0. -1.
         11   -1    0    0    0    0 -0.00000000000E+00 -0.00000000000E+00 -0.45593999997E+02  0.45594000000E+02  0.51100000000E-03 0.  1.
    9900012    2    1    2    0    0 -0.22020634583E+02 -0.83187585673E+01  0.33152023023E+02  0.50528847008E+02  0.29999960965E+02 0.  0.
        -12    1    1    2    0    0  0.22020634583E+02  0.83187585673E+01 -0.33152023023E+02  0.40659152992E+02  0.00000000000E+00 0.  1.
         11    1    3    3    0    0 -0.10209383228E+01 -0.11984662168E+02  0.10517063814E+02  0.15977580351E+02  0.51100000000E-03 0. -1.
        -11    1    3    3    0    0 -0.13728479014E+02  0.95354252991E+01  0.15478235753E+02  0.22780940586E+02  0.51100000000E-03 0.  1.
         12    1    3    3    0    0 -0.72712172465E+01 -0.58695216982E+01  0.71567234547E+01  0.11770326071E+02  0.00000000000E+00 0. -1.
</event>
<event>
 7    1  0.9868142E-013  0.5052886E+02  0.7816164E-02  0.1300439E+00
        -11   -1    0    0    0    0  0.00000000000E+00  0.00000000000E+00  0.45593999997E+02  0.45594000000E+02  0.51100000000E-03 0.  1.
         11   -1    0    0    0    0 -0.00000000000E+00 -0.00000000000E+00 -0.45593999997E+02  0.45594000000E+02  0.51100000000E-03 0. -1.
    9900012    2    1    2    0    0 -0.37285182120E+02 -0.15139544991E+02  0.58116195964E+01  0.50528861413E+02  0.30000004752E+02 0.  0.
        -12    1    1    2    0    0  0.37285182120E+02  0.15139544991E+02 -0.58116195964E+01  0.40659138587E+02  0.00000000000E+00 0.  1.
         11    1    3    3    0    0 -0.49195769847E+00 -0.10457674469E+02 -0.14363294430E+01  0.10567309033E+02  0.51100000000E-03 0. -1.
        -11    1    3    3    0    0 -0.22560876817E+02  0.75807687062E+00  0.96263723431E+01  0.24540474487E+02  0.51100000000E-03 0.  1.
         12    1    3    3    0    0 -0.14232347605E+02 -0.54399473924E+01 -0.23784233037E+01  0.15421077893E+02  0.00000000000E+00 0. -1.
</event>
<event>
 7    1  0.9868142E-013  0.5052886E+02  0.7816164E-02  0.1300439E+00
        -11   -1    0    0    0    0  0.00000000000E+00  0.00000000000E+00  0.45593999997E+02  0.45594000000E+02  0.51100000000E-03 0. -1.
         11   -1    0    0    0    0 -0.00000000000E+00 -0.00000000000E+00 -0.45593999997E+02  0.45594000000E+02  0.51100000000E-03 0.  1.
    9900012    2    1    2    0    0 -0.24478528263E+02  0.32093347694E+02  0.48974216168E+01  0.50528855265E+02  0.29999986062E+02 0.  0.
        -12    1    1    2    0    0  0.24478528263E+02 -0.32093347694E+02 -0.48974216168E+01  0.40659144735E+02  0.00000000000E+00 0.  1.
         11    1    3    3    0    0 -0.13351415798E+02  0.30232719665E+02 -0.57530410653E+01  0.33546611214E+02  0.51100000000E-03 0. -1.
        -11    1    3    3    0    0 -0.43740954521E+01  0.11185920166E+01  0.88797332560E+01  0.99616074046E+01  0.51100000000E-03 0.  1.
         12    1    3    3    0    0 -0.67530170125E+01  0.74203601208E+00  0.17707294261E+01  0.70206366460E+01  0.00000000000E+00 0. -1.
</event>
<event>
 7    1  0.9868142E-013  0.5052886E+02  0.7816164E-02  0.1300439E+00
        -11   -1    0    0    0    0  0.00000000000E+00  0.00000000000E+00  0.45593999997E+02  0.45594000000E+02  0.51100000000E-03 0.  1.
         11   -1    0    0    0    0 -0.00000000000E+00 -0.00000000000E+00 -0.45593999997E+02  0.45594000000E+02  0.51100000000E-03 0. -1.
    9900012    2    1    2    0    0  0.10394012684E+02 -0.39232825035E+02  0.24322459486E+01  0.50528857360E+02  0.29999992431E+02 0.  0.
        -12    1    1    2    0    0 -0.10394012684E+02  0.39232825035E+02 -0.24322459486E+01  0.40659142640E+02  0.00000000000E+00 0.  1.
         11    1    3    3    0    0 -0.43036624195E-01 -0.31687336437E+02  0.28533736998E+00  0.31688650339E+02  0.51100000000E-03 0. -1.
        -11    1    3    3    0    0  0.12408897357E+02 -0.81261552973E+01  0.47025256193E+01  0.15560491027E+02  0.51100000000E-03 0.  1.
         12    1    3    3    0    0 -0.19718480489E+01  0.58066669960E+00 -0.25556170407E+01  0.32797159942E+01  0.00000000000E+00 0. -1.
</event>
<event>
 7    1  0.9868142E-013  0.5052891E+02  0.7816164E-02  0.1300439E+00
        -11   -1    0    0    0    0  0.00000000000E+00  0.00000000000E+00  0.45593999997E+02  0.45594000000E+02  0.51100000000E-03 0.  1.
         11   -1    0    0    0    0 -0.00000000000E+00 -0.00000000000E+00 -0.45593999997E+02  0.45594000000E+02  0.51100000000E-03 0. -1.
    9900012    2    1    2    0    0 -0.31120507252E+02 -0.22911521895E+02 -0.12638751691E+02  0.50528906903E+02  0.30000143022E+02 0.  0.
        -12    1    1    2    0    0  0.31120507252E+02  0.22911521895E+02  0.12638751691E+02  0.40659093097E+02  0.00000000000E+00 0.  1.
         11    1    3    3    0    0 -0.26266382376E+02 -0.13193266694E+02 -0.20412119554E+02  0.35786027359E+02  0.51100000000E-03 0. -1.
        -11    1    3    3    0    0 -0.50754035992E+01 -0.56093990888E+01  0.74468826639E+01  0.10615137376E+02  0.51100000000E-03 0.  1.
         12    1    3    3    0    0  0.22127872339E+00 -0.41088561119E+01  0.32648519952E+00  0.41277421682E+01  0.00000000000E+00 0. -1.
</event>
<event>
 7    1  0.9868142E-013  0.5052886E+02  0.7816164E-02  0.1300439E+00
        -11   -1    0    0    0    0  0.00000000000E+00  0.00000000000E+00  0.45593999997E+02  0.45594000000E+02  0.51100000000E-03 0. -1.
         11   -1    0    0    0    0 -0.00000000000E+00 -0.00000000000E+00 -0.45593999997E+02  0.45594000000E+02  0.51100000000E-03 0.  1.
    9900012    2    1    2    0    0  0.97398172971E+01  0.36883937052E+02  0.14066863095E+02  0.50528862150E+02  0.30000006990E+02 0.  0.
        -12    1    1    2    0    0 -0.97398172971E+01 -0.36883937052E+02 -0.14066863095E+02  0.40659137850E+02  0.00000000000E+00 0.  1.
         11    1    3    3    0    0  0.14202615159E+02  0.34924302785E+02  0.18984505951E+02  0.42211759840E+02  0.51100000000E-03 0. -1.
        -11    1    3    3    0    0 -0.36380535909E+01  0.22216895844E+01 -0.10997479255E+01  0.44023612188E+01  0.51100000000E-03 0.  1.
         12    1    3    3    0    0 -0.82474427098E+00 -0.26205531736E+00 -0.38178949310E+01  0.39147410905E+01  0.00000000000E+00 0. -1.
</event>
<event>
 7    1  0.9868142E-013  0.5052887E+02  0.7816164E-02  0.1300439E+00
        -11   -1    0    0    0    0  0.00000000000E+00  0.00000000000E+00  0.45593999997E+02  0.45594000000E+02  0.51100000000E-03 0.  1.
         11   -1    0    0    0    0 -0.00000000000E+00 -0.00000000000E+00 -0.45593999997E+02  0.45594000000E+02  0.51100000000E-03 0. -1.
    9900012    2    1    2    0    0 -0.27511495095E+02  0.97461612420E+01 -0.28307155851E+02  0.50528867032E+02  0.30000021830E+02 0.  0.
        -12    1    1    2    0    0  0.27511495095E+02 -0.97461612420E+01  0.28307155851E+02  0.40659132968E+02  0.00000000000E+00 0.  1.
         11    1    3    3    0    0 -0.12714533517E+02  0.77073522224E+00 -0.21624261916E+02  0.25097053592E+02  0.51100000000E-03 0. -1.
        -11    1    3    3    0    0 -0.10186293203E+02  0.59056250551E+01  0.47745657442E+01  0.12705646572E+02  0.51100000000E-03 0.  1.
        -12    1    3    3    0    0 -0.46106683757E+01  0.30698009647E+01 -0.11457459679E+02  0.12726166868E+02  0.00000000000E+00 0.  1.
</event>
<event>
 7    1  0.9868142E-013  0.5052885E+02  0.7816164E-02  0.1300439E+00
        -11   -1    0    0    0    0  0.00000000000E+00  0.00000000000E+00  0.45593999997E+02  0.45594000000E+02  0.51100000000E-03 0. -1.
         11   -1    0    0    0    0 -0.00000000000E+00 -0.00000000000E+00 -0.45593999997E+02  0.45594000000E+02  0.51100000000E-03 0.  1.
    9900012    2    1    2    0    0 -0.40544452882E+02  0.25324697433E+01 -0.17030060434E+01  0.50528852295E+02  0.29999977037E+02 0.  0.
        -12    1    1    2    0    0  0.40544452882E+02 -0.25324697433E+01  0.17030060434E+01  0.40659147705E+02  0.00000000000E+00 0.  1.
         11    1    3    3    0    0 -0.33173422949E+02 -0.73647947668E+01 -0.88962287543E+01  0.35126330273E+02  0.51100000000E-03 0. -1.
        -11    1    3    3    0    0 -0.12804452960E+01  0.52431266401E+01  0.87236948490E+00  0.54672612796E+01  0.51100000000E-03 0.  1.
        -12    1    3    3    0    0 -0.60905846367E+01  0.46541378700E+01  0.63208532260E+01  0.99352607432E+01  0.00000000000E+00 0.  1.
</event>
<event>
 7    1  0.9868142E-013  0.5052887E+02  0.7816164E-02  0.1300439E+00
        -11   -1    0    0    0    0  0.00000000000E+00  0.00000000000E+00  0.45593999997E+02  0.45594000000E+02  0.51100000000E-03 0. -1.
         11   -1    0    0    0    0 -0.00000000000E+00 -0.00000000000E+00 -0.45593999997E+02  0.45594000000E+02  0.51100000000E-03 0.  1.
    9900012    2    1    2    0    0  0.73661619100E+00  0.13246919951E+02  0.38433592612E+02  0.50528873931E+02  0.30000042800E+02 0.  0.
        -12    1    1    2    0    0 -0.73661619100E+00 -0.13246919951E+02 -0.38433592612E+02  0.40659126069E+02  0.00000000000E+00 0.  1.
         11    1    3    3    0    0 -0.22269686970E+01  0.29063236903E+01  0.31025749657E+02  0.31241050702E+02  0.51100000000E-03 0. -1.
        -11    1    3    3    0    0  0.59849806064E+01  0.12102222350E+02  0.80685877516E+01  0.15728505562E+02  0.51100000000E-03 0.  1.
        -12    1    3    3    0    0 -0.30213957184E+01 -0.17616260886E+01 -0.66074479587E+00  0.35593176661E+01  0.00000000000E+00 0.  1.
</event>
<event>
 7    1  0.9868142E-013  0.5052886E+02  0.7816164E-02  0.1300439E+00
        -11   -1    0    0    0    0  0.00000000000E+00  0.00000000000E+00  0.45593999997E+02  0.45594000000E+02  0.51100000000E-03 0.  1.
         11   -1    0    0    0    0 -0.00000000000E+00 -0.00000000000E+00 -0.45593999997E+02  0.45594000000E+02  0.51100000000E-03 0. -1.
    9900012    2    1    2    0    0 -0.47317548100E+01  0.26380618882E+02 -0.30575143350E+02  0.50528856538E+02  0.29999989933E+02 0.  0.
        -12    1    1    2    0    0  0.47317548100E+01 -0.26380618882E+02  0.30575143350E+02  0.40659143462E+02  0.00000000000E+00 0.  1.
         11    1    3    3    0    0 -0.52610130620E+01 -0.18773936246E+01 -0.12041857063E+01  0.57142741216E+01  0.51100000000E-03 0. -1.
        -11    1    3    3    0    0 -0.13807482769E+01  0.13022410407E+02 -0.25974000546E+02  0.29088457216E+02  0.51100000000E-03 0.  1.
        -12    1    3    3    0    0  0.19100065289E+01  0.15235602100E+02 -0.33969570984E+01  0.15726125200E+02  0.00000000000E+00 0.  1.
</event>
<event>
 7    1  0.9868142E-013  0.5052880E+02  0.7816164E-02  0.1300439E+00
        -11   -1    0    0    0    0  0.00000000000E+00  0.00000000000E+00  0.45593999997E+02  0.45594000000E+02  0.51100000000E-03 0. -1.
         11   -1    0    0    0    0 -0.00000000000E+00 -0.00000000000E+00 -0.45593999997E+02  0.45594000000E+02  0.51100000000E-03 0.  1.
    9900012    2    1    2    0    0 -0.27746920732E+02 -0.29341829746E+02  0.47260679088E+01  0.50528802999E+02  0.29999827194E+02 0.  0.
        -12    1    1    2    0    0  0.27746920732E+02  0.29341829746E+02 -0.47260679088E+01  0.40659197001E+02  0.00000000000E+00 0.  1.
         11    1    3    3    0    0 -0.13161564493E+02 -0.22886098589E+02  0.90953617481E+01  0.27923572374E+02  0.51100000000E-03 0. -1.
        -11    1    3    3    0    0 -0.13162698890E+02  0.16086007829E+01  0.13094218480E+00  0.13261273870E+02  0.51100000000E-03 0.  1.
        -12    1    3    3    0    0 -0.14226573493E+01 -0.80643319397E+01 -0.45002360242E+01  0.93439567551E+01  0.00000000000E+00 0.  1.
</event>
<event>
 7    1  0.9868142E-013  0.5052886E+02  0.7816164E-02  0.1300439E+00
        -11   -1    0    0    0    0  0.00000000000E+00  0.00000000000E+00  0.45593999997E+02  0.45594000000E+02  0.51100000000E-03 0.  1.
         11   -1    0    0    0    0 -0.00000000000E+00 -0.00000000000E+00 -0.45593999997E+02  0.45594000000E+02  0.51100000000E-03 0. -1.
    9900012    2    1    2    0    0  0.23741675697E+02 -0.23859742098E+02 -0.22808145379E+02  0.50528856459E+02  0.29999989692E+02 0.  0.
        -12    1    1    2    0    0 -0.23741675697E+02  0.23859742098E+02  0.22808145379E+02  0.40659143541E+02  0.00000000000E+00 0.  1.
         11    1    3    3    0    0  0.12899383786E+02  0.41246373388E+00 -0.19875686876E+02  0.23698252202E+02  0.51100000000E-03 0. -1.
        -11    1    3    3    0    0  0.55372828674E+01 -0.11375794995E+02 -0.40409699350E+00  0.12658337488E+02  0.51100000000E-03 0.  1.
         12    1    3    3    0    0  0.53050090441E+01 -0.12896410837E+02 -0.25283615088E+01  0.14172266768E+02  0.00000000000E+00 0. -1.
</event>
<event>
 7    1  0.9868142E-013  0.5052886E+02  0.7816164E-02  0.1300439E+00
        -11   -1    0    0    0    0  0.00000000000E+00  0.00000000000E+00  0.45593999997E+02  0.45594000000E+02  0.51100000000E-03 0.  1.
         11   -1    0    0    0    0 -0.00000000000E+00 -0.00000000000E+00 -0.45593999997E+02  0.45594000000E+02  0.51100000000E-03 0. -1.
    9900012    2    1    2    0    0  0.36885309532E+02  0.11279583614E+02 -0.12861211622E+02  0.50528857975E+02  0.29999994301E+02 0.  0.
        -12    1    1    2    0    0 -0.36885309532E+02 -0.11279583614E+02  0.12861211622E+02  0.40659142025E+02  0.00000000000E+00 0.  1.
         11    1    3    3    0    0  0.21179716320E+02  0.15625184203E+02 -0.14445441197E+02  0.30023283238E+02  0.51100000000E-03 0. -1.
        -11    1    3    3    0    0  0.17454804920E+02 -0.27605954122E+01  0.27305134335E+01  0.17881465423E+02  0.51100000000E-03 0.  1.
         12    1    3    3    0    0 -0.17492117073E+01 -0.15850051764E+01 -0.11462838589E+01  0.26241093139E+01  0.00000000000E+00 0. -1.
</event>
<event>
 7    1  0.9868142E-013  0.5052887E+02  0.7816164E-02  0.1300439E+00
        -11   -1    0    0    0    0  0.00000000000E+00  0.00000000000E+00  0.45593999997E+02  0.45594000000E+02  0.51100000000E-03 0. -1.
         11   -1    0    0    0    0 -0.00000000000E+00 -0.00000000000E+00 -0.45593999997E+02  0.45594000000E+02  0.51100000000E-03 0.  1.
    9900012    2    1    2    0    0  0.20370009848E+02 -0.22121176635E+02  0.27365688673E+02  0.50528872200E+02  0.30000037540E+02 0.  0.
        -12    1    1    2    0    0 -0.20370009848E+02  0.22121176635E+02 -0.27365688673E+02  0.40659127800E+02  0.00000000000E+00 0.  1.
         11    1    3    3    0    0  0.84289255466E+01  0.19988283248E+01  0.81459031970E+01  0.11891082360E+02  0.51100000000E-03 0. -1.
        -11    1    3    3    0    0 -0.13202416071E+01 -0.11525535001E+02 -0.66676307406E+00  0.11620050267E+02  0.51100000000E-03 0.  1.
        -12    1    3    3    0    0  0.13261325908E+02 -0.12594469958E+02  0.19886548550E+02  0.27017739573E+02  0.00000000000E+00 0.  1.
</event>
<event>
 7    1  0.9868142E-013  0.5052886E+02  0.7816164E-02  0.1300439E+00
        -11   -1    0    0    0    0  0.00000000000E+00  0.00000000000E+00  0.45593999997E+02  0.45594000000E+02  0.51100000000E-03 0. -1.
         11   -1    0    0    0    0 -0.00000000000E+00 -0.00000000000E+00 -0.45593999997E+02  0.45594000000E+02  0.51100000000E-03 0.  1.
    9900012    2    1    2    0    0 -0.23321554845E+02 -0.29228640215E+02  0.15967395797E+02  0.50528855177E+02  0.29999985796E+02 0.  0.
        -12    1    1    2    0    0  0.23321554845E+02  0.29228640215E+02 -0.15967395797E+02  0.40659144823E+02  0.00000000000E+00 0.  1.
         11    1    3    3    0    0 -0.13749206937E+02 -0.89911478439E+01  0.19187447638E+02  0.25259445324E+02  0.51100000000E-03 0.  1.
        -11    1    3    3    0    0 -0.11843365990E+02 -0.13647396412E+02 -0.18350369072E+01  0.18162712009E+02  0.51100000000E-03 0. -1.
        -12    1    3    3    0    0  0.22710180824E+01 -0.65900959592E+01 -0.13850149335E+01  0.71066978442E+01  0.00000000000E+00 0.  1.
</event>
<event>
 7    1  0.1023199E-012  0.5052886E+02  0.7816164E-02  0.1300439E+00
        -11   -1    0    0    0    0  0.00000000000E+00  0.00000000000E+00  0.45593999997E+02  0.45594000000E+02  0.51100000000E-03 0. -1.
         11   -1    0    0    0    0 -0.00000000000E+00 -0.00000000000E+00 -0.45593999997E+02  0.45594000000E+02  0.51100000000E-03 0.  1.
    9900012    2    1    2    0    0 -0.35907943335E+02 -0.18200713021E+02  0.57025809534E+01  0.50528858610E+02  0.29999996232E+02 0.  0.
        -12    1    1    2    0    0  0.35907943335E+02  0.18200713021E+02 -0.57025809534E+01  0.40659141390E+02  0.00000000000E+00 0.  1.
         11    1    3    3    0    0 -0.19236798465E+02 -0.77192917266E+00 -0.52128886008E+01  0.19945538289E+02  0.51100000000E-03 0.  1.
        -11    1    3    3    0    0 -0.19056081168E+02 -0.17779714360E+02  0.92584246241E+01  0.27658107292E+02  0.51100000000E-03 0. -1.
        -12    1    3    3    0    0  0.23849362975E+01  0.35093051164E+00  0.16570449302E+01  0.29252130294E+01  0.00000000000E+00 0.  1.
</event>
<event>
 7    1  0.9868142E-013  0.5052886E+02  0.7816164E-02  0.1300439E+00
        -11   -1    0    0    0    0  0.00000000000E+00  0.00000000000E+00  0.45593999997E+02  0.45594000000E+02  0.51100000000E-03 0.  1.
         11   -1    0    0    0    0 -0.00000000000E+00 -0.00000000000E+00 -0.45593999997E+02  0.45594000000E+02  0.51100000000E-03 0. -1.
    9900012    2    1    2    0    0  0.14576211943E+02  0.15447110101E+01 -0.37925103484E+02  0.50528861286E+02  0.30000004364E+02 0.  0.
        -12    1    1    2    0    0 -0.14576211943E+02 -0.15447110101E+01  0.37925103484E+02  0.40659138714E+02  0.00000000000E+00 0.  1.
         11    1    3    3    0    0 -0.21592999733E+01  0.21346450570E+01  0.22521541626E+01  0.37804079843E+01  0.51100000000E-03 0. -1.
        -11    1    3    3    0    0  0.15929110323E+02  0.51219418482E+01 -0.21762717956E+02  0.27451534330E+02  0.51100000000E-03 0.  1.
         12    1    3    3    0    0  0.80640159382E+00 -0.57118758951E+01 -0.18414539691E+02  0.19296918971E+02  0.00000000000E+00 0. -1.
</event>
<event>
 7    1  0.9868142E-013  0.5052886E+02  0.7816164E-02  0.1300439E+00
        -11   -1    0    0    0    0  0.00000000000E+00  0.00000000000E+00  0.45593999997E+02  0.45594000000E+02  0.51100000000E-03 0.  1.
         11   -1    0    0    0    0 -0.00000000000E+00 -0.00000000000E+00 -0.45593999997E+02  0.45594000000E+02  0.51100000000E-03 0. -1.
    9900012    2    1    2    0    0  0.32901309312E+00  0.25801579280E+01 -0.40575856239E+02  0.50528861125E+02  0.30000003875E+02 0.  0.
        -12    1    1    2    0    0 -0.32901309312E+00 -0.25801579280E+01  0.40575856239E+02  0.40659138875E+02  0.00000000000E+00 0.  1.
         11    1    3    3    0    0 -0.85697063575E+01  0.10921654179E+02 -0.30231313743E+02  0.33266420426E+02  0.51100000000E-03 0. -1.
        -11    1    3    3    0    0 -0.45828557343E+00 -0.30072312940E+01 -0.25085806572E+01  0.39428977792E+01  0.51100000000E-03 0.  1.
         12    1    3    3    0    0  0.93570050241E+01 -0.53342649574E+01 -0.78359618386E+01  0.13319542920E+02  0.00000000000E+00 0. -1.
</event>
<event>
 7    1  0.9868142E-013  0.5052886E+02  0.7816164E-02  0.1300439E+00
        -11   -1    0    0    0    0  0.00000000000E+00  0.00000000000E+00  0.45593999997E+02  0.45594000000E+02  0.51100000000E-03 0.  1.
         11   -1    0    0    0    0 -0.00000000000E+00 -0.00000000000E+00 -0.45593999997E+02  0.45594000000E+02  0.51100000000E-03 0. -1.
    9900012    2    1    2    0    0 -0.31926641905E+02 -0.68505161642E+01 -0.24226542830E+02  0.50528863111E+02  0.30000009913E+02 0.  0.
        -12    1    1    2    0    0  0.31926641905E+02  0.68505161642E+01  0.24226542830E+02  0.40659136889E+02  0.00000000000E+00 0.  1.
         11    1    3    3    0    0 -0.13137292158E+02 -0.58957949170E+01 -0.25397492235E+02  0.29195572525E+02  0.51100000000E-03 0. -1.
        -11    1    3    3    0    0 -0.17943137827E+02  0.14186359539E+01  0.29629001053E+01  0.18241367831E+02  0.51100000000E-03 0.  1.
        -12    1    3    3    0    0 -0.84621192029E+00 -0.23733572010E+01 -0.17919506998E+01  0.30919227559E+01  0.00000000000E+00 0.  1.
</event>
<event>
 7    1  0.9868142E-013  0.5052886E+02  0.7816164E-02  0.1300439E+00
        -11   -1    0    0    0    0  0.00000000000E+00  0.00000000000E+00  0.45593999997E+02  0.45594000000E+02  0.51100000000E-03 0.  1.
         11   -1    0    0    0    0 -0.00000000000E+00 -0.00000000000E+00 -0.45593999997E+02  0.45594000000E+02  0.51100000000E-03 0. -1.
    9900012    2    1    2    0    0  0.20420562735E+01 -0.80799904531E+01 -0.39795851637E+02  0.50528855308E+02  0.29999986196E+02 0.  0.
        -12    1    1    2    0    0 -0.20420562735E+01  0.80799904531E+01  0.39795851637E+02  0.40659144692E+02  0.00000000000E+00 0.  1.
         11    1    3    3    0    0  0.44982487221E+01 -0.48857307189E+01 -0.38158398000E+02  0.38732001555E+02  0.51100000000E-03 0. -1.
        -11    1    3    3    0    0 -0.36855515014E+01 -0.58881659572E+01 -0.39936336103E+01  0.80126710829E+01  0.51100000000E-03 0.  1.
         12    1    3    3    0    0  0.12293590527E+01  0.26939062230E+01  0.23561799736E+01  0.37841826709E+01  0.00000000000E+00 0. -1.
</event>
<event>
 7    1  0.9868142E-013  0.5052886E+02  0.7816164E-02  0.1300439E+00
        -11   -1    0    0    0    0  0.00000000000E+00  0.00000000000E+00  0.45593999997E+02  0.45594000000E+02  0.51100000000E-03 0.  1.
         11   -1    0    0    0    0 -0.00000000000E+00 -0.00000000000E+00 -0.45593999997E+02  0.45594000000E+02  0.51100000000E-03 0. -1.
    9900012    2    1    2    0    0 -0.17423097940E+02  0.85591366502E+01  0.35725932303E+02  0.50528863254E+02  0.30000010347E+02 0.  0.
        -12    1    1    2    0    0  0.17423097940E+02 -0.85591366502E+01 -0.35725932303E+02  0.40659136746E+02  0.00000000000E+00 0.  1.
         11    1    3    3    0    0 -0.12811074093E+02  0.58429652404E+00  0.30220381416E+02  0.32828896951E+02  0.51100000000E-03 0. -1.
        -11    1    3    3    0    0 -0.33045057813E+00 -0.37540312238E+01 -0.57498396049E+00  0.38121588148E+01  0.51100000000E-03 0.  1.
         12    1    3    3    0    0 -0.42815732689E+01  0.11728871350E+02  0.60805348474E+01  0.13887807488E+02  0.00000000000E+00 0. -1.
</event>
<event>
 7    1  0.9868142E-013  0.5052884E+02  0.7816164E-02  0.1300439E+00
        -11   -1    0    0    0    0  0.00000000000E+00  0.00000000000E+00  0.45593999997E+02  0.45594000000E+02  0.51100000000E-03 0. -1.
         11   -1    0    0    0    0 -0.00000000000E+00 -0.00000000000E+00 -0.45593999997E+02  0.45594000000E+02  0.51100000000E-03 0.  1.
    9900012    2    1    2    0    0 -0.17349706211E+02  0.30729253815E+02  0.20195745162E+02  0.50528837831E+02  0.29999933073E+02 0.  0.
        -12    1    1    2    0    0  0.17349706211E+02 -0.30729253815E+02 -0.20195745162E+02  0.40659162169E+02  0.00000000000E+00 0.  1.
         11    1    3    3    0    0 -0.36772626436E+01  0.22664839779E+02  0.65783133962E+01  0.23884962428E+02  0.51100000000E-03 0. -1.
        -11    1    3    3    0    0 -0.78936320434E+01 -0.39472283558E+01  0.22062941462E+01  0.90971299128E+01  0.51100000000E-03 0.  1.
        -12    1    3    3    0    0 -0.57788115239E+01  0.12011642391E+02  0.11411137619E+02  0.17546745491E+02  0.00000000000E+00 0.  1.
</event>
<event>
 7    1  0.9868142E-013  0.5052886E+02  0.7816164E-02  0.1300439E+00
        -11   -1    0    0    0    0  0.00000000000E+00  0.00000000000E+00  0.45593999997E+02  0.45594000000E+02  0.51100000000E-03 0. -1.
         11   -1    0    0    0    0 -0.00000000000E+00 -0.00000000000E+00 -0.45593999997E+02  0.45594000000E+02  0.51100000000E-03 0.  1.
    9900012    2    1    2    0    0 -0.14800920391E+02  0.28251996522E+02  0.25217519509E+02  0.50528857829E+02  0.29999993856E+02 0.  0.
        -12    1    1    2    0    0  0.14800920391E+02 -0.28251996522E+02 -0.25217519509E+02  0.40659142171E+02  0.00000000000E+00 0.  1.
         11    1    3    3    0    0 -0.36008847498E+01 -0.18757205160E+01 -0.21691522406E+01  0.46032510403E+01  0.51100000000E-03 0. -1.
        -11    1    3    3    0    0  0.26047447863E+01  0.18377113195E+02  0.11606153560E+02  0.21890769413E+02  0.51100000000E-03 0.  1.
         12    1    3    3    0    0 -0.13804780428E+02  0.11750603844E+02  0.15780518190E+02  0.24034837376E+02  0.00000000000E+00 0. -1.
</event>
<event>
 7    1  0.9868142E-013  0.5052885E+02  0.7816164E-02  0.1300439E+00
        -11   -1    0    0    0    0  0.00000000000E+00  0.00000000000E+00  0.45593999997E+02  0.45594000000E+02  0.51100000000E-03 0.  1.
         11   -1    0    0    0    0 -0.00000000000E+00 -0.00000000000E+00 -0.45593999997E+02  0.45594000000E+02  0.51100000000E-03 0. -1.
    9900012    2    1    2    0    0  0.22959499021E+02  0.23777894947E+02 -0.23677835763E+02  0.50528846174E+02  0.29999958432E+02 0.  0.
        -12    1    1    2    0    0 -0.22959499021E+02 -0.23777894947E+02  0.23677835763E+02  0.40659153826E+02  0.00000000000E+00 0.  1.
         11    1    3    3    0    0  0.13762195466E+02  0.51218721280E-03 -0.78250368095E+01  0.15831273658E+02  0.51100000000E-03 0. -1.
        -11    1    3    3    0    0  0.94843071844E+01  0.22819227731E+02 -0.68557384832E+01  0.25645085054E+02  0.51100000000E-03 0.  1.
         12    1    3    3    0    0 -0.28700362984E+00  0.95815502849E+00 -0.89970604704E+01  0.90524874620E+01  0.00000000000E+00 0. -1.
</event>
<event>
 7    1  0.9868142E-013  0.5052886E+02  0.7816164E-02  0.1300439E+00
        -11   -1    0    0    0    0  0.00000000000E+00  0.00000000000E+00  0.45593999997E+02  0.45594000000E+02  0.51100000000E-03 0.  1.
         11   -1    0    0    0    0 -0.00000000000E+00 -0.00000000000E+00 -0.45593999997E+02  0.45594000000E+02  0.51100000000E-03 0. -1.
    9900012    2    1    2    0    0  0.21563439021E+02 -0.12574587645E+02 -0.32094601968E+02  0.50528860408E+02  0.30000001696E+02 0.  0.
        -12    1    1    2    0    0 -0.21563439021E+02  0.12574587645E+02  0.32094601968E+02  0.40659139592E+02  0.00000000000E+00 0.  1.
         11    1    3    3    0    0  0.19490982859E+02 -0.19627454376E+01 -0.44191490547E+01  0.20081824147E+02  0.51100000000E-03 0. -1.
        -11    1    3    3    0    0 -0.54708715072E+00 -0.18258810733E+01 -0.13029448678E+02  0.13168131195E+02  0.51100000000E-03 0.  1.
        -12    1    3    3    0    0  0.26195433132E+01 -0.87859611344E+01 -0.14646004235E+02  0.17278905066E+02  0.00000000000E+00 0.  1.
</event>
<event>
 7    1  0.9868142E-013  0.5052883E+02  0.7816164E-02  0.1300439E+00
        -11   -1    0    0    0    0  0.00000000000E+00  0.00000000000E+00  0.45593999997E+02  0.45594000000E+02  0.51100000000E-03 0. -1.
         11   -1    0    0    0    0 -0.00000000000E+00 -0.00000000000E+00 -0.45593999997E+02  0.45594000000E+02  0.51100000000E-03 0.  1.
    9900012    2    1    2    0    0 -0.25064946273E+02 -0.11377531075E+02  0.29924382056E+02  0.50528826540E+02  0.29999898752E+02 0.  0.
        -12    1    1    2    0    0  0.25064946273E+02  0.11377531075E+02 -0.29924382056E+02  0.40659173460E+02  0.00000000000E+00 0.  1.
         11    1    3    3    0    0 -0.22579247131E+02 -0.18110756743E+02  0.29325276268E+02  0.41204292729E+02  0.51100000000E-03 0.  1.
        -11    1    3    3    0    0 -0.43775495904E+01  0.52706304138E+01 -0.31341045464E-01  0.68515303325E+01  0.51100000000E-03 0. -1.
        -12    1    3    3    0    0  0.18918504488E+01  0.14625952544E+01  0.63044683326E+00  0.24730034792E+01  0.00000000000E+00 0.  1.
</event>
<event>
 7    1  0.9868142E-013  0.5052884E+02  0.7816164E-02  0.1300439E+00
        -11   -1    0    0    0    0  0.00000000000E+00  0.00000000000E+00  0.45593999997E+02  0.45594000000E+02  0.51100000000E-03 0.  1.
         11   -1    0    0    0    0 -0.00000000000E+00 -0.00000000000E+00 -0.45593999997E+02  0.45594000000E+02  0.51100000000E-03 0. -1.
    9900012    2    1    2    0    0  0.31219227590E+02 -0.17733679960E+02  0.19079931175E+02  0.50528839287E+02  0.29999937496E+02 0.  0.
        -12    1    1    2    0    0 -0.31219227590E+02  0.17733679960E+02 -0.19079931175E+02  0.40659160713E+02  0.00000000000E+00 0.  1.
         11    1    3    3    0    0  0.11764946997E+02 -0.48372020334E+01 -0.31743743680E+01  0.13110650412E+02  0.51100000000E-03 0. -1.
        -11    1    3    3    0    0  0.83994098765E+01 -0.11311704050E+02  0.22148301542E+02  0.26249799928E+02  0.51100000000E-03 0.  1.
        -12    1    3    3    0    0  0.11054870717E+02 -0.15847738771E+01  0.10600400079E+00  0.11168388947E+02  0.00000000000E+00 0.  1.
</event>
<event>
 7    1  0.9868142E-013  0.5052886E+02  0.7816164E-02  0.1300439E+00
        -11   -1    0    0    0    0  0.00000000000E+00  0.00000000000E+00  0.45593999997E+02  0.45594000000E+02  0.51100000000E-03 0.  1.
         11   -1    0    0    0    0 -0.00000000000E+00 -0.00000000000E+00 -0.45593999997E+02  0.45594000000E+02  0.51100000000E-03 0. -1.
    9900012    2    1    2    0    0 -0.30960234418E+02  0.26269913232E+02 -0.21262697278E+01  0.50528862289E+02  0.30000007415E+02 0.  0.
        -12    1    1    2    0    0  0.30960234418E+02 -0.26269913232E+02  0.21262697278E+01  0.40659137711E+02  0.00000000000E+00 0.  1.
         11    1    3    3    0    0 -0.10626426098E+02 -0.34775782822E+01 -0.38259475773E+00  0.11187531512E+02  0.51100000000E-03 0. -1.
        -11    1    3    3    0    0 -0.63571761400E+01  0.19593620753E+02 -0.61781196757E+01  0.21505646367E+02  0.51100000000E-03 0.  1.
        -12    1    3    3    0    0 -0.13976632180E+02  0.10153870761E+02  0.44344447057E+01  0.17835684410E+02  0.00000000000E+00 0.  1.
</event>
<event>
 7    1  0.9868142E-013  0.5052886E+02  0.7816164E-02  0.1300439E+00
        -11   -1    0    0    0    0  0.00000000000E+00  0.00000000000E+00  0.45593999997E+02  0.45594000000E+02  0.51100000000E-03 0. -1.
         11   -1    0    0    0    0 -0.00000000000E+00 -0.00000000000E+00 -0.45593999997E+02  0.45594000000E+02  0.51100000000E-03 0.  1.
    9900012    2    1    2    0    0  0.38540063948E+02  0.43386578261E+01  0.12206763148E+02  0.50528861453E+02  0.30000004872E+02 0.  0.
        -12    1    1    2    0    0 -0.38540063948E+02 -0.43386578261E+01 -0.12206763148E+02  0.40659138547E+02  0.00000000000E+00 0.  1.
         11    1    3    3    0    0  0.19086042244E+02  0.23015752502E+01 -0.77037040094E+01  0.20710415566E+02  0.51100000000E-03 0. -1.
        -11    1    3    3    0    0  0.84155501758E+01  0.52350534160E+01  0.13212752637E+02  0.16516782421E+02  0.51100000000E-03 0.  1.
        -12    1    3    3    0    0  0.11038471528E+02 -0.31979708401E+01  0.66977145197E+01  0.13301663466E+02  0.00000000000E+00 0.  1.
</event>
<event>
 7    1  0.9868142E-013  0.5052885E+02  0.7816164E-02  0.1300439E+00
        -11   -1    0    0    0    0  0.00000000000E+00  0.00000000000E+00  0.45593999997E+02  0.45594000000E+02  0.51100000000E-03 0.  1.
         11   -1    0    0    0    0 -0.00000000000E+00 -0.00000000000E+00 -0.45593999997E+02  0.45594000000E+02  0.51100000000E-03 0. -1.
    9900012    2    1    2    0    0  0.14339557428E+02  0.34548700118E+02  0.15935204121E+02  0.50528851983E+02  0.29999976086E+02 0.  0.
        -12    1    1    2    0    0 -0.14339557428E+02 -0.34548700118E+02 -0.15935204121E+02  0.40659148017E+02  0.00000000000E+00 0.  1.
         11    1    3    3    0    0  0.33797496967E+01  0.19373062953E+02  0.47556609453E+00  0.19671411733E+02  0.51100000000E-03 0. -1.
        -11    1    3    3    0    0  0.26755534731E+01 -0.45624201885E+01  0.27247269278E+01  0.59496555746E+01  0.51100000000E-03 0.  1.
         12    1    3    3    0    0  0.82842542583E+01  0.19738057354E+02  0.12734911099E+02  0.24907784675E+02  0.00000000000E+00 0. -1.
</event>
<event>
 7    1  0.9868142E-013  0.5052885E+02  0.7816164E-02  0.1300439E+00
        -11   -1    0    0    0    0  0.00000000000E+00  0.00000000000E+00  0.45593999997E+02  0.45594000000E+02  0.51100000000E-03 0.  1.
         11   -1    0    0    0    0 -0.00000000000E+00 -0.00000000000E+00 -0.45593999997E+02  0.45594000000E+02  0.51100000000E-03 0. -1.
    9900012    2    1    2    0    0 -0.11512328411E+02 -0.38375222712E+02 -0.69263899366E+01  0.50528852183E+02  0.29999976695E+02 0.  0.
        -12    1    1    2    0    0  0.11512328411E+02  0.38375222712E+02  0.69263899366E+01  0.40659147817E+02  0.00000000000E+00 0.  1.
         11    1    3    3    0    0  0.37704818103E+01  0.23574968083E+01  0.29592918087E+01  0.53415103251E+01  0.51100000000E-03 0. -1.
        -11    1    3    3    0    0 -0.98389436732E+01 -0.21704453854E+02 -0.86692600582E+01  0.25358316189E+02  0.51100000000E-03 0.  1.
         12    1    3    3    0    0 -0.54438665481E+01 -0.19028265667E+02 -0.12164216871E+01  0.19829025669E+02  0.00000000000E+00 0. -1.
</event>
<event>
 7    1  0.9868142E-013  0.5052883E+02  0.7816164E-02  0.1300439E+00
        -11   -1    0    0    0    0  0.00000000000E+00  0.00000000000E+00  0.45593999997E+02  0.45594000000E+02  0.51100000000E-03 0.  1.
         11   -1    0    0    0    0 -0.00000000000E+00 -0.00000000000E+00 -0.45593999997E+02  0.45594000000E+02  0.51100000000E-03 0. -1.
    9900012    2    1    2    0    0 -0.15207927392E+02  0.37696249588E+02 -0.93784537432E+00  0.50528833229E+02  0.29999919082E+02 0.  0.
        -12    1    1    2    0    0  0.15207927392E+02 -0.37696249588E+02  0.93784537432E+00  0.40659166771E+02  0.00000000000E+00 0.  1.
         11    1    3    3    0    0 -0.23042353713E+01  0.16345014403E+02  0.24868270724E+01  0.16692911838E+02  0.51100000000E-03 0. -1.
        -11    1    3    3    0    0 -0.15745447841E+02  0.18825694687E+02 -0.97889824913E+01  0.26422529907E+02  0.51100000000E-03 0.  1.
        -12    1    3    3    0    0  0.28417558208E+01  0.25255404978E+01  0.63643100446E+01  0.74133914840E+01  0.00000000000E+00 0.  1.
</event>
<event>
 7    1  0.9868142E-013  0.5052886E+02  0.7816164E-02  0.1300439E+00
        -11   -1    0    0    0    0  0.00000000000E+00  0.00000000000E+00  0.45593999997E+02  0.45594000000E+02  0.51100000000E-03 0. -1.
         11   -1    0    0    0    0 -0.00000000000E+00 -0.00000000000E+00 -0.45593999997E+02  0.45594000000E+02  0.51100000000E-03 0.  1.
    9900012    2    1    2    0    0 -0.28829715686E+02  0.16570965940E+02  0.23396924387E+02  0.50528862165E+02  0.30000007036E+02 0.  0.
        -12    1    1    2    0    0  0.28829715686E+02 -0.16570965940E+02 -0.23396924387E+02  0.40659137835E+02  0.00000000000E+00 0.  1.
         11    1    3    3    0    0 -0.17086648811E+02  0.50695816182E+01  0.24457621706E+02  0.30262674786E+02  0.51100000000E-03 0. -1.
        -11    1    3    3    0    0 -0.10439372035E+01  0.89531440708E+01 -0.19824314025E+01  0.92292268455E+01  0.51100000000E-03 0.  1.
         12    1    3    3    0    0 -0.10699129672E+02  0.25482402509E+01  0.92173408273E+00  0.11036960534E+02  0.00000000000E+00 0. -1.
</event>
<event>
 7    1  0.9868142E-013  0.5052881E+02  0.7816164E-02  0.1300439E+00
        -11   -1    0    0    0    0  0.00000000000E+00  0.00000000000E+00  0.45593999997E+02  0.45594000000E+02  0.51100000000E-03 0.  1.
         11   -1    0    0    0    0 -0.00000000000E+00 -0.00000000000E+00 -0.45593999997E+02  0.45594000000E+02  0.51100000000E-03 0. -1.
    9900012    2    1    2    0    0  0.25935360840E+02 -0.21305697586E+01 -0.31240797717E+02  0.50528810247E+02  0.29999849227E+02 0.  0.
        -12    1    1    2    0    0 -0.25935360840E+02  0.21305697586E+01  0.31240797717E+02  0.40659189753E+02  0.00000000000E+00 0.  1.
         11    1    3    3    0    0  0.37665081193E+01 -0.11563130933E+02 -0.34083670011E+01  0.12629708875E+02  0.51100000000E-03 0. -1.
        -11    1    3    3    0    0  0.11424220129E+01  0.27984432502E+01 -0.10300500179E+01  0.31933393150E+01  0.51100000000E-03 0.  1.
         12    1    3    3    0    0  0.21026430708E+02  0.66341179239E+01 -0.26802380698E+02  0.34705762058E+02  0.00000000000E+00 0. -1.
</event>
<event>
 7    1  0.9868142E-013  0.5052892E+02  0.7816164E-02  0.1300439E+00
        -11   -1    0    0    0    0  0.00000000000E+00  0.00000000000E+00  0.45593999997E+02  0.45594000000E+02  0.51100000000E-03 0. -1.
         11   -1    0    0    0    0 -0.00000000000E+00 -0.00000000000E+00 -0.45593999997E+02  0.45594000000E+02  0.51100000000E-03 0.  1.
    9900012    2    1    2    0    0 -0.13772972223E+02  0.33614219988E+02  0.18263360031E+02  0.50528918986E+02  0.30000179750E+02 0.  0.
        -12    1    1    2    0    0  0.13772972223E+02 -0.33614219988E+02 -0.18263360031E+02  0.40659081014E+02  0.00000000000E+00 0.  1.
         11    1    3    3    0    0 -0.11569870873E+02  0.18288294940E+02  0.18540088119E+02  0.28496640356E+02  0.51100000000E-03 0. -1.
        -11    1    3    3    0    0  0.53231131204E+01  0.51040394387E+01  0.43022402703E+01  0.85379168120E+01  0.51100000000E-03 0.  1.
         12    1    3    3    0    0 -0.75262144703E+01  0.10221885609E+02 -0.45789683583E+01  0.13494361818E+02  0.00000000000E+00 0. -1.
</event>
<event>
 7    1  0.9868142E-013  0.5052886E+02  0.7816164E-02  0.1300439E+00
        -11   -1    0    0    0    0  0.00000000000E+00  0.00000000000E+00  0.45593999997E+02  0.45594000000E+02  0.51100000000E-03 0.  1.
         11   -1    0    0    0    0 -0.00000000000E+00 -0.00000000000E+00 -0.45593999997E+02  0.45594000000E+02  0.51100000000E-03 0. -1.
    9900012    2    1    2    0    0 -0.25920630779E+02 -0.54007782596E+01  0.30856412768E+02  0.50528859396E+02  0.29999998619E+02 0.  0.
        -12    1    1    2    0    0  0.25920630779E+02  0.54007782596E+01 -0.30856412768E+02  0.40659140604E+02  0.00000000000E+00 0.  1.
         11    1    3    3    0    0 -0.12015258874E+02 -0.85381026925E+01  0.13826954591E+01  0.14804644217E+02  0.51100000000E-03 0. -1.
        -11    1    3    3    0    0 -0.16794628099E+02  0.25003341942E+01  0.26857433456E+02  0.31774721654E+02  0.51100000000E-03 0.  1.
        -12    1    3    3    0    0  0.28892561927E+01  0.63699023862E+00  0.26162838522E+01  0.39494935253E+01  0.00000000000E+00 0.  1.
</event>
<event>
 7    1  0.9868142E-013  0.5052885E+02  0.7816164E-02  0.1300439E+00
        -11   -1    0    0    0    0  0.00000000000E+00  0.00000000000E+00  0.45593999997E+02  0.45594000000E+02  0.51100000000E-03 0.  1.
         11   -1    0    0    0    0 -0.00000000000E+00 -0.00000000000E+00 -0.45593999997E+02  0.45594000000E+02  0.51100000000E-03 0. -1.
    9900012    2    1    2    0    0 -0.26895155073E+02 -0.30251891805E+02  0.38262178865E+01  0.50528852597E+02  0.29999977954E+02 0.  0.
        -12    1    1    2    0    0  0.26895155073E+02  0.30251891805E+02 -0.38262178865E+01  0.40659147403E+02  0.00000000000E+00 0.  1.
         11    1    3    3    0    0 -0.23099429878E+02 -0.12467702108E+02 -0.76043283128E+01  0.27328612587E+02  0.51100000000E-03 0. -1.
        -11    1    3    3    0    0  0.84090687228E+00 -0.72154554440E+00  0.37721622056E+01  0.39315340908E+01  0.51100000000E-03 0.  1.
         12    1    3    3    0    0 -0.46366320672E+01 -0.17062644153E+02  0.76583839936E+01  0.19268705920E+02  0.00000000000E+00 0. -1.
</event>
<event>
 7    1  0.9868142E-013  0.5052872E+02  0.7816164E-02  0.1300439E+00
        -11   -1    0    0    0    0  0.00000000000E+00  0.00000000000E+00  0.45593999997E+02  0.45594000000E+02  0.51100000000E-03 0.  1.
         11   -1    0    0    0    0 -0.00000000000E+00 -0.00000000000E+00 -0.45593999997E+02  0.45594000000E+02  0.51100000000E-03 0. -1.
    9900012    2    1    2    0    0 -0.17723615156E+02 -0.32920248660E+02 -0.15978340583E+02  0.50528724627E+02  0.29999588973E+02 0.  0.
        -12    1    1    2    0    0  0.17723615156E+02  0.32920248660E+02  0.15978340583E+02  0.40659275373E+02  0.00000000000E+00 0.  1.
         11    1    3    3    0    0 -0.40034000975E+01  0.76779383205E+00 -0.42157638893E+01  0.58642463404E+01  0.51100000000E-03 0. -1.
        -11    1    3    3    0    0  0.45565279850E+01 -0.10177145513E+02  0.28269973492E+01  0.11503397426E+02  0.51100000000E-03 0.  1.
        -12    1    3    3    0    0 -0.18276743044E+02 -0.23510896980E+02 -0.14589574043E+02  0.33161080861E+02  0.00000000000E+00 0.  1.
</event>
<event>
 7    1  0.9868142E-013  0.5052886E+02  0.7816164E-02  0.1300439E+00
        -11   -1    0    0    0    0  0.00000000000E+00  0.00000000000E+00  0.45593999997E+02  0.45594000000E+02  0.51100000000E-03 0.  1.
         11   -1    0    0    0    0 -0.00000000000E+00 -0.00000000000E+00 -0.45593999997E+02  0.45594000000E+02  0.51100000000E-03 0. -1.
    9900012    2    1    2    0    0  0.17563995030E+01 -0.16226673144E+02 -0.37239441023E+02  0.50528857999E+02  0.29999994374E+02 0.  0.
        -12    1    1    2    0    0 -0.17563995030E+01  0.16226673144E+02  0.37239441023E+02  0.40659142001E+02  0.00000000000E+00 0.  1.
         11    1    3    3    0    0 -0.84569088248E+01  0.29501052815E+01 -0.12715251200E+02  0.15553136062E+02  0.51100000000E-03 0. -1.
        -11    1    3    3    0    0  0.67366159338E+01 -0.19894675271E+02 -0.18532543613E+02  0.28011341836E+02  0.51100000000E-03 0.  1.
        -12    1    3    3    0    0  0.34766923940E+01  0.71789684599E+00 -0.59916462104E+01  0.69643801012E+01  0.00000000000E+00 0.  1.
</event>
<event>
 7    1  0.9868142E-013  0.5052888E+02  0.7816164E-02  0.1300439E+00
        -11   -1    0    0    0    0  0.00000000000E+00  0.00000000000E+00  0.45593999997E+02  0.45594000000E+02  0.51100000000E-03 0.  1.
         11   -1    0    0    0    0 -0.00000000000E+00 -0.00000000000E+00 -0.45593999997E+02  0.45594000000E+02  0.51100000000E-03 0. -1.
    9900012    2    1    2    0    0 -0.25623449553E+02 -0.30379334015E+02 -0.85848280984E+01  0.50528875862E+02  0.30000048670E+02 0.  0.
        -12    1    1    2    0    0  0.25623449553E+02  0.30379334015E+02  0.85848280984E+01  0.40659124138E+02  0.00000000000E+00 0.  1.
         11    1    3    3    0    0 -0.21289515759E+02 -0.11092823667E+02  0.11561610725E+01  0.24033953625E+02  0.51100000000E-03 0. -1.
        -11    1    3    3    0    0 -0.63211805795E+01 -0.90739511062E+01 -0.11487290403E+02  0.15945273709E+02  0.51100000000E-03 0.  1.
        -12    1    3    3    0    0  0.19872467855E+01 -0.10212559242E+02  0.17463012325E+01  0.10549648528E+02  0.00000000000E+00 0.  1.
</event>
<event>
 7    1  0.9868142E-013  0.5052886E+02  0.7816164E-02  0.1300439E+00
        -11   -1    0    0    0    0  0.00000000000E+00  0.00000000000E+00  0.45593999997E+02  0.45594000000E+02  0.51100000000E-03 0.  1.
         11   -1    0    0    0    0 -0.00000000000E+00 -0.00000000000E+00 -0.45593999997E+02  0.45594000000E+02  0.51100000000E-03 0. -1.
    9900012    2    1    2    0    0 -0.30239833248E+02 -0.80720627347E+01 -0.25953033721E+02  0.50528859933E+02  0.30000000253E+02 0.  0.
        -12    1    1    2    0    0  0.30239833248E+02  0.80720627347E+01  0.25953033721E+02  0.40659140067E+02  0.00000000000E+00 0.  1.
         11    1    3    3    0    0 -0.32844176247E+02 -0.60729003905E+01 -0.26630116555E+02  0.42717480502E+02  0.51100000000E-03 0. -1.
        -11    1    3    3    0    0 -0.26016395302E-01  0.24843816436E+01  0.80488161633E+00  0.26116400367E+01  0.51100000000E-03 0.  1.
         12    1    3    3    0    0  0.26303593948E+01 -0.44835439878E+01 -0.12779878317E+00  0.51997393940E+01  0.00000000000E+00 0. -1.
</event>
<event>
 7    1  0.9868142E-013  0.5052887E+02  0.7816164E-02  0.1300439E+00
        -11   -1    0    0    0    0  0.00000000000E+00  0.00000000000E+00  0.45593999997E+02  0.45594000000E+02  0.51100000000E-03 0.  1.
         11   -1    0    0    0    0 -0.00000000000E+00 -0.00000000000E+00 -0.45593999997E+02  0.45594000000E+02  0.51100000000E-03 0. -1.
    9900012    2    1    2    0    0  0.31696871799E+02  0.10090663954E+02 -0.23380587252E+02  0.50528867679E+02  0.30000023796E+02 0.  0.
        -12    1    1    2    0    0 -0.31696871799E+02 -0.10090663954E+02  0.23380587252E+02  0.40659132321E+02  0.00000000000E+00 0.  1.
         11    1    3    3    0    0  0.31710588955E+01  0.99536216846E+00 -0.16340527558E+01  0.37035778694E+01  0.51100000000E-03 0. -1.
        -11    1    3    3    0    0  0.17310947255E+02 -0.69311333216E+01 -0.15534231868E+01  0.18711564014E+02  0.51100000000E-03 0.  1.
        -12    1    3    3    0    0  0.11214865649E+02  0.16026435107E+02 -0.20193111309E+02  0.28113725796E+02  0.00000000000E+00 0.  1.
</event>
<event>
 7    1  0.9868142E-013  0.5052886E+02  0.7816164E-02  0.1300439E+00
        -11   -1    0    0    0    0  0.00000000000E+00  0.00000000000E+00  0.45593999997E+02  0.45594000000E+02  0.51100000000E-03 0.  1.
         11   -1    0    0    0    0 -0.00000000000E+00 -0.00000000000E+00 -0.45593999997E+02  0.45594000000E+02  0.51100000000E-03 0. -1.
    9900012    2    1    2    0    0  0.17327888814E+02 -0.81116797760E+01 -0.35876323185E+02  0.50528860255E+02  0.30000001231E+02 0.  0.
        -12    1    1    2    0    0 -0.17327888814E+02  0.81116797760E+01  0.35876323185E+02  0.40659139745E+02  0.00000000000E+00 0.  1.
         11    1    3    3    0    0  0.23849893969E+02 -0.11068456014E+00 -0.27152580672E+02  0.36139899430E+02  0.51100000000E-03 0. -1.
        -11    1    3    3    0    0 -0.13923125878E+01 -0.55780587185E+01 -0.39602407007E+01  0.69811732594E+01  0.51100000000E-03 0.  1.
         12    1    3    3    0    0 -0.51296925670E+01 -0.24229364973E+01 -0.47635018123E+01  0.74077875657E+01  0.00000000000E+00 0. -1.
</event>
<event>
 7    1  0.9868142E-013  0.5052885E+02  0.7816164E-02  0.1300439E+00
        -11   -1    0    0    0    0  0.00000000000E+00  0.00000000000E+00  0.45593999997E+02  0.45594000000E+02  0.51100000000E-03 0.  1.
         11   -1    0    0    0    0 -0.00000000000E+00 -0.00000000000E+00 -0.45593999997E+02  0.45594000000E+02  0.51100000000E-03 0. -1.
    9900012    2    1    2    0    0 -0.31009593164E+01 -0.21638069802E+02 -0.34283292306E+02  0.50528854106E+02  0.29999982542E+02 0.  0.
        -12    1    1    2    0    0  0.31009593164E+01  0.21638069802E+02  0.34283292306E+02  0.40659145894E+02  0.00000000000E+00 0.  1.
         11    1    3    3    0    0 -0.60525575539E+01 -0.23426449271E+02 -0.11409724955E+02  0.26750958903E+02  0.51100000000E-03 0. -1.
        -11    1    3    3    0    0 -0.44030302545E+00  0.28877859874E+01 -0.10907094023E+02  0.11291495691E+02  0.51100000000E-03 0.  1.
         12    1    3    3    0    0  0.33919012630E+01 -0.10994065184E+01 -0.11966473328E+02  0.12486399512E+02  0.00000000000E+00 0. -1.
</event>
<event>
 7    1  0.9868142E-013  0.5052886E+02  0.7816164E-02  0.1300439E+00
        -11   -1    0    0    0    0  0.00000000000E+00  0.00000000000E+00  0.45593999997E+02  0.45594000000E+02  0.51100000000E-03 0. -1.
         11   -1    0    0    0    0 -0.00000000000E+00 -0.00000000000E+00 -0.45593999997E+02  0.45594000000E+02  0.51100000000E-03 0.  1.
    9900012    2    1    2    0    0 -0.58415487752E+01  0.37045181771E+02  0.15706581441E+02  0.50528857300E+02  0.29999992250E+02 0.  0.
        -12    1    1    2    0    0  0.58415487752E+01 -0.37045181771E+02 -0.15706581441E+02  0.40659142700E+02  0.00000000000E+00 0.  1.
         11    1    3    3    0    0  0.34761089106E+01  0.23375095945E+02  0.18093108407E+02  0.29763047823E+02  0.51100000000E-03 0. -1.
        -11    1    3    3    0    0 -0.47817097253E+01 -0.12832018323E+01 -0.12028639963E+01  0.50949226583E+01  0.51100000000E-03 0.  1.
        -12    1    3    3    0    0 -0.45359479605E+01  0.14953287658E+02 -0.11836629696E+01  0.15670886819E+02  0.00000000000E+00 0.  1.
</event>
<event>
 7    1  0.9868142E-013  0.5052887E+02  0.7816164E-02  0.1300439E+00
        -11   -1    0    0    0    0  0.00000000000E+00  0.00000000000E+00  0.45593999997E+02  0.45594000000E+02  0.51100000000E-03 0.  1.
         11   -1    0    0    0    0 -0.00000000000E+00 -0.00000000000E+00 -0.45593999997E+02  0.45594000000E+02  0.51100000000E-03 0. -1.
    9900012    2    1    2    0    0 -0.22310396357E+02 -0.16136928868E+02 -0.29916730393E+02  0.50528867984E+02  0.30000024724E+02 0.  0.
        -12    1    1    2    0    0  0.22310396357E+02  0.16136928868E+02  0.29916730393E+02  0.40659132016E+02  0.00000000000E+00 0.  1.
         11    1    3    3    0    0 -0.25748047837E+02 -0.12096658717E+02 -0.16378944574E+02  0.32826223438E+02  0.51100000000E-03 0. -1.
        -11    1    3    3    0    0  0.41950145669E+01  0.24586151267E+01 -0.56348065810E+01  0.74427132837E+01  0.51100000000E-03 0.  1.
        -12    1    3    3    0    0 -0.75736308712E+00 -0.64988852768E+01 -0.79029792374E+01  0.10259931263E+02  0.00000000000E+00 0.  1.
</event>
<event>
 7    1  0.9868142E-013  0.5052886E+02  0.7816164E-02  0.1300439E+00
        -11   -1    0    0    0    0  0.00000000000E+00  0.00000000000E+00  0.45593999997E+02  0.45594000000E+02  0.51100000000E-03 0.  1.
         11   -1    0    0    0    0 -0.00000000000E+00 -0.00000000000E+00 -0.45593999997E+02  0.45594000000E+02  0.51100000000E-03 0. -1.
    9900012    2    1    2    0    0 -0.71286604434E+01 -0.23749316761E+02 -0.32222944400E+02  0.50528855983E+02  0.29999988247E+02 0.  0.
        -12    1    1    2    0    0  0.71286604434E+01  0.23749316761E+02  0.32222944400E+02  0.40659144017E+02  0.00000000000E+00 0.  1.
         11    1    3    3    0    0  0.14040892535E+01 -0.17544199985E+02 -0.31477002042E+02  0.36063445170E+02  0.51100000000E-03 0. -1.
        -11    1    3    3    0    0 -0.15233328442E+01 -0.77604031549E+00 -0.45177476420E+01  0.48304063539E+01  0.51100000000E-03 0.  1.
         12    1    3    3    0    0 -0.70094168526E+01 -0.54290764609E+01  0.37718052837E+01  0.96350044593E+01  0.00000000000E+00 0. -1.
</event>
<event>
 7    1  0.9868142E-013  0.5052887E+02  0.7816164E-02  0.1300439E+00
        -11   -1    0    0    0    0  0.00000000000E+00  0.00000000000E+00  0.45593999997E+02  0.45594000000E+02  0.51100000000E-03 0.  1.
         11   -1    0    0    0    0 -0.00000000000E+00 -0.00000000000E+00 -0.45593999997E+02  0.45594000000E+02  0.51100000000E-03 0. -1.
    9900012    2    1    2    0    0  0.14784912449E+02  0.17152438307E+02 -0.33769294971E+02  0.50528867461E+02  0.30000023134E+02 0.  0.
        -12    1    1    2    0    0 -0.14784912449E+02 -0.17152438307E+02  0.33769294971E+02  0.40659132539E+02  0.00000000000E+00 0.  1.
         11    1    3    3    0    0 -0.63193121400E+01 -0.93736675723E+00 -0.11482638716E+02  0.13140142865E+02  0.51100000000E-03 0. -1.
        -11    1    3    3    0    0  0.18363296953E+02  0.11492411123E+02 -0.20919505155E+02  0.30114977745E+02  0.51100000000E-03 0.  1.
         12    1    3    3    0    0  0.27409276361E+01  0.65973939416E+01 -0.13671511000E+01  0.72737468513E+01  0.00000000000E+00 0. -1.
</event>
<event>
 7    1  0.9868142E-013  0.5052887E+02  0.7816164E-02  0.1300439E+00
        -11   -1    0    0    0    0  0.00000000000E+00  0.00000000000E+00  0.45593999997E+02  0.45594000000E+02  0.51100000000E-03 0.  1.
         11   -1    0    0    0    0 -0.00000000000E+00 -0.00000000000E+00 -0.45593999997E+02  0.45594000000E+02  0.51100000000E-03 0. -1.
    9900012    2    1    2    0    0  0.59386192047E+01 -0.11783396250E+01 -0.40205833205E+02  0.50528871799E+02  0.30000036320E+02 0.  0.
        -12    1    1    2    0    0 -0.59386192047E+01  0.11783396250E+01  0.40205833205E+02  0.40659128201E+02  0.00000000000E+00 0.  1.
         11    1    3    3    0    0  0.14915891246E+02  0.13800030473E+00 -0.32326119580E+02  0.35601697475E+02  0.51100000000E-03 0. -1.
        -11    1    3    3    0    0 -0.89627212148E+01  0.20574753203E+01 -0.65982981331E+01  0.11318176301E+02  0.51100000000E-03 0.  1.
         12    1    3    3    0    0 -0.14550826224E-01 -0.33738152500E+01 -0.12814154924E+01  0.36089980233E+01  0.00000000000E+00 0. -1.
</event>
<event>
 7    1  0.9868142E-013  0.5052886E+02  0.7816164E-02  0.1300439E+00
        -11   -1    0    0    0    0  0.00000000000E+00  0.00000000000E+00  0.45593999997E+02  0.45594000000E+02  0.51100000000E-03 0. -1.
         11   -1    0    0    0    0 -0.00000000000E+00 -0.00000000000E+00 -0.45593999997E+02  0.45594000000E+02  0.51100000000E-03 0.  1.
    9900012    2    1    2    0    0 -0.37666475850E+02  0.58653061898E+01 -0.14142153721E+02  0.50528859188E+02  0.29999997989E+02 0.  0.
        -12    1    1    2    0    0  0.37666475850E+02 -0.58653061898E+01  0.14142153721E+02  0.40659140812E+02  0.00000000000E+00 0.  1.
         11    1    3    3    0    0 -0.24935033253E+01 -0.20880437324E+01  0.14378186522E+01  0.35559539085E+01  0.51100000000E-03 0. -1.
        -11    1    3    3    0    0 -0.33441898746E+02 -0.26702898977E+01 -0.11615055489E+02  0.35502120418E+02  0.51100000000E-03 0.  1.
        -12    1    3    3    0    0 -0.17310737789E+01  0.10623639820E+02 -0.39649168843E+01  0.11470784862E+02  0.00000000000E+00 0.  1.
</event>
<event>
 7    1  0.9868142E-013  0.5052886E+02  0.7816164E-02  0.1300439E+00
        -11   -1    0    0    0    0  0.00000000000E+00  0.00000000000E+00  0.45593999997E+02  0.45594000000E+02  0.51100000000E-03 0.  1.
         11   -1    0    0    0    0 -0.00000000000E+00 -0.00000000000E+00 -0.45593999997E+02  0.45594000000E+02  0.51100000000E-03 0. -1.
    9900012    2    1    2    0    0  0.26092930627E+02 -0.23235324039E+02 -0.20795301116E+02  0.50528857604E+02  0.29999993172E+02 0.  0.
        -12    1    1    2    0    0 -0.26092930627E+02  0.23235324039E+02  0.20795301116E+02  0.40659142396E+02  0.00000000000E+00 0.  1.
         11    1    3    3    0    0  0.10645970489E+02 -0.24670592981E+01  0.31020626578E+01  0.11359835485E+02  0.51100000000E-03 0. -1.
        -11    1    3    3    0    0  0.96573989196E+01 -0.11607504378E+02 -0.23972784026E+02  0.28331852851E+02  0.51100000000E-03 0.  1.
         12    1    3    3    0    0  0.57895612183E+01 -0.91607603626E+01  0.75420252200E-01  0.10837169268E+02  0.00000000000E+00 0. -1.
</event>
<event>
 7    1  0.9868142E-013  0.5052886E+02  0.7816164E-02  0.1300439E+00
        -11   -1    0    0    0    0  0.00000000000E+00  0.00000000000E+00  0.45593999997E+02  0.45594000000E+02  0.51100000000E-03 0. -1.
         11   -1    0    0    0    0 -0.00000000000E+00 -0.00000000000E+00 -0.45593999997E+02  0.45594000000E+02  0.51100000000E-03 0.  1.
    9900012    2    1    2    0    0 -0.29035367212E+02  0.26317165568E+02  0.10840665174E+02  0.50528858665E+02  0.29999996398E+02 0.  0.
        -12    1    1    2    0    0  0.29035367212E+02 -0.26317165568E+02 -0.10840665174E+02  0.40659141335E+02  0.00000000000E+00 0.  1.
         11    1    3    3    0    0  0.16912232489E+01  0.10338341826E+02  0.95612058009E+01  0.14183025221E+02  0.51100000000E-03 0. -1.
        -11    1    3    3    0    0 -0.10829710785E+02  0.14048209604E+01 -0.29742284672E+01  0.11318223927E+02  0.51100000000E-03 0.  1.
         12    1    3    3    0    0 -0.19896879676E+02  0.14574002782E+02  0.42536878405E+01  0.25027609517E+02  0.00000000000E+00 0. -1.
</event>
<event>
 7    1  0.9868142E-013  0.5052886E+02  0.7816164E-02  0.1300439E+00
        -11   -1    0    0    0    0  0.00000000000E+00  0.00000000000E+00  0.45593999997E+02  0.45594000000E+02  0.51100000000E-03 0.  1.
         11   -1    0    0    0    0 -0.00000000000E+00 -0.00000000000E+00 -0.45593999997E+02  0.45594000000E+02  0.51100000000E-03 0. -1.
    9900012    2    1    2    0    0 -0.21888256984E+02  0.41258541281E+01 -0.34015395138E+02  0.50528861144E+02  0.30000003935E+02 0.  0.
        -12    1    1    2    0    0  0.21888256984E+02 -0.41258541281E+01  0.34015395138E+02  0.40659138856E+02  0.00000000000E+00 0.  1.
         11    1    3    3    0    0 -0.61128272826E+01  0.39375805857E+01 -0.37138971014E+01  0.81648166052E+01  0.51100000000E-03 0. -1.
        -11    1    3    3    0    0 -0.24837104970E+01 -0.94307479202E+01 -0.24763561379E+01  0.10061817140E+02  0.51100000000E-03 0.  1.
        -12    1    3    3    0    0 -0.13291719205E+02  0.96190214626E+01 -0.27825141898E+02  0.32302227400E+02  0.00000000000E+00 0.  1.
</event>
<event>
 7    1  0.9868142E-013  0.5052892E+02  0.7816164E-02  0.1300439E+00
        -11   -1    0    0    0    0  0.00000000000E+00  0.00000000000E+00  0.45593999997E+02  0.45594000000E+02  0.51100000000E-03 0.  1.
         11   -1    0    0    0    0 -0.00000000000E+00 -0.00000000000E+00 -0.45593999997E+02  0.45594000000E+02  0.51100000000E-03 0. -1.
    9900012    2    1    2    0    0  0.27390671254E+02 -0.21849901842E+02 -0.20627507377E+02  0.50528915617E+02  0.30000169510E+02 0.  0.
        -12    1    1    2    0    0 -0.27390671254E+02  0.21849901842E+02  0.20627507377E+02  0.40659084383E+02  0.00000000000E+00 0.  1.
         11    1    3    3    0    0  0.16217341801E+02 -0.49903750399E+01 -0.67958307238E+01  0.18278110778E+02  0.51100000000E-03 0. -1.
        -11    1    3    3    0    0 -0.28086529171E+01 -0.14556052501E+02 -0.54965839875E+01  0.15810744177E+02  0.51100000000E-03 0.  1.
        -12    1    3    3    0    0  0.13981982370E+02 -0.23034743009E+01 -0.83350926659E+01  0.16440060663E+02  0.00000000000E+00 0.  1.
</event>
<event>
 7    1  0.9868142E-013  0.5052886E+02  0.7816164E-02  0.1300439E+00
        -11   -1    0    0    0    0  0.00000000000E+00  0.00000000000E+00  0.45593999997E+02  0.45594000000E+02  0.51100000000E-03 0.  1.
         11   -1    0    0    0    0 -0.00000000000E+00 -0.00000000000E+00 -0.45593999997E+02  0.45594000000E+02  0.51100000000E-03 0. -1.
    9900012    2    1    2    0    0  0.51758545421E+01  0.28218058816E+02 -0.28811761151E+02  0.50528857188E+02  0.29999991909E+02 0.  0.
        -12    1    1    2    0    0 -0.51758545421E+01 -0.28218058816E+02  0.28811761151E+02  0.40659142812E+02  0.00000000000E+00 0.  1.
         11    1    3    3    0    0  0.43454290548E+00  0.21116817186E+02 -0.22478156371E+01  0.21240561928E+02  0.51100000000E-03 0.  1.
        -11    1    3    3    0    0  0.51344219012E+01  0.12334924677E+01 -0.18924693248E+02  0.19647590354E+02  0.51100000000E-03 0. -1.
        -12    1    3    3    0    0 -0.39311026454E+00  0.58677491620E+01 -0.76392522657E+01  0.96407049062E+01  0.00000000000E+00 0.  1.
</event>
<event>
 7    1  0.9868142E-013  0.5052885E+02  0.7816164E-02  0.1300439E+00
        -11   -1    0    0    0    0  0.00000000000E+00  0.00000000000E+00  0.45593999997E+02  0.45594000000E+02  0.51100000000E-03 0. -1.
         11   -1    0    0    0    0 -0.00000000000E+00 -0.00000000000E+00 -0.45593999997E+02  0.45594000000E+02  0.51100000000E-03 0.  1.
    9900012    2    1    2    0    0 -0.24938627246E+02 -0.57917482106E+01  0.31586179285E+02  0.50528853452E+02  0.29999980551E+02 0.  0.
        -12    1    1    2    0    0  0.24938627246E+02  0.57917482106E+01 -0.31586179285E+02  0.40659146548E+02  0.00000000000E+00 0.  1.
         11    1    3    3    0    0 -0.27547589544E+02 -0.87578501701E+01  0.24561587243E+02  0.37932060285E+02  0.51100000000E-03 0.  1.
        -11    1    3    3    0    0  0.32932569915E+01 -0.16409163364E+01  0.70351308298E+01  0.79392199925E+01  0.51100000000E-03 0. -1.
        -12    1    3    3    0    0 -0.68429469327E+00  0.46070182960E+01 -0.10538788307E-01  0.46575731742E+01  0.00000000000E+00 0.  1.
</event>
<event>
 7    1  0.9868142E-013  0.5052885E+02  0.7816164E-02  0.1300439E+00
        -11   -1    0    0    0    0  0.00000000000E+00  0.00000000000E+00  0.45593999997E+02  0.45594000000E+02  0.51100000000E-03 0.  1.
         11   -1    0    0    0    0 -0.00000000000E+00 -0.00000000000E+00 -0.45593999997E+02  0.45594000000E+02  0.51100000000E-03 0. -1.
    9900012    2    1    2    0    0  0.33209258708E+01  0.34419153158E+02 -0.21388312355E+02  0.50528849023E+02  0.29999967091E+02 0.  0.
        -12    1    1    2    0    0 -0.33209258708E+01 -0.34419153158E+02  0.21388312355E+02  0.40659150977E+02  0.00000000000E+00 0.  1.
         11    1    3    3    0    0 -0.31127518816E+01  0.19088295679E+02 -0.56126193441E+01  0.20138365186E+02  0.51100000000E-03 0. -1.
        -11    1    3    3    0    0  0.10671139061E+02  0.12281616286E+02 -0.18388205069E+02  0.24552747166E+02  0.51100000000E-03 0.  1.
        -12    1    3    3    0    0 -0.42374613081E+01  0.30492411930E+01  0.26125120582E+01  0.58377366714E+01  0.00000000000E+00 0.  1.
</event>
<event>
 7    1  0.9868142E-013  0.5052886E+02  0.7816164E-02  0.1300439E+00
        -11   -1    0    0    0    0  0.00000000000E+00  0.00000000000E+00  0.45593999997E+02  0.45594000000E+02  0.51100000000E-03 0. -1.
         11   -1    0    0    0    0 -0.00000000000E+00 -0.00000000000E+00 -0.45593999997E+02  0.45594000000E+02  0.51100000000E-03 0.  1.
    9900012    2    1    2    0    0  0.29493184261E+02 -0.27243763862E+02  0.64105428188E+01  0.50528860235E+02  0.30000001169E+02 0.  0.
        -12    1    1    2    0    0 -0.29493184261E+02  0.27243763862E+02 -0.64105428188E+01  0.40659139765E+02  0.00000000000E+00 0.  1.
         11    1    3    3    0    0 -0.19853060492E+01 -0.11318678122E+02 -0.29358531158E+00  0.11495221057E+02  0.51100000000E-03 0.  1.
        -11    1    3    3    0    0  0.29666983054E+02 -0.18653206653E+02  0.51912186254E+01  0.35426272073E+02  0.51100000000E-03 0. -1.
        -12    1    3    3    0    0  0.18115072567E+01  0.27281209131E+01  0.15129095049E+01  0.36073671046E+01  0.00000000000E+00 0.  1.
</event>
<event>
 7    1  0.9868142E-013  0.5052885E+02  0.7816164E-02  0.1300439E+00
        -11   -1    0    0    0    0  0.00000000000E+00  0.00000000000E+00  0.45593999997E+02  0.45594000000E+02  0.51100000000E-03 0.  1.
         11   -1    0    0    0    0 -0.00000000000E+00 -0.00000000000E+00 -0.45593999997E+02  0.45594000000E+02  0.51100000000E-03 0. -1.
    9900012    2    1    2    0    0 -0.38728408524E+02 -0.87113637508E+01 -0.87970847409E+01  0.50528853610E+02  0.29999981034E+02 0.  0.
        -12    1    1    2    0    0  0.38728408524E+02  0.87113637508E+01  0.87970847409E+01  0.40659146390E+02  0.00000000000E+00 0.  1.
         11    1    3    3    0    0 -0.39808801758E+01  0.32760075342E+01 -0.12076547085E+02  0.13130979479E+02  0.51100000000E-03 0. -1.
        -11    1    3    3    0    0 -0.13965487668E+02 -0.52600132221E+01  0.42996753939E+01  0.15530286335E+02  0.51100000000E-03 0.  1.
         12    1    3    3    0    0 -0.20782040680E+02 -0.67273580629E+01 -0.10202130500E+01  0.21867587796E+02  0.00000000000E+00 0. -1.
</event>
<event>
 7    1  0.9868142E-013  0.5052886E+02  0.7816164E-02  0.1300439E+00
        -11   -1    0    0    0    0  0.00000000000E+00  0.00000000000E+00  0.45593999997E+02  0.45594000000E+02  0.51100000000E-03 0.  1.
         11   -1    0    0    0    0 -0.00000000000E+00 -0.00000000000E+00 -0.45593999997E+02  0.45594000000E+02  0.51100000000E-03 0. -1.
    9900012    2    1    2    0    0  0.20706591443E+01  0.39556777561E+02  0.91727373645E+01  0.50528863376E+02  0.30000010717E+02 0.  0.
        -12    1    1    2    0    0 -0.20706591443E+01 -0.39556777561E+02 -0.91727373645E+01  0.40659136624E+02  0.00000000000E+00 0.  1.
         11    1    3    3    0    0  0.36754056864E+01  0.22667582860E+02 -0.31845376542E+01  0.23183381980E+02  0.51100000000E-03 0. -1.
        -11    1    3    3    0    0 -0.60215549137E+01 -0.32904593038E+00  0.58904379097E+01  0.84299853992E+01  0.51100000000E-03 0.  1.
         12    1    3    3    0    0  0.44168083715E+01  0.17218240631E+02  0.64668371091E+01  0.18915495997E+02  0.00000000000E+00 0. -1.
</event>
<event>
 7    1  0.9868142E-013  0.5052887E+02  0.7816164E-02  0.1300439E+00
        -11   -1    0    0    0    0  0.00000000000E+00  0.00000000000E+00  0.45593999997E+02  0.45594000000E+02  0.51100000000E-03 0.  1.
         11   -1    0    0    0    0 -0.00000000000E+00 -0.00000000000E+00 -0.45593999997E+02  0.45594000000E+02  0.51100000000E-03 0. -1.
    9900012    2    1    2    0    0  0.40176744653E+02 -0.62285566109E+01 -0.44607933351E+00  0.50528871687E+02  0.30000035981E+02 0.  0.
        -12    1    1    2    0    0 -0.40176744653E+02  0.62285566109E+01  0.44607933351E+00  0.40659128313E+02  0.00000000000E+00 0.  1.
         11    1    3    3    0    0  0.14070532791E+02 -0.78690714063E+01 -0.32924509969E+01  0.16454252085E+02  0.51100000000E-03 0. -1.
        -11    1    3    3    0    0 -0.12242355527E+01 -0.56519947514E+00  0.62963520782E+01  0.64391189529E+01  0.51100000000E-03 0.  1.
        -12    1    3    3    0    0  0.27330447414E+02  0.22057142705E+01 -0.34499804148E+01  0.27635500650E+02  0.00000000000E+00 0.  1.
</event>
<event>
 7    1  0.9868142E-013  0.5052885E+02  0.7816164E-02  0.1300439E+00
        -11   -1    0    0    0    0  0.00000000000E+00  0.00000000000E+00  0.45593999997E+02  0.45594000000E+02  0.51100000000E-03 0.  1.
         11   -1    0    0    0    0 -0.00000000000E+00 -0.00000000000E+00 -0.45593999997E+02  0.45594000000E+02  0.51100000000E-03 0. -1.
    9900012    2    1    2    0    0 -0.39415474601E+02  0.15133356954E+01 -0.98639021903E+01  0.50528851099E+02  0.29999973401E+02 0.  0.
        -12    1    1    2    0    0  0.39415474601E+02 -0.15133356954E+01  0.98639021903E+01  0.40659148901E+02  0.00000000000E+00 0.  1.
         11    1    3    3    0    0 -0.84557872952E+01 -0.30247533979E+01 -0.12364202838E+02  0.15281458830E+02  0.51100000000E-03 0. -1.
        -11    1    3    3    0    0 -0.31377700435E+02  0.30382141891E+01  0.53737695485E+01  0.31979184315E+02  0.51100000000E-03 0.  1.
        -12    1    3    3    0    0  0.41801312947E+00  0.14998749042E+01 -0.28734689005E+01  0.32682079534E+01  0.00000000000E+00 0.  1.
</event>
<event>
 7    1  0.9868142E-013  0.5052887E+02  0.7816164E-02  0.1300439E+00
        -11   -1    0    0    0    0  0.00000000000E+00  0.00000000000E+00  0.45593999997E+02  0.45594000000E+02  0.51100000000E-03 0.  1.
         11   -1    0    0    0    0 -0.00000000000E+00 -0.00000000000E+00 -0.45593999997E+02  0.45594000000E+02  0.51100000000E-03 0. -1.
    9900012    2    1    2    0    0 -0.21453475952E+02  0.31764514686E+02 -0.13562042567E+02  0.50528867911E+02  0.30000024502E+02 0.  0.
        -12    1    1    2    0    0  0.21453475952E+02 -0.31764514686E+02  0.13562042567E+02  0.40659132089E+02  0.00000000000E+00 0.  1.
         11    1    3    3    0    0 -0.17265317839E+02  0.17237267982E+02 -0.42528927878E+01  0.24764928930E+02  0.51100000000E-03 0. -1.
        -11    1    3    3    0    0 -0.20305048985E+00  0.86519503397E+01 -0.14557198245E+02  0.16935450841E+02  0.51100000000E-03 0.  1.
         12    1    3    3    0    0 -0.39851076235E+01  0.58752963644E+01  0.52480484661E+01  0.88284881403E+01  0.00000000000E+00 0. -1.
</event>
<event>
 7    1  0.9868142E-013  0.5052886E+02  0.7816164E-02  0.1300439E+00
        -11   -1    0    0    0    0  0.00000000000E+00  0.00000000000E+00  0.45593999997E+02  0.45594000000E+02  0.51100000000E-03 0. -1.
         11   -1    0    0    0    0 -0.00000000000E+00 -0.00000000000E+00 -0.45593999997E+02  0.45594000000E+02  0.51100000000E-03 0.  1.
    9900012    2    1    2    0    0 -0.38747294992E+01 -0.21120690744E+02  0.34526346954E+02  0.50528859082E+02  0.29999997665E+02 0.  0.
        -12    1    1    2    0    0  0.38747294992E+01  0.21120690744E+02 -0.34526346954E+02  0.40659140918E+02  0.00000000000E+00 0.  1.
         11    1    3    3    0    0  0.12065662332E+02 -0.92005008273E+01  0.13140410337E+02  0.20072364262E+02  0.51100000000E-03 0. -1.
        -11    1    3    3    0    0 -0.63453319057E+01 -0.80394675090E+01  0.58686823229E+01  0.11804139413E+02  0.51100000000E-03 0.  1.
         12    1    3    3    0    0 -0.95950599255E+01 -0.38807224080E+01  0.15517254294E+02  0.18652355407E+02  0.00000000000E+00 0. -1.
</event>
<event>
 7    1  0.9868142E-013  0.5052886E+02  0.7816164E-02  0.1300439E+00
        -11   -1    0    0    0    0  0.00000000000E+00  0.00000000000E+00  0.45593999997E+02  0.45594000000E+02  0.51100000000E-03 0.  1.
         11   -1    0    0    0    0 -0.00000000000E+00 -0.00000000000E+00 -0.45593999997E+02  0.45594000000E+02  0.51100000000E-03 0. -1.
    9900012    2    1    2    0    0  0.25505363279E+02 -0.12339884471E+02 -0.29161090288E+02  0.50528862140E+02  0.30000006961E+02 0.  0.
        -12    1    1    2    0    0 -0.25505363279E+02  0.12339884471E+02  0.29161090288E+02  0.40659137860E+02  0.00000000000E+00 0.  1.
         11    1    3    3    0    0  0.12796582245E+02  0.92968591593E+00 -0.29461669857E+02  0.32134200225E+02  0.51100000000E-03 0. -1.
        -11    1    3    3    0    0  0.75482699558E+01 -0.73029548976E+01  0.25022470491E+00  0.10505814686E+02  0.51100000000E-03 0.  1.
         12    1    3    3    0    0  0.51605110787E+01 -0.59666154889E+01  0.50354864644E-01  0.78888472287E+01  0.00000000000E+00 0. -1.
</event>
<event>
 7    1  0.9868142E-013  0.5052882E+02  0.7816164E-02  0.1300439E+00
        -11   -1    0    0    0    0  0.00000000000E+00  0.00000000000E+00  0.45593999997E+02  0.45594000000E+02  0.51100000000E-03 0.  1.
         11   -1    0    0    0    0 -0.00000000000E+00 -0.00000000000E+00 -0.45593999997E+02  0.45594000000E+02  0.51100000000E-03 0. -1.
    9900012    2    1    2    0    0  0.30838804464E+02  0.22832631938E+02 -0.13446497580E+02  0.50528816054E+02  0.29999866878E+02 0.  0.
        -12    1    1    2    0    0 -0.30838804464E+02 -0.22832631938E+02  0.13446497580E+02  0.40659183946E+02  0.00000000000E+00 0.  1.
         11    1    3    3    0    0  0.99566125017E+01  0.11037487631E+02 -0.61359203546E+01  0.16081348966E+02  0.51100000000E-03 0. -1.
        -11    1    3    3    0    0  0.57684398574E+01 -0.56741779292E+01  0.36531012275E+01  0.88778568585E+01  0.51100000000E-03 0.  1.
        -12    1    3    3    0    0  0.15113752105E+02  0.17469322236E+02 -0.10963678453E+02  0.25569610230E+02  0.00000000000E+00 0.  1.
</event>
<event>
 7    1  0.9868142E-013  0.5052886E+02  0.7816164E-02  0.1300439E+00
        -11   -1    0    0    0    0  0.00000000000E+00  0.00000000000E+00  0.45593999997E+02  0.45594000000E+02  0.51100000000E-03 0. -1.
         11   -1    0    0    0    0 -0.00000000000E+00 -0.00000000000E+00 -0.45593999997E+02  0.45594000000E+02  0.51100000000E-03 0.  1.
    9900012    2    1    2    0    0 -0.24863734991E+02 -0.18776575694E+02  0.26122794503E+02  0.50528861972E+02  0.30000006451E+02 0.  0.
        -12    1    1    2    0    0  0.24863734991E+02  0.18776575694E+02 -0.26122794503E+02  0.40659138028E+02  0.00000000000E+00 0.  1.
         11    1    3    3    0    0  0.15289067656E+00 -0.38670325598E+01  0.18047808685E+02  0.18458079937E+02  0.51100000000E-03 0. -1.
        -11    1    3    3    0    0 -0.60195926534E+01  0.20540908840E+00 -0.10917690077E+01  0.61212456603E+01  0.51100000000E-03 0.  1.
         12    1    3    3    0    0 -0.18997033014E+02 -0.15114952222E+02  0.91667548261E+01  0.25949536375E+02  0.00000000000E+00 0. -1.
</event>
<event>
 7    1  0.9868142E-013  0.5052885E+02  0.7816164E-02  0.1300439E+00
        -11   -1    0    0    0    0  0.00000000000E+00  0.00000000000E+00  0.45593999997E+02  0.45594000000E+02  0.51100000000E-03 0. -1.
         11   -1    0    0    0    0 -0.00000000000E+00 -0.00000000000E+00 -0.45593999997E+02  0.45594000000E+02  0.51100000000E-03 0.  1.
    9900012    2    1    2    0    0  0.35243060298E+02 -0.43957393722E+01  0.19793199898E+02  0.50528848681E+02  0.29999966050E+02 0.  0.
        -12    1    1    2    0    0 -0.35243060298E+02  0.43957393722E+01 -0.19793199898E+02  0.40659151319E+02  0.00000000000E+00 0.  1.
         11    1    3    3    0    0  0.99263714958E+01 -0.13172825647E+02  0.53072720707E+01  0.17326953676E+02  0.51100000000E-03 0. -1.
        -11    1    3    3    0    0  0.23270098414E+02  0.86437822812E+01  0.16902927969E+02  0.30032006702E+02  0.51100000000E-03 0.  1.
        -12    1    3    3    0    0  0.20465903875E+01  0.13330399372E+00 -0.24170001416E+01  0.31698883030E+01  0.00000000000E+00 0.  1.
</event>
<event>
 7    1  0.9868142E-013  0.5052898E+02  0.7816164E-02  0.1300438E+00
        -11   -1    0    0    0    0  0.00000000000E+00  0.00000000000E+00  0.45593999997E+02  0.45594000000E+02  0.51100000000E-03 0. -1.
         11   -1    0    0    0    0 -0.00000000000E+00 -0.00000000000E+00 -0.45593999997E+02  0.45594000000E+02  0.51100000000E-03 0.  1.
    9900012    2    1    2    0    0 -0.20405914537E+02 -0.18699216777E+02  0.29784126494E+02  0.50528975821E+02  0.30000352503E+02 0.  0.
        -12    1    1    2    0    0  0.20405914537E+02  0.18699216777E+02 -0.29784126494E+02  0.40659024179E+02  0.00000000000E+00 0.  1.
         11    1    3    3    0    0 -0.64694708451E+01  0.52284081842E+00  0.10357145653E+02  0.12222842626E+02  0.51100000000E-03 0. -1.
        -11    1    3    3    0    0 -0.15095087691E+02 -0.23826917449E+02  0.15790882581E+02  0.32325464273E+02  0.51100000000E-03 0.  1.
        -12    1    3    3    0    0  0.11586439995E+01  0.46048598534E+01  0.36360982605E+01  0.59806689214E+01  0.00000000000E+00 0.  1.
</event>
<event>
 7    1  0.9868142E-013  0.5052886E+02  0.7816164E-02  0.1300439E+00
        -11   -1    0    0    0    0  0.00000000000E+00  0.00000000000E+00  0.45593999997E+02  0.45594000000E+02  0.51100000000E-03 0.  1.
         11   -1    0    0    0    0 -0.00000000000E+00 -0.00000000000E+00 -0.45593999997E+02  0.45594000000E+02  0.51100000000E-03 0. -1.
    9900012    2    1    2    0    0 -0.16646021852E+02 -0.35259234320E+02 -0.11526593390E+02  0.50528855843E+02  0.29999987822E+02 0.  0.
        -12    1    1    2    0    0  0.16646021852E+02  0.35259234320E+02  0.11526593390E+02  0.40659144157E+02  0.00000000000E+00 0.  1.
         11    1    3    3    0    0 -0.32786048512E+01 -0.17829548912E+02  0.70680522583E+01  0.19457631592E+02  0.51100000000E-03 0. -1.
        -11    1    3    3    0    0 -0.77239497918E+01 -0.16462551670E+02 -0.17508718468E+02  0.25243419549E+02  0.51100000000E-03 0.  1.
        -12    1    3    3    0    0 -0.56434672091E+01 -0.96713373834E+00 -0.10859271802E+01  0.58278047024E+01  0.00000000000E+00 0.  1.
</event>
<event>
 7    1  0.9868142E-013  0.5052886E+02  0.7816164E-02  0.1300439E+00
        -11   -1    0    0    0    0  0.00000000000E+00  0.00000000000E+00  0.45593999997E+02  0.45594000000E+02  0.51100000000E-03 0. -1.
         11   -1    0    0    0    0 -0.00000000000E+00 -0.00000000000E+00 -0.45593999997E+02  0.45594000000E+02  0.51100000000E-03 0.  1.
    9900012    2    1    2    0    0 -0.22704821334E+02 -0.32647922824E+02  0.84717003829E+01  0.50528862233E+02  0.30000007244E+02 0.  0.
        -12    1    1    2    0    0  0.22704821334E+02  0.32647922824E+02 -0.84717003829E+01  0.40659137767E+02  0.00000000000E+00 0.  1.
         11    1    3    3    0    0 -0.15448023248E+02 -0.13660978927E+02  0.12274671912E+02  0.23998569506E+02  0.51100000000E-03 0. -1.
        -11    1    3    3    0    0  0.31497067767E+01 -0.28438682027E+01 -0.58366764714E+01  0.72163031828E+01  0.51100000000E-03 0.  1.
        -12    1    3    3    0    0 -0.10406504863E+02 -0.16143075695E+02  0.20337049428E+01  0.19313989545E+02  0.00000000000E+00 0.  1.
</event>
<event>
 7    1  0.9868142E-013  0.5052885E+02  0.7816164E-02  0.1300439E+00
        -11   -1    0    0    0    0  0.00000000000E+00  0.00000000000E+00  0.45593999997E+02  0.45594000000E+02  0.51100000000E-03 0.  1.
         11   -1    0    0    0    0 -0.00000000000E+00 -0.00000000000E+00 -0.45593999997E+02  0.45594000000E+02  0.51100000000E-03 0. -1.
    9900012    2    1    2    0    0  0.37950163286E+02  0.18266550636E+01 -0.14478078729E+02  0.50528851880E+02  0.29999975776E+02 0.  0.
        -12    1    1    2    0    0 -0.37950163286E+02 -0.18266550636E+01  0.14478078729E+02  0.40659148120E+02  0.00000000000E+00 0.  1.
         11    1    3    3    0    0  0.19457223122E+02 -0.94200421913E+01  0.39819097494E+01  0.21981272302E+02  0.51100000000E-03 0. -1.
        -11    1    3    3    0    0  0.76049049715E+01  0.51212219028E+01 -0.92739485662E+01  0.13040997495E+02  0.51100000000E-03 0.  1.
         12    1    3    3    0    0  0.10888035192E+02  0.61254753521E+01 -0.91860399119E+01  0.15506582083E+02  0.00000000000E+00 0. -1.
</event>
<event>
 7    1  0.9868142E-013  0.5052885E+02  0.7816164E-02  0.1300439E+00
        -11   -1    0    0    0    0  0.00000000000E+00  0.00000000000E+00  0.45593999997E+02  0.45594000000E+02  0.51100000000E-03 0.  1.
         11   -1    0    0    0    0 -0.00000000000E+00 -0.00000000000E+00 -0.45593999997E+02  0.45594000000E+02  0.51100000000E-03 0. -1.
    9900012    2    1    2    0    0  0.14440527231E+02 -0.37614861625E+02  0.54552724858E+01  0.50528848021E+02  0.29999964044E+02 0.  0.
        -12    1    1    2    0    0 -0.14440527231E+02  0.37614861625E+02 -0.54552724858E+01  0.40659151979E+02  0.00000000000E+00 0.  1.
         11    1    3    3    0    0 -0.24643056194E+01 -0.25332696789E+02 -0.46148638649E+01  0.25867263047E+02  0.51100000000E-03 0. -1.
        -11    1    3    3    0    0  0.11894640863E+02 -0.90796964596E+01  0.11093862371E+02  0.18627859555E+02  0.51100000000E-03 0.  1.
         12    1    3    3    0    0  0.50101919882E+01 -0.32024683765E+01 -0.10237260201E+01  0.60337254184E+01  0.00000000000E+00 0. -1.
</event>
<event>
 7    1  0.9868142E-013  0.5052886E+02  0.7816164E-02  0.1300439E+00
        -11   -1    0    0    0    0  0.00000000000E+00  0.00000000000E+00  0.45593999997E+02  0.45594000000E+02  0.51100000000E-03 0.  1.
         11   -1    0    0    0    0 -0.00000000000E+00 -0.00000000000E+00 -0.45593999997E+02  0.45594000000E+02  0.51100000000E-03 0. -1.
    9900012    2    1    2    0    0 -0.13214559317E+02 -0.15000610293E+02 -0.35405128742E+02  0.50528855538E+02  0.29999986894E+02 0.  0.
        -12    1    1    2    0    0  0.13214559317E+02  0.15000610293E+02  0.35405128742E+02  0.40659144462E+02  0.00000000000E+00 0.  1.
         11    1    3    3    0    0 -0.34352956612E+01 -0.13894578157E+02 -0.31231469567E+02  0.34354988721E+02  0.51100000000E-03 0. -1.
        -11    1    3    3    0    0 -0.12264851070E+02 -0.24099666548E+01 -0.46316167099E+01  0.13329905650E+02  0.51100000000E-03 0.  1.
        -12    1    3    3    0    0  0.24855874133E+01  0.13039345182E+01  0.45795753508E+00  0.28439611673E+01  0.00000000000E+00 0.  1.
</event>
<event>
 7    1  0.9868142E-013  0.5052886E+02  0.7816164E-02  0.1300439E+00
        -11   -1    0    0    0    0  0.00000000000E+00  0.00000000000E+00  0.45593999997E+02  0.45594000000E+02  0.51100000000E-03 0.  1.
         11   -1    0    0    0    0 -0.00000000000E+00 -0.00000000000E+00 -0.45593999997E+02  0.45594000000E+02  0.51100000000E-03 0. -1.
    9900012    2    1    2    0    0  0.33507024415E+01 -0.44689984094E+00 -0.40518373798E+02  0.50528861524E+02  0.30000005089E+02 0.  0.
        -12    1    1    2    0    0 -0.33507024415E+01  0.44689984094E+00  0.40518373798E+02  0.40659138476E+02  0.00000000000E+00 0.  1.
         11    1    3    3    0    0  0.52965864214E-01  0.10529157463E+01 -0.76031833671E+01  0.76759256463E+01  0.51100000000E-03 0. -1.
        -11    1    3    3    0    0  0.20951318113E+00 -0.12956854486E+02 -0.79278718374E+01  0.15191284543E+02  0.51100000000E-03 0.  1.
        -12    1    3    3    0    0  0.30882233962E+01  0.11457038899E+02 -0.24987318594E+02  0.27661651335E+02  0.00000000000E+00 0.  1.
</event>
<event>
 7    1  0.9868142E-013  0.5052885E+02  0.7816164E-02  0.1300439E+00
        -11   -1    0    0    0    0  0.00000000000E+00  0.00000000000E+00  0.45593999997E+02  0.45594000000E+02  0.51100000000E-03 0. -1.
         11   -1    0    0    0    0 -0.00000000000E+00 -0.00000000000E+00 -0.45593999997E+02  0.45594000000E+02  0.51100000000E-03 0.  1.
    9900012    2    1    2    0    0  0.23278860380E+01 -0.98098423866E+01  0.39389262976E+02  0.50528854671E+02  0.29999984259E+02 0.  0.
        -12    1    1    2    0    0 -0.23278860380E+01  0.98098423866E+01 -0.39389262976E+02  0.40659145329E+02  0.00000000000E+00 0.  1.
         11    1    3    3    0    0  0.10539531560E+02 -0.33909271690E+01  0.21333257378E+02  0.24035140590E+02  0.51100000000E-03 0. -1.
        -11    1    3    3    0    0 -0.65022354303E+01  0.35958848954E+00 -0.63026700290E+00  0.65425993481E+01  0.51100000000E-03 0.  1.
        -12    1    3    3    0    0 -0.17094100914E+01 -0.67785037071E+01  0.18686272601E+02  0.19951114733E+02  0.00000000000E+00 0.  1.
</event>
<event>
 7    1  0.9868142E-013  0.5052886E+02  0.7816164E-02  0.1300439E+00
        -11   -1    0    0    0    0  0.00000000000E+00  0.00000000000E+00  0.45593999997E+02  0.45594000000E+02  0.51100000000E-03 0.  1.
         11   -1    0    0    0    0 -0.00000000000E+00 -0.00000000000E+00 -0.45593999997E+02  0.45594000000E+02  0.51100000000E-03 0. -1.
    9900012    2    1    2    0    0  0.16780148969E+02  0.28469755570E+02 -0.23686812434E+02  0.50528862467E+02  0.30000007955E+02 0.  0.
        -12    1    1    2    0    0 -0.16780148969E+02 -0.28469755570E+02  0.23686812434E+02  0.40659137533E+02  0.00000000000E+00 0.  1.
         11    1    3    3    0    0 -0.22988338070E+01  0.21394890346E+02 -0.17414862177E+02  0.27682185512E+02  0.51100000000E-03 0. -1.
        -11    1    3    3    0    0  0.30759932950E+01 -0.17457326917E+01 -0.20657289912E+01  0.40959191774E+01  0.51100000000E-03 0.  1.
         12    1    3    3    0    0  0.16002989481E+02  0.88205979154E+01 -0.42062212656E+01  0.18750757778E+02  0.00000000000E+00 0. -1.
</event>
<event>
 7    1  0.9868142E-013  0.5052886E+02  0.7816164E-02  0.1300439E+00
        -11   -1    0    0    0    0  0.00000000000E+00  0.00000000000E+00  0.45593999997E+02  0.45594000000E+02  0.51100000000E-03 0. -1.
         11   -1    0    0    0    0 -0.00000000000E+00 -0.00000000000E+00 -0.45593999997E+02  0.45594000000E+02  0.51100000000E-03 0.  1.
    9900012    2    1    2    0    0 -0.32739199847E+02 -0.24059979912E+02 -0.15582441351E+01  0.50528856320E+02  0.29999989270E+02 0.  0.
        -12    1    1    2    0    0  0.32739199847E+02  0.24059979912E+02  0.15582441351E+01  0.40659143680E+02  0.00000000000E+00 0.  1.
         11    1    3    3    0    0 -0.91864492358E+01  0.23699587477E+01  0.94372636907E+01  0.13381685255E+02  0.51100000000E-03 0. -1.
        -11    1    3    3    0    0 -0.38547235146E+01 -0.55232333951E+01 -0.26129633316E+01  0.72244431027E+01  0.51100000000E-03 0.  1.
         12    1    3    3    0    0 -0.19698027097E+02 -0.20906705264E+02 -0.83825444942E+01  0.29922727963E+02  0.00000000000E+00 0. -1.
</event>
<event>
 7    1  0.9868142E-013  0.5052884E+02  0.7816164E-02  0.1300439E+00
        -11   -1    0    0    0    0  0.00000000000E+00  0.00000000000E+00  0.45593999997E+02  0.45594000000E+02  0.51100000000E-03 0. -1.
         11   -1    0    0    0    0 -0.00000000000E+00 -0.00000000000E+00 -0.45593999997E+02  0.45594000000E+02  0.51100000000E-03 0.  1.
    9900012    2    1    2    0    0  0.15618059287E+02  0.37240945532E+02 -0.47281400555E+01  0.50528842257E+02  0.29999946524E+02 0.  0.
        -12    1    1    2    0    0 -0.15618059287E+02 -0.37240945532E+02  0.47281400555E+01  0.40659157743E+02  0.00000000000E+00 0.  1.
         11    1    3    3    0    0  0.52484960756E+01  0.27569667723E+02 -0.58155271475E+01  0.28661012642E+02  0.51100000000E-03 0. -1.
        -11    1    3    3    0    0  0.36026144990E+01  0.55524648567E+01  0.86660881965E+01  0.10904576200E+02  0.51100000000E-03 0.  1.
         12    1    3    3    0    0  0.67669487122E+01  0.41188129522E+01 -0.75787011045E+01  0.10963253415E+02  0.00000000000E+00 0. -1.
</event>
<event>
 7    1  0.9868142E-013  0.5052886E+02  0.7816164E-02  0.1300439E+00
        -11   -1    0    0    0    0  0.00000000000E+00  0.00000000000E+00  0.45593999997E+02  0.45594000000E+02  0.51100000000E-03 0.  1.
         11   -1    0    0    0    0 -0.00000000000E+00 -0.00000000000E+00 -0.45593999997E+02  0.45594000000E+02  0.51100000000E-03 0. -1.
    9900012    2    1    2    0    0  0.17218438847E+02  0.26500348518E+02 -0.25581678669E+02  0.50528863371E+02  0.30000010701E+02 0.  0.
        -12    1    1    2    0    0 -0.17218438847E+02 -0.26500348518E+02  0.25581678669E+02  0.40659136629E+02  0.00000000000E+00 0.  1.
         11    1    3    3    0    0  0.34178621918E+01 -0.49766017885E+01 -0.10412322320E+02  0.12035979548E+02  0.51100000000E-03 0.  1.
        -11    1    3    3    0    0  0.13063957322E+02  0.20778222372E+02 -0.91426873833E+01  0.26191415363E+02  0.51100000000E-03 0. -1.
        -12    1    3    3    0    0  0.73661933409E+00  0.10698727934E+02 -0.60266689662E+01  0.12301468460E+02  0.00000000000E+00 0.  1.
</event>
<event>
 7    1  0.9868142E-013  0.5052884E+02  0.7816164E-02  0.1300439E+00
        -11   -1    0    0    0    0  0.00000000000E+00  0.00000000000E+00  0.45593999997E+02  0.45594000000E+02  0.51100000000E-03 0.  1.
         11   -1    0    0    0    0 -0.00000000000E+00 -0.00000000000E+00 -0.45593999997E+02  0.45594000000E+02  0.51100000000E-03 0. -1.
    9900012    2    1    2    0    0 -0.13152663563E+02 -0.25215510569E+02 -0.29057751787E+02  0.50528837798E+02  0.29999932971E+02 0.  0.
        -12    1    1    2    0    0  0.13152663563E+02  0.25215510569E+02  0.29057751787E+02  0.40659162202E+02  0.00000000000E+00 0.  1.
         11    1    3    3    0    0 -0.16582518846E+02 -0.16785927422E+02 -0.17236344620E+02  0.29220521330E+02  0.51100000000E-03 0. -1.
        -11    1    3    3    0    0  0.51327148900E+01 -0.29718362806E+00 -0.11938743596E+02  0.12998718366E+02  0.51100000000E-03 0.  1.
        -12    1    3    3    0    0 -0.17028596073E+01 -0.81323995192E+01  0.11733642897E+00  0.83095981022E+01  0.00000000000E+00 0.  1.
</event>
<event>
 7    1  0.9868142E-013  0.5052884E+02  0.7816164E-02  0.1300439E+00
        -11   -1    0    0    0    0  0.00000000000E+00  0.00000000000E+00  0.45593999997E+02  0.45594000000E+02  0.51100000000E-03 0. -1.
         11   -1    0    0    0    0 -0.00000000000E+00 -0.00000000000E+00 -0.45593999997E+02  0.45594000000E+02  0.51100000000E-03 0.  1.
    9900012    2    1    2    0    0 -0.37179883412E+02  0.16453910815E+02  0.30453145038E+00  0.50528835583E+02  0.29999926239E+02 0.  0.
        -12    1    1    2    0    0  0.37179883412E+02 -0.16453910815E+02 -0.30453145038E+00  0.40659164417E+02  0.00000000000E+00 0.  1.
         11    1    3    3    0    0 -0.18801454076E+02  0.17392660652E+02 -0.97973992311E+01  0.27422406019E+02  0.51100000000E-03 0. -1.
        -11    1    3    3    0    0 -0.87320120822E+01  0.22277180736E+01  0.92560822591E+01  0.12918429543E+02  0.51100000000E-03 0.  1.
         12    1    3    3    0    0 -0.96464172540E+01 -0.31664679110E+01  0.84584842232E+00  0.10188000021E+02  0.00000000000E+00 0. -1.
</event>
<event>
 7    1  0.9868142E-013  0.5052886E+02  0.7816164E-02  0.1300439E+00
        -11   -1    0    0    0    0  0.00000000000E+00  0.00000000000E+00  0.45593999997E+02  0.45594000000E+02  0.51100000000E-03 0.  1.
         11   -1    0    0    0    0 -0.00000000000E+00 -0.00000000000E+00 -0.45593999997E+02  0.45594000000E+02  0.51100000000E-03 0. -1.
    9900012    2    1    2    0    0  0.21444611654E+02 -0.32605238295E+01 -0.34389875770E+02  0.50528856624E+02  0.29999990193E+02 0.  0.
        -12    1    1    2    0    0 -0.21444611654E+02  0.32605238295E+01  0.34389875770E+02  0.40659143376E+02  0.00000000000E+00 0.  1.
         11    1    3    3    0    0  0.56037114835E+01  0.99214089029E+00 -0.23830631883E+02  0.24500713094E+02  0.51100000000E-03 0. -1.
        -11    1    3    3    0    0  0.30738661221E+01 -0.15626401016E+01  0.47777752222E+01  0.58921671191E+01  0.51100000000E-03 0.  1.
        -12    1    3    3    0    0  0.12767034049E+02 -0.26900246181E+01 -0.15337019109E+02  0.20135976410E+02  0.00000000000E+00 0.  1.
</event>
<event>
 7    1  0.9868142E-013  0.5052887E+02  0.7816164E-02  0.1300439E+00
        -11   -1    0    0    0    0  0.00000000000E+00  0.00000000000E+00  0.45593999997E+02  0.45594000000E+02  0.51100000000E-03 0.  1.
         11   -1    0    0    0    0 -0.00000000000E+00 -0.00000000000E+00 -0.45593999997E+02  0.45594000000E+02  0.51100000000E-03 0. -1.
    9900012    2    1    2    0    0 -0.24514743449E+02 -0.24611910689E+02 -0.21129275811E+02  0.50528867073E+02  0.30000021955E+02 0.  0.
        -12    1    1    2    0    0  0.24514743449E+02  0.24611910689E+02  0.21129275811E+02  0.40659132927E+02  0.00000000000E+00 0.  1.
         11    1    3    3    0    0 -0.11433590673E+02 -0.75470668600E+01 -0.13142869626E+02  0.18984736926E+02  0.51100000000E-03 0. -1.
        -11    1    3    3    0    0 -0.87977031660E+01 -0.12515366786E+02  0.58370957834E+01  0.16373932766E+02  0.51100000000E-03 0.  1.
        -12    1    3    3    0    0 -0.42834496096E+01 -0.45494770426E+01 -0.13823501968E+02  0.15170197381E+02  0.00000000000E+00 0.  1.
</event>
<event>
 7    1  0.9868142E-013  0.5052889E+02  0.7816164E-02  0.1300439E+00
        -11   -1    0    0    0    0  0.00000000000E+00  0.00000000000E+00  0.45593999997E+02  0.45594000000E+02  0.51100000000E-03 0.  1.
         11   -1    0    0    0    0 -0.00000000000E+00 -0.00000000000E+00 -0.45593999997E+02  0.45594000000E+02  0.51100000000E-03 0. -1.
    9900012    2    1    2    0    0 -0.18224557992E+02 -0.30412170801E+02 -0.19902982018E+02  0.50528888597E+02  0.30000087381E+02 0.  0.
        -12    1    1    2    0    0  0.18224557992E+02  0.30412170801E+02  0.19902982018E+02  0.40659111403E+02  0.00000000000E+00 0.  1.
         11    1    3    3    0    0  0.55363567687E+01 -0.58107315650E+01 -0.11946060084E+02  0.14391810149E+02  0.51100000000E-03 0. -1.
        -11    1    3    3    0    0 -0.17487179534E+02 -0.22516094379E+02 -0.76544969594E+01  0.29518930843E+02  0.51100000000E-03 0.  1.
        -12    1    3    3    0    0 -0.62737352261E+01 -0.20853448575E+01 -0.30242497510E+00  0.66181476054E+01  0.00000000000E+00 0.  1.
</event>
<event>
 7    1  0.9868142E-013  0.5052886E+02  0.7816164E-02  0.1300439E+00
        -11   -1    0    0    0    0  0.00000000000E+00  0.00000000000E+00  0.45593999997E+02  0.45594000000E+02  0.51100000000E-03 0.  1.
         11   -1    0    0    0    0 -0.00000000000E+00 -0.00000000000E+00 -0.45593999997E+02  0.45594000000E+02  0.51100000000E-03 0. -1.
    9900012    2    1    2    0    0 -0.10736638097E+02  0.13641366749E+02 -0.36766882156E+02  0.50528857020E+02  0.29999991398E+02 0.  0.
        -12    1    1    2    0    0  0.10736638097E+02 -0.13641366749E+02  0.36766882156E+02  0.40659142980E+02  0.00000000000E+00 0.  1.
         11    1    3    3    0    0 -0.10702249200E+02  0.14519715117E+02 -0.13365498703E+02  0.22449873516E+02  0.51100000000E-03 0. -1.
        -11    1    3    3    0    0  0.27318126939E+01 -0.76005696317E+01 -0.14385439091E+02  0.16497645814E+02  0.51100000000E-03 0.  1.
        -12    1    3    3    0    0 -0.27662015905E+01  0.67222212635E+01 -0.90159443615E+01  0.11581337690E+02  0.00000000000E+00 0.  1.
</event>
<event>
 7    1  0.9868142E-013  0.5052887E+02  0.7816164E-02  0.1300439E+00
        -11   -1    0    0    0    0  0.00000000000E+00  0.00000000000E+00  0.45593999997E+02  0.45594000000E+02  0.51100000000E-03 0.  1.
         11   -1    0    0    0    0 -0.00000000000E+00 -0.00000000000E+00 -0.45593999997E+02  0.45594000000E+02  0.51100000000E-03 0. -1.
    9900012    2    1    2    0    0 -0.20548190982E+02  0.22610979851E+02 -0.26826857472E+02  0.50528870099E+02  0.30000031154E+02 0.  0.
        -12    1    1    2    0    0  0.20548190982E+02 -0.22610979851E+02  0.26826857472E+02  0.40659129901E+02  0.00000000000E+00 0.  1.
         11    1    3    3    0    0 -0.11475000452E+02 -0.38535737399E+01 -0.11263992583E+02  0.16534908379E+02  0.51100000000E-03 0. -1.
        -11    1    3    3    0    0 -0.10130029480E+02  0.20341765483E+02 -0.77458125753E+01  0.24008384639E+02  0.51100000000E-03 0.  1.
         12    1    3    3    0    0  0.10568389498E+01  0.61227881076E+01 -0.78170523141E+01  0.99855770819E+01  0.00000000000E+00 0. -1.
</event>
<event>
 7    1  0.9868142E-013  0.5052885E+02  0.7816164E-02  0.1300439E+00
        -11   -1    0    0    0    0  0.00000000000E+00  0.00000000000E+00  0.45593999997E+02  0.45594000000E+02  0.51100000000E-03 0.  1.
         11   -1    0    0    0    0 -0.00000000000E+00 -0.00000000000E+00 -0.45593999997E+02  0.45594000000E+02  0.51100000000E-03 0. -1.
    9900012    2    1    2    0    0 -0.14443536829E+02  0.11549597376E+02 -0.36209910252E+02  0.50528849048E+02  0.29999967167E+02 0.  0.
        -12    1    1    2    0    0  0.14443536829E+02 -0.11549597376E+02  0.36209910252E+02  0.40659150952E+02  0.00000000000E+00 0.  1.
         11    1    3    3    0    0  0.22480922754E+01  0.11056234876E+02 -0.27555551935E+02  0.29775874315E+02  0.51100000000E-03 0. -1.
        -11    1    3    3    0    0 -0.74147119784E+01 -0.23252662687E+01 -0.21218083281E-01  0.77707958030E+01  0.51100000000E-03 0.  1.
        -12    1    3    3    0    0 -0.92769171255E+01  0.28186287689E+01 -0.86331402337E+01  0.12982178931E+02  0.00000000000E+00 0.  1.
</event>
<event>
 7    1  0.9868142E-013  0.5052888E+02  0.7816164E-02  0.1300439E+00
        -11   -1    0    0    0    0  0.00000000000E+00  0.00000000000E+00  0.45593999997E+02  0.45594000000E+02  0.51100000000E-03 0.  1.
         11   -1    0    0    0    0 -0.00000000000E+00 -0.00000000000E+00 -0.45593999997E+02  0.45594000000E+02  0.51100000000E-03 0. -1.
    9900012    2    1    2    0    0  0.22467121290E+02 -0.21943388199E+02 -0.25824030491E+02  0.50528875864E+02  0.30000048676E+02 0.  0.
        -12    1    1    2    0    0 -0.22467121290E+02  0.21943388199E+02  0.25824030491E+02  0.40659124136E+02  0.00000000000E+00 0.  1.
         11    1    3    3    0    0  0.23075834307E+02 -0.90236030170E+01 -0.10789994803E+02  0.27024868704E+02  0.51100000000E-03 0. -1.
        -11    1    3    3    0    0 -0.39565875678E+01 -0.34703328054E+01  0.20076186030E+00  0.52666973093E+01  0.51100000000E-03 0.  1.
        -12    1    3    3    0    0  0.33478745504E+01 -0.94494523766E+01 -0.15234797549E+02  0.18237309850E+02  0.00000000000E+00 0.  1.
</event>
<event>
 7    1  0.9868142E-013  0.5052885E+02  0.7816164E-02  0.1300439E+00
        -11   -1    0    0    0    0  0.00000000000E+00  0.00000000000E+00  0.45593999997E+02  0.45594000000E+02  0.51100000000E-03 0.  1.
         11   -1    0    0    0    0 -0.00000000000E+00 -0.00000000000E+00 -0.45593999997E+02  0.45594000000E+02  0.51100000000E-03 0. -1.
    9900012    2    1    2    0    0  0.21521009697E+02  0.23219911071E+02  0.25511733585E+02  0.50528847537E+02  0.29999962573E+02 0.  0.
        -12    1    1    2    0    0 -0.21521009697E+02 -0.23219911071E+02 -0.25511733585E+02  0.40659152463E+02  0.00000000000E+00 0.  1.
         11    1    3    3    0    0  0.38439660698E+01 -0.14001505791E+01  0.11803914979E+02  0.12492754135E+02  0.51100000000E-03 0. -1.
        -11    1    3    3    0    0  0.20390536941E+01  0.18231511755E+02  0.49154406624E+01  0.18992296280E+02  0.51100000000E-03 0.  1.
         12    1    3    3    0    0  0.15637989933E+02  0.63885498953E+01  0.87923779442E+01  0.19043797122E+02  0.00000000000E+00 0. -1.
</event>
<event>
 7    1  0.9868142E-013  0.5052889E+02  0.7816164E-02  0.1300439E+00
        -11   -1    0    0    0    0  0.00000000000E+00  0.00000000000E+00  0.45593999997E+02  0.45594000000E+02  0.51100000000E-03 0.  1.
         11   -1    0    0    0    0 -0.00000000000E+00 -0.00000000000E+00 -0.45593999997E+02  0.45594000000E+02  0.51100000000E-03 0. -1.
    9900012    2    1    2    0    0  0.35142957333E+02  0.55748837184E+01 -0.19673744376E+02  0.50528892824E+02  0.30000100228E+02 0.  0.
        -12    1    1    2    0    0 -0.35142957333E+02 -0.55748837184E+01  0.19673744376E+02  0.40659107176E+02  0.00000000000E+00 0.  1.
         11    1    3    3    0    0  0.67101188686E+01  0.13816079493E+02 -0.54847356247E+01  0.16309263408E+02  0.51100000000E-03 0.  1.
        -11    1    3    3    0    0  0.66004868037E+01 -0.40972196782E+01  0.15473061569E+00  0.77703009570E+01  0.51100000000E-03 0. -1.
         12    1    3    3    0    0  0.21832351661E+02 -0.41439760963E+01 -0.14343739367E+02  0.26449328459E+02  0.00000000000E+00 0. -1.
</event>
<event>
 7    1  0.9868142E-013  0.5052886E+02  0.7816164E-02  0.1300439E+00
        -11   -1    0    0    0    0  0.00000000000E+00  0.00000000000E+00  0.45593999997E+02  0.45594000000E+02  0.51100000000E-03 0.  1.
         11   -1    0    0    0    0 -0.00000000000E+00 -0.00000000000E+00 -0.45593999997E+02  0.45594000000E+02  0.51100000000E-03 0. -1.
    9900012    2    1    2    0    0  0.31178986955E+02  0.71799003425E+01 -0.25089555080E+02  0.50528856248E+02  0.29999989053E+02 0.  0.
        -12    1    1    2    0    0 -0.31178986955E+02 -0.71799003425E+01  0.25089555080E+02  0.40659143752E+02  0.00000000000E+00 0.  1.
         11    1    3    3    0    0  0.28823855232E+02  0.99184335391E+01 -0.26999514497E+02  0.40720556696E+02  0.51100000000E-03 0. -1.
        -11    1    3    3    0    0  0.53432376270E+01 -0.34287497986E+01  0.22204432275E+01  0.67258368928E+01  0.51100000000E-03 0.  1.
         12    1    3    3    0    0 -0.29881059040E+01  0.69021660197E+00 -0.31048381120E+00  0.30824626597E+01  0.00000000000E+00 0. -1.
</event>
<event>
 7    1  0.9868142E-013  0.5052887E+02  0.7816164E-02  0.1300439E+00
        -11   -1    0    0    0    0  0.00000000000E+00  0.00000000000E+00  0.45593999997E+02  0.45594000000E+02  0.51100000000E-03 0.  1.
         11   -1    0    0    0    0 -0.00000000000E+00 -0.00000000000E+00 -0.45593999997E+02  0.45594000000E+02  0.51100000000E-03 0. -1.
    9900012    2    1    2    0    0 -0.37559039355E+01 -0.29737220599E+02 -0.27472825233E+02  0.50528865361E+02  0.30000016750E+02 0.  0.
        -12    1    1    2    0    0  0.37559039355E+01  0.29737220599E+02  0.27472825233E+02  0.40659134639E+02  0.00000000000E+00 0.  1.
         11    1    3    3    0    0 -0.66668586797E+00 -0.16309450726E+01 -0.23137651515E+00  0.17770726573E+01  0.51100000000E-03 0.  1.
        -11    1    3    3    0    0 -0.69124774771E+01 -0.24340330040E+02 -0.32533511784E+02  0.41214844420E+02  0.51100000000E-03 0. -1.
        -12    1    3    3    0    0  0.38232594096E+01 -0.37659454870E+01  0.52920630665E+01  0.75369482832E+01  0.00000000000E+00 0.  1.
</event>
<event>
 7    1  0.9868142E-013  0.5052886E+02  0.7816164E-02  0.1300439E+00
        -11   -1    0    0    0    0  0.00000000000E+00  0.00000000000E+00  0.45593999997E+02  0.45594000000E+02  0.51100000000E-03 0.  1.
         11   -1    0    0    0    0 -0.00000000000E+00 -0.00000000000E+00 -0.45593999997E+02  0.45594000000E+02  0.51100000000E-03 0. -1.
    9900012    2    1    2    0    0 -0.37373693506E+02  0.11123902561E+02 -0.11516572978E+02  0.50528860466E+02  0.30000001872E+02 0.  0.
        -12    1    1    2    0    0  0.37373693506E+02 -0.11123902561E+02  0.11516572978E+02  0.40659139534E+02  0.00000000000E+00 0.  1.
         11    1    3    3    0    0 -0.66874155925E+01  0.13191591519E+02 -0.10758506262E+02  0.18288933030E+02  0.51100000000E-03 0. -1.
        -11    1    3    3    0    0 -0.12199681699E+02  0.38144096591E+00  0.42612650860E+01  0.12928113210E+02  0.51100000000E-03 0.  1.
         12    1    3    3    0    0 -0.18486596215E+02 -0.24491299238E+01 -0.50193318019E+01  0.19311814227E+02  0.00000000000E+00 0. -1.
</event>
<event>
 7    1  0.9868142E-013  0.5052885E+02  0.7816164E-02  0.1300439E+00
        -11   -1    0    0    0    0  0.00000000000E+00  0.00000000000E+00  0.45593999997E+02  0.45594000000E+02  0.51100000000E-03 0. -1.
         11   -1    0    0    0    0 -0.00000000000E+00 -0.00000000000E+00 -0.45593999997E+02  0.45594000000E+02  0.51100000000E-03 0.  1.
    9900012    2    1    2    0    0 -0.26425005711E+02  0.15094523540E+02  0.26963694333E+02  0.50528851217E+02  0.29999973758E+02 0.  0.
        -12    1    1    2    0    0  0.26425005711E+02 -0.15094523540E+02 -0.26963694333E+02  0.40659148783E+02  0.00000000000E+00 0.  1.
         11    1    3    3    0    0  0.81584255158E+00 -0.12427306238E+01  0.13051408697E+02  0.13135800231E+02  0.51100000000E-03 0.  1.
        -11    1    3    3    0    0 -0.24356321395E+02  0.16510511965E+02  0.16305754735E+02  0.33640823934E+02  0.51100000000E-03 0. -1.
        -12    1    3    3    0    0 -0.28845268678E+01 -0.17325780093E+00 -0.23934690993E+01  0.37522270515E+01  0.00000000000E+00 0.  1.
</event>
<event>
 7    1  0.9868142E-013  0.5052892E+02  0.7816164E-02  0.1300439E+00
        -11   -1    0    0    0    0  0.00000000000E+00  0.00000000000E+00  0.45593999997E+02  0.45594000000E+02  0.51100000000E-03 0. -1.
         11   -1    0    0    0    0 -0.00000000000E+00 -0.00000000000E+00 -0.45593999997E+02  0.45594000000E+02  0.51100000000E-03 0.  1.
    9900012    2    1    2    0    0  0.19343278790E+02 -0.35662184042E+02  0.26846522985E+01  0.50528915370E+02  0.30000168758E+02 0.  0.
        -12    1    1    2    0    0 -0.19343278790E+02  0.35662184042E+02 -0.26846522985E+01  0.40659084630E+02  0.00000000000E+00 0.  1.
         11    1    3    3    0    0 -0.60983027112E+01 -0.22877825844E+01  0.27964091278E+01  0.70882402176E+01  0.51100000000E-03 0.  1.
        -11    1    3    3    0    0  0.12501723164E+02 -0.11951572078E+02 -0.48630191417E+01  0.17966137944E+02  0.51100000000E-03 0. -1.
         12    1    3    3    0    0  0.12939858337E+02 -0.21422829380E+02  0.47512623125E+01  0.25474537208E+02  0.00000000000E+00 0. -1.
</event>
<event>
 7    1  0.9868142E-013  0.5052886E+02  0.7816164E-02  0.1300439E+00
        -11   -1    0    0    0    0  0.00000000000E+00  0.00000000000E+00  0.45593999997E+02  0.45594000000E+02  0.51100000000E-03 0.  1.
         11   -1    0    0    0    0 -0.00000000000E+00 -0.00000000000E+00 -0.45593999997E+02  0.45594000000E+02  0.51100000000E-03 0. -1.
    9900012    2    1    2    0    0  0.26947953934E+02  0.12559401305E+02 -0.27735080627E+02  0.50528862284E+02  0.30000007400E+02 0.  0.
        -12    1    1    2    0    0 -0.26947953934E+02 -0.12559401305E+02  0.27735080627E+02  0.40659137716E+02  0.00000000000E+00 0.  1.
         11    1    3    3    0    0 -0.36526502940E+01  0.10049220915E+02 -0.86628011779E+01  0.13761279725E+02  0.51100000000E-03 0. -1.
        -11    1    3    3    0    0  0.23275090039E+02  0.51809326721E+00 -0.17208812026E+02  0.28950672679E+02  0.51100000000E-03 0.  1.
         12    1    3    3    0    0  0.73255141887E+01  0.19920871232E+01 -0.18634674238E+01  0.78169098802E+01  0.00000000000E+00 0. -1.
</event>
<event>
 7    1  0.9868142E-013  0.5052886E+02  0.7816164E-02  0.1300439E+00
        -11   -1    0    0    0    0  0.00000000000E+00  0.00000000000E+00  0.45593999997E+02  0.45594000000E+02  0.51100000000E-03 0. -1.
         11   -1    0    0    0    0 -0.00000000000E+00 -0.00000000000E+00 -0.45593999997E+02  0.45594000000E+02  0.51100000000E-03 0.  1.
    9900012    2    1    2    0    0  0.30398787285E+01 -0.49782066441E+01  0.40238563014E+02  0.50528863788E+02  0.30000011969E+02 0.  0.
        -12    1    1    2    0    0 -0.30398787285E+01  0.49782066441E+01 -0.40238563014E+02  0.40659136212E+02  0.00000000000E+00 0.  1.
         11    1    3    3    0    0 -0.34507874681E+01  0.64757684439E+01  0.38188192739E+01  0.82720548835E+01  0.51100000000E-03 0. -1.
        -11    1    3    3    0    0  0.10223693267E+02 -0.18367035863E+01  0.23721644630E+02  0.25896212238E+02  0.51100000000E-03 0.  1.
         12    1    3    3    0    0 -0.37330270705E+01 -0.96172715017E+01  0.12698099111E+02  0.16360596666E+02  0.00000000000E+00 0. -1.
</event>
<event>
 7    1  0.9868142E-013  0.5052888E+02  0.7816164E-02  0.1300439E+00
        -11   -1    0    0    0    0  0.00000000000E+00  0.00000000000E+00  0.45593999997E+02  0.45594000000E+02  0.51100000000E-03 0.  1.
         11   -1    0    0    0    0 -0.00000000000E+00 -0.00000000000E+00 -0.45593999997E+02  0.45594000000E+02  0.51100000000E-03 0. -1.
    9900012    2    1    2    0    0  0.14120548863E+02  0.31663726373E+00 -0.38127076809E+02  0.50528878694E+02  0.30000057278E+02 0.  0.
        -12    1    1    2    0    0 -0.14120548863E+02 -0.31663726373E+00  0.38127076809E+02  0.40659121306E+02  0.00000000000E+00 0.  1.
         11    1    3    3    0    0  0.11794248022E+02  0.11248980778E+02 -0.13630656437E+02  0.21247085685E+02  0.51100000000E-03 0. -1.
        -11    1    3    3    0    0  0.56828251788E+01 -0.86450742906E+01 -0.10632619301E+02  0.14835241992E+02  0.51100000000E-03 0.  1.
        -12    1    3    3    0    0 -0.33565243382E+01 -0.22872692234E+01 -0.13863801071E+02  0.14446551017E+02  0.00000000000E+00 0.  1.
</event>
<event>
 7    1  0.9868142E-013  0.5052887E+02  0.7816164E-02  0.1300439E+00
        -11   -1    0    0    0    0  0.00000000000E+00  0.00000000000E+00  0.45593999997E+02  0.45594000000E+02  0.51100000000E-03 0.  1.
         11   -1    0    0    0    0 -0.00000000000E+00 -0.00000000000E+00 -0.45593999997E+02  0.45594000000E+02  0.51100000000E-03 0. -1.
    9900012    2    1    2    0    0  0.23862640435E+02  0.56414792902E+01 -0.32433212801E+02  0.50528865851E+02  0.30000018241E+02 0.  0.
        -12    1    1    2    0    0 -0.23862640435E+02 -0.56414792902E+01  0.32433212801E+02  0.40659134149E+02  0.00000000000E+00 0.  1.
         11    1    3    3    0    0  0.23995648228E+02 -0.11847570444E+01 -0.13411212417E+02  0.27514639775E+02  0.51100000000E-03 0. -1.
        -11    1    3    3    0    0 -0.14151191624E+01  0.84744073950E+01 -0.78148892521E+01  0.11614242861E+02  0.51100000000E-03 0.  1.
         12    1    3    3    0    0  0.12821113693E+01 -0.16481710604E+01 -0.11207111132E+02  0.11399983216E+02  0.00000000000E+00 0. -1.
</event>
<event>
 7    1  0.9868142E-013  0.5052883E+02  0.7816164E-02  0.1300439E+00
        -11   -1    0    0    0    0  0.00000000000E+00  0.00000000000E+00  0.45593999997E+02  0.45594000000E+02  0.51100000000E-03 0.  1.
         11   -1    0    0    0    0 -0.00000000000E+00 -0.00000000000E+00 -0.45593999997E+02  0.45594000000E+02  0.51100000000E-03 0. -1.
    9900012    2    1    2    0    0  0.10374724755E+02 -0.10511187702E+02 -0.37882029213E+02  0.50528829842E+02  0.29999908788E+02 0.  0.
        -12    1    1    2    0    0 -0.10374724755E+02  0.10511187702E+02  0.37882029213E+02  0.40659170158E+02  0.00000000000E+00 0.  1.
         11    1    3    3    0    0  0.74233080894E+00  0.59036342122E+01 -0.23030428335E+02  0.23786647126E+02  0.51100000000E-03 0. -1.
        -11    1    3    3    0    0  0.60681810550E+01 -0.66732218011E+01 -0.49904822929E+00  0.90334799451E+01  0.51100000000E-03 0.  1.
        -12    1    3    3    0    0  0.35642128913E+01 -0.97416001134E+01 -0.14352552648E+02  0.17708702771E+02  0.00000000000E+00 0.  1.
</event>
<event>
 7    1  0.9868142E-013  0.5052887E+02  0.7816164E-02  0.1300439E+00
        -11   -1    0    0    0    0  0.00000000000E+00  0.00000000000E+00  0.45593999997E+02  0.45594000000E+02  0.51100000000E-03 0.  1.
         11   -1    0    0    0    0 -0.00000000000E+00 -0.00000000000E+00 -0.45593999997E+02  0.45594000000E+02  0.51100000000E-03 0. -1.
    9900012    2    1    2    0    0 -0.27593680382E+02  0.25801103722E+02 -0.15035189767E+02  0.50528867181E+02  0.30000022282E+02 0.  0.
        -12    1    1    2    0    0  0.27593680382E+02 -0.25801103722E+02  0.15035189767E+02  0.40659132819E+02  0.00000000000E+00 0.  1.
         11    1    3    3    0    0 -0.32805981927E+01  0.15426195999E+02 -0.66360653331E+01  0.17110441575E+02  0.51100000000E-03 0. -1.
        -11    1    3    3    0    0 -0.25179534790E+02  0.35131498744E+01 -0.63371466695E+01  0.26201347722E+02  0.51100000000E-03 0.  1.
        -12    1    3    3    0    0  0.86645260084E+00  0.68617578487E+01 -0.20619777646E+01  0.72170778841E+01  0.00000000000E+00 0.  1.
</event>
<event>
 7    1  0.9868142E-013  0.5052886E+02  0.7816164E-02  0.1300439E+00
        -11   -1    0    0    0    0  0.00000000000E+00  0.00000000000E+00  0.45593999997E+02  0.45594000000E+02  0.51100000000E-03 0. -1.
         11   -1    0    0    0    0 -0.00000000000E+00 -0.00000000000E+00 -0.45593999997E+02  0.45594000000E+02  0.51100000000E-03 0.  1.
    9900012    2    1    2    0    0  0.17636491346E+02 -0.23722889565E+02  0.27916740881E+02  0.50528859113E+02  0.29999997758E+02 0.  0.
        -12    1    1    2    0    0 -0.17636491346E+02  0.23722889565E+02 -0.27916740881E+02  0.40659140887E+02  0.00000000000E+00 0.  1.
         11    1    3    3    0    0  0.10926409777E+02 -0.19691511834E+02  0.26769415086E+02  0.34982047585E+02  0.51100000000E-03 0. -1.
        -11    1    3    3    0    0  0.85583680501E+00 -0.76685832224E+01 -0.19983323962E+01  0.79707564197E+01  0.51100000000E-03 0.  1.
         12    1    3    3    0    0  0.58542447639E+01  0.36372054915E+01  0.31456581909E+01  0.75760551079E+01  0.00000000000E+00 0. -1.
</event>
<event>
 7    1  0.9868142E-013  0.5052886E+02  0.7816164E-02  0.1300439E+00
        -11   -1    0    0    0    0  0.00000000000E+00  0.00000000000E+00  0.45593999997E+02  0.45594000000E+02  0.51100000000E-03 0.  1.
         11   -1    0    0    0    0 -0.00000000000E+00 -0.00000000000E+00 -0.45593999997E+02  0.45594000000E+02  0.51100000000E-03 0. -1.
    9900012    2    1    2    0    0  0.34146899036E+02  0.10662181467E+01 -0.22045817182E+02  0.50528860928E+02  0.30000003276E+02 0.  0.
        -12    1    1    2    0    0 -0.34146899036E+02 -0.10662181467E+01  0.22045817182E+02  0.40659139072E+02  0.00000000000E+00 0.  1.
         11    1    3    3    0    0  0.21881503956E+02  0.19801810773E+01 -0.16858261830E+02  0.27693362465E+02  0.51100000000E-03 0. -1.
        -11    1    3    3    0    0  0.30973124381E+01 -0.78951774879E+01  0.26661402909E+01  0.88901898864E+01  0.51100000000E-03 0.  1.
         12    1    3    3    0    0  0.91680826419E+01  0.69812145573E+01 -0.78536956434E+01  0.13945308576E+02  0.00000000000E+00 0. -1.
</event>
<event>
 7    1  0.9868142E-013  0.5052887E+02  0.7816164E-02  0.1300439E+00
        -11   -1    0    0    0    0  0.00000000000E+00  0.00000000000E+00  0.45593999997E+02  0.45594000000E+02  0.51100000000E-03 0.  1.
         11   -1    0    0    0    0 -0.00000000000E+00 -0.00000000000E+00 -0.45593999997E+02  0.45594000000E+02  0.51100000000E-03 0. -1.
    9900012    2    1    2    0    0  0.12707408188E+02  0.33201024476E+01 -0.38479395013E+02  0.50528866418E+02  0.30000019963E+02 0.  0.
        -12    1    1    2    0    0 -0.12707408188E+02 -0.33201024476E+01  0.38479395013E+02  0.40659133582E+02  0.00000000000E+00 0.  1.
         11    1    3    3    0    0  0.85096610735E+01  0.14368748312E+02 -0.22130809747E+02  0.27724501798E+02  0.51100000000E-03 0.  1.
        -11    1    3    3    0    0 -0.26668046635E+01 -0.75306577727E+01 -0.10099177199E+02  0.12876957481E+02  0.51100000000E-03 0. -1.
         12    1    3    3    0    0  0.68645517778E+01 -0.35179880913E+01 -0.62494080665E+01  0.99274071389E+01  0.00000000000E+00 0. -1.
</event>
<event>
 7    1  0.9868142E-013  0.5052887E+02  0.7816164E-02  0.1300439E+00
        -11   -1    0    0    0    0  0.00000000000E+00  0.00000000000E+00  0.45593999997E+02  0.45594000000E+02  0.51100000000E-03 0.  1.
         11   -1    0    0    0    0 -0.00000000000E+00 -0.00000000000E+00 -0.45593999997E+02  0.45594000000E+02  0.51100000000E-03 0. -1.
    9900012    2    1    2    0    0 -0.30962118193E+02  0.15237757194E+02 -0.21501696145E+02  0.50528868868E+02  0.30000027412E+02 0.  0.
        -12    1    1    2    0    0  0.30962118193E+02 -0.15237757194E+02  0.21501696145E+02  0.40659131132E+02  0.00000000000E+00 0.  1.
         11    1    3    3    0    0 -0.60701373285E+01  0.92334958892E+00 -0.22183907302E+00  0.61439689522E+01  0.51100000000E-03 0. -1.
        -11    1    3    3    0    0 -0.23079756061E+01  0.12917926710E+02 -0.16801616140E+02  0.21318862236E+02  0.51100000000E-03 0.  1.
        -12    1    3    3    0    0 -0.22584005258E+02  0.13964808949E+01 -0.44782409322E+01  0.23066037680E+02  0.00000000000E+00 0.  1.
</event>
<event>
 7    1  0.9868142E-013  0.5052888E+02  0.7816164E-02  0.1300439E+00
        -11   -1    0    0    0    0  0.00000000000E+00  0.00000000000E+00  0.45593999997E+02  0.45594000000E+02  0.51100000000E-03 0.  1.
         11   -1    0    0    0    0 -0.00000000000E+00 -0.00000000000E+00 -0.45593999997E+02  0.45594000000E+02  0.51100000000E-03 0. -1.
    9900012    2    1    2    0    0  0.11437755148E+02  0.80372942506E+01 -0.38180405750E+02  0.50528883864E+02  0.30000072993E+02 0.  0.
        -12    1    1    2    0    0 -0.11437755148E+02 -0.80372942506E+01  0.38180405750E+02  0.40659116136E+02  0.00000000000E+00 0.  1.
         11    1    3    3    0    0  0.12987204702E+02 -0.27263596756E+01 -0.14463456516E+02  0.19628858798E+02  0.51100000000E-03 0. -1.
        -11    1    3    3    0    0 -0.66844478385E+01  0.55268564047E+00 -0.15300478884E+02  0.16706045572E+02  0.51100000000E-03 0.  1.
        -12    1    3    3    0    0  0.51349982847E+01  0.10210968286E+02 -0.84164703506E+01  0.14193979494E+02  0.00000000000E+00 0.  1.
</event>
<event>
 7    1  0.9868142E-013  0.5052886E+02  0.7816164E-02  0.1300439E+00
        -11   -1    0    0    0    0  0.00000000000E+00  0.00000000000E+00  0.45593999997E+02  0.45594000000E+02  0.51100000000E-03 0.  1.
         11   -1    0    0    0    0 -0.00000000000E+00 -0.00000000000E+00 -0.45593999997E+02  0.45594000000E+02  0.51100000000E-03 0. -1.
    9900012    2    1    2    0    0 -0.40808601750E+01  0.11283917242E+02 -0.38848237853E+02  0.50528858440E+02  0.29999995714E+02 0.  0.
        -12    1    1    2    0    0  0.40808601750E+01 -0.11283917242E+02  0.38848237853E+02  0.40659141560E+02  0.00000000000E+00 0.  1.
         11    1    3    3    0    0 -0.25950668454E+01  0.34268631815E+01  0.32803121808E+01  0.54072369526E+01  0.51100000000E-03 0.  1.
        -11    1    3    3    0    0 -0.60583356085E+01 -0.29954340603E+00 -0.23602167966E+02  0.24369150366E+02  0.51100000000E-03 0. -1.
         12    1    3    3    0    0  0.45725422788E+01  0.81565974665E+01 -0.18526382068E+02  0.20752471122E+02  0.00000000000E+00 0. -1.
</event>
<event>
 7    1  0.9868142E-013  0.5052886E+02  0.7816164E-02  0.1300439E+00
        -11   -1    0    0    0    0  0.00000000000E+00  0.00000000000E+00  0.45593999997E+02  0.45594000000E+02  0.51100000000E-03 0.  1.
         11   -1    0    0    0    0 -0.00000000000E+00 -0.00000000000E+00 -0.45593999997E+02  0.45594000000E+02  0.51100000000E-03 0. -1.
    9900012    2    1    2    0    0  0.22917545702E+02 -0.29574225830E+01 -0.33454530058E+02  0.50528857969E+02  0.29999994282E+02 0.  0.
        -12    1    1    2    0    0 -0.22917545702E+02  0.29574225830E+01  0.33454530058E+02  0.40659142031E+02  0.00000000000E+00 0.  1.
         11    1    3    3    0    0  0.12993258380E+02 -0.12187955778E+02 -0.31476206237E+02  0.36167977393E+02  0.51100000000E-03 0. -1.
        -11    1    3    3    0    0  0.10208900130E+02  0.83683475860E+01 -0.13773915632E+01  0.13272079376E+02  0.51100000000E-03 0.  1.
         12    1    3    3    0    0 -0.28461280824E+00  0.86218560858E+00 -0.60093225783E+00  0.10888011998E+01  0.00000000000E+00 0. -1.
</event>
<event>
 7    1  0.9868142E-013  0.5052886E+02  0.7816164E-02  0.1300439E+00
        -11   -1    0    0    0    0  0.00000000000E+00  0.00000000000E+00  0.45593999997E+02  0.45594000000E+02  0.51100000000E-03 0. -1.
         11   -1    0    0    0    0 -0.00000000000E+00 -0.00000000000E+00 -0.45593999997E+02  0.45594000000E+02  0.51100000000E-03 0.  1.
    9900012    2    1    2    0    0  0.39828726603E+02 -0.75309712247E+01 -0.31815763798E+01  0.50528863035E+02  0.30000009683E+02 0.  0.
        -12    1    1    2    0    0 -0.39828726603E+02  0.75309712247E+01  0.31815763798E+01  0.40659136965E+02  0.00000000000E+00 0.  1.
         11    1    3    3    0    0  0.15166836011E+02  0.64848696691E+01  0.79219888396E+01  0.18298752871E+02  0.51100000000E-03 0. -1.
        -11    1    3    3    0    0  0.21573509434E+02 -0.10471072678E+02 -0.49497779744E+01  0.24485913799E+02  0.51100000000E-03 0.  1.
         12    1    3    3    0    0  0.30883811588E+01 -0.35447682155E+01 -0.61537872450E+01  0.77441963651E+01  0.00000000000E+00 0. -1.
</event>
<event>
 7    1  0.9868142E-013  0.5052886E+02  0.7816164E-02  0.1300439E+00
        -11   -1    0    0    0    0  0.00000000000E+00  0.00000000000E+00  0.45593999997E+02  0.45594000000E+02  0.51100000000E-03 0. -1.
         11   -1    0    0    0    0 -0.00000000000E+00 -0.00000000000E+00 -0.45593999997E+02  0.45594000000E+02  0.51100000000E-03 0.  1.
    9900012    2    1    2    0    0  0.28524407259E+02 -0.11271477762E+02  0.26692275075E+02  0.50528861186E+02  0.30000004060E+02 0.  0.
        -12    1    1    2    0    0 -0.28524407259E+02  0.11271477762E+02 -0.26692275075E+02  0.40659138814E+02  0.00000000000E+00 0.  1.
         11    1    3    3    0    0  0.40391595755E+01  0.73971042551E+01  0.43454065046E+01  0.94823266864E+01  0.51100000000E-03 0. -1.
        -11    1    3    3    0    0  0.91171817562E+01 -0.13485656233E+02  0.17972121759E+02  0.24248362583E+02  0.51100000000E-03 0.  1.
        -12    1    3    3    0    0  0.15368065928E+02 -0.51829257847E+01  0.43747468118E+01  0.16798171916E+02  0.00000000000E+00 0.  1.
</event>
<event>
 7    1  0.9868142E-013  0.5052886E+02  0.7816164E-02  0.1300439E+00
        -11   -1    0    0    0    0  0.00000000000E+00  0.00000000000E+00  0.45593999997E+02  0.45594000000E+02  0.51100000000E-03 0.  1.
         11   -1    0    0    0    0 -0.00000000000E+00 -0.00000000000E+00 -0.45593999997E+02  0.45594000000E+02  0.51100000000E-03 0. -1.
    9900012    2    1    2    0    0  0.10829012553E+02 -0.38630487948E+02 -0.66018067100E+01  0.50528856332E+02  0.29999989306E+02 0.  0.
        -12    1    1    2    0    0 -0.10829012553E+02  0.38630487948E+02  0.66018067100E+01  0.40659143668E+02  0.00000000000E+00 0.  1.
         11    1    3    3    0    0  0.27756243458E+00 -0.21336326349E+02  0.94592984156E+00  0.21359088147E+02  0.51100000000E-03 0. -1.
        -11    1    3    3    0    0  0.11045860864E+02 -0.33149555034E+01 -0.96339883656E+01  0.15027098998E+02  0.51100000000E-03 0.  1.
        -12    1    3    3    0    0 -0.49441074556E+00 -0.13979206096E+02  0.20862518140E+01  0.14142669186E+02  0.00000000000E+00 0.  1.
</event>
<event>
 7    1  0.9868142E-013  0.5052886E+02  0.7816164E-02  0.1300439E+00
        -11   -1    0    0    0    0  0.00000000000E+00  0.00000000000E+00  0.45593999997E+02  0.45594000000E+02  0.51100000000E-03 0.  1.
         11   -1    0    0    0    0 -0.00000000000E+00 -0.00000000000E+00 -0.45593999997E+02  0.45594000000E+02  0.51100000000E-03 0. -1.
    9900012    2    1    2    0    0 -0.10941215154E+02  0.28799293979E+02 -0.26534058190E+02  0.50528858755E+02  0.29999996671E+02 0.  0.
        -12    1    1    2    0    0  0.10941215154E+02 -0.28799293979E+02  0.26534058190E+02  0.40659141245E+02  0.00000000000E+00 0.  1.
         11    1    3    3    0    0 -0.10243660372E+02  0.93221320505E+01 -0.86882656679E+00  0.13877664920E+02  0.51100000000E-03 0. -1.
        -11    1    3    3    0    0 -0.40623377840E+00  0.20213681823E+02 -0.27799914298E+02  0.34374310087E+02  0.51100000000E-03 0.  1.
        -12    1    3    3    0    0 -0.29132100446E+00 -0.73651989441E+00  0.21346826740E+01  0.22768837478E+01  0.00000000000E+00 0.  1.
</event>
<event>
 7    1  0.9868142E-013  0.5052885E+02  0.7816164E-02  0.1300439E+00
        -11   -1    0    0    0    0  0.00000000000E+00  0.00000000000E+00  0.45593999997E+02  0.45594000000E+02  0.51100000000E-03 0. -1.
         11   -1    0    0    0    0 -0.00000000000E+00 -0.00000000000E+00 -0.45593999997E+02  0.45594000000E+02  0.51100000000E-03 0.  1.
    9900012    2    1    2    0    0  0.33976740057E+01 -0.28179710757E+02  0.29112306301E+02  0.50528847708E+02  0.29999963093E+02 0.  0.
        -12    1    1    2    0    0 -0.33976740057E+01  0.28179710757E+02 -0.29112306301E+02  0.40659152292E+02  0.00000000000E+00 0.  1.
         11    1    3    3    0    0  0.13093054086E+02 -0.16969304104E+02  0.14792060857E+02  0.26042089235E+02  0.51100000000E-03 0. -1.
        -11    1    3    3    0    0 -0.84651042633E+01 -0.12625573644E+02  0.15927522972E+02  0.22017018152E+02  0.51100000000E-03 0.  1.
        -12    1    3    3    0    0 -0.12302758170E+01  0.14151669916E+01 -0.16072775279E+01  0.24697403207E+01  0.00000000000E+00 0.  1.
</event>
<event>
 7    1  0.9868142E-013  0.5052885E+02  0.7816164E-02  0.1300439E+00
        -11   -1    0    0    0    0  0.00000000000E+00  0.00000000000E+00  0.45593999997E+02  0.45594000000E+02  0.51100000000E-03 0.  1.
         11   -1    0    0    0    0 -0.00000000000E+00 -0.00000000000E+00 -0.45593999997E+02  0.45594000000E+02  0.51100000000E-03 0. -1.
    9900012    2    1    2    0    0  0.28930847934E+01 -0.65566109662E+00 -0.40550788671E+02  0.50528852285E+02  0.29999977006E+02 0.  0.
        -12    1    1    2    0    0 -0.28930847934E+01  0.65566109662E+00  0.40550788671E+02  0.40659147715E+02  0.00000000000E+00 0.  1.
         11    1    3    3    0    0  0.34484102956E+00 -0.13894796488E+01  0.25413960936E+01  0.29168927639E+01  0.51100000000E-03 0.  1.
        -11    1    3    3    0    0  0.22070928373E+01  0.99154502927E+01 -0.29548598615E+02  0.31245913232E+02  0.51100000000E-03 0. -1.
         12    1    3    3    0    0  0.34115092650E+00 -0.91816317405E+01 -0.13543586149E+02  0.16366046289E+02  0.00000000000E+00 0. -1.
</event>
<event>
 7    1  0.9868142E-013  0.5052885E+02  0.7816164E-02  0.1300439E+00
        -11   -1    0    0    0    0  0.00000000000E+00  0.00000000000E+00  0.45593999997E+02  0.45594000000E+02  0.51100000000E-03 0.  1.
         11   -1    0    0    0    0 -0.00000000000E+00 -0.00000000000E+00 -0.45593999997E+02  0.45594000000E+02  0.51100000000E-03 0. -1.
    9900012    2    1    2    0    0  0.38861076188E+02  0.79960666353E+01 -0.88907736437E+01  0.50528853672E+02  0.29999981221E+02 0.  0.
        -12    1    1    2    0    0 -0.38861076188E+02 -0.79960666353E+01  0.88907736437E+01  0.40659146328E+02  0.00000000000E+00 0.  1.
         11    1    3    3    0    0  0.33015771649E+02  0.35178307120E+01  0.42736694838E+01  0.33476567351E+02  0.51100000000E-03 0. -1.
        -11    1    3    3    0    0 -0.10632028419E+01  0.14887773484E+01 -0.72553754268E+01  0.74824682506E+01  0.51100000000E-03 0.  1.
         12    1    3    3    0    0  0.69085073808E+01  0.29894585750E+01 -0.59090677007E+01  0.95698180701E+01  0.00000000000E+00 0. -1.
</event>
<event>
 7    1  0.9868142E-013  0.5052886E+02  0.7816164E-02  0.1300439E+00
        -11   -1    0    0    0    0  0.00000000000E+00  0.00000000000E+00  0.45593999997E+02  0.45594000000E+02  0.51100000000E-03 0.  1.
         11   -1    0    0    0    0 -0.00000000000E+00 -0.00000000000E+00 -0.45593999997E+02  0.45594000000E+02  0.51100000000E-03 0. -1.
    9900012    2    1    2    0    0 -0.13013179829E+01 -0.14907989822E+02 -0.37805077272E+02  0.50528862569E+02  0.30000008266E+02 0.  0.
        -12    1    1    2    0    0  0.13013179829E+01  0.14907989822E+02  0.37805077272E+02  0.40659137431E+02  0.00000000000E+00 0.  1.
         11    1    3    3    0    0 -0.10834429879E+02 -0.66094022141E+01 -0.10197205383E+02  0.16280419722E+02  0.51100000000E-03 0. -1.
        -11    1    3    3    0    0  0.30987123784E+01  0.39485318092E+01 -0.13876203183E+02  0.14756081353E+02  0.51100000000E-03 0.  1.
         12    1    3    3    0    0  0.64343995181E+01 -0.12247119417E+02 -0.13731668707E+02  0.19492361495E+02  0.00000000000E+00 0. -1.
</event>
<event>
 7    1  0.9868142E-013  0.5052886E+02  0.7816164E-02  0.1300439E+00
        -11   -1    0    0    0    0  0.00000000000E+00  0.00000000000E+00  0.45593999997E+02  0.45594000000E+02  0.51100000000E-03 0. -1.
         11   -1    0    0    0    0 -0.00000000000E+00 -0.00000000000E+00 -0.45593999997E+02  0.45594000000E+02  0.51100000000E-03 0.  1.
    9900012    2    1    2    0    0 -0.19507643851E+02  0.30110493165E+02  0.19130492925E+02  0.50528859246E+02  0.29999998165E+02 0.  0.
        -12    1    1    2    0    0  0.19507643851E+02 -0.30110493165E+02 -0.19130492925E+02  0.40659140754E+02  0.00000000000E+00 0.  1.
         11    1    3    3    0    0 -0.69898343395E+01  0.69412074936E+01 -0.56266421798E+01  0.11344480951E+02  0.51100000000E-03 0.  1.
        -11    1    3    3    0    0 -0.86724278530E+01  0.24738894226E+02  0.21141029698E+02  0.33677396415E+02  0.51100000000E-03 0. -1.
         12    1    3    3    0    0 -0.38453816589E+01 -0.15696085539E+01  0.36161054068E+01  0.55069818801E+01  0.00000000000E+00 0. -1.
</event>
<event>
 7    1  0.9868142E-013  0.5052890E+02  0.7816164E-02  0.1300439E+00
        -11   -1    0    0    0    0  0.00000000000E+00  0.00000000000E+00  0.45593999997E+02  0.45594000000E+02  0.51100000000E-03 0.  1.
         11   -1    0    0    0    0 -0.00000000000E+00 -0.00000000000E+00 -0.45593999997E+02  0.45594000000E+02  0.51100000000E-03 0. -1.
    9900012    2    1    2    0    0  0.15765703714E+02 -0.31444156001E+02 -0.20392889383E+02  0.50528901417E+02  0.30000126347E+02 0.  0.
        -12    1    1    2    0    0 -0.15765703714E+02  0.31444156001E+02  0.20392889383E+02  0.40659098583E+02  0.00000000000E+00 0.  1.
         11    1    3    3    0    0  0.14263489207E+02 -0.19278522365E+02 -0.13394533943E+02  0.27468565466E+02  0.51100000000E-03 0. -1.
        -11    1    3    3    0    0 -0.61084104311E+01 -0.56152747852E+01 -0.95986956591E+01  0.12687747930E+02  0.51100000000E-03 0.  1.
        -12    1    3    3    0    0  0.76106249378E+01 -0.65503588506E+01  0.26003402189E+01  0.10372588022E+02  0.00000000000E+00 0.  1.
</event>
<event>
 7    1  0.9868142E-013  0.5052886E+02  0.7816164E-02  0.1300439E+00
        -11   -1    0    0    0    0  0.00000000000E+00  0.00000000000E+00  0.45593999997E+02  0.45594000000E+02  0.51100000000E-03 0. -1.
         11   -1    0    0    0    0 -0.00000000000E+00 -0.00000000000E+00 -0.45593999997E+02  0.45594000000E+02  0.51100000000E-03 0.  1.
    9900012    2    1    2    0    0 -0.24363671438E+02  0.22021821473E+02 -0.23971157899E+02  0.50528861814E+02  0.30000005971E+02 0.  0.
        -12    1    1    2    0    0  0.24363671438E+02 -0.22021821473E+02  0.23971157899E+02  0.40659138186E+02  0.00000000000E+00 0.  1.
         11    1    3    3    0    0  0.37484968472E+01 -0.16309714029E+01 -0.92330561657E+01  0.10097555286E+02  0.51100000000E-03 0. -1.
        -11    1    3    3    0    0 -0.90874070995E+01  0.12055446436E+02 -0.83525549720E+01  0.17253403473E+02  0.51100000000E-03 0.  1.
         12    1    3    3    0    0 -0.19024761186E+02  0.11597346440E+02 -0.63855467617E+01  0.23177903056E+02  0.00000000000E+00 0. -1.
</event>
<event>
 7    1  0.9868142E-013  0.5052886E+02  0.7816164E-02  0.1300439E+00
        -11   -1    0    0    0    0  0.00000000000E+00  0.00000000000E+00  0.45593999997E+02  0.45594000000E+02  0.51100000000E-03 0.  1.
         11   -1    0    0    0    0 -0.00000000000E+00 -0.00000000000E+00 -0.45593999997E+02  0.45594000000E+02  0.51100000000E-03 0. -1.
    9900012    2    1    2    0    0  0.90823855544E+01  0.57898482908E+01 -0.39206545520E+02  0.50528864714E+02  0.30000014784E+02 0.  0.
        -12    1    1    2    0    0 -0.90823855544E+01 -0.57898482908E+01  0.39206545520E+02  0.40659135286E+02  0.00000000000E+00 0.  1.
         11    1    3    3    0    0  0.10762067370E+02  0.12496969992E+02 -0.12238828770E+02  0.20537411789E+02  0.51100000000E-03 0. -1.
        -11    1    3    3    0    0 -0.13394779237E+01 -0.95071089779E+01 -0.24220780930E+02  0.26054280864E+02  0.51100000000E-03 0.  1.
        -12    1    3    3    0    0 -0.34020389202E+00  0.27999872770E+01 -0.27469358194E+01  0.39371720607E+01  0.00000000000E+00 0.  1.
</event>
<event>
 7    1  0.9868142E-013  0.5052886E+02  0.7816164E-02  0.1300439E+00
        -11   -1    0    0    0    0  0.00000000000E+00  0.00000000000E+00  0.45593999997E+02  0.45594000000E+02  0.51100000000E-03 0.  1.
         11   -1    0    0    0    0 -0.00000000000E+00 -0.00000000000E+00 -0.45593999997E+02  0.45594000000E+02  0.51100000000E-03 0. -1.
    9900012    2    1    2    0    0 -0.11031322354E+02 -0.91965523516E+01 -0.38038120598E+02  0.50528864906E+02  0.30000015367E+02 0.  0.
        -12    1    1    2    0    0  0.11031322354E+02  0.91965523516E+01  0.38038120598E+02  0.40659135094E+02  0.00000000000E+00 0.  1.
         11    1    3    3    0    0 -0.15108765894E+02  0.42203619368E-01 -0.36350514855E+02  0.39365422879E+02  0.51100000000E-03 0. -1.
        -11    1    3    3    0    0  0.51274389232E+00 -0.42181440404E+01  0.11227269124E+01  0.43950155205E+01  0.51100000000E-03 0.  1.
         12    1    3    3    0    0  0.35646996478E+01 -0.50206119306E+01 -0.28103326551E+01  0.67684265061E+01  0.00000000000E+00 0. -1.
</event>
<event>
 7    1  0.9868142E-013  0.5052887E+02  0.7816164E-02  0.1300439E+00
        -11   -1    0    0    0    0  0.00000000000E+00  0.00000000000E+00  0.45593999997E+02  0.45594000000E+02  0.51100000000E-03 0. -1.
         11   -1    0    0    0    0 -0.00000000000E+00 -0.00000000000E+00 -0.45593999997E+02  0.45594000000E+02  0.51100000000E-03 0.  1.
    9900012    2    1    2    0    0  0.34479348492E+02  0.18298616384E+02 -0.11379789951E+02  0.50528874907E+02  0.30000045767E+02 0.  0.
        -12    1    1    2    0    0 -0.34479348492E+02 -0.18298616384E+02  0.11379789951E+02  0.40659125093E+02  0.00000000000E+00 0.  1.
         11    1    3    3    0    0  0.22128883272E+02  0.12128812767E+02 -0.38370523736E+01  0.25524861315E+02  0.51100000000E-03 0. -1.
        -11    1    3    3    0    0  0.11870859908E+02 -0.48278009753E+01 -0.45154066538E+01  0.13587268847E+02  0.51100000000E-03 0.  1.
        -12    1    3    3    0    0  0.47960531209E+00  0.10997604593E+02 -0.30273309239E+01  0.11416744744E+02  0.00000000000E+00 0.  1.
</event>
<event>
 7    1  0.9868142E-013  0.5052885E+02  0.7816164E-02  0.1300439E+00
        -11   -1    0    0    0    0  0.00000000000E+00  0.00000000000E+00  0.45593999997E+02  0.45594000000E+02  0.51100000000E-03 0.  1.
         11   -1    0    0    0    0 -0.00000000000E+00 -0.00000000000E+00 -0.45593999997E+02  0.45594000000E+02  0.51100000000E-03 0. -1.
    9900012    2    1    2    0    0 -0.16271740084E+02  0.28684401059E+02 -0.23782383217E+02  0.50528854153E+02  0.29999982684E+02 0.  0.
        -12    1    1    2    0    0  0.16271740084E+02 -0.28684401059E+02  0.23782383217E+02  0.40659145847E+02  0.00000000000E+00 0.  1.
         11    1    3    3    0    0  0.77682836461E+01  0.93146505045E+01 -0.12886635055E+02  0.17696731566E+02  0.51100000000E-03 0. -1.
        -11    1    3    3    0    0 -0.83281066283E+01  0.65749502246E+01 -0.49965265607E+01  0.11728282415E+02  0.51100000000E-03 0.  1.
         12    1    3    3    0    0 -0.15711917102E+02  0.12794800330E+02 -0.58992216019E+01  0.21103840172E+02  0.00000000000E+00 0. -1.
</event>
<event>
 7    1  0.9868142E-013  0.5052888E+02  0.7816164E-02  0.1300439E+00
        -11   -1    0    0    0    0  0.00000000000E+00  0.00000000000E+00  0.45593999997E+02  0.45594000000E+02  0.51100000000E-03 0. -1.
         11   -1    0    0    0    0 -0.00000000000E+00 -0.00000000000E+00 -0.45593999997E+02  0.45594000000E+02  0.51100000000E-03 0.  1.
    9900012    2    1    2    0    0  0.94359705145E+01 -0.32413559994E+02  0.22660273699E+02  0.50528875376E+02  0.30000047193E+02 0.  0.
        -12    1    1    2    0    0 -0.94359705145E+01  0.32413559994E+02 -0.22660273699E+02  0.40659124624E+02  0.00000000000E+00 0.  1.
         11    1    3    3    0    0  0.52340147652E+00 -0.95491851064E+01  0.23394884571E+02  0.25274127277E+02  0.51100000000E-03 0. -1.
        -11    1    3    3    0    0  0.29488351810E+01 -0.34481905957E+01 -0.18796096841E+01  0.49110671075E+01  0.51100000000E-03 0.  1.
         12    1    3    3    0    0  0.59637338570E+01 -0.19416184292E+02  0.11449988123E+01  0.20343680991E+02  0.00000000000E+00 0. -1.
</event>
<event>
 7    1  0.9868142E-013  0.5052887E+02  0.7816164E-02  0.1300439E+00
        -11   -1    0    0    0    0  0.00000000000E+00  0.00000000000E+00  0.45593999997E+02  0.45594000000E+02  0.51100000000E-03 0. -1.
         11   -1    0    0    0    0 -0.00000000000E+00 -0.00000000000E+00 -0.45593999997E+02  0.45594000000E+02  0.51100000000E-03 0.  1.
    9900012    2    1    2    0    0 -0.26442964563E+02 -0.23914976253E+02  0.19545044499E+02  0.50528865374E+02  0.30000016791E+02 0.  0.
        -12    1    1    2    0    0  0.26442964563E+02  0.23914976253E+02 -0.19545044499E+02  0.40659134626E+02  0.00000000000E+00 0.  1.
         11    1    3    3    0    0 -0.22955686107E+02 -0.15739981663E+02  0.21359427353E+02  0.35084693023E+02  0.51100000000E-03 0. -1.
        -11    1    3    3    0    0 -0.43429133598E+01 -0.11030267821E+02 -0.30132162948E+01  0.12231401283E+02  0.51100000000E-03 0.  1.
         12    1    3    3    0    0  0.85563490361E+00  0.28552732313E+01  0.11988334413E+01  0.32127710678E+01  0.00000000000E+00 0. -1.
</event>
<event>
 7    1  0.9868142E-013  0.5052886E+02  0.7816164E-02  0.1300439E+00
        -11   -1    0    0    0    0  0.00000000000E+00  0.00000000000E+00  0.45593999997E+02  0.45594000000E+02  0.51100000000E-03 0.  1.
         11   -1    0    0    0    0 -0.00000000000E+00 -0.00000000000E+00 -0.45593999997E+02  0.45594000000E+02  0.51100000000E-03 0. -1.
    9900012    2    1    2    0    0  0.92018187793E+01  0.10024013338E+02 -0.38314631257E+02  0.50528864734E+02  0.30000014844E+02 0.  0.
        -12    1    1    2    0    0 -0.92018187793E+01 -0.10024013338E+02  0.38314631257E+02  0.40659135266E+02  0.00000000000E+00 0.  1.
         11    1    3    3    0    0  0.61774030437E+01 -0.26914081750E+01 -0.31740145877E+02  0.32447509101E+02  0.51100000000E-03 0. -1.
        -11    1    3    3    0    0 -0.37347698331E+01  0.70055330826E+01 -0.38506026109E+01  0.88234426505E+01  0.51100000000E-03 0.  1.
         12    1    3    3    0    0  0.67591855687E+01  0.57098884304E+01 -0.27238827693E+01  0.92579129819E+01  0.00000000000E+00 0. -1.
</event>
<event>
 7    1  0.9868142E-013  0.5052886E+02  0.7816164E-02  0.1300439E+00
        -11   -1    0    0    0    0  0.00000000000E+00  0.00000000000E+00  0.45593999997E+02  0.45594000000E+02  0.51100000000E-03 0.  1.
         11   -1    0    0    0    0 -0.00000000000E+00 -0.00000000000E+00 -0.45593999997E+02  0.45594000000E+02  0.51100000000E-03 0. -1.
    9900012    2    1    2    0    0  0.49484052437E+01 -0.38469266454E+02 -0.12198144693E+02  0.50528856995E+02  0.29999991321E+02 0.  0.
        -12    1    1    2    0    0 -0.49484052437E+01  0.38469266454E+02  0.12198144693E+02  0.40659143005E+02  0.00000000000E+00 0.  1.
         11    1    3    3    0    0 -0.89099635682E+01 -0.18163724077E+02  0.25177530081E+00  0.20232936371E+02  0.51100000000E-03 0. -1.
        -11    1    3    3    0    0  0.14165121749E+02 -0.10534493281E+02 -0.62844185665E+01  0.18738200016E+02  0.51100000000E-03 0.  1.
         12    1    3    3    0    0 -0.30675293725E+00 -0.97710490957E+01 -0.61655014268E+01  0.11557720607E+02  0.00000000000E+00 0. -1.
</event>
<event>
 7    1  0.9868142E-013  0.5052883E+02  0.7816164E-02  0.1300439E+00
        -11   -1    0    0    0    0  0.00000000000E+00  0.00000000000E+00  0.45593999997E+02  0.45594000000E+02  0.51100000000E-03 0.  1.
         11   -1    0    0    0    0 -0.00000000000E+00 -0.00000000000E+00 -0.45593999997E+02  0.45594000000E+02  0.51100000000E-03 0. -1.
    9900012    2    1    2    0    0  0.25630333125E+02 -0.22876138061E+02 -0.21747098854E+02  0.50528831572E+02  0.29999914047E+02 0.  0.
        -12    1    1    2    0    0 -0.25630333125E+02  0.22876138061E+02  0.21747098854E+02  0.40659168428E+02  0.00000000000E+00 0.  1.
         11    1    3    3    0    0  0.17486077718E+01 -0.61741151610E+01 -0.81658416970E+01  0.10385484969E+02  0.51100000000E-03 0. -1.
        -11    1    3    3    0    0  0.11891222158E+02 -0.93875978905E+01  0.57875140542E+01  0.16217998574E+02  0.51100000000E-03 0.  1.
        -12    1    3    3    0    0  0.11990503195E+02 -0.73144250091E+01 -0.19368771211E+02  0.23925348029E+02  0.00000000000E+00 0.  1.
</event>
<event>
 7    1  0.9868142E-013  0.5052886E+02  0.7816164E-02  0.1300439E+00
        -11   -1    0    0    0    0  0.00000000000E+00  0.00000000000E+00  0.45593999997E+02  0.45594000000E+02  0.51100000000E-03 0.  1.
         11   -1    0    0    0    0 -0.00000000000E+00 -0.00000000000E+00 -0.45593999997E+02  0.45594000000E+02  0.51100000000E-03 0. -1.
    9900012    2    1    2    0    0  0.23590536017E+02  0.21304969685E+02 -0.25352530067E+02  0.50528857072E+02  0.29999991555E+02 0.  0.
        -12    1    1    2    0    0 -0.23590536017E+02 -0.21304969685E+02  0.25352530067E+02  0.40659142928E+02  0.00000000000E+00 0.  1.
         11    1    3    3    0    0  0.24129276905E+02  0.24118236996E+02 -0.12513917248E+02  0.36338815128E+02  0.51100000000E-03 0. -1.
        -11    1    3    3    0    0 -0.16229159402E+00 -0.40115726839E+01 -0.58860428482E+01  0.71249248861E+01  0.51100000000E-03 0.  1.
         12    1    3    3    0    0 -0.37644929423E+00  0.11983053738E+01 -0.69525699708E+01  0.70651170577E+01  0.00000000000E+00 0. -1.
</event>
<event>
 7    1  0.9868142E-013  0.5052886E+02  0.7816164E-02  0.1300439E+00
        -11   -1    0    0    0    0  0.00000000000E+00  0.00000000000E+00  0.45593999997E+02  0.45594000000E+02  0.51100000000E-03 0. -1.
         11   -1    0    0    0    0 -0.00000000000E+00 -0.00000000000E+00 -0.45593999997E+02  0.45594000000E+02  0.51100000000E-03 0.  1.
    9900012    2    1    2    0    0 -0.20808384981E+02 -0.32071299743E+02  0.13842281011E+02  0.50528857162E+02  0.29999991831E+02 0.  0.
        -12    1    1    2    0    0  0.20808384981E+02  0.32071299743E+02 -0.13842281011E+02  0.40659142838E+02  0.00000000000E+00 0.  1.
         11    1    3    3    0    0 -0.14286295468E+01 -0.13631456524E+02  0.14819851584E+02  0.20186272330E+02  0.51100000000E-03 0. -1.
        -11    1    3    3    0    0 -0.46484067297E+00  0.14748031114E+01 -0.23831845620E+01  0.28408959830E+01  0.51100000000E-03 0.  1.
         12    1    3    3    0    0 -0.18914914761E+02 -0.19914646330E+02  0.14056139888E+01  0.27501688849E+02  0.00000000000E+00 0. -1.
</event>
<event>
 7    1  0.9868142E-013  0.5052886E+02  0.7816164E-02  0.1300439E+00
        -11   -1    0    0    0    0  0.00000000000E+00  0.00000000000E+00  0.45593999997E+02  0.45594000000E+02  0.51100000000E-03 0. -1.
         11   -1    0    0    0    0 -0.00000000000E+00 -0.00000000000E+00 -0.45593999997E+02  0.45594000000E+02  0.51100000000E-03 0.  1.
    9900012    2    1    2    0    0 -0.61719248061E+01  0.30058624022E+02  0.26674927251E+02  0.50528864769E+02  0.30000014952E+02 0.  0.
        -12    1    1    2    0    0  0.61719248061E+01 -0.30058624022E+02 -0.26674927251E+02  0.40659135231E+02  0.00000000000E+00 0.  1.
         11    1    3    3    0    0 -0.99920062686E+01  0.22882953457E+02  0.78864252959E+01  0.26185214385E+02  0.51100000000E-03 0. -1.
        -11    1    3    3    0    0  0.51156893009E+00 -0.10732073470E+01  0.14368478273E+02  0.14417581105E+02  0.51100000000E-03 0.  1.
         12    1    3    3    0    0  0.33085125324E+01  0.82488779117E+01  0.44200236822E+01  0.99260692789E+01  0.00000000000E+00 0. -1.
</event>
<event>
 7    1  0.9868142E-013  0.5052887E+02  0.7816164E-02  0.1300439E+00
        -11   -1    0    0    0    0  0.00000000000E+00  0.00000000000E+00  0.45593999997E+02  0.45594000000E+02  0.51100000000E-03 0.  1.
         11   -1    0    0    0    0 -0.00000000000E+00 -0.00000000000E+00 -0.45593999997E+02  0.45594000000E+02  0.51100000000E-03 0. -1.
    9900012    2    1    2    0    0  0.13598941744E+02  0.24955291857E+02 -0.29076921406E+02  0.50528866135E+02  0.30000019103E+02 0.  0.
        -12    1    1    2    0    0 -0.13598941744E+02 -0.24955291857E+02  0.29076921406E+02  0.40659133865E+02  0.00000000000E+00 0.  1.
         11    1    3    3    0    0  0.80309413878E+01  0.22896359734E+02 -0.11158364251E+02  0.26706710798E+02  0.51100000000E-03 0. -1.
        -11    1    3    3    0    0  0.82581556012E+01 -0.38837615623E+01 -0.95153031361E+01  0.13184146989E+02  0.51100000000E-03 0.  1.
        -12    1    3    3    0    0 -0.26901552455E+01  0.59426936856E+01 -0.84032540186E+01  0.10638008347E+02  0.00000000000E+00 0.  1.
</event>
<event>
 7    1  0.9868142E-013  0.5052885E+02  0.7816164E-02  0.1300439E+00
        -11   -1    0    0    0    0  0.00000000000E+00  0.00000000000E+00  0.45593999997E+02  0.45594000000E+02  0.51100000000E-03 0.  1.
         11   -1    0    0    0    0 -0.00000000000E+00 -0.00000000000E+00 -0.45593999997E+02  0.45594000000E+02  0.51100000000E-03 0. -1.
    9900012    2    1    2    0    0  0.27161454363E+02 -0.18393950935E+02 -0.24022584597E+02  0.50528848449E+02  0.29999965346E+02 0.  0.
        -12    1    1    2    0    0 -0.27161454363E+02  0.18393950935E+02  0.24022584597E+02  0.40659151551E+02  0.00000000000E+00 0.  1.
         11    1    3    3    0    0  0.25324323449E+02 -0.10956210036E+02 -0.20446152598E+02  0.34342467192E+02  0.51100000000E-03 0. -1.
        -11    1    3    3    0    0  0.30641302073E+01  0.76397848711E+00  0.39017641128E+01  0.50195936597E+01  0.51100000000E-03 0.  1.
         12    1    3    3    0    0 -0.12269992938E+01 -0.82017193864E+01 -0.74781961113E+01  0.11166787597E+02  0.00000000000E+00 0. -1.
</event>
<event>
 7    1  0.9868142E-013  0.5052893E+02  0.7816164E-02  0.1300439E+00
        -11   -1    0    0    0    0  0.00000000000E+00  0.00000000000E+00  0.45593999997E+02  0.45594000000E+02  0.51100000000E-03 0.  1.
         11   -1    0    0    0    0 -0.00000000000E+00 -0.00000000000E+00 -0.45593999997E+02  0.45594000000E+02  0.51100000000E-03 0. -1.
    9900012    2    1    2    0    0  0.99128842458E+00  0.14824665368E+02 -0.37847153210E+02  0.50528925218E+02  0.30000198693E+02 0.  0.
        -12    1    1    2    0    0 -0.99128842458E+00 -0.14824665368E+02  0.37847153210E+02  0.40659074782E+02  0.00000000000E+00 0.  1.
         11    1    3    3    0    0 -0.10511240495E+02  0.37600100298E+00 -0.18086849320E+02  0.20922754887E+02  0.51100000000E-03 0.  1.
        -11    1    3    3    0    0  0.10817534516E+02  0.10538781139E+02 -0.20605809189E+02  0.25547687439E+02  0.51100000000E-03 0. -1.
        -12    1    3    3    0    0  0.68499440313E+00  0.39098832265E+01  0.84550529899E+00  0.40584828924E+01  0.00000000000E+00 0.  1.
</event>
<event>
 7    1  0.9868142E-013  0.5052885E+02  0.7816164E-02  0.1300439E+00
        -11   -1    0    0    0    0  0.00000000000E+00  0.00000000000E+00  0.45593999997E+02  0.45594000000E+02  0.51100000000E-03 0.  1.
         11   -1    0    0    0    0 -0.00000000000E+00 -0.00000000000E+00 -0.45593999997E+02  0.45594000000E+02  0.51100000000E-03 0. -1.
    9900012    2    1    2    0    0 -0.38072022787E+02  0.54666050971E+01 -0.13183464346E+02  0.50528850691E+02  0.29999972160E+02 0.  0.
        -12    1    1    2    0    0  0.38072022787E+02 -0.54666050971E+01  0.13183464346E+02  0.40659149309E+02  0.00000000000E+00 0.  1.
         11    1    3    3    0    0 -0.24121694539E+02 -0.10697614464E+02 -0.96989134539E+01  0.28113413615E+02  0.51100000000E-03 0. -1.
        -11    1    3    3    0    0 -0.76878336660E+01  0.68422875063E+01 -0.43038566720E+01  0.11155396331E+02  0.51100000000E-03 0.  1.
         12    1    3    3    0    0 -0.62624945823E+01  0.93219320544E+01  0.81930577975E+00  0.11260040745E+02  0.00000000000E+00 0. -1.
</event>
<event>
 7    1  0.9868142E-013  0.5052886E+02  0.7816164E-02  0.1300439E+00
        -11   -1    0    0    0    0  0.00000000000E+00  0.00000000000E+00  0.45593999997E+02  0.45594000000E+02  0.51100000000E-03 0.  1.
         11   -1    0    0    0    0 -0.00000000000E+00 -0.00000000000E+00 -0.45593999997E+02  0.45594000000E+02  0.51100000000E-03 0. -1.
    9900012    2    1    2    0    0  0.31598265650E+02  0.50407222634E+01 -0.25085983211E+02  0.50528858018E+02  0.29999994431E+02 0.  0.
        -12    1    1    2    0    0 -0.31598265650E+02 -0.50407222634E+01  0.25085983211E+02  0.40659141982E+02  0.00000000000E+00 0.  1.
         11    1    3    3    0    0  0.46616476123E+01 -0.17596365138E+01 -0.15853385382E+02  0.16617975432E+02  0.51100000000E-03 0. -1.
        -11    1    3    3    0    0  0.26429687603E+02  0.10896402232E+01 -0.96623656421E+01  0.28161623048E+02  0.51100000000E-03 0.  1.
         12    1    3    3    0    0  0.50693043482E+00  0.57107185539E+01  0.42976781249E+00  0.57492595384E+01  0.00000000000E+00 0. -1.
</event>
<event>
 7    1  0.9868142E-013  0.5052885E+02  0.7816164E-02  0.1300439E+00
        -11   -1    0    0    0    0  0.00000000000E+00  0.00000000000E+00  0.45593999997E+02  0.45594000000E+02  0.51100000000E-03 0. -1.
         11   -1    0    0    0    0 -0.00000000000E+00 -0.00000000000E+00 -0.45593999997E+02  0.45594000000E+02  0.51100000000E-03 0.  1.
    9900012    2    1    2    0    0 -0.48339082982E+01  0.11175574084E+01  0.40355306548E+02  0.50528851330E+02  0.29999974102E+02 0.  0.
        -12    1    1    2    0    0  0.48339082982E+01 -0.11175574084E+01 -0.40355306548E+02  0.40659148670E+02  0.00000000000E+00 0.  1.
         11    1    3    3    0    0 -0.79430189056E+01  0.24068567702E+01  0.80912576817E+01  0.11591072426E+02  0.51100000000E-03 0.  1.
        -11    1    3    3    0    0  0.69092139500E+01 -0.72240075341E+00  0.34013799084E+02  0.34715956398E+02  0.51100000000E-03 0. -1.
        -12    1    3    3    0    0 -0.38001033426E+01 -0.56689860841E+00 -0.17497502178E+01  0.42218225059E+01  0.00000000000E+00 0.  1.
</event>
<event>
 7    1  0.9868142E-013  0.5052885E+02  0.7816164E-02  0.1300439E+00
        -11   -1    0    0    0    0  0.00000000000E+00  0.00000000000E+00  0.45593999997E+02  0.45594000000E+02  0.51100000000E-03 0.  1.
         11   -1    0    0    0    0 -0.00000000000E+00 -0.00000000000E+00 -0.45593999997E+02  0.45594000000E+02  0.51100000000E-03 0. -1.
    9900012    2    1    2    0    0 -0.19106042080E+02  0.31819833541E+01 -0.35749137708E+02  0.50528847170E+02  0.29999961457E+02 0.  0.
        -12    1    1    2    0    0  0.19106042080E+02 -0.31819833541E+01  0.35749137708E+02  0.40659152830E+02  0.00000000000E+00 0.  1.
         11    1    3    3    0    0 -0.72848101670E+01  0.12262954675E+02 -0.57658081752E+01  0.15384832164E+02  0.51100000000E-03 0. -1.
        -11    1    3    3    0    0 -0.33665273701E+01 -0.61789263992E+01 -0.50622159885E+01  0.86682563965E+01  0.51100000000E-03 0.  1.
         12    1    3    3    0    0 -0.84547045432E+01 -0.29020449221E+01 -0.24921113544E+02  0.26475758609E+02  0.00000000000E+00 0. -1.
</event>
<event>
 7    1  0.9868142E-013  0.5052884E+02  0.7816164E-02  0.1300439E+00
        -11   -1    0    0    0    0  0.00000000000E+00  0.00000000000E+00  0.45593999997E+02  0.45594000000E+02  0.51100000000E-03 0. -1.
         11   -1    0    0    0    0 -0.00000000000E+00 -0.00000000000E+00 -0.45593999997E+02  0.45594000000E+02  0.51100000000E-03 0.  1.
    9900012    2    1    2    0    0 -0.17742490627E+02 -0.23397916333E+02  0.28123103002E+02  0.50528838857E+02  0.29999936190E+02 0.  0.
        -12    1    1    2    0    0  0.17742490627E+02  0.23397916333E+02 -0.28123103002E+02  0.40659161143E+02  0.00000000000E+00 0.  1.
         11    1    3    3    0    0 -0.82894215112E+01 -0.18725479809E+02  0.32658945781E+02  0.38548214522E+02  0.51100000000E-03 0. -1.
        -11    1    3    3    0    0 -0.85704403413E+01 -0.44487860745E+01 -0.28558580724E+01  0.10069760214E+02  0.51100000000E-03 0.  1.
        -12    1    3    3    0    0 -0.88262877455E+00 -0.22365044965E+00 -0.16799847060E+01  0.19108641212E+01  0.00000000000E+00 0.  1.
</event>
<event>
 7    1  0.9868142E-013  0.5052879E+02  0.7816164E-02  0.1300439E+00
        -11   -1    0    0    0    0  0.00000000000E+00  0.00000000000E+00  0.45593999997E+02  0.45594000000E+02  0.51100000000E-03 0.  1.
         11   -1    0    0    0    0 -0.00000000000E+00 -0.00000000000E+00 -0.45593999997E+02  0.45594000000E+02  0.51100000000E-03 0. -1.
    9900012    2    1    2    0    0  0.15473535158E+02  0.12156092307E+02 -0.35580475518E+02  0.50528793066E+02  0.29999797001E+02 0.  0.
        -12    1    1    2    0    0 -0.15473535158E+02 -0.12156092307E+02  0.35580475518E+02  0.40659206934E+02  0.00000000000E+00 0.  1.
         11    1    3    3    0    0  0.16152965293E+02 -0.49380080208E+01 -0.21147544704E+02  0.27065122543E+02  0.51100000000E-03 0. -1.
        -11    1    3    3    0    0 -0.82886300143E+00  0.65044465702E+01 -0.14616008798E+01  0.67179696674E+01  0.51100000000E-03 0.  1.
         12    1    3    3    0    0  0.14943286648E+00  0.10589653758E+02 -0.12971329934E+02  0.16745700856E+02  0.00000000000E+00 0. -1.
</event>
<event>
 7    1  0.9868142E-013  0.5052888E+02  0.7816164E-02  0.1300439E+00
        -11   -1    0    0    0    0  0.00000000000E+00  0.00000000000E+00  0.45593999997E+02  0.45594000000E+02  0.51100000000E-03 0. -1.
         11   -1    0    0    0    0 -0.00000000000E+00 -0.00000000000E+00 -0.45593999997E+02  0.45594000000E+02  0.51100000000E-03 0.  1.
    9900012    2    1    2    0    0 -0.36851435232E+02  0.15707219457E+01  0.17107568510E+02  0.50528876222E+02  0.30000049763E+02 0.  0.
        -12    1    1    2    0    0  0.36851435232E+02 -0.15707219457E+01 -0.17107568510E+02  0.40659123778E+02  0.00000000000E+00 0.  1.
         11    1    3    3    0    0 -0.11843255920E+02 -0.70401609269E+01 -0.16642005420E+01  0.13877901152E+02  0.51100000000E-03 0. -1.
        -11    1    3    3    0    0 -0.21908879162E+02  0.12765077655E+02  0.11810206376E+02  0.27971899624E+02  0.51100000000E-03 0.  1.
         12    1    3    3    0    0 -0.30993001498E+01 -0.41541947820E+01  0.69615626757E+01  0.86790754457E+01  0.00000000000E+00 0. -1.
</event>
<event>
 7    1  0.9868142E-013  0.5052886E+02  0.7816164E-02  0.1300439E+00
        -11   -1    0    0    0    0  0.00000000000E+00  0.00000000000E+00  0.45593999997E+02  0.45594000000E+02  0.51100000000E-03 0. -1.
         11   -1    0    0    0    0 -0.00000000000E+00 -0.00000000000E+00 -0.45593999997E+02  0.45594000000E+02  0.51100000000E-03 0.  1.
    9900012    2    1    2    0    0 -0.18038617163E+02 -0.36394700083E+02 -0.17887843645E+01  0.50528860156E+02  0.30000000931E+02 0.  0.
        -12    1    1    2    0    0  0.18038617163E+02  0.36394700083E+02  0.17887843645E+01  0.40659139844E+02  0.00000000000E+00 0.  1.
         11    1    3    3    0    0 -0.14122600242E+02 -0.16531888655E+02  0.29464390365E+01  0.21941574313E+02  0.51100000000E-03 0. -1.
        -11    1    3    3    0    0  0.73750410597E+01 -0.12519605101E+02 -0.78709987355E+00  0.14551675814E+02  0.51100000000E-03 0.  1.
         12    1    3    3    0    0 -0.11291057981E+02 -0.73432063270E+01 -0.39481235274E+01  0.14035610029E+02  0.00000000000E+00 0. -1.
</event>
<event>
 7    1  0.9868142E-013  0.5052886E+02  0.7816164E-02  0.1300439E+00
        -11   -1    0    0    0    0  0.00000000000E+00  0.00000000000E+00  0.45593999997E+02  0.45594000000E+02  0.51100000000E-03 0. -1.
         11   -1    0    0    0    0 -0.00000000000E+00 -0.00000000000E+00 -0.45593999997E+02  0.45594000000E+02  0.51100000000E-03 0.  1.
    9900012    2    1    2    0    0  0.29262789967E+02 -0.28003406627E+02 -0.35586179582E+01  0.50528863006E+02  0.30000009592E+02 0.  0.
        -12    1    1    2    0    0 -0.29262789967E+02  0.28003406627E+02  0.35586179582E+01  0.40659136994E+02  0.00000000000E+00 0.  1.
         11    1    3    3    0    0  0.25238576772E+02 -0.26992055142E+02  0.23381947758E+01  0.37027340619E+02  0.51100000000E-03 0. -1.
        -11    1    3    3    0    0  0.68628859640E+01  0.12125986046E+01 -0.46894831175E+00  0.69849489555E+01  0.51100000000E-03 0.  1.
         12    1    3    3    0    0 -0.28386727695E+01 -0.22239500900E+01 -0.54278644222E+01  0.65165734309E+01  0.00000000000E+00 0. -1.
</event>
<event>
 7    1  0.9868142E-013  0.5052885E+02  0.7816164E-02  0.1300439E+00
        -11   -1    0    0    0    0  0.00000000000E+00  0.00000000000E+00  0.45593999997E+02  0.45594000000E+02  0.51100000000E-03 0.  1.
         11   -1    0    0    0    0 -0.00000000000E+00 -0.00000000000E+00 -0.45593999997E+02  0.45594000000E+02  0.51100000000E-03 0. -1.
    9900012    2    1    2    0    0 -0.23937117852E+02  0.32717837287E+02  0.31182835538E+01  0.50528853671E+02  0.29999981220E+02 0.  0.
        -12    1    1    2    0    0  0.23937117852E+02 -0.32717837287E+02 -0.31182835538E+01  0.40659146329E+02  0.00000000000E+00 0.  1.
         11    1    3    3    0    0 -0.18584395659E+02  0.15663851051E+02 -0.50228706765E+01  0.24818646656E+02  0.51100000000E-03 0. -1.
        -11    1    3    3    0    0  0.90236131706E+00  0.12462382001E+01  0.85674761135E+01  0.87045397819E+01  0.51100000000E-03 0.  1.
         12    1    3    3    0    0 -0.62550835108E+01  0.15807748037E+02 -0.42632188317E+00  0.17005667234E+02  0.00000000000E+00 0. -1.
</event>
<event>
 7    1  0.9868142E-013  0.5052886E+02  0.7816164E-02  0.1300439E+00
        -11   -1    0    0    0    0  0.00000000000E+00  0.00000000000E+00  0.45593999997E+02  0.45594000000E+02  0.51100000000E-03 0. -1.
         11   -1    0    0    0    0 -0.00000000000E+00 -0.00000000000E+00 -0.45593999997E+02  0.45594000000E+02  0.51100000000E-03 0.  1.
    9900012    2    1    2    0    0  0.10048012012E+02 -0.24572829802E+02  0.30795760208E+02  0.50528863798E+02  0.30000012001E+02 0.  0.
        -12    1    1    2    0    0 -0.10048012012E+02  0.24572829802E+02 -0.30795760208E+02  0.40659136202E+02  0.00000000000E+00 0.  1.
         11    1    3    3    0    0  0.64019956410E+01 -0.21283716682E+02  0.95914663253E+01  0.24206990116E+02  0.51100000000E-03 0. -1.
        -11    1    3    3    0    0  0.42688093482E+01  0.49907860430E+01  0.13417811700E+02  0.14938820223E+02  0.51100000000E-03 0.  1.
         12    1    3    3    0    0 -0.62279297713E+00 -0.82798991636E+01  0.77864821828E+01  0.11383053458E+02  0.00000000000E+00 0. -1.
</event>
<event>
 7    1  0.9868142E-013  0.5052886E+02  0.7816164E-02  0.1300439E+00
        -11   -1    0    0    0    0  0.00000000000E+00  0.00000000000E+00  0.45593999997E+02  0.45594000000E+02  0.51100000000E-03 0.  1.
         11   -1    0    0    0    0 -0.00000000000E+00 -0.00000000000E+00 -0.45593999997E+02  0.45594000000E+02  0.51100000000E-03 0. -1.
    9900012    2    1    2    0    0 -0.27052423643E+01  0.23233426178E+02 -0.33257409470E+02  0.50528859418E+02  0.29999998687E+02 0.  0.
        -12    1    1    2    0    0  0.27052423643E+01 -0.23233426178E+02  0.33257409470E+02  0.40659140582E+02  0.00000000000E+00 0.  1.
         11    1    3    3    0    0  0.97260297699E+01  0.12530992340E+02 -0.25421456013E+02  0.29964509844E+02  0.51100000000E-03 0. -1.
        -11    1    3    3    0    0 -0.71292550991E+01  0.74435393398E+01  0.31183146332E+00  0.10311633978E+02  0.51100000000E-03 0.  1.
         12    1    3    3    0    0 -0.53020170350E+01  0.32588944991E+01 -0.81477849200E+01  0.10252715596E+02  0.00000000000E+00 0. -1.
</event>
<event>
 7    1  0.9868142E-013  0.5052888E+02  0.7816164E-02  0.1300439E+00
        -11   -1    0    0    0    0  0.00000000000E+00  0.00000000000E+00  0.45593999997E+02  0.45594000000E+02  0.51100000000E-03 0.  1.
         11   -1    0    0    0    0 -0.00000000000E+00 -0.00000000000E+00 -0.45593999997E+02  0.45594000000E+02  0.51100000000E-03 0. -1.
    9900012    2    1    2    0    0 -0.90452352444E+01  0.26602233844E+01 -0.39550862374E+02  0.50528883143E+02  0.30000070801E+02 0.  0.
        -12    1    1    2    0    0  0.90452352444E+01 -0.26602233844E+01  0.39550862374E+02  0.40659116857E+02  0.00000000000E+00 0.  1.
         11    1    3    3    0    0 -0.12582477431E+02 -0.26609116771E+01 -0.36800825215E+02  0.38983328821E+02  0.51100000000E-03 0. -1.
        -11    1    3    3    0    0  0.55666631741E+01  0.32678303489E+01  0.12874510597E+01  0.65820957586E+01  0.51100000000E-03 0.  1.
        -12    1    3    3    0    0 -0.20294209879E+01  0.20533047126E+01 -0.40374882190E+01  0.49634585631E+01  0.00000000000E+00 0.  1.
</event>
<event>
 7    1  0.9868142E-013  0.5052886E+02  0.7816164E-02  0.1300439E+00
        -11   -1    0    0    0    0  0.00000000000E+00  0.00000000000E+00  0.45593999997E+02  0.45594000000E+02  0.51100000000E-03 0.  1.
         11   -1    0    0    0    0 -0.00000000000E+00 -0.00000000000E+00 -0.45593999997E+02  0.45594000000E+02  0.51100000000E-03 0. -1.
    9900012    2    1    2    0    0 -0.22663857585E+02  0.15288412997E+02 -0.30096175433E+02  0.50528858490E+02  0.29999995866E+02 0.  0.
        -12    1    1    2    0    0  0.22663857585E+02 -0.15288412997E+02  0.30096175433E+02  0.40659141510E+02  0.00000000000E+00 0.  1.
         11    1    3    3    0    0 -0.15092159240E+02  0.83765615873E+01 -0.51202559256E+00  0.17268532799E+02  0.51100000000E-03 0. -1.
        -11    1    3    3    0    0 -0.83234590055E+01  0.68096735262E+00 -0.21213497872E+02  0.22798161736E+02  0.51100000000E-03 0.  1.
        -12    1    3    3    0    0  0.75176066066E+00  0.62308840572E+01 -0.83706519693E+01  0.10462163955E+02  0.00000000000E+00 0.  1.
</event>
<event>
 7    1  0.9868142E-013  0.5052886E+02  0.7816164E-02  0.1300439E+00
        -11   -1    0    0    0    0  0.00000000000E+00  0.00000000000E+00  0.45593999997E+02  0.45594000000E+02  0.51100000000E-03 0.  1.
         11   -1    0    0    0    0 -0.00000000000E+00 -0.00000000000E+00 -0.45593999997E+02  0.45594000000E+02  0.51100000000E-03 0. -1.
    9900012    2    1    2    0    0 -0.28586704226E+02  0.28000428084E+02 -0.72070809121E+01  0.50528860232E+02  0.30000001161E+02 0.  0.
        -12    1    1    2    0    0  0.28586704226E+02 -0.28000428084E+02  0.72070809121E+01  0.40659139768E+02  0.00000000000E+00 0.  1.
         11    1    3    3    0    0 -0.95916878456E+00  0.17555504349E+02 -0.78962539168E+01  0.19273467874E+02  0.51100000000E-03 0. -1.
        -11    1    3    3    0    0 -0.13623037587E+02  0.76910787467E+01  0.48670953979E+01  0.16383786597E+02  0.51100000000E-03 0.  1.
         12    1    3    3    0    0 -0.14004497855E+02  0.27538449879E+01 -0.41779223933E+01  0.14871605761E+02  0.00000000000E+00 0. -1.
</event>
<event>
 7    1  0.9868142E-013  0.5052879E+02  0.7816164E-02  0.1300439E+00
        -11   -1    0    0    0    0  0.00000000000E+00  0.00000000000E+00  0.45593999997E+02  0.45594000000E+02  0.51100000000E-03 0.  1.
         11   -1    0    0    0    0 -0.00000000000E+00 -0.00000000000E+00 -0.45593999997E+02  0.45594000000E+02  0.51100000000E-03 0. -1.
    9900012    2    1    2    0    0  0.39160038836E+02 -0.10733597178E+02  0.21100558464E+01  0.50528793347E+02  0.29999797857E+02 0.  0.
        -12    1    1    2    0    0 -0.39160038836E+02  0.10733597178E+02 -0.21100558464E+01  0.40659206653E+02  0.00000000000E+00 0.  1.
         11    1    3    3    0    0  0.36939858678E+01 -0.49971070252E+01 -0.44174221707E+01  0.76243182717E+01  0.51100000000E-03 0. -1.
        -11    1    3    3    0    0  0.15118882694E+02  0.87122240407E+01  0.26289333195E+01  0.17646380714E+02  0.51100000000E-03 0.  1.
        -12    1    3    3    0    0  0.20347170273E+02 -0.14448714194E+02  0.38985446976E+01  0.25258094361E+02  0.00000000000E+00 0.  1.
</event>
<event>
 7    1  0.9868142E-013  0.5052886E+02  0.7816164E-02  0.1300439E+00
        -11   -1    0    0    0    0  0.00000000000E+00  0.00000000000E+00  0.45593999997E+02  0.45594000000E+02  0.51100000000E-03 0. -1.
         11   -1    0    0    0    0 -0.00000000000E+00 -0.00000000000E+00 -0.45593999997E+02  0.45594000000E+02  0.51100000000E-03 0.  1.
    9900012    2    1    2    0    0 -0.10065217199E+02  0.24934675053E+02  0.30497859200E+02  0.50528855480E+02  0.29999986718E+02 0.  0.
        -12    1    1    2    0    0  0.10065217199E+02 -0.24934675053E+02 -0.30497859200E+02  0.40659144520E+02  0.00000000000E+00 0.  1.
         11    1    3    3    0    0 -0.92306054220E+01  0.20824608590E+02  0.11155240507E+02  0.25363512974E+02  0.51100000000E-03 0. -1.
        -11    1    3    3    0    0 -0.63722373358E+01 -0.85308540357E+00  0.27692504873E+01  0.70001365624E+01  0.51100000000E-03 0.  1.
         12    1    3    3    0    0  0.55376255585E+01  0.49631518668E+01  0.16573368206E+02  0.18165205944E+02  0.00000000000E+00 0. -1.
</event>
<event>
 7    1  0.9868142E-013  0.5052886E+02  0.7816164E-02  0.1300439E+00
        -11   -1    0    0    0    0  0.00000000000E+00  0.00000000000E+00  0.45593999997E+02  0.45594000000E+02  0.51100000000E-03 0. -1.
         11   -1    0    0    0    0 -0.00000000000E+00 -0.00000000000E+00 -0.45593999997E+02  0.45594000000E+02  0.51100000000E-03 0.  1.
    9900012    2    1    2    0    0 -0.18392657847E+01  0.35120603108E+02  0.20404064505E+02  0.50528861918E+02  0.30000006285E+02 0.  0.
        -12    1    1    2    0    0  0.18392657847E+01 -0.35120603108E+02 -0.20404064505E+02  0.40659138082E+02  0.00000000000E+00 0.  1.
         11    1    3    3    0    0  0.19419943754E+01  0.23403566651E+02  0.20229117066E+02  0.30995410171E+02  0.51100000000E-03 0. -1.
        -11    1    3    3    0    0 -0.70497898642E+01  0.13909339779E+02  0.27961767927E+00  0.15596392420E+02  0.51100000000E-03 0.  1.
         12    1    3    3    0    0  0.32685297041E+01 -0.21923033223E+01 -0.10467024001E+00  0.39370593268E+01  0.00000000000E+00 0. -1.
</event>
<event>
 7    1  0.9868142E-013  0.5052886E+02  0.7816164E-02  0.1300439E+00
        -11   -1    0    0    0    0  0.00000000000E+00  0.00000000000E+00  0.45593999997E+02  0.45594000000E+02  0.51100000000E-03 0.  1.
         11   -1    0    0    0    0 -0.00000000000E+00 -0.00000000000E+00 -0.45593999997E+02  0.45594000000E+02  0.51100000000E-03 0. -1.
    9900012    2    1    2    0    0  0.37231603771E+02 -0.88191732518E+01 -0.13754844127E+02  0.50528857447E+02  0.29999992695E+02 0.  0.
        -12    1    1    2    0    0 -0.37231603771E+02  0.88191732518E+01  0.13754844127E+02  0.40659142553E+02  0.00000000000E+00 0.  1.
         11    1    3    3    0    0  0.39537024144E+01  0.50924976528E+00  0.38569361443E+01  0.55468058184E+01  0.51100000000E-03 0.  1.
        -11    1    3    3    0    0  0.34245054994E+02 -0.30557849224E+01 -0.11724765226E+02  0.36325359363E+02  0.51100000000E-03 0. -1.
        -12    1    3    3    0    0 -0.96715363700E+00 -0.62726380947E+01 -0.58870150457E+01  0.86566922651E+01  0.00000000000E+00 0.  1.
</event>
<event>
 7    1  0.9868142E-013  0.5052886E+02  0.7816164E-02  0.1300439E+00
        -11   -1    0    0    0    0  0.00000000000E+00  0.00000000000E+00  0.45593999997E+02  0.45594000000E+02  0.51100000000E-03 0.  1.
         11   -1    0    0    0    0 -0.00000000000E+00 -0.00000000000E+00 -0.45593999997E+02  0.45594000000E+02  0.51100000000E-03 0. -1.
    9900012    2    1    2    0    0 -0.13889721436E+02  0.15804422554E+02 -0.34791693512E+02  0.50528855011E+02  0.29999985292E+02 0.  0.
        -12    1    1    2    0    0  0.13889721436E+02 -0.15804422554E+02  0.34791693512E+02  0.40659144989E+02  0.00000000000E+00 0.  1.
         11    1    3    3    0    0  0.56296301797E+01  0.12550020936E+02 -0.23274080136E+02  0.27034765911E+02  0.51100000000E-03 0. -1.
        -11    1    3    3    0    0 -0.64197602248E+01 -0.13137181742E+01 -0.29300639286E+01  0.71780534738E+01  0.51100000000E-03 0.  1.
         12    1    3    3    0    0 -0.13099591391E+02  0.45681197921E+01 -0.85875494475E+01  0.16316035626E+02  0.00000000000E+00 0. -1.
</event>
<event>
 7    1  0.9868142E-013  0.5052886E+02  0.7816164E-02  0.1300439E+00
        -11   -1    0    0    0    0  0.00000000000E+00  0.00000000000E+00  0.45593999997E+02  0.45594000000E+02  0.51100000000E-03 0. -1.
         11   -1    0    0    0    0 -0.00000000000E+00 -0.00000000000E+00 -0.45593999997E+02  0.45594000000E+02  0.51100000000E-03 0.  1.
    9900012    2    1    2    0    0  0.26587268841E+02  0.10815104622E+02  0.28797850701E+02  0.50528861330E+02  0.30000004498E+02 0.  0.
        -12    1    1    2    0    0 -0.26587268841E+02 -0.10815104622E+02 -0.28797850701E+02  0.40659138670E+02  0.00000000000E+00 0.  1.
         11    1    3    3    0    0 -0.17809795783E+00 -0.49982720574E+00  0.23078053953E+01  0.23680186067E+01  0.51100000000E-03 0. -1.
        -11    1    3    3    0    0  0.69474436748E+01 -0.87449699262E+01  0.12227823624E+02  0.16560831606E+02  0.51100000000E-03 0.  1.
        -12    1    3    3    0    0  0.19817923124E+02  0.20059901754E+02  0.14262221681E+02  0.31600011117E+02  0.00000000000E+00 0.  1.
</event>
<event>
 7    1  0.9868142E-013  0.5052885E+02  0.7816164E-02  0.1300439E+00
        -11   -1    0    0    0    0  0.00000000000E+00  0.00000000000E+00  0.45593999997E+02  0.45594000000E+02  0.51100000000E-03 0.  1.
         11   -1    0    0    0    0 -0.00000000000E+00 -0.00000000000E+00 -0.45593999997E+02  0.45594000000E+02  0.51100000000E-03 0. -1.
    9900012    2    1    2    0    0  0.17632317900E+02 -0.19073651121E+02 -0.31280400371E+02  0.50528852825E+02  0.29999978647E+02 0.  0.
        -12    1    1    2    0    0 -0.17632317900E+02  0.19073651121E+02  0.31280400371E+02  0.40659147175E+02  0.00000000000E+00 0.  1.
         11    1    3    3    0    0  0.30252844447E+01 -0.14433460889E+02 -0.11637988112E+02  0.18786162640E+02  0.51100000000E-03 0. -1.
        -11    1    3    3    0    0 -0.31812332526E+00  0.60880548161E+01 -0.77072173765E+01  0.98268414989E+01  0.51100000000E-03 0.  1.
        -12    1    3    3    0    0  0.14925156780E+02 -0.10728245048E+02 -0.11935194883E+02  0.21915848686E+02  0.00000000000E+00 0.  1.
</event>
<event>
 7    1  0.9868142E-013  0.5052887E+02  0.7816164E-02  0.1300439E+00
        -11   -1    0    0    0    0  0.00000000000E+00  0.00000000000E+00  0.45593999997E+02  0.45594000000E+02  0.51100000000E-03 0.  1.
         11   -1    0    0    0    0 -0.00000000000E+00 -0.00000000000E+00 -0.45593999997E+02  0.45594000000E+02  0.51100000000E-03 0. -1.
    9900012    2    1    2    0    0 -0.27033390394E+00 -0.23590692741E+02 -0.33114517844E+02  0.50528866260E+02  0.30000019484E+02 0.  0.
        -12    1    1    2    0    0  0.27033390394E+00  0.23590692741E+02  0.33114517844E+02  0.40659133740E+02  0.00000000000E+00 0.  1.
         11    1    3    3    0    0  0.81585853645E+01 -0.84578902949E+01 -0.17283151259E+02  0.20899898112E+02  0.51100000000E-03 0. -1.
        -11    1    3    3    0    0 -0.77634226641E+01  0.17181057587E+01 -0.69945681954E+01  0.10589929337E+02  0.51100000000E-03 0.  1.
        -12    1    3    3    0    0 -0.66549660428E+00 -0.16850908205E+02 -0.88367983902E+01  0.19039038811E+02  0.00000000000E+00 0.  1.
</event>
<event>
 7    1  0.9868142E-013  0.5052884E+02  0.7816164E-02  0.1300439E+00
        -11   -1    0    0    0    0  0.00000000000E+00  0.00000000000E+00  0.45593999997E+02  0.45594000000E+02  0.51100000000E-03 0. -1.
         11   -1    0    0    0    0 -0.00000000000E+00 -0.00000000000E+00 -0.45593999997E+02  0.45594000000E+02  0.51100000000E-03 0.  1.
    9900012    2    1    2    0    0  0.14877944481E+02  0.27620242534E+02  0.25863804925E+02  0.50528838242E+02  0.29999934321E+02 0.  0.
        -12    1    1    2    0    0 -0.14877944481E+02 -0.27620242534E+02 -0.25863804925E+02  0.40659161758E+02  0.00000000000E+00 0.  1.
         11    1    3    3    0    0 -0.79925528009E+01  0.54779400567E+01  0.91222025644E+01  0.13308016660E+02  0.51100000000E-03 0. -1.
        -11    1    3    3    0    0  0.17865639868E+02  0.16911261245E+02  0.79951783953E+01  0.25866865342E+02  0.51100000000E-03 0.  1.
        -12    1    3    3    0    0  0.50048574135E+01  0.52310412331E+01  0.87464239658E+01  0.11353956240E+02  0.00000000000E+00 0.  1.
</event>
<event>
 7    1  0.9868142E-013  0.5052890E+02  0.7816164E-02  0.1300439E+00
        -11   -1    0    0    0    0  0.00000000000E+00  0.00000000000E+00  0.45593999997E+02  0.45594000000E+02  0.51100000000E-03 0.  1.
         11   -1    0    0    0    0 -0.00000000000E+00 -0.00000000000E+00 -0.45593999997E+02  0.45594000000E+02  0.51100000000E-03 0. -1.
    9900012    2    1    2    0    0 -0.68666284776E+01 -0.24249006094E+02 -0.31906079421E+02  0.50528895396E+02  0.30000108047E+02 0.  0.
        -12    1    1    2    0    0  0.68666284776E+01  0.24249006094E+02  0.31906079421E+02  0.40659104604E+02  0.00000000000E+00 0.  1.
         11    1    3    3    0    0 -0.66154245868E+01 -0.20715270589E+02 -0.31540687081E+02  0.38310588873E+02  0.51100000000E-03 0. -1.
        -11    1    3    3    0    0 -0.86292255533E+00 -0.49510512251E-01  0.53920720742E+01  0.54609090948E+01  0.51100000000E-03 0.  1.
        -12    1    3    3    0    0  0.61171866457E+00 -0.34842249927E+01 -0.57574644138E+01  0.67573974280E+01  0.00000000000E+00 0.  1.
</event>
<event>
 7    1  0.9868142E-013  0.5052886E+02  0.7816164E-02  0.1300439E+00
        -11   -1    0    0    0    0  0.00000000000E+00  0.00000000000E+00  0.45593999997E+02  0.45594000000E+02  0.51100000000E-03 0.  1.
         11   -1    0    0    0    0 -0.00000000000E+00 -0.00000000000E+00 -0.45593999997E+02  0.45594000000E+02  0.51100000000E-03 0. -1.
    9900012    2    1    2    0    0 -0.37257546022E+02 -0.15743070742E+02 -0.41468595850E+01  0.50528862572E+02  0.30000008273E+02 0.  0.
        -12    1    1    2    0    0  0.37257546022E+02  0.15743070742E+02  0.41468595850E+01  0.40659137428E+02  0.00000000000E+00 0.  1.
         11    1    3    3    0    0  0.18779934821E+01 -0.70915644579E+01 -0.17198472502E+01  0.75349200927E+01  0.51100000000E-03 0. -1.
        -11    1    3    3    0    0 -0.27687462647E+02  0.12483101379E+01 -0.27822366265E+01  0.27854886590E+02  0.51100000000E-03 0.  1.
        -12    1    3    3    0    0 -0.11448076857E+02 -0.98998164220E+01  0.35522429162E+00  0.15139055889E+02  0.00000000000E+00 0.  1.
</event>
<event>
 7    1  0.9868142E-013  0.5052886E+02  0.7816164E-02  0.1300439E+00
        -11   -1    0    0    0    0  0.00000000000E+00  0.00000000000E+00  0.45593999997E+02  0.45594000000E+02  0.51100000000E-03 0. -1.
         11   -1    0    0    0    0 -0.00000000000E+00 -0.00000000000E+00 -0.45593999997E+02  0.45594000000E+02  0.51100000000E-03 0.  1.
    9900012    2    1    2    0    0 -0.21621843929E+02 -0.11508828330E+02  0.32453169840E+02  0.50528862072E+02  0.30000006753E+02 0.  0.
        -12    1    1    2    0    0  0.21621843929E+02  0.11508828330E+02 -0.32453169840E+02  0.40659137928E+02  0.00000000000E+00 0.  1.
         11    1    3    3    0    0 -0.10709092799E+02  0.11301953034E+00  0.27496751601E+02  0.29508791755E+02  0.51100000000E-03 0. -1.
        -11    1    3    3    0    0 -0.76982265856E+01 -0.14164759270E+02  0.51289324250E+01  0.16917713966E+02  0.51100000000E-03 0.  1.
         12    1    3    3    0    0 -0.32145245447E+01  0.25429114099E+01 -0.17251418587E+00  0.41023563511E+01  0.00000000000E+00 0. -1.
</event>
<event>
 7    1  0.1062359E-012  0.5052886E+02  0.7816164E-02  0.1300439E+00
        -11   -1    0    0    0    0  0.00000000000E+00  0.00000000000E+00  0.45593999997E+02  0.45594000000E+02  0.51100000000E-03 0. -1.
         11   -1    0    0    0    0 -0.00000000000E+00 -0.00000000000E+00 -0.45593999997E+02  0.45594000000E+02  0.51100000000E-03 0.  1.
    9900012    2    1    2    0    0  0.39348526907E+02  0.10217032744E+02  0.68676464328E+00  0.50528856213E+02  0.29999988945E+02 0.  0.
        -12    1    1    2    0    0 -0.39348526907E+02 -0.10217032744E+02 -0.68676464328E+00  0.40659143787E+02  0.00000000000E+00 0.  1.
         11    1    3    3    0    0  0.22883060029E+02 -0.41329077587E+01  0.24657390404E+01  0.23383653096E+02  0.51100000000E-03 0. -1.
        -11    1    3    3    0    0  0.47517787448E+01  0.11567488386E+02  0.48360754794E+01  0.13407975802E+02  0.51100000000E-03 0.  1.
        -12    1    3    3    0    0  0.11713688133E+02  0.27824521165E+01 -0.66150498765E+01  0.13737227316E+02  0.00000000000E+00 0.  1.
</event>
<event>
 7    1  0.9868142E-013  0.5052885E+02  0.7816164E-02  0.1300439E+00
        -11   -1    0    0    0    0  0.00000000000E+00  0.00000000000E+00  0.45593999997E+02  0.45594000000E+02  0.51100000000E-03 0.  1.
         11   -1    0    0    0    0 -0.00000000000E+00 -0.00000000000E+00 -0.45593999997E+02  0.45594000000E+02  0.51100000000E-03 0. -1.
    9900012    2    1    2    0    0 -0.37947632908E+02 -0.16225933457E+01 -0.14508989399E+02  0.50528850650E+02  0.29999972034E+02 0.  0.
        -12    1    1    2    0    0  0.37947632908E+02  0.16225933457E+01  0.14508989399E+02  0.40659149350E+02  0.00000000000E+00 0.  1.
         11    1    3    3    0    0 -0.36022352152E+01 -0.86718014850E+01 -0.96310309059E+01  0.13451133637E+02  0.51100000000E-03 0. -1.
        -11    1    3    3    0    0 -0.85705487772E+01  0.68331724967E+01 -0.91744879472E+00  0.10999466590E+02  0.51100000000E-03 0.  1.
         12    1    3    3    0    0 -0.25774848916E+02  0.21603564257E+00 -0.39605096987E+01  0.26078250423E+02  0.00000000000E+00 0. -1.
</event>
<event>
 7    1  0.9868142E-013  0.5052885E+02  0.7816164E-02  0.1300439E+00
        -11   -1    0    0    0    0  0.00000000000E+00  0.00000000000E+00  0.45593999997E+02  0.45594000000E+02  0.51100000000E-03 0.  1.
         11   -1    0    0    0    0 -0.00000000000E+00 -0.00000000000E+00 -0.45593999997E+02  0.45594000000E+02  0.51100000000E-03 0. -1.
    9900012    2    1    2    0    0 -0.16163870389E+02 -0.15296647461E+02 -0.34028051071E+02  0.50528851101E+02  0.29999973407E+02 0.  0.
        -12    1    1    2    0    0  0.16163870389E+02  0.15296647461E+02  0.34028051071E+02  0.40659148899E+02  0.00000000000E+00 0.  1.
         11    1    3    3    0    0 -0.13304657854E+02 -0.76356934482E+01 -0.18238206147E+02  0.23831699452E+02  0.51100000000E-03 0. -1.
        -11    1    3    3    0    0  0.17951286087E+01 -0.65802241168E+01  0.28960211982E+01  0.74100455593E+01  0.51100000000E-03 0.  1.
        -12    1    3    3    0    0 -0.46543411441E+01 -0.10807298957E+01 -0.18685866122E+02  0.19287106090E+02  0.00000000000E+00 0.  1.
</event>
<event>
 7    1  0.9868142E-013  0.5052887E+02  0.7816164E-02  0.1300439E+00
        -11   -1    0    0    0    0  0.00000000000E+00  0.00000000000E+00  0.45593999997E+02  0.45594000000E+02  0.51100000000E-03 0. -1.
         11   -1    0    0    0    0 -0.00000000000E+00 -0.00000000000E+00 -0.45593999997E+02  0.45594000000E+02  0.51100000000E-03 0.  1.
    9900012    2    1    2    0    0 -0.21050869938E+02  0.28241226519E+02  0.20309082958E+02  0.50528870016E+02  0.30000030901E+02 0.  0.
        -12    1    1    2    0    0  0.21050869938E+02 -0.28241226519E+02 -0.20309082958E+02  0.40659129984E+02  0.00000000000E+00 0.  1.
         11    1    3    3    0    0 -0.19280426988E+02  0.30843573304E+02  0.23930590931E+02  0.43540028268E+02  0.51100000000E-03 0. -1.
        -11    1    3    3    0    0 -0.18653428719E+01 -0.40055252789E+01 -0.20228005559E+01  0.48595739669E+01  0.51100000000E-03 0.  1.
         12    1    3    3    0    0  0.94899922307E-01  0.14031784937E+01 -0.15987074166E+01  0.21292677813E+01  0.00000000000E+00 0. -1.
</event>
<event>
 7    1  0.9868142E-013  0.5052887E+02  0.7816164E-02  0.1300439E+00
        -11   -1    0    0    0    0  0.00000000000E+00  0.00000000000E+00  0.45593999997E+02  0.45594000000E+02  0.51100000000E-03 0.  1.
         11   -1    0    0    0    0 -0.00000000000E+00 -0.00000000000E+00 -0.45593999997E+02  0.45594000000E+02  0.51100000000E-03 0. -1.
    9900012    2    1    2    0    0  0.31042132221E+02 -0.25025315110E+02 -0.79551719039E+01  0.50528866595E+02  0.30000020503E+02 0.  0.
        -12    1    1    2    0    0 -0.31042132221E+02  0.25025315110E+02  0.79551719039E+01  0.40659133405E+02  0.00000000000E+00 0.  1.
         11    1    3    3    0    0  0.88954541426E+01 -0.22727121712E+02 -0.22312876801E+01  0.24507750013E+02  0.51100000000E-03 0.  1.
        -11    1    3    3    0    0  0.15166248477E+02 -0.45622558450E+01 -0.87375882282E+01  0.18087971682E+02  0.51100000000E-03 0. -1.
        -12    1    3    3    0    0  0.69804296022E+01  0.22640624472E+01  0.30137040044E+01  0.79331449011E+01  0.00000000000E+00 0.  1.
</event>
<event>
 7    1  0.9868142E-013  0.5052887E+02  0.7816164E-02  0.1300439E+00
        -11   -1    0    0    0    0  0.00000000000E+00  0.00000000000E+00  0.45593999997E+02  0.45594000000E+02  0.51100000000E-03 0.  1.
         11   -1    0    0    0    0 -0.00000000000E+00 -0.00000000000E+00 -0.45593999997E+02  0.45594000000E+02  0.51100000000E-03 0. -1.
    9900012    2    1    2    0    0  0.36004923095E+02  0.32199064540E+01 -0.18612973351E+02  0.50528867427E+02  0.30000023031E+02 0.  0.
        -12    1    1    2    0    0 -0.36004923095E+02 -0.32199064540E+01  0.18612973351E+02  0.40659132573E+02  0.00000000000E+00 0.  1.
         11    1    3    3    0    0  0.80896436568E+01 -0.40580552806E+01 -0.14687635868E+02  0.17252153338E+02  0.51100000000E-03 0. -1.
        -11    1    3    3    0    0  0.14737700580E+02  0.10488736243E+02  0.25135190199E+01  0.18262836157E+02  0.51100000000E-03 0.  1.
        -12    1    3    3    0    0  0.13177578858E+02 -0.32107745084E+01 -0.64388565027E+01  0.15013877932E+02  0.00000000000E+00 0.  1.
</event>
<event>
 7    1  0.9868142E-013  0.5052886E+02  0.7816164E-02  0.1300439E+00
        -11   -1    0    0    0    0  0.00000000000E+00  0.00000000000E+00  0.45593999997E+02  0.45594000000E+02  0.51100000000E-03 0.  1.
         11   -1    0    0    0    0 -0.00000000000E+00 -0.00000000000E+00 -0.45593999997E+02  0.45594000000E+02  0.51100000000E-03 0. -1.
    9900012    2    1    2    0    0 -0.71464853798E+01  0.36476443819E+02 -0.16479163817E+02  0.50528855308E+02  0.29999986195E+02 0.  0.
        -12    1    1    2    0    0  0.71464853798E+01 -0.36476443819E+02  0.16479163817E+02  0.40659144692E+02  0.00000000000E+00 0.  1.
         11    1    3    3    0    0 -0.12927661935E+02  0.24305604385E+02 -0.68911433555E+01  0.28379124452E+02  0.51100000000E-03 0. -1.
        -11    1    3    3    0    0 -0.36977226068E+01 -0.68279007386E+00 -0.32401735001E+01  0.49636759900E+01  0.51100000000E-03 0.  1.
         12    1    3    3    0    0  0.94788991618E+01  0.12853629507E+02 -0.63478469614E+01  0.17186054867E+02  0.00000000000E+00 0. -1.
</event>
<event>
 7    1  0.9868142E-013  0.5052887E+02  0.7816164E-02  0.1300439E+00
        -11   -1    0    0    0    0  0.00000000000E+00  0.00000000000E+00  0.45593999997E+02  0.45594000000E+02  0.51100000000E-03 0. -1.
         11   -1    0    0    0    0 -0.00000000000E+00 -0.00000000000E+00 -0.45593999997E+02  0.45594000000E+02  0.51100000000E-03 0.  1.
    9900012    2    1    2    0    0  0.21791998600E+01  0.27690480304E+02  0.29692650256E+02  0.50528867069E+02  0.30000021943E+02 0.  0.
        -12    1    1    2    0    0 -0.21791998600E+01 -0.27690480304E+02 -0.29692650256E+02  0.40659132931E+02  0.00000000000E+00 0.  1.
         11    1    3    3    0    0  0.58820752455E+01  0.27533685174E+02  0.21436546302E+02  0.35386835774E+02  0.51100000000E-03 0. -1.
        -11    1    3    3    0    0  0.97752798423E+00 -0.31618889461E+01 -0.16471308471E+01  0.36967746694E+01  0.51100000000E-03 0.  1.
         12    1    3    3    0    0 -0.46804033698E+01  0.33186840752E+01  0.99032348017E+01  0.11445256626E+02  0.00000000000E+00 0. -1.
</event>
<event>
 7    1  0.9868142E-013  0.5052886E+02  0.7816164E-02  0.1300439E+00
        -11   -1    0    0    0    0  0.00000000000E+00  0.00000000000E+00  0.45593999997E+02  0.45594000000E+02  0.51100000000E-03 0.  1.
         11   -1    0    0    0    0 -0.00000000000E+00 -0.00000000000E+00 -0.45593999997E+02  0.45594000000E+02  0.51100000000E-03 0. -1.
    9900012    2    1    2    0    0  0.20508458030E+02 -0.24466413602E+02 -0.25178634944E+02  0.50528857081E+02  0.29999991582E+02 0.  0.
        -12    1    1    2    0    0 -0.20508458030E+02  0.24466413602E+02  0.25178634944E+02  0.40659142919E+02  0.00000000000E+00 0.  1.
         11    1    3    3    0    0 -0.13913999188E+01 -0.16243075191E+02 -0.11388874314E+02  0.19886677545E+02  0.51100000000E-03 0. -1.
        -11    1    3    3    0    0  0.15781706030E+02  0.10603364945E+01 -0.10720283192E+02  0.19107878759E+02  0.51100000000E-03 0.  1.
         12    1    3    3    0    0  0.61181519189E+01 -0.92836749056E+01 -0.30694774377E+01  0.11534300776E+02  0.00000000000E+00 0. -1.
</event>
<event>
 7    1  0.9868142E-013  0.5052886E+02  0.7816164E-02  0.1300439E+00
        -11   -1    0    0    0    0  0.00000000000E+00  0.00000000000E+00  0.45593999997E+02  0.45594000000E+02  0.51100000000E-03 0. -1.
         11   -1    0    0    0    0 -0.00000000000E+00 -0.00000000000E+00 -0.45593999997E+02  0.45594000000E+02  0.51100000000E-03 0.  1.
    9900012    2    1    2    0    0  0.31491476502E+02  0.21383212398E+02  0.14290236965E+02  0.50528859118E+02  0.29999997776E+02 0.  0.
        -12    1    1    2    0    0 -0.31491476502E+02 -0.21383212398E+02 -0.14290236965E+02  0.40659140882E+02  0.00000000000E+00 0.  1.
         11    1    3    3    0    0  0.18215707041E+02  0.13947435207E+02  0.90331560053E+01  0.24656456346E+02  0.51100000000E-03 0. -1.
        -11    1    3    3    0    0 -0.19938572977E+01  0.37055223873E+01 -0.54264384773E+01  0.68667749268E+01  0.51100000000E-03 0.  1.
        -12    1    3    3    0    0  0.15269626759E+02  0.37302548042E+01  0.10683519437E+02  0.19005627846E+02  0.00000000000E+00 0.  1.
</event>
<event>
 7    1  0.9868142E-013  0.5052888E+02  0.7816164E-02  0.1300439E+00
        -11   -1    0    0    0    0  0.00000000000E+00  0.00000000000E+00  0.45593999997E+02  0.45594000000E+02  0.51100000000E-03 0. -1.
         11   -1    0    0    0    0 -0.00000000000E+00 -0.00000000000E+00 -0.45593999997E+02  0.45594000000E+02  0.51100000000E-03 0.  1.
    9900012    2    1    2    0    0  0.10427182035E+02  0.31725530065E+02  0.23193291325E+02  0.50528878692E+02  0.30000057271E+02 0.  0.
        -12    1    1    2    0    0 -0.10427182035E+02 -0.31725530065E+02 -0.23193291325E+02  0.40659121308E+02  0.00000000000E+00 0.  1.
         11    1    3    3    0    0  0.12849487504E+02  0.13322367020E+02  0.20966896970E+02  0.27967938089E+02  0.51100000000E-03 0. -1.
        -11    1    3    3    0    0 -0.74417307174E+01  0.84954893458E+01  0.18770627919E+01  0.11448845369E+02  0.51100000000E-03 0.  1.
        -12    1    3    3    0    0  0.50194252484E+01  0.99076736986E+01  0.34933156298E+00  0.11112095234E+02  0.00000000000E+00 0.  1.
</event>
<event>
 7    1  0.9868142E-013  0.5052886E+02  0.7816164E-02  0.1300439E+00
        -11   -1    0    0    0    0  0.00000000000E+00  0.00000000000E+00  0.45593999997E+02  0.45594000000E+02  0.51100000000E-03 0. -1.
         11   -1    0    0    0    0 -0.00000000000E+00 -0.00000000000E+00 -0.45593999997E+02  0.45594000000E+02  0.51100000000E-03 0.  1.
    9900012    2    1    2    0    0 -0.16537472053E+02  0.35451582427E+02  0.11084358452E+02  0.50528859812E+02  0.29999999886E+02 0.  0.
        -12    1    1    2    0    0  0.16537472053E+02 -0.35451582427E+02 -0.11084358452E+02  0.40659140188E+02  0.00000000000E+00 0.  1.
         11    1    3    3    0    0 -0.19775574156E+02  0.35163606165E+02  0.14325497191E+02  0.42810891158E+02  0.51100000000E-03 0. -1.
        -11    1    3    3    0    0  0.23382163446E+00 -0.22551300152E+01 -0.30190626229E+01  0.37755825146E+01  0.51100000000E-03 0.  1.
         12    1    3    3    0    0  0.30042804688E+01  0.25431062772E+01 -0.22207611530E+00  0.39423861395E+01  0.00000000000E+00 0. -1.
</event>
<event>
 7    1  0.9868142E-013  0.5052886E+02  0.7816164E-02  0.1300439E+00
        -11   -1    0    0    0    0  0.00000000000E+00  0.00000000000E+00  0.45593999997E+02  0.45594000000E+02  0.51100000000E-03 0. -1.
         11   -1    0    0    0    0 -0.00000000000E+00 -0.00000000000E+00 -0.45593999997E+02  0.45594000000E+02  0.51100000000E-03 0.  1.
    9900012    2    1    2    0    0  0.58833336179E+01  0.26761081867E+02  0.30039918847E+02  0.50528857836E+02  0.29999993878E+02 0.  0.
        -12    1    1    2    0    0 -0.58833336179E+01 -0.26761081867E+02 -0.30039918847E+02  0.40659142164E+02  0.00000000000E+00 0.  1.
         11    1    3    3    0    0 -0.11232516029E+02  0.71960554654E+01  0.12077546867E+02  0.17994992892E+02  0.51100000000E-03 0. -1.
        -11    1    3    3    0    0  0.12371378823E+02  0.18153232331E+02  0.13007923353E+02  0.25530313909E+02  0.51100000000E-03 0.  1.
         12    1    3    3    0    0  0.47444708244E+01  0.14117940707E+01  0.49544486271E+01  0.70035510351E+01  0.00000000000E+00 0. -1.
</event>
<event>
 7    1  0.9868142E-013  0.5052886E+02  0.7816164E-02  0.1300439E+00
        -11   -1    0    0    0    0  0.00000000000E+00  0.00000000000E+00  0.45593999997E+02  0.45594000000E+02  0.51100000000E-03 0.  1.
         11   -1    0    0    0    0 -0.00000000000E+00 -0.00000000000E+00 -0.45593999997E+02  0.45594000000E+02  0.51100000000E-03 0. -1.
    9900012    2    1    2    0    0 -0.24359666303E+02  0.99957341663E+00 -0.32538788872E+02  0.50528864856E+02  0.30000015217E+02 0.  0.
        -12    1    1    2    0    0  0.24359666303E+02 -0.99957341663E+00  0.32538788872E+02  0.40659135144E+02  0.00000000000E+00 0.  1.
         11    1    3    3    0    0 -0.30447782481E+01 -0.10712549486E+01 -0.56748102770E+01  0.65285322766E+01  0.51100000000E-03 0. -1.
        -11    1    3    3    0    0  0.56406707497E+01 -0.35774923015E+01 -0.88638659029E+01  0.11098816905E+02  0.51100000000E-03 0.  1.
        -12    1    3    3    0    0 -0.26955558804E+02  0.56483206668E+01 -0.18000112692E+02  0.32901515675E+02  0.00000000000E+00 0.  1.
</event>
<event>
 7    1  0.9868142E-013  0.5052887E+02  0.7816164E-02  0.1300439E+00
        -11   -1    0    0    0    0  0.00000000000E+00  0.00000000000E+00  0.45593999997E+02  0.45594000000E+02  0.51100000000E-03 0.  1.
         11   -1    0    0    0    0 -0.00000000000E+00 -0.00000000000E+00 -0.45593999997E+02  0.45594000000E+02  0.51100000000E-03 0. -1.
    9900012    2    1    2    0    0 -0.18894490285E+02  0.15454949217E+02 -0.32516272447E+02  0.50528865820E+02  0.30000018146E+02 0.  0.
        -12    1    1    2    0    0  0.18894490285E+02 -0.15454949217E+02  0.32516272447E+02  0.40659134180E+02  0.00000000000E+00 0.  1.
         11    1    3    3    0    0 -0.17493727891E+02  0.16770685254E+01 -0.26689103753E+02  0.31955458591E+02  0.51100000000E-03 0. -1.
        -11    1    3    3    0    0 -0.22846983463E+01  0.79574918604E+01 -0.87112405675E+01  0.12017788304E+02  0.51100000000E-03 0.  1.
         12    1    3    3    0    0  0.88393595240E+00  0.58203888313E+01  0.28840718733E+01  0.65556189247E+01  0.00000000000E+00 0. -1.
</event>
<event>
 7    1  0.9868142E-013  0.5052886E+02  0.7816164E-02  0.1300439E+00
        -11   -1    0    0    0    0  0.00000000000E+00  0.00000000000E+00  0.45593999997E+02  0.45594000000E+02  0.51100000000E-03 0.  1.
         11   -1    0    0    0    0 -0.00000000000E+00 -0.00000000000E+00 -0.45593999997E+02  0.45594000000E+02  0.51100000000E-03 0. -1.
    9900012    2    1    2    0    0 -0.29017678106E+02  0.23140670424E+02 -0.16602701374E+02  0.50528856339E+02  0.29999989327E+02 0.  0.
        -12    1    1    2    0    0  0.29017678106E+02 -0.23140670424E+02  0.16602701374E+02  0.40659143661E+02  0.00000000000E+00 0.  1.
         11    1    3    3    0    0 -0.64206082709E+01  0.66668143735E+00 -0.45813106840E+01  0.79156226888E+01  0.51100000000E-03 0. -1.
        -11    1    3    3    0    0  0.17987615676E+01  0.97078881705E+01  0.41180710950E+01  0.10697529888E+02  0.51100000000E-03 0.  1.
        -12    1    3    3    0    0 -0.24395831403E+02  0.12766100817E+02 -0.16139461784E+02  0.31915703762E+02  0.00000000000E+00 0.  1.
</event>
<event>
 7    1  0.9868142E-013  0.5052889E+02  0.7816164E-02  0.1300439E+00
        -11   -1    0    0    0    0  0.00000000000E+00  0.00000000000E+00  0.45593999997E+02  0.45594000000E+02  0.51100000000E-03 0. -1.
         11   -1    0    0    0    0 -0.00000000000E+00 -0.00000000000E+00 -0.45593999997E+02  0.45594000000E+02  0.51100000000E-03 0.  1.
    9900012    2    1    2    0    0  0.19370051175E+02 -0.18555422830E+02  0.30555860637E+02  0.50528890096E+02  0.30000091937E+02 0.  0.
        -12    1    1    2    0    0 -0.19370051175E+02  0.18555422830E+02 -0.30555860637E+02  0.40659109904E+02  0.00000000000E+00 0.  1.
         11    1    3    3    0    0  0.22047558437E+02 -0.22688154875E+02  0.30338010273E+02  0.43831975455E+02  0.51100000000E-03 0. -1.
        -11    1    3    3    0    0 -0.14672134019E+01  0.11340645491E+01 -0.20370148218E+01  0.27546773338E+01  0.51100000000E-03 0.  1.
         12    1    3    3    0    0 -0.12102938604E+01  0.29986674967E+01  0.22548651853E+01  0.39422373075E+01  0.00000000000E+00 0. -1.
</event>
<event>
 7    1  0.9868142E-013  0.5052885E+02  0.7816164E-02  0.1300439E+00
        -11   -1    0    0    0    0  0.00000000000E+00  0.00000000000E+00  0.45593999997E+02  0.45594000000E+02  0.51100000000E-03 0.  1.
         11   -1    0    0    0    0 -0.00000000000E+00 -0.00000000000E+00 -0.45593999997E+02  0.45594000000E+02  0.51100000000E-03 0. -1.
    9900012    2    1    2    0    0  0.23231258940E+01  0.26677337664E+01 -0.40504972197E+02  0.50528849861E+02  0.29999969637E+02 0.  0.
        -12    1    1    2    0    0 -0.23231258940E+01 -0.26677337664E+01  0.40504972197E+02  0.40659150139E+02  0.00000000000E+00 0.  1.
         11    1    3    3    0    0 -0.10269698283E+02 -0.43786354184E+01 -0.12641339100E+02  0.16865426335E+02  0.51100000000E-03 0.  1.
        -11    1    3    3    0    0  0.11174986445E+02  0.95996027666E+01 -0.26748827454E+02  0.30537394547E+02  0.51100000000E-03 0. -1.
         12    1    3    3    0    0  0.14178377320E+01 -0.25532335818E+01 -0.11148056433E+01  0.31260289794E+01  0.00000000000E+00 0. -1.
</event>
<event>
 7    1  0.9868142E-013  0.5052872E+02  0.7816164E-02  0.1300439E+00
        -11   -1    0    0    0    0  0.00000000000E+00  0.00000000000E+00  0.45593999997E+02  0.45594000000E+02  0.51100000000E-03 0.  1.
         11   -1    0    0    0    0 -0.00000000000E+00 -0.00000000000E+00 -0.45593999997E+02  0.45594000000E+02  0.51100000000E-03 0. -1.
    9900012    2    1    2    0    0  0.21731561182E+02 -0.24251705200E+02 -0.24346884943E+02  0.50528723531E+02  0.29999585643E+02 0.  0.
        -12    1    1    2    0    0 -0.21731561182E+02  0.24251705200E+02  0.24346884943E+02  0.40659276469E+02  0.00000000000E+00 0.  1.
         11    1    3    3    0    0  0.46820681535E+01 -0.74151952081E+01  0.71616818348E-01  0.87699493384E+01  0.51100000000E-03 0. -1.
        -11    1    3    3    0    0  0.19329110342E+02 -0.16082060394E+02 -0.27881339956E+02  0.37544857053E+02  0.51100000000E-03 0.  1.
        -12    1    3    3    0    0 -0.22796173132E+01 -0.75444959802E+00  0.34628381955E+01  0.42139171396E+01  0.00000000000E+00 0.  1.
</event>
<event>
 7    1  0.9868142E-013  0.5052884E+02  0.7816164E-02  0.1300439E+00
        -11   -1    0    0    0    0  0.00000000000E+00  0.00000000000E+00  0.45593999997E+02  0.45594000000E+02  0.51100000000E-03 0. -1.
         11   -1    0    0    0    0 -0.00000000000E+00 -0.00000000000E+00 -0.45593999997E+02  0.45594000000E+02  0.51100000000E-03 0.  1.
    9900012    2    1    2    0    0 -0.29560169232E+02 -0.27067881609E+02  0.68332655076E+01  0.50528839441E+02  0.29999937966E+02 0.  0.
        -12    1    1    2    0    0  0.29560169232E+02  0.27067881609E+02 -0.68332655076E+01  0.40659160559E+02  0.00000000000E+00 0.  1.
         11    1    3    3    0    0  0.39047609525E+01 -0.53114780096E+01 -0.43567597429E+01  0.79019182773E+01  0.51100000000E-03 0. -1.
        -11    1    3    3    0    0 -0.83156922826E+01 -0.22401014801E+01  0.56893359153E+01  0.10321692507E+02  0.51100000000E-03 0.  1.
         12    1    3    3    0    0 -0.25149237902E+02 -0.19516302120E+02  0.55006893351E+01  0.32305228658E+02  0.00000000000E+00 0. -1.
</event>
<event>
 7    1  0.9868142E-013  0.5052886E+02  0.7816164E-02  0.1300439E+00
        -11   -1    0    0    0    0  0.00000000000E+00  0.00000000000E+00  0.45593999997E+02  0.45594000000E+02  0.51100000000E-03 0. -1.
         11   -1    0    0    0    0 -0.00000000000E+00 -0.00000000000E+00 -0.45593999997E+02  0.45594000000E+02  0.51100000000E-03 0.  1.
    9900012    2    1    2    0    0  0.38246422494E+02  0.84112491444E+01  0.10937439866E+02  0.50528861586E+02  0.30000005276E+02 0.  0.
        -12    1    1    2    0    0 -0.38246422494E+02 -0.84112491444E+01 -0.10937439866E+02  0.40659138414E+02  0.00000000000E+00 0.  1.
         11    1    3    3    0    0  0.65309725542E+01  0.76749064988E+01 -0.60279799381E+01  0.11742841848E+02  0.51100000000E-03 0. -1.
        -11    1    3    3    0    0  0.16515610420E+02  0.54805418595E+01  0.14546244416E+02  0.22680276751E+02  0.51100000000E-03 0.  1.
         12    1    3    3    0    0  0.15199839519E+02 -0.47441992140E+01  0.24191753884E+01  0.16105742987E+02  0.00000000000E+00 0. -1.
</event>
<event>
 7    1  0.9868142E-013  0.5052886E+02  0.7816164E-02  0.1300439E+00
        -11   -1    0    0    0    0  0.00000000000E+00  0.00000000000E+00  0.45593999997E+02  0.45594000000E+02  0.51100000000E-03 0.  1.
         11   -1    0    0    0    0 -0.00000000000E+00 -0.00000000000E+00 -0.45593999997E+02  0.45594000000E+02  0.51100000000E-03 0. -1.
    9900012    2    1    2    0    0 -0.27400147887E+02 -0.12158093605E+02 -0.27469591171E+02  0.50528858550E+02  0.29999996050E+02 0.  0.
        -12    1    1    2    0    0  0.27400147887E+02  0.12158093605E+02  0.27469591171E+02  0.40659141450E+02  0.00000000000E+00 0.  1.
         11    1    3    3    0    0 -0.77672526392E+01 -0.95006771011E+01 -0.27462680790E+02  0.30079759230E+02  0.51100000000E-03 0. -1.
        -11    1    3    3    0    0 -0.18676811290E+02 -0.32386166457E+01  0.94644982099E+00  0.18979138159E+02  0.51100000000E-03 0.  1.
         12    1    3    3    0    0 -0.95608395793E+00  0.58120014205E+00 -0.95336020201E+00  0.14699611609E+01  0.00000000000E+00 0. -1.
</event>
<event>
 7    1  0.9868142E-013  0.5052887E+02  0.7816164E-02  0.1300439E+00
        -11   -1    0    0    0    0  0.00000000000E+00  0.00000000000E+00  0.45593999997E+02  0.45594000000E+02  0.51100000000E-03 0. -1.
         11   -1    0    0    0    0 -0.00000000000E+00 -0.00000000000E+00 -0.45593999997E+02  0.45594000000E+02  0.51100000000E-03 0.  1.
    9900012    2    1    2    0    0  0.10436219142E+02  0.34524753053E+02  0.18769426680E+02  0.50528872842E+02  0.30000039490E+02 0.  0.
        -12    1    1    2    0    0 -0.10436219142E+02 -0.34524753053E+02 -0.18769426680E+02  0.40659127158E+02  0.00000000000E+00 0.  1.
         11    1    3    3    0    0  0.79065652769E+01  0.80450856082E+01  0.15635094709E+02  0.19279350708E+02  0.51100000000E-03 0. -1.
        -11    1    3    3    0    0 -0.56160199563E+01  0.15183870453E+02  0.55519950878E+01  0.17114737854E+02  0.51100000000E-03 0.  1.
         12    1    3    3    0    0  0.81456738218E+01  0.11295796992E+02 -0.24176631166E+01  0.14134784280E+02  0.00000000000E+00 0. -1.
</event>
<event>
 7    1  0.9868142E-013  0.5052887E+02  0.7816164E-02  0.1300439E+00
        -11   -1    0    0    0    0  0.00000000000E+00  0.00000000000E+00  0.45593999997E+02  0.45594000000E+02  0.51100000000E-03 0.  1.
         11   -1    0    0    0    0 -0.00000000000E+00 -0.00000000000E+00 -0.45593999997E+02  0.45594000000E+02  0.51100000000E-03 0. -1.
    9900012    2    1    2    0    0 -0.13657466661E+02 -0.25826831396E+02 -0.28277431063E+02  0.50528871590E+02  0.30000035685E+02 0.  0.
        -12    1    1    2    0    0  0.13657466661E+02  0.25826831396E+02  0.28277431063E+02  0.40659128410E+02  0.00000000000E+00 0.  1.
         11    1    3    3    0    0 -0.13406485622E+02 -0.45669907523E+01 -0.22231368291E+02  0.26359533335E+02  0.51100000000E-03 0. -1.
        -11    1    3    3    0    0  0.19013575327E+01 -0.12160510269E+02 -0.79155842281E+01  0.14633852685E+02  0.51100000000E-03 0.  1.
         12    1    3    3    0    0 -0.21523385720E+01 -0.90993303743E+01  0.18695214566E+01  0.95354855705E+01  0.00000000000E+00 0. -1.
</event>
<event>
 7    1  0.9868142E-013  0.5052883E+02  0.7816164E-02  0.1300439E+00
        -11   -1    0    0    0    0  0.00000000000E+00  0.00000000000E+00  0.45593999997E+02  0.45594000000E+02  0.51100000000E-03 0. -1.
         11   -1    0    0    0    0 -0.00000000000E+00 -0.00000000000E+00 -0.45593999997E+02  0.45594000000E+02  0.51100000000E-03 0.  1.
    9900012    2    1    2    0    0 -0.56099938058E+01  0.40269263788E+02  0.28710726846E+00  0.50528830467E+02  0.29999910686E+02 0.  0.
        -12    1    1    2    0    0  0.56099938058E+01 -0.40269263788E+02 -0.28710726846E+00  0.40659169533E+02  0.00000000000E+00 0.  1.
         11    1    3    3    0    0 -0.77638059639E+01  0.21297215304E+02 -0.85351326215E+01  0.24221819748E+02  0.51100000000E-03 0. -1.
        -11    1    3    3    0    0 -0.16862152255E+00 -0.24686587832E+01  0.31533228961E+01  0.40082608391E+01  0.51100000000E-03 0.  1.
         12    1    3    3    0    0  0.23224336807E+01  0.21440707267E+02  0.56689169938E+01  0.22298749880E+02  0.00000000000E+00 0. -1.
</event>
<event>
 7    1  0.9868142E-013  0.5052886E+02  0.7816164E-02  0.1300439E+00
        -11   -1    0    0    0    0  0.00000000000E+00  0.00000000000E+00  0.45593999997E+02  0.45594000000E+02  0.51100000000E-03 0.  1.
         11   -1    0    0    0    0 -0.00000000000E+00 -0.00000000000E+00 -0.45593999997E+02  0.45594000000E+02  0.51100000000E-03 0. -1.
    9900012    2    1    2    0    0 -0.70681652828E+01 -0.31167235129E+02 -0.25135834906E+02  0.50528859546E+02  0.29999999075E+02 0.  0.
        -12    1    1    2    0    0  0.70681652828E+01  0.31167235129E+02  0.25135834906E+02  0.40659140454E+02  0.00000000000E+00 0.  1.
         11    1    3    3    0    0 -0.10340042583E+02 -0.33830199323E+02 -0.14496757321E+02  0.38230286946E+02  0.51100000000E-03 0. -1.
        -11    1    3    3    0    0  0.97782557490E+00  0.28230146909E+01 -0.89772708533E+01  0.94613396004E+01  0.51100000000E-03 0.  1.
         12    1    3    3    0    0  0.22940517253E+01 -0.16005049693E+00 -0.16618067317E+01  0.28372329995E+01  0.00000000000E+00 0. -1.
</event>
<event>
 7    1  0.9868142E-013  0.5052886E+02  0.7816164E-02  0.1300439E+00
        -11   -1    0    0    0    0  0.00000000000E+00  0.00000000000E+00  0.45593999997E+02  0.45594000000E+02  0.51100000000E-03 0.  1.
         11   -1    0    0    0    0 -0.00000000000E+00 -0.00000000000E+00 -0.45593999997E+02  0.45594000000E+02  0.51100000000E-03 0. -1.
    9900012    2    1    2    0    0 -0.46379016159E+01 -0.28687880734E+01 -0.40291758245E+02  0.50528857622E+02  0.29999993229E+02 0.  0.
        -12    1    1    2    0    0  0.46379016159E+01  0.28687880734E+01  0.40291758245E+02  0.40659142378E+02  0.00000000000E+00 0.  1.
         11    1    3    3    0    0  0.49617502432E+01 -0.51318018616E+01 -0.31832538689E+02  0.32623072747E+02  0.51100000000E-03 0. -1.
        -11    1    3    3    0    0 -0.11580045729E+01  0.55389708798E+01 -0.21950223849E+00  0.56629810605E+01  0.51100000000E-03 0.  1.
         12    1    3    3    0    0 -0.84416472863E+01 -0.32759570916E+01 -0.82397173179E+01  0.12242803815E+02  0.00000000000E+00 0. -1.
</event>
<event>
 7    1  0.9868142E-013  0.5052888E+02  0.7816164E-02  0.1300439E+00
        -11   -1    0    0    0    0  0.00000000000E+00  0.00000000000E+00  0.45593999997E+02  0.45594000000E+02  0.51100000000E-03 0. -1.
         11   -1    0    0    0    0 -0.00000000000E+00 -0.00000000000E+00 -0.45593999997E+02  0.45594000000E+02  0.51100000000E-03 0.  1.
    9900012    2    1    2    0    0  0.26299379656E+02  0.27619331369E+02 -0.14095364466E+02  0.50528878821E+02  0.30000057665E+02 0.  0.
        -12    1    1    2    0    0 -0.26299379656E+02 -0.27619331369E+02  0.14095364466E+02  0.40659121179E+02  0.00000000000E+00 0.  1.
         11    1    3    3    0    0  0.16027036996E+02  0.25252065260E+02 -0.13880588534E+02  0.32972768356E+02  0.51100000000E-03 0. -1.
        -11    1    3    3    0    0  0.13407526318E+02 -0.33604608818E+00 -0.30950491009E+00  0.13415307767E+02  0.51100000000E-03 0.  1.
        -12    1    3    3    0    0 -0.31351836577E+01  0.27033121980E+01  0.94728977703E-01  0.41408026983E+01  0.00000000000E+00 0.  1.
</event>
<event>
 7    1  0.9868142E-013  0.5052886E+02  0.7816164E-02  0.1300439E+00
        -11   -1    0    0    0    0  0.00000000000E+00  0.00000000000E+00  0.45593999997E+02  0.45594000000E+02  0.51100000000E-03 0.  1.
         11   -1    0    0    0    0 -0.00000000000E+00 -0.00000000000E+00 -0.45593999997E+02  0.45594000000E+02  0.51100000000E-03 0. -1.
    9900012    2    1    2    0    0  0.12135790352E+02  0.13417917906E+02 -0.36412196614E+02  0.50528856002E+02  0.29999988302E+02 0.  0.
        -12    1    1    2    0    0 -0.12135790352E+02 -0.13417917906E+02  0.36412196614E+02  0.40659143998E+02  0.00000000000E+00 0.  1.
         11    1    3    3    0    0  0.16227589232E+02  0.78250699371E+01 -0.14549776182E+02  0.23157339204E+02  0.51100000000E-03 0. -1.
        -11    1    3    3    0    0 -0.58547133052E+01  0.97526557990E+01 -0.12060737633E+02  0.16578701865E+02  0.51100000000E-03 0.  1.
        -12    1    3    3    0    0  0.17629144254E+01 -0.41598078305E+01 -0.98016828002E+01  0.10792814933E+02  0.00000000000E+00 0.  1.
</event>
<event>
 7    1  0.9868142E-013  0.5052885E+02  0.7816164E-02  0.1300439E+00
        -11   -1    0    0    0    0  0.00000000000E+00  0.00000000000E+00  0.45593999997E+02  0.45594000000E+02  0.51100000000E-03 0. -1.
         11   -1    0    0    0    0 -0.00000000000E+00 -0.00000000000E+00 -0.45593999997E+02  0.45594000000E+02  0.51100000000E-03 0.  1.
    9900012    2    1    2    0    0 -0.23561361570E+02  0.18933428773E+02  0.27194742719E+02  0.50528849546E+02  0.29999968679E+02 0.  0.
        -12    1    1    2    0    0  0.23561361570E+02 -0.18933428773E+02 -0.27194742719E+02  0.40659150454E+02  0.00000000000E+00 0.  1.
         11    1    3    3    0    0 -0.10825580154E+02  0.25047294143E+02  0.14232694070E+02  0.30775472544E+02  0.51100000000E-03 0. -1.
        -11    1    3    3    0    0 -0.18555731013E+01 -0.31010154753E+01  0.32930506601E+01  0.48891340157E+01  0.51100000000E-03 0.  1.
         12    1    3    3    0    0 -0.10880208315E+02 -0.30128498942E+01  0.96689979883E+01  0.14864242986E+02  0.00000000000E+00 0. -1.
</event>
<event>
 7    1  0.9868142E-013  0.5052886E+02  0.7816164E-02  0.1300439E+00
        -11   -1    0    0    0    0  0.00000000000E+00  0.00000000000E+00  0.45593999997E+02  0.45594000000E+02  0.51100000000E-03 0.  1.
         11   -1    0    0    0    0 -0.00000000000E+00 -0.00000000000E+00 -0.45593999997E+02  0.45594000000E+02  0.51100000000E-03 0. -1.
    9900012    2    1    2    0    0  0.32107401600E+02 -0.24873874798E+02 -0.18895981967E+01  0.50528862450E+02  0.30000007902E+02 0.  0.
        -12    1    1    2    0    0 -0.32107401600E+02  0.24873874798E+02  0.18895981967E+01  0.40659137550E+02  0.00000000000E+00 0.  1.
         11    1    3    3    0    0  0.18360564211E+02 -0.44839986024E+01 -0.22835154905E+01  0.19037620778E+02  0.51100000000E-03 0. -1.
        -11    1    3    3    0    0 -0.38694936365E+01 -0.10422672897E+02 -0.12301414370E+01  0.11185630941E+02  0.51100000000E-03 0.  1.
        -12    1    3    3    0    0  0.17616331025E+02 -0.99672032985E+01  0.16240587308E+01  0.20305610731E+02  0.00000000000E+00 0.  1.
</event>
<event>
 7    1  0.9868142E-013  0.5052886E+02  0.7816164E-02  0.1300439E+00
        -11   -1    0    0    0    0  0.00000000000E+00  0.00000000000E+00  0.45593999997E+02  0.45594000000E+02  0.51100000000E-03 0.  1.
         11   -1    0    0    0    0 -0.00000000000E+00 -0.00000000000E+00 -0.45593999997E+02  0.45594000000E+02  0.51100000000E-03 0. -1.
    9900012    2    1    2    0    0  0.20328201234E+02 -0.20373929685E+01 -0.35153646345E+02  0.50528860968E+02  0.30000003398E+02 0.  0.
        -12    1    1    2    0    0 -0.20328201234E+02  0.20373929685E+01  0.35153646345E+02  0.40659139032E+02  0.00000000000E+00 0.  1.
         11    1    3    3    0    0  0.23336699237E+02 -0.76528330434E+01 -0.20977348645E+02  0.32298862849E+02  0.51100000000E-03 0. -1.
        -11    1    3    3    0    0 -0.99789051436E+00  0.26250741116E+01 -0.14350143204E+02  0.14622359927E+02  0.51100000000E-03 0.  1.
        -12    1    3    3    0    0 -0.20106074888E+01  0.29903659632E+01  0.17384550522E+00  0.36076381925E+01  0.00000000000E+00 0.  1.
</event>
<event>
 7    1  0.9868142E-013  0.5052886E+02  0.7816164E-02  0.1300439E+00
        -11   -1    0    0    0    0  0.00000000000E+00  0.00000000000E+00  0.45593999997E+02  0.45594000000E+02  0.51100000000E-03 0.  1.
         11   -1    0    0    0    0 -0.00000000000E+00 -0.00000000000E+00 -0.45593999997E+02  0.45594000000E+02  0.51100000000E-03 0. -1.
    9900012    2    1    2    0    0 -0.95681036114E+01 -0.14632856449E+02 -0.36708264281E+02  0.50528858825E+02  0.29999996885E+02 0.  0.
        -12    1    1    2    0    0  0.95681036114E+01  0.14632856449E+02  0.36708264281E+02  0.40659141175E+02  0.00000000000E+00 0.  1.
         11    1    3    3    0    0 -0.20220063175E+01 -0.15974827780E+02 -0.21390969178E+02  0.26774188966E+02  0.51100000000E-03 0. -1.
        -11    1    3    3    0    0 -0.70330108307E+01 -0.22379228056E+01  0.62540156260E+00  0.74069337249E+01  0.51100000000E-03 0.  1.
         12    1    3    3    0    0 -0.51308646317E+00  0.35798941370E+01 -0.15942696666E+02  0.16347736134E+02  0.00000000000E+00 0. -1.
</event>
<event>
 7    1  0.9868142E-013  0.5052885E+02  0.7816164E-02  0.1300439E+00
        -11   -1    0    0    0    0  0.00000000000E+00  0.00000000000E+00  0.45593999997E+02  0.45594000000E+02  0.51100000000E-03 0. -1.
         11   -1    0    0    0    0 -0.00000000000E+00 -0.00000000000E+00 -0.45593999997E+02  0.45594000000E+02  0.51100000000E-03 0.  1.
    9900012    2    1    2    0    0  0.33533825779E+02  0.26266480339E+01  0.22841839152E+02  0.50528851373E+02  0.29999974233E+02 0.  0.
        -12    1    1    2    0    0 -0.33533825779E+02 -0.26266480339E+01 -0.22841839152E+02  0.40659148627E+02  0.00000000000E+00 0.  1.
         11    1    3    3    0    0  0.12281473572E+01  0.83580344985E+01  0.68361081905E+01  0.10867265620E+02  0.51100000000E-03 0. -1.
        -11    1    3    3    0    0  0.64344888948E+01 -0.71568290753E+01  0.89198214906E+00  0.96653236969E+01  0.51100000000E-03 0.  1.
         12    1    3    3    0    0  0.25871189527E+02  0.14254426107E+01  0.15113748812E+02  0.29996262056E+02  0.00000000000E+00 0. -1.
</event>
<event>
 7    1  0.9868142E-013  0.5052887E+02  0.7816164E-02  0.1300439E+00
        -11   -1    0    0    0    0  0.00000000000E+00  0.00000000000E+00  0.45593999997E+02  0.45594000000E+02  0.51100000000E-03 0.  1.
         11   -1    0    0    0    0 -0.00000000000E+00 -0.00000000000E+00 -0.45593999997E+02  0.45594000000E+02  0.51100000000E-03 0. -1.
    9900012    2    1    2    0    0  0.33078561357E+02  0.22366460638E+01 -0.23536581193E+02  0.50528874809E+02  0.30000045469E+02 0.  0.
        -12    1    1    2    0    0 -0.33078561357E+02 -0.22366460638E+01  0.23536581193E+02  0.40659125191E+02  0.00000000000E+00 0.  1.
         11    1    3    3    0    0 -0.20620527757E+01 -0.15621374958E+01 -0.11760702928E+02  0.12041863180E+02  0.51100000000E-03 0. -1.
        -11    1    3    3    0    0  0.17102386119E+02  0.65167778535E+01 -0.44950086736E+01  0.18845824678E+02  0.51100000000E-03 0.  1.
         12    1    3    3    0    0  0.18038228013E+02 -0.27179942940E+01 -0.72808695913E+01  0.19641186951E+02  0.00000000000E+00 0. -1.
</event>
<event>
 7    1  0.9868142E-013  0.5052885E+02  0.7816164E-02  0.1300439E+00
        -11   -1    0    0    0    0  0.00000000000E+00  0.00000000000E+00  0.45593999997E+02  0.45594000000E+02  0.51100000000E-03 0. -1.
         11   -1    0    0    0    0 -0.00000000000E+00 -0.00000000000E+00 -0.45593999997E+02  0.45594000000E+02  0.51100000000E-03 0.  1.
    9900012    2    1    2    0    0 -0.16110547904E+02 -0.94159656143E+01  0.36124184031E+02  0.50528845629E+02  0.29999956775E+02 0.  0.
        -12    1    1    2    0    0  0.16110547904E+02  0.94159656143E+01 -0.36124184031E+02  0.40659154371E+02  0.00000000000E+00 0.  1.
         11    1    3    3    0    0 -0.11420409972E+02  0.12377462704E+01  0.87308725012E+01  0.14428649093E+02  0.51100000000E-03 0. -1.
        -11    1    3    3    0    0 -0.42508723323E+01 -0.10750254251E+02  0.30678550283E+02  0.32784315301E+02  0.51100000000E-03 0.  1.
        -12    1    3    3    0    0 -0.43926560005E+00  0.96542365856E-01 -0.32852387534E+01  0.33158812347E+01  0.00000000000E+00 0.  1.
</event>
<event>
 7    1  0.9868142E-013  0.5052883E+02  0.7816164E-02  0.1300439E+00
        -11   -1    0    0    0    0  0.00000000000E+00  0.00000000000E+00  0.45593999997E+02  0.45594000000E+02  0.51100000000E-03 0. -1.
         11   -1    0    0    0    0 -0.00000000000E+00 -0.00000000000E+00 -0.45593999997E+02  0.45594000000E+02  0.51100000000E-03 0.  1.
    9900012    2    1    2    0    0 -0.12822093268E+02 -0.33240186225E+02  0.19592144517E+02  0.50528829044E+02  0.29999906363E+02 0.  0.
        -12    1    1    2    0    0  0.12822093268E+02  0.33240186225E+02 -0.19592144517E+02  0.40659170956E+02  0.00000000000E+00 0.  1.
         11    1    3    3    0    0 -0.46096906621E+01 -0.35990153774E+02  0.16532089732E+02  0.39872928258E+02  0.51100000000E-03 0. -1.
        -11    1    3    3    0    0 -0.34298280948E+01 -0.44744083308E+00 -0.10163493081E+01  0.36051200030E+01  0.51100000000E-03 0.  1.
         12    1    3    3    0    0 -0.47825745116E+01  0.31974083828E+01  0.40764040924E+01  0.70507807830E+01  0.00000000000E+00 0. -1.
</event>
<event>
 7    1  0.9868142E-013  0.5052886E+02  0.7816164E-02  0.1300439E+00
        -11   -1    0    0    0    0  0.00000000000E+00  0.00000000000E+00  0.45593999997E+02  0.45594000000E+02  0.51100000000E-03 0.  1.
         11   -1    0    0    0    0 -0.00000000000E+00 -0.00000000000E+00 -0.45593999997E+02  0.45594000000E+02  0.51100000000E-03 0. -1.
    9900012    2    1    2    0    0  0.14034195883E+01 -0.32813623507E+02 -0.23967939861E+02  0.50528860617E+02  0.30000002331E+02 0.  0.
        -12    1    1    2    0    0 -0.14034195883E+01  0.32813623507E+02  0.23967939861E+02  0.40659139383E+02  0.00000000000E+00 0.  1.
         11    1    3    3    0    0 -0.13445252080E+01 -0.31565231510E+01 -0.18794509244E+02  0.19105103099E+02  0.51100000000E-03 0. -1.
        -11    1    3    3    0    0  0.54935753319E+01 -0.18172798447E+02 -0.49240918208E+01  0.19613175517E+02  0.51100000000E-03 0.  1.
         12    1    3    3    0    0 -0.27456305356E+01 -0.11484301909E+02 -0.24933879591E+00  0.11810582001E+02  0.00000000000E+00 0. -1.
</event>
<event>
 7    1  0.9868142E-013  0.5052888E+02  0.7816164E-02  0.1300439E+00
        -11   -1    0    0    0    0  0.00000000000E+00  0.00000000000E+00  0.45593999997E+02  0.45594000000E+02  0.51100000000E-03 0.  1.
         11   -1    0    0    0    0 -0.00000000000E+00 -0.00000000000E+00 -0.45593999997E+02  0.45594000000E+02  0.51100000000E-03 0. -1.
    9900012    2    1    2    0    0 -0.83840491416E+01  0.14299674682E+02 -0.37126694181E+02  0.50528875602E+02  0.30000047879E+02 0.  0.
        -12    1    1    2    0    0  0.83840491416E+01 -0.14299674682E+02  0.37126694181E+02  0.40659124398E+02  0.00000000000E+00 0.  1.
         11    1    3    3    0    0  0.75332109114E+00  0.15201009771E+02 -0.18495570907E+02  0.23952543376E+02  0.51100000000E-03 0. -1.
        -11    1    3    3    0    0 -0.11112397617E+02 -0.18246457817E+01 -0.20703734261E+02  0.23568184606E+02  0.51100000000E-03 0.  1.
         12    1    3    3    0    0  0.19750273838E+01  0.92331069254E+00  0.20726109867E+01  0.30081476200E+01  0.00000000000E+00 0. -1.
</event>
<event>
 7    1  0.9868142E-013  0.5052886E+02  0.7816164E-02  0.1300439E+00
        -11   -1    0    0    0    0  0.00000000000E+00  0.00000000000E+00  0.45593999997E+02  0.45594000000E+02  0.51100000000E-03 0.  1.
         11   -1    0    0    0    0 -0.00000000000E+00 -0.00000000000E+00 -0.45593999997E+02  0.45594000000E+02  0.51100000000E-03 0. -1.
    9900012    2    1    2    0    0 -0.21776520364E+02 -0.25788110655E+02 -0.22669856511E+02  0.50528857307E+02  0.29999992270E+02 0.  0.
        -12    1    1    2    0    0  0.21776520364E+02  0.25788110655E+02  0.22669856511E+02  0.40659142693E+02  0.00000000000E+00 0.  1.
         11    1    3    3    0    0 -0.61999114260E+01 -0.14922637869E+02 -0.19013739697E+02  0.24952882002E+02  0.51100000000E-03 0. -1.
        -11    1    3    3    0    0 -0.79263098379E+00 -0.58798006857E+01  0.49775644233E+01  0.77444475484E+01  0.51100000000E-03 0.  1.
        -12    1    3    3    0    0 -0.14783977954E+02 -0.49856721000E+01 -0.86336812369E+01  0.17831527757E+02  0.00000000000E+00 0.  1.
</event>
<event>
 7    1  0.9868142E-013  0.5052893E+02  0.7816164E-02  0.1300439E+00
        -11   -1    0    0    0    0  0.00000000000E+00  0.00000000000E+00  0.45593999997E+02  0.45594000000E+02  0.51100000000E-03 0. -1.
         11   -1    0    0    0    0 -0.00000000000E+00 -0.00000000000E+00 -0.45593999997E+02  0.45594000000E+02  0.51100000000E-03 0.  1.
    9900012    2    1    2    0    0  0.24833071999E+02  0.25075949151E+02  0.20190973030E+02  0.50528928655E+02  0.30000209140E+02 0.  0.
        -12    1    1    2    0    0 -0.24833071999E+02 -0.25075949151E+02 -0.20190973030E+02  0.40659071345E+02  0.00000000000E+00 0.  1.
         11    1    3    3    0    0  0.28018408977E+02  0.12888481181E+02  0.15236493555E+02  0.34399054128E+02  0.51100000000E-03 0. -1.
        -11    1    3    3    0    0  0.48420589471E+00  0.20025135206E+01 -0.23079325779E+01  0.30937144008E+01  0.51100000000E-03 0.  1.
         12    1    3    3    0    0 -0.36695428731E+01  0.10184954449E+02  0.72624120524E+01  0.13036160127E+02  0.00000000000E+00 0. -1.
</event>
<event>
 7    1  0.9868142E-013  0.5052885E+02  0.7816164E-02  0.1300439E+00
        -11   -1    0    0    0    0  0.00000000000E+00  0.00000000000E+00  0.45593999997E+02  0.45594000000E+02  0.51100000000E-03 0. -1.
         11   -1    0    0    0    0 -0.00000000000E+00 -0.00000000000E+00 -0.45593999997E+02  0.45594000000E+02  0.51100000000E-03 0.  1.
    9900012    2    1    2    0    0 -0.36347012763E+02 -0.18148126726E+02  0.16451173936E+01  0.50528852792E+02  0.29999978545E+02 0.  0.
        -12    1    1    2    0    0  0.36347012763E+02  0.18148126726E+02 -0.16451173936E+01  0.40659147208E+02  0.00000000000E+00 0.  1.
         11    1    3    3    0    0 -0.31503786235E+02 -0.63756397448E+01 -0.22986934035E+01  0.32224545318E+02  0.51100000000E-03 0. -1.
        -11    1    3    3    0    0  0.33410927957E-01 -0.47205632086E+01  0.76294666137E+01  0.89718222434E+01  0.51100000000E-03 0.  1.
        -12    1    3    3    0    0 -0.48766374556E+01 -0.70519237731E+01 -0.36856558165E+01  0.93324852302E+01  0.00000000000E+00 0.  1.
</event>
<event>
 7    1  0.9868142E-013  0.5052886E+02  0.7816164E-02  0.1300439E+00
        -11   -1    0    0    0    0  0.00000000000E+00  0.00000000000E+00  0.45593999997E+02  0.45594000000E+02  0.51100000000E-03 0.  1.
         11   -1    0    0    0    0 -0.00000000000E+00 -0.00000000000E+00 -0.45593999997E+02  0.45594000000E+02  0.51100000000E-03 0. -1.
    9900012    2    1    2    0    0  0.21545138012E+02 -0.25404756271E+02 -0.23314602352E+02  0.50528864544E+02  0.30000014269E+02 0.  0.
        -12    1    1    2    0    0 -0.21545138012E+02  0.25404756271E+02  0.23314602352E+02  0.40659135456E+02  0.00000000000E+00 0.  1.
         11    1    3    3    0    0  0.13215578979E+02 -0.21703254394E+02 -0.16701348608E+02  0.30407529078E+02  0.51100000000E-03 0. -1.
        -11    1    3    3    0    0 -0.22097700930E+01  0.31395695149E+01 -0.65078763385E+01  0.75559536328E+01  0.51100000000E-03 0.  1.
        -12    1    3    3    0    0  0.10539329127E+02 -0.68410713917E+01 -0.10537740588E+00  0.12565381834E+02  0.00000000000E+00 0.  1.
</event>
<event>
 7    1  0.9868142E-013  0.5052890E+02  0.7816164E-02  0.1300439E+00
        -11   -1    0    0    0    0  0.00000000000E+00  0.00000000000E+00  0.45593999997E+02  0.45594000000E+02  0.51100000000E-03 0.  1.
         11   -1    0    0    0    0 -0.00000000000E+00 -0.00000000000E+00 -0.45593999997E+02  0.45594000000E+02  0.51100000000E-03 0. -1.
    9900012    2    1    2    0    0 -0.12354617760E+02  0.25460364768E+02 -0.29194109516E+02  0.50528895428E+02  0.30000108144E+02 0.  0.
        -12    1    1    2    0    0  0.12354617760E+02 -0.25460364768E+02  0.29194109516E+02  0.40659104572E+02  0.00000000000E+00 0.  1.
         11    1    3    3    0    0  0.91068553564E+00  0.13448995310E+02 -0.66688229700E+01  0.15039216172E+02  0.51100000000E-03 0. -1.
        -11    1    3    3    0    0 -0.18376098046E+02  0.10885026376E+02 -0.21195151015E+02  0.30089852199E+02  0.51100000000E-03 0.  1.
        -12    1    3    3    0    0  0.51107947501E+01  0.11263430819E+01 -0.13301355316E+01  0.53998270572E+01  0.00000000000E+00 0.  1.
</event>
<event>
 7    1  0.9868142E-013  0.5052886E+02  0.7816164E-02  0.1300439E+00
        -11   -1    0    0    0    0  0.00000000000E+00  0.00000000000E+00  0.45593999997E+02  0.45594000000E+02  0.51100000000E-03 0.  1.
         11   -1    0    0    0    0 -0.00000000000E+00 -0.00000000000E+00 -0.45593999997E+02  0.45594000000E+02  0.51100000000E-03 0. -1.
    9900012    2    1    2    0    0 -0.36442503683E+02 -0.13411824243E+02 -0.12051258466E+02  0.50528856688E+02  0.29999990389E+02 0.  0.
        -12    1    1    2    0    0  0.36442503683E+02  0.13411824243E+02  0.12051258466E+02  0.40659143312E+02  0.00000000000E+00 0.  1.
         11    1    3    3    0    0 -0.21778365268E+02 -0.13199817244E+02 -0.17037041426E+02  0.30639731556E+02  0.51100000000E-03 0. -1.
        -11    1    3    3    0    0 -0.57473257407E+01 -0.35403365476E+01  0.74543237217E+01  0.10056474454E+02  0.51100000000E-03 0.  1.
         12    1    3    3    0    0 -0.89168126747E+01  0.33283295479E+01 -0.24685407614E+01  0.98326506775E+01  0.00000000000E+00 0. -1.
</event>
<event>
 7    1  0.9868142E-013  0.5052885E+02  0.7816164E-02  0.1300439E+00
        -11   -1    0    0    0    0  0.00000000000E+00  0.00000000000E+00  0.45593999997E+02  0.45594000000E+02  0.51100000000E-03 0.  1.
         11   -1    0    0    0    0 -0.00000000000E+00 -0.00000000000E+00 -0.45593999997E+02  0.45594000000E+02  0.51100000000E-03 0. -1.
    9900012    2    1    2    0    0  0.60050097743E+01  0.35629784992E+02 -0.18644696601E+02  0.50528850571E+02  0.29999971795E+02 0.  0.
        -12    1    1    2    0    0 -0.60050097743E+01 -0.35629784992E+02  0.18644696601E+02  0.40659149429E+02  0.00000000000E+00 0.  1.
         11    1    3    3    0    0  0.89855582605E+00  0.28597092067E+01 -0.64161094356E+01  0.70817935490E+01  0.51100000000E-03 0. -1.
        -11    1    3    3    0    0  0.84358022419E+01  0.20556276396E+01 -0.88010759085E+01  0.12363142880E+02  0.51100000000E-03 0.  1.
        -12    1    3    3    0    0 -0.33293482937E+01  0.30714448146E+02 -0.34275112565E+01  0.31083914142E+02  0.00000000000E+00 0.  1.
</event>
<event>
 7    1  0.9868142E-013  0.5052888E+02  0.7816164E-02  0.1300439E+00
        -11   -1    0    0    0    0  0.00000000000E+00  0.00000000000E+00  0.45593999997E+02  0.45594000000E+02  0.51100000000E-03 0. -1.
         11   -1    0    0    0    0 -0.00000000000E+00 -0.00000000000E+00 -0.45593999997E+02  0.45594000000E+02  0.51100000000E-03 0.  1.
    9900012    2    1    2    0    0  0.40049941453E+02  0.65674430752E+01  0.24566714755E+01  0.50528876133E+02  0.30000049493E+02 0.  0.
        -12    1    1    2    0    0 -0.40049941453E+02 -0.65674430752E+01 -0.24566714755E+01  0.40659123867E+02  0.00000000000E+00 0.  1.
         11    1    3    3    0    0  0.20063138003E+02  0.52347253200E+01  0.37588437535E+01  0.21072749283E+02  0.51100000000E-03 0. -1.
        -11    1    3    3    0    0 -0.29906266796E+01 -0.34534365217E+01  0.31736433127E+01  0.55625609105E+01  0.51100000000E-03 0.  1.
        -12    1    3    3    0    0  0.22977430129E+02  0.47861542769E+01 -0.44758155908E+01  0.23893565939E+02  0.00000000000E+00 0.  1.
</event>
<event>
 7    1  0.9868142E-013  0.5052886E+02  0.7816164E-02  0.1300439E+00
        -11   -1    0    0    0    0  0.00000000000E+00  0.00000000000E+00  0.45593999997E+02  0.45594000000E+02  0.51100000000E-03 0.  1.
         11   -1    0    0    0    0 -0.00000000000E+00 -0.00000000000E+00 -0.45593999997E+02  0.45594000000E+02  0.51100000000E-03 0. -1.
    9900012    2    1    2    0    0 -0.79426042691E+01 -0.32761142370E+02 -0.22732982542E+02  0.50528857028E+02  0.29999991421E+02 0.  0.
        -12    1    1    2    0    0  0.79426042691E+01  0.32761142370E+02  0.22732982542E+02  0.40659142972E+02  0.00000000000E+00 0.  1.
         11    1    3    3    0    0 -0.50978404592E+01 -0.15810009366E+02 -0.16639056243E+02  0.23511753793E+02  0.51100000000E-03 0. -1.
        -11    1    3    3    0    0  0.15854955344E+01  0.38304877873E+01  0.15637294672E+01  0.44307654966E+01  0.51100000000E-03 0.  1.
        -12    1    3    3    0    0 -0.44302593444E+01 -0.20781620791E+02 -0.76576557667E+01  0.22586337738E+02  0.00000000000E+00 0.  1.
</event>
<event>
 7    1  0.9868142E-013  0.5052887E+02  0.7816164E-02  0.1300439E+00
        -11   -1    0    0    0    0  0.00000000000E+00  0.00000000000E+00  0.45593999997E+02  0.45594000000E+02  0.51100000000E-03 0.  1.
         11   -1    0    0    0    0 -0.00000000000E+00 -0.00000000000E+00 -0.45593999997E+02  0.45594000000E+02  0.51100000000E-03 0. -1.
    9900012    2    1    2    0    0 -0.31026788271E+02  0.19448041518E+02 -0.17671368710E+02  0.50528865954E+02  0.30000018554E+02 0.  0.
        -12    1    1    2    0    0  0.31026788271E+02 -0.19448041518E+02  0.17671368710E+02  0.40659134046E+02  0.00000000000E+00 0.  1.
         11    1    3    3    0    0 -0.17721018660E+02  0.85933699533E+01  0.57855993803E+01  0.20526901129E+02  0.51100000000E-03 0. -1.
        -11    1    3    3    0    0 -0.82501506636E+01  0.57206811786E+01 -0.19110696356E+02  0.21587262322E+02  0.51100000000E-03 0.  1.
         12    1    3    3    0    0 -0.50556189470E+01  0.51339903859E+01 -0.43462717343E+01  0.84147025026E+01  0.00000000000E+00 0. -1.
</event>
<event>
 7    1  0.9868142E-013  0.5052887E+02  0.7816164E-02  0.1300439E+00
        -11   -1    0    0    0    0  0.00000000000E+00  0.00000000000E+00  0.45593999997E+02  0.45594000000E+02  0.51100000000E-03 0.  1.
         11   -1    0    0    0    0 -0.00000000000E+00 -0.00000000000E+00 -0.45593999997E+02  0.45594000000E+02  0.51100000000E-03 0. -1.
    9900012    2    1    2    0    0  0.15944033422E+02 -0.11460117369E+02 -0.35603630205E+02  0.50528868484E+02  0.30000026243E+02 0.  0.
        -12    1    1    2    0    0 -0.15944033422E+02  0.11460117369E+02  0.35603630205E+02  0.40659131516E+02  0.00000000000E+00 0.  1.
         11    1    3    3    0    0  0.19783328509E+02 -0.58850638514E+00 -0.21275445892E+02  0.29058062992E+02  0.51100000000E-03 0. -1.
        -11    1    3    3    0    0 -0.77661646247E+01 -0.72263274795E+01 -0.10072573253E+02  0.14628392052E+02  0.51100000000E-03 0.  1.
        -12    1    3    3    0    0  0.39268695374E+01 -0.36452835042E+01 -0.42556110604E+01  0.68424134402E+01  0.00000000000E+00 0.  1.
</event>
<event>
 7    1  0.9868142E-013  0.5052886E+02  0.7816164E-02  0.1300439E+00
        -11   -1    0    0    0    0  0.00000000000E+00  0.00000000000E+00  0.45593999997E+02  0.45594000000E+02  0.51100000000E-03 0.  1.
         11   -1    0    0    0    0 -0.00000000000E+00 -0.00000000000E+00 -0.45593999997E+02  0.45594000000E+02  0.51100000000E-03 0. -1.
    9900012    2    1    2    0    0  0.43571969454E+01 -0.17118136995E+02 -0.36621715206E+02  0.50528858297E+02  0.29999995279E+02 0.  0.
        -12    1    1    2    0    0 -0.43571969454E+01  0.17118136995E+02  0.36621715206E+02  0.40659141703E+02  0.00000000000E+00 0.  1.
         11    1    3    3    0    0 -0.59492665642E+01  0.41380352560E+01 -0.77834219127E+01  0.10634790330E+02  0.51100000000E-03 0. -1.
        -11    1    3    3    0    0  0.87550831247E+01 -0.11872740640E+02 -0.75362635476E+01  0.16565286576E+02  0.51100000000E-03 0.  1.
        -12    1    3    3    0    0  0.15513803849E+01 -0.93834316112E+01 -0.21302029746E+02  0.23328781391E+02  0.00000000000E+00 0.  1.
</event>
<event>
 7    1  0.9868142E-013  0.5052886E+02  0.7816164E-02  0.1300439E+00
        -11   -1    0    0    0    0  0.00000000000E+00  0.00000000000E+00  0.45593999997E+02  0.45594000000E+02  0.51100000000E-03 0.  1.
         11   -1    0    0    0    0 -0.00000000000E+00 -0.00000000000E+00 -0.45593999997E+02  0.45594000000E+02  0.51100000000E-03 0. -1.
    9900012    2    1    2    0    0  0.64432302200E+01 -0.10806264177E+02 -0.38663615492E+02  0.50528859280E+02  0.29999998268E+02 0.  0.
        -12    1    1    2    0    0 -0.64432302200E+01  0.10806264177E+02  0.38663615492E+02  0.40659140720E+02  0.00000000000E+00 0.  1.
         11    1    3    3    0    0  0.70897237482E+01 -0.20783487430E+00 -0.10060230670E+02  0.12309168110E+02  0.51100000000E-03 0. -1.
        -11    1    3    3    0    0 -0.10630028581E+02 -0.14152596622E+01 -0.18201945557E+02  0.21126080798E+02  0.51100000000E-03 0.  1.
        -12    1    3    3    0    0  0.99835350527E+01 -0.91831696402E+01 -0.10401439265E+02  0.17093610373E+02  0.00000000000E+00 0.  1.
</event>
<event>
 7    1  0.9868142E-013  0.5052886E+02  0.7816164E-02  0.1300439E+00
        -11   -1    0    0    0    0  0.00000000000E+00  0.00000000000E+00  0.45593999997E+02  0.45594000000E+02  0.51100000000E-03 0.  1.
         11   -1    0    0    0    0 -0.00000000000E+00 -0.00000000000E+00 -0.45593999997E+02  0.45594000000E+02  0.51100000000E-03 0. -1.
    9900012    2    1    2    0    0  0.34747741389E+02 -0.59963691415E+01 -0.20243612827E+02  0.50528857919E+02  0.29999994129E+02 0.  0.
        -12    1    1    2    0    0 -0.34747741389E+02  0.59963691415E+01  0.20243612827E+02  0.40659142081E+02  0.00000000000E+00 0.  1.
         11    1    3    3    0    0 -0.49688225264E+00  0.46152591159E+01 -0.76324212087E+01  0.89331608318E+01  0.51100000000E-03 0.  1.
        -11    1    3    3    0    0  0.31187600034E+02 -0.12364657431E+02 -0.66945710030E+01  0.34210647910E+02  0.51100000000E-03 0. -1.
         12    1    3    3    0    0  0.40570236075E+01  0.17530291733E+01 -0.59166206152E+01  0.73850491765E+01  0.00000000000E+00 0. -1.
</event>
<event>
 7    1  0.9868142E-013  0.5052886E+02  0.7816164E-02  0.1300439E+00
        -11   -1    0    0    0    0  0.00000000000E+00  0.00000000000E+00  0.45593999997E+02  0.45594000000E+02  0.51100000000E-03 0.  1.
         11   -1    0    0    0    0 -0.00000000000E+00 -0.00000000000E+00 -0.45593999997E+02  0.45594000000E+02  0.51100000000E-03 0. -1.
    9900012    2    1    2    0    0 -0.35803681489E+00 -0.26712957110E+01 -0.40569714640E+02  0.50528858874E+02  0.29999997032E+02 0.  0.
        -12    1    1    2    0    0  0.35803681489E+00  0.26712957110E+01  0.40569714640E+02  0.40659141126E+02  0.00000000000E+00 0.  1.
         11    1    3    3    0    0  0.57503782306E+01  0.74476119826E+00 -0.39076280202E+02  0.39504141476E+02  0.51100000000E-03 0. -1.
        -11    1    3    3    0    0 -0.18204546527E+01  0.20946425580E+01 -0.27762173511E+01  0.39254255349E+01  0.51100000000E-03 0.  1.
         12    1    3    3    0    0 -0.42879603928E+01 -0.55106994673E+01  0.12827829131E+01  0.70992918626E+01  0.00000000000E+00 0. -1.
</event>
<event>
 7    1  0.9868142E-013  0.5052887E+02  0.7816164E-02  0.1300439E+00
        -11   -1    0    0    0    0  0.00000000000E+00  0.00000000000E+00  0.45593999997E+02  0.45594000000E+02  0.51100000000E-03 0.  1.
         11   -1    0    0    0    0 -0.00000000000E+00 -0.00000000000E+00 -0.45593999997E+02  0.45594000000E+02  0.51100000000E-03 0. -1.
    9900012    2    1    2    0    0  0.33468162805E+02  0.16611025742E+02 -0.16034988293E+02  0.50528868832E+02  0.30000027303E+02 0.  0.
        -12    1    1    2    0    0 -0.33468162805E+02 -0.16611025742E+02  0.16034988293E+02  0.40659131168E+02  0.00000000000E+00 0.  1.
         11    1    3    3    0    0  0.10972146538E+02 -0.57757035314E+01 -0.64041865002E+01  0.13955656771E+02  0.51100000000E-03 0. -1.
        -11    1    3    3    0    0  0.12101307936E+02  0.16127319882E+02 -0.12987686386E+02  0.23983579763E+02  0.51100000000E-03 0.  1.
        -12    1    3    3    0    0  0.10394708332E+02  0.62594093911E+01  0.33568845932E+01  0.12589632298E+02  0.00000000000E+00 0.  1.
</event>
<event>
 7    1  0.9868142E-013  0.5052879E+02  0.7816164E-02  0.1300439E+00
        -11   -1    0    0    0    0  0.00000000000E+00  0.00000000000E+00  0.45593999997E+02  0.45594000000E+02  0.51100000000E-03 0.  1.
         11   -1    0    0    0    0 -0.00000000000E+00 -0.00000000000E+00 -0.45593999997E+02  0.45594000000E+02  0.51100000000E-03 0. -1.
    9900012    2    1    2    0    0  0.25038400700E+02 -0.67260080268E+01 -0.31321089190E+02  0.50528790445E+02  0.29999789036E+02 0.  0.
        -12    1    1    2    0    0 -0.25038400700E+02  0.67260080268E+01  0.31321089190E+02  0.40659209555E+02  0.00000000000E+00 0.  1.
         11    1    3    3    0    0  0.68738978234E+01 -0.97569463373E+01 -0.21454700007E+02  0.24551020870E+02  0.51100000000E-03 0. -1.
        -11    1    3    3    0    0  0.38058094411E+01  0.79471791690E+01 -0.28821179147E+01  0.92708384833E+01  0.51100000000E-03 0.  1.
        -12    1    3    3    0    0  0.14358693435E+02 -0.49162408585E+01 -0.69842712687E+01  0.16706931092E+02  0.00000000000E+00 0.  1.
</event>
<event>
 7    1  0.9868142E-013  0.5052886E+02  0.7816164E-02  0.1300439E+00
        -11   -1    0    0    0    0  0.00000000000E+00  0.00000000000E+00  0.45593999997E+02  0.45594000000E+02  0.51100000000E-03 0.  1.
         11   -1    0    0    0    0 -0.00000000000E+00 -0.00000000000E+00 -0.45593999997E+02  0.45594000000E+02  0.51100000000E-03 0. -1.
    9900012    2    1    2    0    0 -0.26888500646E+02  0.30231279654E+02  0.40303816625E+01  0.50528859418E+02  0.29999998687E+02 0.  0.
        -12    1    1    2    0    0  0.26888500646E+02 -0.30231279654E+02 -0.40303816625E+01  0.40659140582E+02  0.00000000000E+00 0.  1.
         11    1    3    3    0    0 -0.14338805206E+02  0.27544264554E+02 -0.30654930182E+01  0.31203927514E+02  0.51100000000E-03 0. -1.
        -11    1    3    3    0    0 -0.11557155712E+02 -0.30426058056E+01  0.33636630237E+01  0.12415294093E+02  0.51100000000E-03 0.  1.
        -12    1    3    3    0    0 -0.99253972920E+00  0.57296209050E+01  0.37322116569E+01  0.69096378111E+01  0.00000000000E+00 0.  1.
</event>
