<event>
 7    1  0.4818508E-009  0.4778727E+02  0.7816164E-02  0.1312668E+00
        -11   -1    0    0    0    0  0.00000000000E+00  0.00000000000E+00  0.45593999997E+02  0.45594000000E+02  0.51100000000E-03 0.  1.
         11   -1    0    0    0    0 -0.00000000000E+00 -0.00000000000E+00 -0.45593999997E+02  0.45594000000E+02  0.51100000000E-03 0. -1.
    9900012    2    1    2    0    0  0.85092487957E+01  0.20844702933E+02  0.37104098693E+02  0.47787273103E+02  0.20000009384E+02 0.  0.
         12    1    1    2    0    0 -0.85092487957E+01 -0.20844702933E+02 -0.37104098693E+02  0.43400726897E+02  0.00000000000E+00 0. -1.
         11    1    3    3    0    0  0.20433587655E+00  0.37083148894E+01  0.26172562861E+00  0.37231509552E+01  0.51100000000E-03 0. -1.
        -11    1    3    3    0    0  0.13094506795E+01 -0.15065183774E+01  0.12295530956E+02  0.12456497921E+02  0.51100000000E-03 0.  1.
        -12    1    3    3    0    0  0.69954622397E+01  0.18642906421E+02  0.24546842108E+02  0.31607624227E+02  0.00000000000E+00 0.  1.
</event>
<event>
 7    1  0.4818508E-009  0.4778728E+02  0.7816164E-02  0.1312668E+00
        -11   -1    0    0    0    0  0.00000000000E+00  0.00000000000E+00  0.45593999997E+02  0.45594000000E+02  0.51100000000E-03 0.  1.
         11   -1    0    0    0    0 -0.00000000000E+00 -0.00000000000E+00 -0.45593999997E+02  0.45594000000E+02  0.51100000000E-03 0. -1.
    9900012    2    1    2    0    0  0.24525163106E+02  0.65074917447E+01  0.35210670186E+02  0.47787281468E+02  0.20000047525E+02 0.  0.
         12    1    1    2    0    0 -0.24525163106E+02 -0.65074917447E+01 -0.35210670186E+02  0.43400718532E+02  0.00000000000E+00 0. -1.
         11    1    3    3    0    0 -0.18234146316E+01 -0.29724732121E+01  0.23135949022E+01  0.41848727040E+01  0.51100000000E-03 0. -1.
        -11    1    3    3    0    0  0.23521621048E+02  0.62902574935E+01  0.28334448237E+02  0.37358733293E+02  0.51100000000E-03 0.  1.
         12    1    3    3    0    0  0.28269566890E+01  0.31897074634E+01  0.45626270460E+01  0.62436754708E+01  0.00000000000E+00 0. -1.
</event>
<event>
 7    1  0.4818508E-009  0.4778729E+02  0.7816164E-02  0.1312668E+00
        -11   -1    0    0    0    0  0.00000000000E+00  0.00000000000E+00  0.45593999997E+02  0.45594000000E+02  0.51100000000E-03 0.  1.
         11   -1    0    0    0    0 -0.00000000000E+00 -0.00000000000E+00 -0.45593999997E+02  0.45594000000E+02  0.51100000000E-03 0. -1.
    9900012    2    1    2    0    0 -0.27173893900E+02  0.33760004091E+02 -0.23374405079E+01  0.47787285559E+02  0.20000066176E+02 0.  0.
         12    1    1    2    0    0  0.27173893900E+02 -0.33760004091E+02  0.23374405079E+01  0.43400714441E+02  0.00000000000E+00 0. -1.
         11    1    3    3    0    0  0.18349907401E+01  0.20661449550E+01 -0.12410818828E+01  0.30292623677E+01  0.51100000000E-03 0. -1.
        -11    1    3    3    0    0 -0.23008094156E+02  0.16501288589E+02  0.71829114360E+00  0.28322797606E+02  0.51100000000E-03 0.  1.
        -12    1    3    3    0    0 -0.60007904838E+01  0.15192570547E+02 -0.18146497687E+01  0.16435225585E+02  0.00000000000E+00 0.  1.
</event>
<event>
 7    1  0.4818508E-009  0.4778729E+02  0.7816164E-02  0.1312668E+00
        -11   -1    0    0    0    0  0.00000000000E+00  0.00000000000E+00  0.45593999997E+02  0.45594000000E+02  0.51100000000E-03 0.  1.
         11   -1    0    0    0    0 -0.00000000000E+00 -0.00000000000E+00 -0.45593999997E+02  0.45594000000E+02  0.51100000000E-03 0. -1.
    9900012    2    1    2    0    0  0.21112141913E+02 -0.37439840765E+02  0.60131377446E+01  0.47787285280E+02  0.20000064907E+02 0.  0.
         12    1    1    2    0    0 -0.21112141913E+02  0.37439840765E+02 -0.60131377446E+01  0.43400714720E+02  0.00000000000E+00 0. -1.
         11    1    3    3    0    0  0.48858490968E+01 -0.23260765833E+02  0.12326866500E+01  0.23800299687E+02  0.51100000000E-03 0.  1.
        -11    1    3    3    0    0  0.91805288938E+01 -0.19711727891E+01  0.14178758904E+01  0.94962100459E+01  0.51100000000E-03 0. -1.
         12    1    3    3    0    0  0.70457639225E+01 -0.12207902142E+02  0.33625752042E+01  0.14490775548E+02  0.00000000000E+00 0. -1.
</event>
<event>
 7    1  0.4818508E-009  0.4778728E+02  0.7816164E-02  0.1312668E+00
        -11   -1    0    0    0    0  0.00000000000E+00  0.00000000000E+00  0.45593999997E+02  0.45594000000E+02  0.51100000000E-03 0.  1.
         11   -1    0    0    0    0 -0.00000000000E+00 -0.00000000000E+00 -0.45593999997E+02  0.45594000000E+02  0.51100000000E-03 0. -1.
    9900012    2    1    2    0    0  0.36761725478E+02 -0.17133039835E+02  0.15448535601E+02  0.47787276892E+02  0.20000026661E+02 0.  0.
         12    1    1    2    0    0 -0.36761725478E+02  0.17133039835E+02 -0.15448535601E+02  0.43400723108E+02  0.00000000000E+00 0. -1.
         11    1    3    3    0    0  0.26409684633E+02 -0.12122917358E+02  0.13541620213E+01  0.29090725717E+02  0.51100000000E-03 0. -1.
        -11    1    3    3    0    0  0.81436066674E+01 -0.26375953919E+01  0.76384278645E+01  0.11472611713E+02  0.51100000000E-03 0.  1.
         12    1    3    3    0    0  0.22084341775E+01 -0.23725270843E+01  0.64559457150E+01  0.72239394625E+01  0.00000000000E+00 0. -1.
</event>
<event>
 7    1  0.4818508E-009  0.4778726E+02  0.7816164E-02  0.1312668E+00
        -11   -1    0    0    0    0  0.00000000000E+00  0.00000000000E+00  0.45593999997E+02  0.45594000000E+02  0.51100000000E-03 0. -1.
         11   -1    0    0    0    0 -0.00000000000E+00 -0.00000000000E+00 -0.45593999997E+02  0.45594000000E+02  0.51100000000E-03 0.  1.
    9900012    2    1    2    0    0 -0.16929854554E+02  0.74062465846E+01 -0.39270238714E+02  0.47787261384E+02  0.19999955955E+02 0.  0.
         12    1    1    2    0    0  0.16929854554E+02 -0.74062465846E+01  0.39270238714E+02  0.43400738616E+02  0.00000000000E+00 0. -1.
         11    1    3    3    0    0 -0.51548308382E+01  0.16832790276E+01 -0.25174787698E+02  0.25752196900E+02  0.51100000000E-03 0. -1.
        -11    1    3    3    0    0 -0.13851305005E+02  0.52023176851E+01 -0.12364448163E+02  0.19282176700E+02  0.51100000000E-03 0.  1.
         12    1    3    3    0    0  0.20762812886E+01  0.52064987188E+00 -0.17310028530E+01  0.27528877848E+01  0.00000000000E+00 0. -1.
</event>
<event>
 7    1  0.4818508E-009  0.4778727E+02  0.7816164E-02  0.1312668E+00
        -11   -1    0    0    0    0  0.00000000000E+00  0.00000000000E+00  0.45593999997E+02  0.45594000000E+02  0.51100000000E-03 0.  1.
         11   -1    0    0    0    0 -0.00000000000E+00 -0.00000000000E+00 -0.45593999997E+02  0.45594000000E+02  0.51100000000E-03 0. -1.
    9900012    2    1    2    0    0  0.90169380492E+01 -0.42127722397E+02  0.52510031098E+01  0.47787271897E+02  0.20000003889E+02 0.  0.
         12    1    1    2    0    0 -0.90169380492E+01  0.42127722397E+02 -0.52510031098E+01  0.43400728103E+02  0.00000000000E+00 0. -1.
         11    1    3    3    0    0 -0.15897938605E+01 -0.13550956963E+01  0.56780175122E+00  0.21647466260E+01  0.51100000000E-03 0. -1.
        -11    1    3    3    0    0  0.10352587229E+01 -0.72537418617E+01 -0.56632975208E+01  0.92607489270E+01  0.51100000000E-03 0.  1.
        -12    1    3    3    0    0  0.95714731868E+01 -0.33518884840E+02  0.10346498879E+02  0.36361776344E+02  0.00000000000E+00 0.  1.
</event>
<event>
 7    1  0.4818508E-009  0.4778731E+02  0.7816164E-02  0.1312668E+00
        -11   -1    0    0    0    0  0.00000000000E+00  0.00000000000E+00  0.45593999997E+02  0.45594000000E+02  0.51100000000E-03 0. -1.
         11   -1    0    0    0    0 -0.00000000000E+00 -0.00000000000E+00 -0.45593999997E+02  0.45594000000E+02  0.51100000000E-03 0.  1.
    9900012    2    1    2    0    0 -0.26247174226E+02 -0.24959888838E+02 -0.23910444877E+02  0.47787313602E+02  0.20000194034E+02 0.  0.
         12    1    1    2    0    0  0.26247174226E+02  0.24959888838E+02  0.23910444877E+02  0.43400686398E+02  0.00000000000E+00 0. -1.
         11    1    3    3    0    0 -0.18560703361E+02 -0.14368577822E+02 -0.20498239848E+02  0.31163016141E+02  0.51100000000E-03 0.  1.
        -11    1    3    3    0    0 -0.16400364468E+01 -0.22863583073E+01  0.33124193330E+01  0.43461794665E+01  0.51100000000E-03 0. -1.
        -12    1    3    3    0    0 -0.60464344177E+01 -0.83049527086E+01 -0.67246243616E+01  0.12278117994E+02  0.00000000000E+00 0.  1.
</event>
<event>
 7    1  0.4818508E-009  0.4778727E+02  0.7816164E-02  0.1312668E+00
        -11   -1    0    0    0    0  0.00000000000E+00  0.00000000000E+00  0.45593999997E+02  0.45594000000E+02  0.51100000000E-03 0.  1.
         11   -1    0    0    0    0 -0.00000000000E+00 -0.00000000000E+00 -0.45593999997E+02  0.45594000000E+02  0.51100000000E-03 0. -1.
    9900012    2    1    2    0    0 -0.16732965390E+02 -0.56479678743E+01  0.39645069247E+02  0.47787272040E+02  0.20000004539E+02 0.  0.
         12    1    1    2    0    0  0.16732965390E+02  0.56479678743E+01 -0.39645069247E+02  0.43400727960E+02  0.00000000000E+00 0. -1.
         11    1    3    3    0    0 -0.74311551460E+01 -0.23473060797E+01  0.84246789046E+01  0.11476372578E+02  0.51100000000E-03 0. -1.
        -11    1    3    3    0    0 -0.50595716207E+01 -0.94827547127E+01  0.15126236496E+02  0.18555994522E+02  0.51100000000E-03 0.  1.
        -12    1    3    3    0    0 -0.42422386231E+01  0.61820929180E+01  0.16094153847E+02  0.17754904940E+02  0.00000000000E+00 0.  1.
</event>
<event>
 7    1  0.4818508E-009  0.4778727E+02  0.7816164E-02  0.1312668E+00
        -11   -1    0    0    0    0  0.00000000000E+00  0.00000000000E+00  0.45593999997E+02  0.45594000000E+02  0.51100000000E-03 0. -1.
         11   -1    0    0    0    0 -0.00000000000E+00 -0.00000000000E+00 -0.45593999997E+02  0.45594000000E+02  0.51100000000E-03 0.  1.
    9900012    2    1    2    0    0 -0.60214066891E+01 -0.49229880181E+01 -0.42698129279E+02  0.47787269666E+02  0.19999993716E+02 0.  0.
         12    1    1    2    0    0  0.60214066891E+01  0.49229880181E+01  0.42698129279E+02  0.43400730334E+02  0.00000000000E+00 0. -1.
         11    1    3    3    0    0 -0.13194443227E+02 -0.30210403352E+01 -0.24475369414E+02  0.27968977905E+02  0.51100000000E-03 0. -1.
        -11    1    3    3    0    0  0.44705635899E+01 -0.23462487605E+01 -0.11542911694E+02  0.12598794890E+02  0.51100000000E-03 0.  1.
         12    1    3    3    0    0  0.27024729485E+01  0.44430107765E+00 -0.66798481711E+01  0.72194968712E+01  0.00000000000E+00 0. -1.
</event>
<event>
 7    1  0.4818508E-009  0.4778729E+02  0.7816164E-02  0.1312668E+00
        -11   -1    0    0    0    0  0.00000000000E+00  0.00000000000E+00  0.45593999997E+02  0.45594000000E+02  0.51100000000E-03 0.  1.
         11   -1    0    0    0    0 -0.00000000000E+00 -0.00000000000E+00 -0.45593999997E+02  0.45594000000E+02  0.51100000000E-03 0. -1.
    9900012    2    1    2    0    0  0.23512988083E+02  0.28442491036E+02  0.22842628713E+02  0.47787290427E+02  0.20000088372E+02 0.  0.
         12    1    1    2    0    0 -0.23512988083E+02 -0.28442491036E+02 -0.22842628713E+02  0.43400709573E+02  0.00000000000E+00 0. -1.
         11    1    3    3    0    0  0.17973630952E+02  0.19911534960E+02  0.20938775983E+02  0.34028708086E+02  0.51100000000E-03 0.  1.
        -11    1    3    3    0    0 -0.15179220220E+01  0.22696649438E+01 -0.21644950490E+01  0.34843227893E+01  0.51100000000E-03 0. -1.
         12    1    3    3    0    0  0.70572791532E+01  0.62612911325E+01  0.40683477784E+01  0.10274259552E+02  0.00000000000E+00 0. -1.
</event>
<event>
 7    1  0.4818508E-009  0.4778727E+02  0.7816164E-02  0.1312668E+00
        -11   -1    0    0    0    0  0.00000000000E+00  0.00000000000E+00  0.45593999997E+02  0.45594000000E+02  0.51100000000E-03 0.  1.
         11   -1    0    0    0    0 -0.00000000000E+00 -0.00000000000E+00 -0.45593999997E+02  0.45594000000E+02  0.51100000000E-03 0. -1.
    9900012    2    1    2    0    0 -0.31269341803E+02  0.21852480323E+02  0.20695905731E+02  0.47787272505E+02  0.20000006659E+02 0.  0.
         12    1    1    2    0    0  0.31269341803E+02 -0.21852480323E+02 -0.20695905731E+02  0.43400727495E+02  0.00000000000E+00 0. -1.
         11    1    3    3    0    0 -0.11347161886E+01 -0.23247274253E+01 -0.10017186839E+01  0.27740546162E+01  0.51100000000E-03 0. -1.
        -11    1    3    3    0    0 -0.30017812267E+02  0.24615388653E+02  0.21835042619E+02  0.44539370206E+02  0.51100000000E-03 0.  1.
        -12    1    3    3    0    0 -0.11681334759E+00 -0.43818090556E+00 -0.13741820408E+00  0.47384768332E+00  0.00000000000E+00 0.  1.
</event>
<event>
 7    1  0.4818508E-009  0.4778728E+02  0.7816164E-02  0.1312668E+00
        -11   -1    0    0    0    0  0.00000000000E+00  0.00000000000E+00  0.45593999997E+02  0.45594000000E+02  0.51100000000E-03 0.  1.
         11   -1    0    0    0    0 -0.00000000000E+00 -0.00000000000E+00 -0.45593999997E+02  0.45594000000E+02  0.51100000000E-03 0. -1.
    9900012    2    1    2    0    0  0.18107954410E+02  0.31180155137E+02  0.24156206399E+02  0.47787281172E+02  0.20000046174E+02 0.  0.
         12    1    1    2    0    0 -0.18107954410E+02 -0.31180155137E+02 -0.24156206399E+02  0.43400718828E+02  0.00000000000E+00 0. -1.
         11    1    3    3    0    0  0.57148571507E+01  0.10623142610E+02  0.11049836642E+00  0.12063289822E+02  0.51100000000E-03 0. -1.
        -11    1    3    3    0    0  0.81664248656E+01  0.20617447494E+02  0.20653587851E+02  0.30304130537E+02  0.51100000000E-03 0.  1.
        -12    1    3    3    0    0  0.42266723933E+01 -0.60434967438E-01  0.33921201812E+01  0.54198608127E+01  0.00000000000E+00 0.  1.
</event>
<event>
 7    1  0.4818508E-009  0.4778731E+02  0.7816164E-02  0.1312668E+00
        -11   -1    0    0    0    0  0.00000000000E+00  0.00000000000E+00  0.45593999997E+02  0.45594000000E+02  0.51100000000E-03 0.  1.
         11   -1    0    0    0    0 -0.00000000000E+00 -0.00000000000E+00 -0.45593999997E+02  0.45594000000E+02  0.51100000000E-03 0. -1.
    9900012    2    1    2    0    0  0.77932221620E+01 -0.42427568555E+02 -0.47735477757E+01  0.47787312868E+02  0.20000190689E+02 0.  0.
         12    1    1    2    0    0 -0.77932221620E+01  0.42427568555E+02  0.47735477757E+01  0.43400687132E+02  0.00000000000E+00 0. -1.
         11    1    3    3    0    0  0.56508107900E+00  0.47903422575E+00 -0.11156320219E+01  0.13391883679E+01  0.51100000000E-03 0. -1.
        -11    1    3    3    0    0  0.10897247410E+02 -0.20206635585E+02 -0.46838096879E+01  0.23430667858E+02  0.51100000000E-03 0.  1.
        -12    1    3    3    0    0 -0.36691063271E+01 -0.22699967196E+02  0.10258939341E+01  0.23017456642E+02  0.00000000000E+00 0.  1.
</event>
<event>
 7    1  0.4818508E-009  0.4778727E+02  0.7816164E-02  0.1312668E+00
        -11   -1    0    0    0    0  0.00000000000E+00  0.00000000000E+00  0.45593999997E+02  0.45594000000E+02  0.51100000000E-03 0.  1.
         11   -1    0    0    0    0 -0.00000000000E+00 -0.00000000000E+00 -0.45593999997E+02  0.45594000000E+02  0.51100000000E-03 0. -1.
    9900012    2    1    2    0    0  0.31690415286E+02 -0.20944226919E+02  0.20992380652E+02  0.47787272959E+02  0.20000008728E+02 0.  0.
         12    1    1    2    0    0 -0.31690415286E+02  0.20944226919E+02 -0.20992380652E+02  0.43400727041E+02  0.00000000000E+00 0. -1.
         11    1    3    3    0    0  0.29731657092E+01 -0.17759985763E+01  0.83614682138E+01  0.90503058638E+01  0.51100000000E-03 0. -1.
        -11    1    3    3    0    0  0.12702114062E+02 -0.14574611647E+02  0.32120091751E+01  0.19597959320E+02  0.51100000000E-03 0.  1.
        -12    1    3    3    0    0  0.16015135515E+02 -0.45936166956E+01  0.94189032632E+01  0.19139007775E+02  0.00000000000E+00 0.  1.
</event>
<event>
 7    1  0.5696291E-009  0.4778727E+02  0.7816164E-02  0.1312668E+00
        -11   -1    0    0    0    0  0.00000000000E+00  0.00000000000E+00  0.45593999997E+02  0.45594000000E+02  0.51100000000E-03 0. -1.
         11   -1    0    0    0    0 -0.00000000000E+00 -0.00000000000E+00 -0.45593999997E+02  0.45594000000E+02  0.51100000000E-03 0.  1.
    9900012    2    1    2    0    0 -0.38055727368E+02  0.20297065787E+02  0.48387982177E+01  0.47787271513E+02  0.20000002135E+02 0.  0.
         12    1    1    2    0    0  0.38055727368E+02 -0.20297065787E+02 -0.48387982177E+01  0.43400728487E+02  0.00000000000E+00 0. -1.
         11    1    3    3    0    0 -0.34640594830E+01  0.16377465009E+01 -0.37627201218E+01  0.53702872063E+01  0.51100000000E-03 0. -1.
        -11    1    3    3    0    0 -0.30525505964E+02  0.10519475999E+02  0.52014555596E+01  0.32703532376E+02  0.51100000000E-03 0.  1.
        -12    1    3    3    0    0 -0.40661619207E+01  0.81398432867E+01  0.34000627799E+01  0.97134519304E+01  0.00000000000E+00 0.  1.
</event>
<event>
 7    1  0.4818508E-009  0.4778728E+02  0.7816164E-02  0.1312668E+00
        -11   -1    0    0    0    0  0.00000000000E+00  0.00000000000E+00  0.45593999997E+02  0.45594000000E+02  0.51100000000E-03 0.  1.
         11   -1    0    0    0    0 -0.00000000000E+00 -0.00000000000E+00 -0.45593999997E+02  0.45594000000E+02  0.51100000000E-03 0. -1.
    9900012    2    1    2    0    0  0.25140824244E+02  0.15448433025E+02  0.31826203990E+02  0.47787281262E+02  0.20000046586E+02 0.  0.
         12    1    1    2    0    0 -0.25140824244E+02 -0.15448433025E+02 -0.31826203990E+02  0.43400718738E+02  0.00000000000E+00 0. -1.
         11    1    3    3    0    0  0.15069144265E+02 -0.22225385238E+00  0.19627453319E+02  0.24746018462E+02  0.51100000000E-03 0. -1.
        -11    1    3    3    0    0  0.10158104935E+02  0.13994327607E+02  0.91575049302E+01  0.19567529171E+02  0.51100000000E-03 0.  1.
         12    1    3    3    0    0 -0.86424956102E-01  0.16763592705E+01  0.30412457401E+01  0.34737336294E+01  0.00000000000E+00 0. -1.
</event>
<event>
 7    1  0.4818508E-009  0.4778728E+02  0.7816164E-02  0.1312668E+00
        -11   -1    0    0    0    0  0.00000000000E+00  0.00000000000E+00  0.45593999997E+02  0.45594000000E+02  0.51100000000E-03 0.  1.
         11   -1    0    0    0    0 -0.00000000000E+00 -0.00000000000E+00 -0.45593999997E+02  0.45594000000E+02  0.51100000000E-03 0. -1.
    9900012    2    1    2    0    0  0.28753422440E+02 -0.12002185646E+02  0.30212757732E+02  0.47787280052E+02  0.20000041067E+02 0.  0.
         12    1    1    2    0    0 -0.28753422440E+02  0.12002185646E+02 -0.30212757732E+02  0.43400719948E+02  0.00000000000E+00 0. -1.
         11    1    3    3    0    0  0.12414884969E+02 -0.11266147007E+02  0.74282870604E+01  0.18336708704E+02  0.51100000000E-03 0. -1.
        -11    1    3    3    0    0  0.78938938634E+01 -0.30044473473E+00  0.18180506492E+02  0.19822579144E+02  0.51100000000E-03 0.  1.
        -12    1    3    3    0    0  0.84446436072E+01 -0.43559390423E+00  0.46039641792E+01  0.96279922033E+01  0.00000000000E+00 0.  1.
</event>
<event>
 7    1  0.4818508E-009  0.4778727E+02  0.7816164E-02  0.1312668E+00
        -11   -1    0    0    0    0  0.00000000000E+00  0.00000000000E+00  0.45593999997E+02  0.45594000000E+02  0.51100000000E-03 0. -1.
         11   -1    0    0    0    0 -0.00000000000E+00 -0.00000000000E+00 -0.45593999997E+02  0.45594000000E+02  0.51100000000E-03 0.  1.
    9900012    2    1    2    0    0  0.72852157536E+01  0.15446607019E+02 -0.39899262969E+02  0.47787271637E+02  0.20000002703E+02 0.  0.
         12    1    1    2    0    0 -0.72852157536E+01 -0.15446607019E+02  0.39899262969E+02  0.43400728363E+02  0.00000000000E+00 0. -1.
         11    1    3    3    0    0 -0.31159004355E+01 -0.18241549644E+01 -0.81431092856E+01  0.89076711859E+01  0.51100000000E-03 0. -1.
        -11    1    3    3    0    0  0.11440192361E+02  0.12107876443E+02 -0.27300593192E+02  0.31981261109E+02  0.51100000000E-03 0.  1.
         12    1    3    3    0    0 -0.10390761719E+01  0.51628855404E+01 -0.44555604910E+01  0.68983393424E+01  0.00000000000E+00 0. -1.
</event>
<event>
 7    1  0.4818508E-009  0.4778727E+02  0.7816164E-02  0.1312668E+00
        -11   -1    0    0    0    0  0.00000000000E+00  0.00000000000E+00  0.45593999997E+02  0.45594000000E+02  0.51100000000E-03 0.  1.
         11   -1    0    0    0    0 -0.00000000000E+00 -0.00000000000E+00 -0.45593999997E+02  0.45594000000E+02  0.51100000000E-03 0. -1.
    9900012    2    1    2    0    0  0.40239971367E+02 -0.10533163951E+02  0.12386305163E+02  0.47787269660E+02  0.19999993688E+02 0.  0.
         12    1    1    2    0    0 -0.40239971367E+02  0.10533163951E+02 -0.12386305163E+02  0.43400730340E+02  0.00000000000E+00 0. -1.
         11    1    3    3    0    0  0.10467769282E+01 -0.33038510587E+01  0.51993594664E+01  0.62485608645E+01  0.51100000000E-03 0. -1.
        -11    1    3    3    0    0  0.23720363515E+02 -0.32589596665E+01  0.87417534568E+01  0.25489109775E+02  0.51100000000E-03 0.  1.
         12    1    3    3    0    0  0.15472830924E+02 -0.39703532258E+01 -0.15548077598E+01  0.16049599020E+02  0.00000000000E+00 0. -1.
</event>
<event>
 7    1  0.4818508E-009  0.4778727E+02  0.7816164E-02  0.1312668E+00
        -11   -1    0    0    0    0  0.00000000000E+00  0.00000000000E+00  0.45593999997E+02  0.45594000000E+02  0.51100000000E-03 0.  1.
         11   -1    0    0    0    0 -0.00000000000E+00 -0.00000000000E+00 -0.45593999997E+02  0.45594000000E+02  0.51100000000E-03 0. -1.
    9900012    2    1    2    0    0 -0.17142535939E+02 -0.23535460974E+02  0.32184450956E+02  0.47787270225E+02  0.19999996263E+02 0.  0.
         12    1    1    2    0    0  0.17142535939E+02  0.23535460974E+02 -0.32184450956E+02  0.43400729775E+02  0.00000000000E+00 0. -1.
         11    1    3    3    0    0  0.74525167753E+00 -0.44389894306E+00  0.27128615876E+01  0.28481686378E+01  0.51100000000E-03 0. -1.
        -11    1    3    3    0    0 -0.10242941889E+02 -0.23790850596E+02  0.25273698440E+02  0.36189532515E+02  0.51100000000E-03 0.  1.
        -12    1    3    3    0    0 -0.76448457271E+01  0.69928856479E+00  0.41978909288E+01  0.87495690716E+01  0.00000000000E+00 0.  1.
</event>
<event>
 7    1  0.4818508E-009  0.4778728E+02  0.7816164E-02  0.1312668E+00
        -11   -1    0    0    0    0  0.00000000000E+00  0.00000000000E+00  0.45593999997E+02  0.45594000000E+02  0.51100000000E-03 0.  1.
         11   -1    0    0    0    0 -0.00000000000E+00 -0.00000000000E+00 -0.45593999997E+02  0.45594000000E+02  0.51100000000E-03 0. -1.
    9900012    2    1    2    0    0 -0.37592693578E+02  0.39952852100E+01  0.21317827263E+02  0.47787277960E+02  0.20000031530E+02 0.  0.
         12    1    1    2    0    0  0.37592693578E+02 -0.39952852100E+01 -0.21317827263E+02  0.43400722040E+02  0.00000000000E+00 0. -1.
         11    1    3    3    0    0 -0.38975239502E+01 -0.15156472553E+01 -0.30392759888E+00  0.41928810848E+01  0.51100000000E-03 0. -1.
        -11    1    3    3    0    0 -0.13113225796E+02 -0.56092134542E+01  0.10378425149E+02  0.17638925001E+02  0.51100000000E-03 0.  1.
        -12    1    3    3    0    0 -0.20581943832E+02  0.11120145919E+02  0.11243329713E+02  0.25955471874E+02  0.00000000000E+00 0.  1.
</event>
<event>
 7    1  0.4818508E-009  0.4778726E+02  0.7816164E-02  0.1312668E+00
        -11   -1    0    0    0    0  0.00000000000E+00  0.00000000000E+00  0.45593999997E+02  0.45594000000E+02  0.51100000000E-03 0.  1.
         11   -1    0    0    0    0 -0.00000000000E+00 -0.00000000000E+00 -0.45593999997E+02  0.45594000000E+02  0.51100000000E-03 0. -1.
    9900012    2    1    2    0    0  0.39519094724E+02 -0.13676634978E+02  0.11610979571E+02  0.47787262233E+02  0.19999959823E+02 0.  0.
         12    1    1    2    0    0 -0.39519094724E+02  0.13676634978E+02 -0.11610979571E+02  0.43400737767E+02  0.00000000000E+00 0. -1.
         11    1    3    3    0    0  0.70896450736E+01  0.82718216865E+00  0.64012001104E+01  0.95876306106E+01  0.51100000000E-03 0. -1.
        -11    1    3    3    0    0  0.27500645757E+02 -0.16748060266E+02  0.29588220236E+01  0.32334774899E+02  0.51100000000E-03 0.  1.
        -12    1    3    3    0    0  0.49288038937E+01  0.22442431192E+01  0.22509574374E+01  0.58648567233E+01  0.00000000000E+00 0.  1.
</event>
<event>
 7    1  0.4818508E-009  0.4778727E+02  0.7816164E-02  0.1312668E+00
        -11   -1    0    0    0    0  0.00000000000E+00  0.00000000000E+00  0.45593999997E+02  0.45594000000E+02  0.51100000000E-03 0.  1.
         11   -1    0    0    0    0 -0.00000000000E+00 -0.00000000000E+00 -0.45593999997E+02  0.45594000000E+02  0.51100000000E-03 0. -1.
    9900012    2    1    2    0    0  0.32494459472E+02 -0.23339616612E+02  0.16822473828E+02  0.47787271600E+02  0.20000002532E+02 0.  0.
         12    1    1    2    0    0 -0.32494459472E+02  0.23339616612E+02 -0.16822473828E+02  0.43400728400E+02  0.00000000000E+00 0. -1.
         11    1    3    3    0    0  0.63960195711E+01 -0.54943465734E+01  0.10413328549E+02  0.13399041845E+02  0.51100000000E-03 0. -1.
        -11    1    3    3    0    0  0.27370695995E+02 -0.16886709243E+02  0.64196924467E+01  0.32795249651E+02  0.51100000000E-03 0.  1.
         12    1    3    3    0    0 -0.12722560942E+01 -0.95856079566E+00 -0.10547167747E-01  0.15929801038E+01  0.00000000000E+00 0. -1.
</event>
<event>
 7    1  0.4818508E-009  0.4778727E+02  0.7816164E-02  0.1312668E+00
        -11   -1    0    0    0    0  0.00000000000E+00  0.00000000000E+00  0.45593999997E+02  0.45594000000E+02  0.51100000000E-03 0.  1.
         11   -1    0    0    0    0 -0.00000000000E+00 -0.00000000000E+00 -0.45593999997E+02  0.45594000000E+02  0.51100000000E-03 0. -1.
    9900012    2    1    2    0    0  0.38380498367E+02 -0.71223128900E+01  0.18969278658E+02  0.47787268110E+02  0.19999986619E+02 0.  0.
         12    1    1    2    0    0 -0.38380498367E+02  0.71223128900E+01 -0.18969278658E+02  0.43400731890E+02  0.00000000000E+00 0. -1.
         11    1    3    3    0    0  0.30160522121E+01  0.28098490932E+01  0.72454949348E+01  0.83360074367E+01  0.51100000000E-03 0. -1.
        -11    1    3    3    0    0  0.95439488248E+01 -0.43934179897E+01  0.69981101298E+01  0.12623891098E+02  0.51100000000E-03 0.  1.
         12    1    3    3    0    0  0.25820497330E+02 -0.55387439935E+01  0.47256735937E+01  0.26827369575E+02  0.00000000000E+00 0. -1.
</event>
<event>
 7    1  0.4818508E-009  0.4778727E+02  0.7816164E-02  0.1312668E+00
        -11   -1    0    0    0    0  0.00000000000E+00  0.00000000000E+00  0.45593999997E+02  0.45594000000E+02  0.51100000000E-03 0.  1.
         11   -1    0    0    0    0 -0.00000000000E+00 -0.00000000000E+00 -0.45593999997E+02  0.45594000000E+02  0.51100000000E-03 0. -1.
    9900012    2    1    2    0    0  0.11500328711E+02  0.50018165772E+00  0.41846333260E+02  0.47787270174E+02  0.19999996031E+02 0.  0.
         12    1    1    2    0    0 -0.11500328711E+02 -0.50018165772E+00 -0.41846333260E+02  0.43400729826E+02  0.00000000000E+00 0. -1.
         11    1    3    3    0    0 -0.65013046416E+00 -0.54898130822E+00  0.77032646832E+01  0.77501185241E+01  0.51100000000E-03 0. -1.
        -11    1    3    3    0    0  0.35766632419E+01  0.79665948989E+01  0.21848536827E+02  0.23529082344E+02  0.51100000000E-03 0.  1.
        -12    1    3    3    0    0  0.85737959337E+01 -0.69174319330E+01  0.12294531750E+02  0.16508069306E+02  0.00000000000E+00 0.  1.
</event>
<event>
 7    1  0.4818508E-009  0.4778733E+02  0.7816164E-02  0.1312668E+00
        -11   -1    0    0    0    0  0.00000000000E+00  0.00000000000E+00  0.45593999997E+02  0.45594000000E+02  0.51100000000E-03 0.  1.
         11   -1    0    0    0    0 -0.00000000000E+00 -0.00000000000E+00 -0.45593999997E+02  0.45594000000E+02  0.51100000000E-03 0. -1.
    9900012    2    1    2    0    0  0.37374782188E+02  0.12462027364E+02  0.18205550349E+02  0.47787325660E+02  0.20000249014E+02 0.  0.
         12    1    1    2    0    0 -0.37374782188E+02 -0.12462027364E+02 -0.18205550349E+02  0.43400674340E+02  0.00000000000E+00 0. -1.
         11    1    3    3    0    0  0.65706686719E+01  0.65590908396E+01  0.12001090864E+02  0.15173053141E+02  0.51100000000E-03 0. -1.
        -11    1    3    3    0    0  0.19083408570E+02  0.50990930726E+00  0.30501366939E+01  0.19332351752E+02  0.51100000000E-03 0.  1.
        -12    1    3    3    0    0  0.11720704946E+02  0.53930272168E+01  0.31543227911E+01  0.13281920767E+02  0.00000000000E+00 0.  1.
</event>
<event>
 7    1  0.4818508E-009  0.4778727E+02  0.7816164E-02  0.1312668E+00
        -11   -1    0    0    0    0  0.00000000000E+00  0.00000000000E+00  0.45593999997E+02  0.45594000000E+02  0.51100000000E-03 0.  1.
         11   -1    0    0    0    0 -0.00000000000E+00 -0.00000000000E+00 -0.45593999997E+02  0.45594000000E+02  0.51100000000E-03 0. -1.
    9900012    2    1    2    0    0 -0.27538559104E+02  0.30911340680E+02 -0.13028437426E+02  0.47787269569E+02  0.19999993274E+02 0.  0.
         12    1    1    2    0    0  0.27538559104E+02 -0.30911340680E+02  0.13028437426E+02  0.43400730431E+02  0.00000000000E+00 0. -1.
         11    1    3    3    0    0  0.16035843284E+01  0.28383215726E+01  0.36101640436E+00  0.32799215163E+01  0.51100000000E-03 0. -1.
        -11    1    3    3    0    0 -0.21286133690E+02  0.26052968895E+02 -0.74615417414E+01  0.34460575752E+02  0.51100000000E-03 0.  1.
        -12    1    3    3    0    0 -0.78560097425E+01  0.20200502122E+01 -0.59279120894E+01  0.10046772301E+02  0.00000000000E+00 0.  1.
</event>
<event>
 7    1  0.4818508E-009  0.4778727E+02  0.7816164E-02  0.1312668E+00
        -11   -1    0    0    0    0  0.00000000000E+00  0.00000000000E+00  0.45593999997E+02  0.45594000000E+02  0.51100000000E-03 0.  1.
         11   -1    0    0    0    0 -0.00000000000E+00 -0.00000000000E+00 -0.45593999997E+02  0.45594000000E+02  0.51100000000E-03 0. -1.
    9900012    2    1    2    0    0 -0.14169273245E+02  0.29086324018E+02  0.28928201234E+02  0.47787269870E+02  0.19999994648E+02 0.  0.
         12    1    1    2    0    0  0.14169273245E+02 -0.29086324018E+02 -0.28928201234E+02  0.43400730130E+02  0.00000000000E+00 0. -1.
         11    1    3    3    0    0 -0.58193902800E+01  0.12979423148E+01  0.71264163322E+01  0.92917042293E+01  0.51100000000E-03 0. -1.
        -11    1    3    3    0    0  0.12733244661E+01  0.14369777333E+02  0.14456171095E+02  0.20422848450E+02  0.51100000000E-03 0.  1.
        -12    1    3    3    0    0 -0.96232074309E+01  0.13418604370E+02  0.73456138061E+01  0.18072717191E+02  0.00000000000E+00 0.  1.
</event>
<event>
 7    1  0.4818508E-009  0.4778727E+02  0.7816164E-02  0.1312668E+00
        -11   -1    0    0    0    0  0.00000000000E+00  0.00000000000E+00  0.45593999997E+02  0.45594000000E+02  0.51100000000E-03 0.  1.
         11   -1    0    0    0    0 -0.00000000000E+00 -0.00000000000E+00 -0.45593999997E+02  0.45594000000E+02  0.51100000000E-03 0. -1.
    9900012    2    1    2    0    0 -0.12465595119E+02 -0.98652543741E+01  0.40384513671E+02  0.47787271319E+02  0.20000001253E+02 0.  0.
         12    1    1    2    0    0  0.12465595119E+02  0.98652543741E+01 -0.40384513671E+02  0.43400728681E+02  0.00000000000E+00 0. -1.
         11    1    3    3    0    0  0.10030772949E+01 -0.84731376849E+00  0.36466784983E+01  0.38758700976E+01  0.51100000000E-03 0. -1.
        -11    1    3    3    0    0 -0.31771308499E+01  0.87947534716E+00  0.25576848976E+02  0.25788424557E+02  0.51100000000E-03 0.  1.
        -12    1    3    3    0    0 -0.10291541564E+02 -0.98974159528E+01  0.11160986197E+02  0.18122976665E+02  0.00000000000E+00 0.  1.
</event>
<event>
 7    1  0.4818508E-009  0.4778727E+02  0.7816164E-02  0.1312668E+00
        -11   -1    0    0    0    0  0.00000000000E+00  0.00000000000E+00  0.45593999997E+02  0.45594000000E+02  0.51100000000E-03 0.  1.
         11   -1    0    0    0    0 -0.00000000000E+00 -0.00000000000E+00 -0.45593999997E+02  0.45594000000E+02  0.51100000000E-03 0. -1.
    9900012    2    1    2    0    0 -0.24164569429E+02 -0.92132696959E+01  0.34854161609E+02  0.47787270333E+02  0.19999996758E+02 0.  0.
         12    1    1    2    0    0  0.24164569429E+02  0.92132696959E+01 -0.34854161609E+02  0.43400729667E+02  0.00000000000E+00 0. -1.
         11    1    3    3    0    0 -0.32792309713E+01  0.36845501614E+01  0.11246516563E+02  0.12280610763E+02  0.51100000000E-03 0. -1.
        -11    1    3    3    0    0 -0.18298734677E+02 -0.67654630334E+01  0.19986318562E+02  0.27929699439E+02  0.51100000000E-03 0.  1.
         12    1    3    3    0    0 -0.25866037805E+01 -0.61323568239E+01  0.36213264844E+01  0.75769601318E+01  0.00000000000E+00 0. -1.
</event>
<event>
 7    1  0.4818508E-009  0.4778725E+02  0.7816164E-02  0.1312668E+00
        -11   -1    0    0    0    0  0.00000000000E+00  0.00000000000E+00  0.45593999997E+02  0.45594000000E+02  0.51100000000E-03 0.  1.
         11   -1    0    0    0    0 -0.00000000000E+00 -0.00000000000E+00 -0.45593999997E+02  0.45594000000E+02  0.51100000000E-03 0. -1.
    9900012    2    1    2    0    0  0.33656149134E+02 -0.23165909739E+02  0.14636563905E+02  0.47787254021E+02  0.19999922384E+02 0.  0.
         12    1    1    2    0    0 -0.33656149134E+02  0.23165909739E+02 -0.14636563905E+02  0.43400745979E+02  0.00000000000E+00 0. -1.
         11    1    3    3    0    0  0.17139646953E+02 -0.14590828824E+02 -0.12290997609E+01  0.22542636712E+02  0.51100000000E-03 0. -1.
        -11    1    3    3    0    0  0.15880099893E+02 -0.75636096504E+01  0.12245130515E+02  0.21431961766E+02  0.51100000000E-03 0.  1.
        -12    1    3    3    0    0  0.63640228756E+00 -0.10114712651E+01  0.36205331508E+01  0.38126555428E+01  0.00000000000E+00 0.  1.
</event>
<event>
 7    1  0.4818508E-009  0.4778727E+02  0.7816164E-02  0.1312668E+00
        -11   -1    0    0    0    0  0.00000000000E+00  0.00000000000E+00  0.45593999997E+02  0.45594000000E+02  0.51100000000E-03 0.  1.
         11   -1    0    0    0    0 -0.00000000000E+00 -0.00000000000E+00 -0.45593999997E+02  0.45594000000E+02  0.51100000000E-03 0. -1.
    9900012    2    1    2    0    0  0.12693412161E+02 -0.29769375833E+02  0.28918589725E+02  0.47787270957E+02  0.19999999602E+02 0.  0.
         12    1    1    2    0    0 -0.12693412161E+02  0.29769375833E+02 -0.28918589725E+02  0.43400729043E+02  0.00000000000E+00 0. -1.
         11    1    3    3    0    0  0.11710325858E+01  0.68584286009E-01 -0.19672630978E+01  0.22904465674E+01  0.51100000000E-03 0. -1.
        -11    1    3    3    0    0  0.11786877314E+02 -0.19235994909E+02  0.23479774563E+02  0.32561538520E+02  0.51100000000E-03 0.  1.
         12    1    3    3    0    0 -0.26449773867E+00 -0.10601965210E+02  0.74060782592E+01  0.12935285870E+02  0.00000000000E+00 0. -1.
</event>
<event>
 7    1  0.4818508E-009  0.4778727E+02  0.7816164E-02  0.1312668E+00
        -11   -1    0    0    0    0  0.00000000000E+00  0.00000000000E+00  0.45593999997E+02  0.45594000000E+02  0.51100000000E-03 0.  1.
         11   -1    0    0    0    0 -0.00000000000E+00 -0.00000000000E+00 -0.45593999997E+02  0.45594000000E+02  0.51100000000E-03 0. -1.
    9900012    2    1    2    0    0  0.22554738802E+02 -0.19589341591E+02  0.31482774267E+02  0.47787267034E+02  0.19999981716E+02 0.  0.
         12    1    1    2    0    0 -0.22554738802E+02  0.19589341591E+02 -0.31482774267E+02  0.43400732966E+02  0.00000000000E+00 0. -1.
         11    1    3    3    0    0  0.76207303153E+01 -0.33211680716E+01  0.25599388655E+01  0.86982167802E+01  0.51100000000E-03 0. -1.
        -11    1    3    3    0    0  0.91864140261E+01 -0.18043014884E+02  0.23096198375E+02  0.30714409785E+02  0.51100000000E-03 0.  1.
        -12    1    3    3    0    0  0.57475944610E+01  0.17748413644E+01  0.58266370262E+01  0.83746404694E+01  0.00000000000E+00 0.  1.
</event>
<event>
 7    1  0.4818508E-009  0.4778727E+02  0.7816164E-02  0.1312668E+00
        -11   -1    0    0    0    0  0.00000000000E+00  0.00000000000E+00  0.45593999997E+02  0.45594000000E+02  0.51100000000E-03 0.  1.
         11   -1    0    0    0    0 -0.00000000000E+00 -0.00000000000E+00 -0.45593999997E+02  0.45594000000E+02  0.51100000000E-03 0. -1.
    9900012    2    1    2    0    0  0.33769192652E+02 -0.26121717021E+02 -0.78051752580E+01  0.47787271512E+02  0.20000002130E+02 0.  0.
         12    1    1    2    0    0 -0.33769192652E+02  0.26121717021E+02  0.78051752580E+01  0.43400728488E+02  0.00000000000E+00 0. -1.
         11    1    3    3    0    0  0.53308812480E+01  0.17420012305E+01  0.19358780026E+01  0.59329998373E+01  0.51100000000E-03 0. -1.
        -11    1    3    3    0    0  0.21252022867E+02 -0.16901198947E+02 -0.36405876837E+01  0.27396220191E+02  0.51100000000E-03 0.  1.
         12    1    3    3    0    0  0.71862885367E+01 -0.10962519305E+02 -0.61004655769E+01  0.14458051483E+02  0.00000000000E+00 0. -1.
</event>
<event>
 7    1  0.4818508E-009  0.4778727E+02  0.7816164E-02  0.1312668E+00
        -11   -1    0    0    0    0  0.00000000000E+00  0.00000000000E+00  0.45593999997E+02  0.45594000000E+02  0.51100000000E-03 0. -1.
         11   -1    0    0    0    0 -0.00000000000E+00 -0.00000000000E+00 -0.45593999997E+02  0.45594000000E+02  0.51100000000E-03 0.  1.
    9900012    2    1    2    0    0 -0.36100096882E+02  0.55519245776E+01 -0.23443179614E+02  0.47787268073E+02  0.19999986450E+02 0.  0.
         12    1    1    2    0    0  0.36100096882E+02 -0.55519245776E+01  0.23443179614E+02  0.43400731927E+02  0.00000000000E+00 0. -1.
         11    1    3    3    0    0 -0.61537643184E+00  0.40405498096E+01 -0.14617704350E+01  0.43406801290E+01  0.51100000000E-03 0. -1.
        -11    1    3    3    0    0 -0.25653418772E+02 -0.30486824307E+01 -0.19396912790E+02  0.32305302742E+02  0.51100000000E-03 0.  1.
        -12    1    3    3    0    0 -0.98313016782E+01  0.45600571987E+01 -0.25844963897E+01  0.11141285201E+02  0.00000000000E+00 0.  1.
</event>
<event>
 7    1  0.4818508E-009  0.4778727E+02  0.7816164E-02  0.1312668E+00
        -11   -1    0    0    0    0  0.00000000000E+00  0.00000000000E+00  0.45593999997E+02  0.45594000000E+02  0.51100000000E-03 0.  1.
         11   -1    0    0    0    0 -0.00000000000E+00 -0.00000000000E+00 -0.45593999997E+02  0.45594000000E+02  0.51100000000E-03 0. -1.
    9900012    2    1    2    0    0 -0.12279081927E+02  0.23458416189E+02  0.34388226355E+02  0.47787271263E+02  0.20000000995E+02 0.  0.
         12    1    1    2    0    0  0.12279081927E+02 -0.23458416189E+02 -0.34388226355E+02  0.43400728737E+02  0.00000000000E+00 0. -1.
         11    1    3    3    0    0 -0.64962089685E+01  0.17674207302E+01  0.97124177128E+01  0.11817595571E+02  0.51100000000E-03 0.  1.
        -11    1    3    3    0    0  0.13646048730E+00  0.15866429276E+02  0.90301469725E+01  0.18256663278E+02  0.51100000000E-03 0. -1.
         12    1    3    3    0    0 -0.59193334460E+01  0.58245661827E+01  0.15645661670E+02  0.17713012413E+02  0.00000000000E+00 0. -1.
</event>
<event>
 7    1  0.4818508E-009  0.4778727E+02  0.7816164E-02  0.1312668E+00
        -11   -1    0    0    0    0  0.00000000000E+00  0.00000000000E+00  0.45593999997E+02  0.45594000000E+02  0.51100000000E-03 0. -1.
         11   -1    0    0    0    0 -0.00000000000E+00 -0.00000000000E+00 -0.45593999997E+02  0.45594000000E+02  0.51100000000E-03 0.  1.
    9900012    2    1    2    0    0 -0.20388767401E+02  0.37189501776E+02 -0.92120839329E+01  0.47787269950E+02  0.19999995011E+02 0.  0.
         12    1    1    2    0    0  0.20388767401E+02 -0.37189501776E+02  0.92120839329E+01  0.43400730050E+02  0.00000000000E+00 0. -1.
         11    1    3    3    0    0 -0.19726970108E+01  0.40512520349E+01 -0.47576982407E+01  0.65528520018E+01  0.51100000000E-03 0. -1.
        -11    1    3    3    0    0 -0.16762728521E+02  0.26311182988E+02 -0.94703017032E+01  0.32602975820E+02  0.51100000000E-03 0.  1.
        -12    1    3    3    0    0 -0.16533418685E+01  0.68270667530E+01  0.50159160110E+01  0.86314421282E+01  0.00000000000E+00 0.  1.
</event>
<event>
 7    1  0.4818508E-009  0.4778726E+02  0.7816164E-02  0.1312668E+00
        -11   -1    0    0    0    0  0.00000000000E+00  0.00000000000E+00  0.45593999997E+02  0.45594000000E+02  0.51100000000E-03 0. -1.
         11   -1    0    0    0    0 -0.00000000000E+00 -0.00000000000E+00 -0.45593999997E+02  0.45594000000E+02  0.51100000000E-03 0.  1.
    9900012    2    1    2    0    0 -0.38195748981E+02  0.27609962628E+00  0.20606615276E+02  0.47787261937E+02  0.19999958476E+02 0.  0.
         12    1    1    2    0    0  0.38195748981E+02 -0.27609962628E+00 -0.20606615276E+02  0.43400738063E+02  0.00000000000E+00 0. -1.
         11    1    3    3    0    0 -0.46090556026E+01  0.13365801969E+01  0.30205680186E+01  0.56704207593E+01  0.51100000000E-03 0. -1.
        -11    1    3    3    0    0  0.26070830196E+00  0.40326148725E+01  0.18297062710E+01  0.44359640247E+01  0.51100000000E-03 0.  1.
        -12    1    3    3    0    0 -0.33847401681E+02 -0.50930954432E+01  0.15756340987E+02  0.37680877153E+02  0.00000000000E+00 0.  1.
</event>
<event>
 7    1  0.4818508E-009  0.4778727E+02  0.7816164E-02  0.1312668E+00
        -11   -1    0    0    0    0  0.00000000000E+00  0.00000000000E+00  0.45593999997E+02  0.45594000000E+02  0.51100000000E-03 0. -1.
         11   -1    0    0    0    0 -0.00000000000E+00 -0.00000000000E+00 -0.45593999997E+02  0.45594000000E+02  0.51100000000E-03 0.  1.
    9900012    2    1    2    0    0 -0.13538850132E+02  0.39675652035E+02  0.11232344641E+02  0.47787269667E+02  0.19999993718E+02 0.  0.
         12    1    1    2    0    0  0.13538850132E+02 -0.39675652035E+02 -0.11232344641E+02  0.43400730333E+02  0.00000000000E+00 0. -1.
         11    1    3    3    0    0 -0.19123371140E+01  0.11045608997E+02 -0.10174207473E+01  0.11256005356E+02  0.51100000000E-03 0. -1.
        -11    1    3    3    0    0 -0.28578643232E+00  0.14680922237E+02  0.11300571292E+02  0.18528736152E+02  0.51100000000E-03 0.  1.
        -12    1    3    3    0    0 -0.11340726586E+02  0.13949120802E+02  0.94919409620E+00  0.18002528158E+02  0.00000000000E+00 0.  1.
</event>
<event>
 7    1  0.4818508E-009  0.4778727E+02  0.7816164E-02  0.1312668E+00
        -11   -1    0    0    0    0  0.00000000000E+00  0.00000000000E+00  0.45593999997E+02  0.45594000000E+02  0.51100000000E-03 0. -1.
         11   -1    0    0    0    0 -0.00000000000E+00 -0.00000000000E+00 -0.45593999997E+02  0.45594000000E+02  0.51100000000E-03 0.  1.
    9900012    2    1    2    0    0 -0.29339358164E+02 -0.28451554746E+02  0.14605979529E+02  0.47787267944E+02  0.19999985865E+02 0.  0.
         12    1    1    2    0    0  0.29339358164E+02  0.28451554746E+02 -0.14605979529E+02  0.43400732056E+02  0.00000000000E+00 0. -1.
         11    1    3    3    0    0 -0.13108378757E+02 -0.13983390838E+02  0.15247695181E+02  0.24491978719E+02  0.51100000000E-03 0. -1.
        -11    1    3    3    0    0 -0.10392525427E+02 -0.76645575418E+01  0.35590105620E+01  0.13394647569E+02  0.51100000000E-03 0.  1.
         12    1    3    3    0    0 -0.58384539801E+01 -0.68036063665E+01 -0.42007262146E+01  0.99006416559E+01  0.00000000000E+00 0. -1.
</event>
<event>
 7    1  0.4818508E-009  0.4778727E+02  0.7816164E-02  0.1312668E+00
        -11   -1    0    0    0    0  0.00000000000E+00  0.00000000000E+00  0.45593999997E+02  0.45594000000E+02  0.51100000000E-03 0.  1.
         11   -1    0    0    0    0 -0.00000000000E+00 -0.00000000000E+00 -0.45593999997E+02  0.45594000000E+02  0.51100000000E-03 0. -1.
    9900012    2    1    2    0    0  0.19847151397E+02 -0.19359594610E+02  0.33390418682E+02  0.47787269801E+02  0.19999994331E+02 0.  0.
         12    1    1    2    0    0 -0.19847151397E+02  0.19359594610E+02 -0.33390418682E+02  0.43400730199E+02  0.00000000000E+00 0. -1.
         11    1    3    3    0    0  0.18868818427E+01 -0.11501552142E+01  0.58442163872E+00  0.22857666149E+01  0.51100000000E-03 0. -1.
        -11    1    3    3    0    0 -0.79086661892E+00 -0.32159985027E+01 -0.14945485028E+01  0.36334270141E+01  0.51100000000E-03 0.  1.
        -12    1    3    3    0    0  0.18751136173E+02 -0.14993440893E+02  0.34300545546E+02  0.41868076172E+02  0.00000000000E+00 0.  1.
</event>
<event>
 7    1  0.4818508E-009  0.4778727E+02  0.7816164E-02  0.1312668E+00
        -11   -1    0    0    0    0  0.00000000000E+00  0.00000000000E+00  0.45593999997E+02  0.45594000000E+02  0.51100000000E-03 0. -1.
         11   -1    0    0    0    0 -0.00000000000E+00 -0.00000000000E+00 -0.45593999997E+02  0.45594000000E+02  0.51100000000E-03 0.  1.
    9900012    2    1    2    0    0  0.17877845998E+02 -0.27011917378E+02 -0.28885336423E+02  0.47787265925E+02  0.19999976658E+02 0.  0.
         12    1    1    2    0    0 -0.17877845998E+02  0.27011917378E+02  0.28885336423E+02  0.43400734075E+02  0.00000000000E+00 0. -1.
         11    1    3    3    0    0  0.68805004609E+01 -0.53889365976E+01 -0.11878681488E+02  0.14747372593E+02  0.51100000000E-03 0. -1.
        -11    1    3    3    0    0  0.52090859976E+01 -0.15113619644E+02 -0.25879033039E+01  0.16194237230E+02  0.51100000000E-03 0.  1.
        -12    1    3    3    0    0  0.57882595398E+01 -0.65093611361E+01 -0.14418751632E+02  0.16845656102E+02  0.00000000000E+00 0.  1.
</event>
<event>
 7    1  0.4818508E-009  0.4778728E+02  0.7816164E-02  0.1312668E+00
        -11   -1    0    0    0    0  0.00000000000E+00  0.00000000000E+00  0.45593999997E+02  0.45594000000E+02  0.51100000000E-03 0. -1.
         11   -1    0    0    0    0 -0.00000000000E+00 -0.00000000000E+00 -0.45593999997E+02  0.45594000000E+02  0.51100000000E-03 0.  1.
    9900012    2    1    2    0    0  0.40948562105E+02  0.35724779178E+01 -0.13931081180E+02  0.47787281575E+02  0.20000048014E+02 0.  0.
         12    1    1    2    0    0 -0.40948562105E+02 -0.35724779178E+01  0.13931081180E+02  0.43400718425E+02  0.00000000000E+00 0. -1.
         11    1    3    3    0    0  0.28767288180E+02  0.99368647845E+01 -0.47270869596E+01  0.30800056856E+02  0.51100000000E-03 0. -1.
        -11    1    3    3    0    0  0.47789595599E+01 -0.19904527600E+01 -0.57071979941E+01  0.77053530659E+01  0.51100000000E-03 0.  1.
         12    1    3    3    0    0  0.74023143652E+01 -0.43739341067E+01 -0.34967962267E+01  0.92818716529E+01  0.00000000000E+00 0. -1.
</event>
<event>
 7    1  0.4818508E-009  0.4778727E+02  0.7816164E-02  0.1312668E+00
        -11   -1    0    0    0    0  0.00000000000E+00  0.00000000000E+00  0.45593999997E+02  0.45594000000E+02  0.51100000000E-03 0. -1.
         11   -1    0    0    0    0 -0.00000000000E+00 -0.00000000000E+00 -0.45593999997E+02  0.45594000000E+02  0.51100000000E-03 0.  1.
    9900012    2    1    2    0    0  0.40589513263E+02 -0.12411382932E+02 -0.90593690216E+01  0.47787272123E+02  0.20000004916E+02 0.  0.
         12    1    1    2    0    0 -0.40589513263E+02  0.12411382932E+02  0.90593690216E+01  0.43400727877E+02  0.00000000000E+00 0. -1.
         11    1    3    3    0    0  0.26095793120E+02 -0.10103919395E+02 -0.60961015328E+01  0.28639868363E+02  0.51100000000E-03 0.  1.
        -11    1    3    3    0    0  0.91274750820E+01  0.54033708415E+00  0.39360216100E+01  0.99546487589E+01  0.51100000000E-03 0. -1.
         12    1    3    3    0    0  0.53662450611E+01 -0.28478006217E+01 -0.68992890988E+01  0.91927550008E+01  0.00000000000E+00 0. -1.
</event>
<event>
 7    1  0.4818508E-009  0.4778727E+02  0.7816164E-02  0.1312668E+00
        -11   -1    0    0    0    0  0.00000000000E+00  0.00000000000E+00  0.45593999997E+02  0.45594000000E+02  0.51100000000E-03 0.  1.
         11   -1    0    0    0    0 -0.00000000000E+00 -0.00000000000E+00 -0.45593999997E+02  0.45594000000E+02  0.51100000000E-03 0. -1.
    9900012    2    1    2    0    0 -0.24336398810E+02 -0.17422534254E+01  0.35893278833E+02  0.47787271672E+02  0.20000002861E+02 0.  0.
         12    1    1    2    0    0  0.24336398810E+02  0.17422534254E+01 -0.35893278833E+02  0.43400728328E+02  0.00000000000E+00 0. -1.
         11    1    3    3    0    0 -0.60771791859E+01 -0.11543718041E+01 -0.22824887993E+00  0.61900548408E+01  0.51100000000E-03 0. -1.
        -11    1    3    3    0    0 -0.14699065308E+02 -0.43650990649E+01  0.28721513966E+02  0.32558285820E+02  0.51100000000E-03 0.  1.
        -12    1    3    3    0    0 -0.35601543161E+01  0.37772174436E+01  0.74000137469E+01  0.90389310112E+01  0.00000000000E+00 0.  1.
</event>
<event>
 7    1  0.4818508E-009  0.4778726E+02  0.7816164E-02  0.1312668E+00
        -11   -1    0    0    0    0  0.00000000000E+00  0.00000000000E+00  0.45593999997E+02  0.45594000000E+02  0.51100000000E-03 0. -1.
         11   -1    0    0    0    0 -0.00000000000E+00 -0.00000000000E+00 -0.45593999997E+02  0.45594000000E+02  0.51100000000E-03 0.  1.
    9900012    2    1    2    0    0  0.40650937196E+02 -0.15163438722E+02  0.10933565738E+01  0.47787262710E+02  0.19999961999E+02 0.  0.
         12    1    1    2    0    0 -0.40650937196E+02  0.15163438722E+02 -0.10933565738E+01  0.43400737290E+02  0.00000000000E+00 0. -1.
         11    1    3    3    0    0  0.15837463229E+02 -0.68451769194E+01 -0.77479784423E+01  0.18913298464E+02  0.51100000000E-03 0. -1.
        -11    1    3    3    0    0  0.20236871098E+02 -0.10038092889E+02  0.69959399872E+01  0.23648201565E+02  0.51100000000E-03 0.  1.
         12    1    3    3    0    0  0.45766028683E+01  0.17198310868E+01  0.18453950288E+01  0.52257626806E+01  0.00000000000E+00 0. -1.
</event>
<event>
 7    1  0.4818508E-009  0.4778727E+02  0.7816164E-02  0.1312668E+00
        -11   -1    0    0    0    0  0.00000000000E+00  0.00000000000E+00  0.45593999997E+02  0.45594000000E+02  0.51100000000E-03 0.  1.
         11   -1    0    0    0    0 -0.00000000000E+00 -0.00000000000E+00 -0.45593999997E+02  0.45594000000E+02  0.51100000000E-03 0. -1.
    9900012    2    1    2    0    0 -0.23803241096E+02  0.94000924521E+01  0.35052351474E+02  0.47787269953E+02  0.19999995022E+02 0.  0.
         12    1    1    2    0    0  0.23803241096E+02 -0.94000924521E+01 -0.35052351474E+02  0.43400730047E+02  0.00000000000E+00 0. -1.
         11    1    3    3    0    0 -0.49654194936E+01 -0.17814169089E+01  0.12840607756E+02  0.13882004350E+02  0.51100000000E-03 0. -1.
        -11    1    3    3    0    0 -0.14691128678E+02  0.13197080935E+02  0.21579061237E+02  0.29251463060E+02  0.51100000000E-03 0.  1.
        -12    1    3    3    0    0 -0.41466929250E+01 -0.20155715744E+01  0.63268248048E+00  0.46538025427E+01  0.00000000000E+00 0.  1.
</event>
<event>
 7    1  0.4818508E-009  0.4778727E+02  0.7816164E-02  0.1312668E+00
        -11   -1    0    0    0    0  0.00000000000E+00  0.00000000000E+00  0.45593999997E+02  0.45594000000E+02  0.51100000000E-03 0. -1.
         11   -1    0    0    0    0 -0.00000000000E+00 -0.00000000000E+00 -0.45593999997E+02  0.45594000000E+02  0.51100000000E-03 0.  1.
    9900012    2    1    2    0    0 -0.24103758610E+02 -0.94748490703E+00 -0.36079556723E+02  0.47787270512E+02  0.19999997570E+02 0.  0.
         12    1    1    2    0    0  0.24103758610E+02  0.94748490703E+00  0.36079556723E+02  0.43400729488E+02  0.00000000000E+00 0. -1.
         11    1    3    3    0    0  0.30878117567E+01  0.12078125655E+01 -0.15792152819E+01  0.36725078361E+01  0.51100000000E-03 0. -1.
        -11    1    3    3    0    0 -0.16067771503E+02 -0.24897187996E+01 -0.22341906165E+02  0.27632096412E+02  0.51100000000E-03 0.  1.
         12    1    3    3    0    0 -0.11123798864E+02  0.33442132712E+00 -0.12158435276E+02  0.16482666264E+02  0.00000000000E+00 0. -1.
</event>
<event>
 7    1  0.4818508E-009  0.4778727E+02  0.7816164E-02  0.1312668E+00
        -11   -1    0    0    0    0  0.00000000000E+00  0.00000000000E+00  0.45593999997E+02  0.45594000000E+02  0.51100000000E-03 0. -1.
         11   -1    0    0    0    0 -0.00000000000E+00 -0.00000000000E+00 -0.45593999997E+02  0.45594000000E+02  0.51100000000E-03 0.  1.
    9900012    2    1    2    0    0  0.35866563574E+02  0.15571658228E+02 -0.18834449093E+02  0.47787269646E+02  0.19999993625E+02 0.  0.
         12    1    1    2    0    0 -0.35866563574E+02 -0.15571658228E+02  0.18834449093E+02  0.43400730354E+02  0.00000000000E+00 0. -1.
         11    1    3    3    0    0  0.37901784079E+00  0.87836165776E+00  0.29612974458E+01  0.31119859493E+01  0.51100000000E-03 0. -1.
        -11    1    3    3    0    0  0.22891811094E+02  0.12819848048E+02 -0.13897503293E+02  0.29690471824E+02  0.51100000000E-03 0.  1.
         12    1    3    3    0    0  0.12595734640E+02  0.18734485228E+01 -0.78982432463E+01  0.14984811872E+02  0.00000000000E+00 0. -1.
</event>
<event>
 7    1  0.4818508E-009  0.4778727E+02  0.7816164E-02  0.1312668E+00
        -11   -1    0    0    0    0  0.00000000000E+00  0.00000000000E+00  0.45593999997E+02  0.45594000000E+02  0.51100000000E-03 0.  1.
         11   -1    0    0    0    0 -0.00000000000E+00 -0.00000000000E+00 -0.45593999997E+02  0.45594000000E+02  0.51100000000E-03 0. -1.
    9900012    2    1    2    0    0  0.60228096413E+01 -0.84615920405E+01  0.42139654214E+02  0.47787271514E+02  0.20000002143E+02 0.  0.
         12    1    1    2    0    0 -0.60228096413E+01  0.84615920405E+01 -0.42139654214E+02  0.43400728486E+02  0.00000000000E+00 0. -1.
         11    1    3    3    0    0 -0.40236815972E+01 -0.80277729183E+01  0.99778106354E+01  0.13423556048E+02  0.51100000000E-03 0. -1.
        -11    1    3    3    0    0  0.62863085928E+01 -0.40445628772E+00  0.28225712600E+02  0.28920098766E+02  0.51100000000E-03 0.  1.
         12    1    3    3    0    0  0.37601826457E+01 -0.29362834462E-01  0.39361309780E+01  0.54436167004E+01  0.00000000000E+00 0. -1.
</event>
<event>
 7    1  0.4818508E-009  0.4778727E+02  0.7816164E-02  0.1312668E+00
        -11   -1    0    0    0    0  0.00000000000E+00  0.00000000000E+00  0.45593999997E+02  0.45594000000E+02  0.51100000000E-03 0.  1.
         11   -1    0    0    0    0 -0.00000000000E+00 -0.00000000000E+00 -0.45593999997E+02  0.45594000000E+02  0.51100000000E-03 0. -1.
    9900012    2    1    2    0    0  0.22210334209E+02  0.19327030963E+02  0.31887147705E+02  0.47787271201E+02  0.20000000715E+02 0.  0.
         12    1    1    2    0    0 -0.22210334209E+02 -0.19327030963E+02 -0.31887147705E+02  0.43400728799E+02  0.00000000000E+00 0. -1.
         11    1    3    3    0    0  0.17125364803E+02  0.19883633640E+02  0.28266813842E+02  0.38570063150E+02  0.51100000000E-03 0. -1.
        -11    1    3    3    0    0  0.68684852846E+00  0.24279246229E+01  0.29151557996E+01  0.38554782418E+01  0.51100000000E-03 0.  1.
         12    1    3    3    0    0  0.43981208773E+01 -0.29845272994E+01  0.70517806344E+00  0.53617298098E+01  0.00000000000E+00 0. -1.
</event>
<event>
 7    1  0.4818508E-009  0.4778727E+02  0.7816164E-02  0.1312668E+00
        -11   -1    0    0    0    0  0.00000000000E+00  0.00000000000E+00  0.45593999997E+02  0.45594000000E+02  0.51100000000E-03 0. -1.
         11   -1    0    0    0    0 -0.00000000000E+00 -0.00000000000E+00 -0.45593999997E+02  0.45594000000E+02  0.51100000000E-03 0.  1.
    9900012    2    1    2    0    0  0.19167365341E+01  0.15152146428E+02 -0.40624649804E+02  0.47787267379E+02  0.19999983290E+02 0.  0.
         12    1    1    2    0    0 -0.19167365341E+01 -0.15152146428E+02  0.40624649804E+02  0.43400732621E+02  0.00000000000E+00 0. -1.
         11    1    3    3    0    0  0.75268077808E+01  0.11390077112E+02 -0.33275061340E+02  0.35966879200E+02  0.51100000000E-03 0.  1.
        -11    1    3    3    0    0 -0.24322928920E+01 -0.13984027890E+01 -0.40297632281E+01  0.49102516238E+01  0.51100000000E-03 0. -1.
         12    1    3    3    0    0 -0.31777783547E+01  0.51604721048E+01 -0.33198252361E+01  0.69101365554E+01  0.00000000000E+00 0. -1.
</event>
<event>
 7    1  0.4818508E-009  0.4778727E+02  0.7816164E-02  0.1312668E+00
        -11   -1    0    0    0    0  0.00000000000E+00  0.00000000000E+00  0.45593999997E+02  0.45594000000E+02  0.51100000000E-03 0.  1.
         11   -1    0    0    0    0 -0.00000000000E+00 -0.00000000000E+00 -0.45593999997E+02  0.45594000000E+02  0.51100000000E-03 0. -1.
    9900012    2    1    2    0    0  0.46110475565E+01  0.12948509076E+02  0.41166709763E+02  0.47787266832E+02  0.19999980792E+02 0.  0.
         12    1    1    2    0    0 -0.46110475565E+01 -0.12948509076E+02 -0.41166709763E+02  0.43400733168E+02  0.00000000000E+00 0. -1.
         11    1    3    3    0    0  0.59344357352E+01  0.10166324242E+02  0.84131537592E+01  0.14469030117E+02  0.51100000000E-03 0. -1.
        -11    1    3    3    0    0 -0.31719628107E+01  0.26975915976E+01  0.25174508409E+02  0.25516548011E+02  0.51100000000E-03 0.  1.
        -12    1    3    3    0    0  0.18485746320E+01  0.84593235964E-01  0.75790475944E+01  0.78016887033E+01  0.00000000000E+00 0.  1.
</event>
<event>
 7    1  0.4818508E-009  0.4778727E+02  0.7816164E-02  0.1312668E+00
        -11   -1    0    0    0    0  0.00000000000E+00  0.00000000000E+00  0.45593999997E+02  0.45594000000E+02  0.51100000000E-03 0. -1.
         11   -1    0    0    0    0 -0.00000000000E+00 -0.00000000000E+00 -0.45593999997E+02  0.45594000000E+02  0.51100000000E-03 0.  1.
    9900012    2    1    2    0    0  0.14448146461E+01  0.72077181575E+01 -0.42773642500E+02  0.47787272090E+02  0.20000004768E+02 0.  0.
         12    1    1    2    0    0 -0.14448146461E+01 -0.72077181575E+01  0.42773642500E+02  0.43400727910E+02  0.00000000000E+00 0. -1.
         11    1    3    3    0    0  0.65304874742E+01 -0.33665102879E+01 -0.19097006309E+02  0.20461581278E+02  0.51100000000E-03 0. -1.
        -11    1    3    3    0    0 -0.23090949968E+01  0.88764422475E+01 -0.21595932592E+02  0.23462895206E+02  0.51100000000E-03 0.  1.
        -12    1    3    3    0    0 -0.27765778312E+01  0.16977861980E+01 -0.20807035984E+01  0.38627956057E+01  0.00000000000E+00 0.  1.
</event>
<event>
 7    1  0.4818508E-009  0.4778728E+02  0.7816164E-02  0.1312668E+00
        -11   -1    0    0    0    0  0.00000000000E+00  0.00000000000E+00  0.45593999997E+02  0.45594000000E+02  0.51100000000E-03 0. -1.
         11   -1    0    0    0    0 -0.00000000000E+00 -0.00000000000E+00 -0.45593999997E+02  0.45594000000E+02  0.51100000000E-03 0.  1.
    9900012    2    1    2    0    0  0.15150642271E+02  0.82973453539E+01 -0.39815008289E+02  0.47787276663E+02  0.20000025616E+02 0.  0.
         12    1    1    2    0    0 -0.15150642271E+02 -0.82973453539E+01  0.39815008289E+02  0.43400723337E+02  0.00000000000E+00 0. -1.
         11    1    3    3    0    0  0.13119324403E+02 -0.17904462062E+00 -0.26675022130E+02  0.29727185129E+02  0.51100000000E-03 0. -1.
        -11    1    3    3    0    0  0.26063585389E+01  0.27315709891E+01 -0.11431858402E+02  0.12039184843E+02  0.51100000000E-03 0.  1.
         12    1    3    3    0    0 -0.57504067089E+00  0.57448189854E+01 -0.17081277566E+01  0.60209066910E+01  0.00000000000E+00 0. -1.
</event>
<event>
 7    1  0.4818508E-009  0.4778727E+02  0.7816164E-02  0.1312668E+00
        -11   -1    0    0    0    0  0.00000000000E+00  0.00000000000E+00  0.45593999997E+02  0.45594000000E+02  0.51100000000E-03 0.  1.
         11   -1    0    0    0    0 -0.00000000000E+00 -0.00000000000E+00 -0.45593999997E+02  0.45594000000E+02  0.51100000000E-03 0. -1.
    9900012    2    1    2    0    0  0.31824726179E+02  0.61156006375E+01  0.28868835046E+02  0.47787269541E+02  0.19999993144E+02 0.  0.
         12    1    1    2    0    0 -0.31824726179E+02 -0.61156006375E+01 -0.28868835046E+02  0.43400730459E+02  0.00000000000E+00 0. -1.
         11    1    3    3    0    0  0.79007905083E+01 -0.51216494420E+00  0.17065923078E+02  0.18813041602E+02  0.51100000000E-03 0. -1.
        -11    1    3    3    0    0  0.14405760491E+02  0.65923617423E+01  0.32385915448E+01  0.16170146695E+02  0.51100000000E-03 0.  1.
         12    1    3    3    0    0  0.95181751790E+01  0.35403839395E-01  0.85643204233E+01  0.12804081243E+02  0.00000000000E+00 0. -1.
</event>
<event>
 7    1  0.4818508E-009  0.4778728E+02  0.7816164E-02  0.1312668E+00
        -11   -1    0    0    0    0  0.00000000000E+00  0.00000000000E+00  0.45593999997E+02  0.45594000000E+02  0.51100000000E-03 0.  1.
         11   -1    0    0    0    0 -0.00000000000E+00 -0.00000000000E+00 -0.45593999997E+02  0.45594000000E+02  0.51100000000E-03 0. -1.
    9900012    2    1    2    0    0  0.56905019738E+01  0.10227585653E+02  0.41792792897E+02  0.47787275822E+02  0.20000021784E+02 0.  0.
         12    1    1    2    0    0 -0.56905019738E+01 -0.10227585653E+02 -0.41792792897E+02  0.43400724178E+02  0.00000000000E+00 0. -1.
         11    1    3    3    0    0 -0.21486416614E+01  0.81565765079E+01  0.91235685937E+01  0.12425212492E+02  0.51100000000E-03 0. -1.
        -11    1    3    3    0    0  0.44879169913E+01 -0.43440958168E+01  0.13607983877E+02  0.14972968739E+02  0.51100000000E-03 0.  1.
         12    1    3    3    0    0  0.33512266439E+01  0.64151049621E+01  0.19061240426E+02  0.20389094592E+02  0.00000000000E+00 0. -1.
</event>
<event>
 7    1  0.4818508E-009  0.4778727E+02  0.7816164E-02  0.1312668E+00
        -11   -1    0    0    0    0  0.00000000000E+00  0.00000000000E+00  0.45593999997E+02  0.45594000000E+02  0.51100000000E-03 0.  1.
         11   -1    0    0    0    0 -0.00000000000E+00 -0.00000000000E+00 -0.45593999997E+02  0.45594000000E+02  0.51100000000E-03 0. -1.
    9900012    2    1    2    0    0  0.31130416958E+02  0.32433655194E+01  0.30066614519E+02  0.47787267420E+02  0.19999983476E+02 0.  0.
         12    1    1    2    0    0 -0.31130416958E+02 -0.32433655194E+01 -0.30066614519E+02  0.43400732580E+02  0.00000000000E+00 0. -1.
         11    1    3    3    0    0  0.69402443391E+00 -0.58154283852E+00  0.26820402814E+01  0.28307600251E+01  0.51100000000E-03 0. -1.
        -11    1    3    3    0    0  0.14155502776E+02 -0.72080001160E+01  0.10558954783E+02  0.19074198564E+02  0.51100000000E-03 0.  1.
        -12    1    3    3    0    0  0.16280889748E+02  0.11032908474E+02  0.16825619455E+02  0.25882308831E+02  0.00000000000E+00 0.  1.
</event>
<event>
 7    1  0.4818508E-009  0.4778727E+02  0.7816164E-02  0.1312668E+00
        -11   -1    0    0    0    0  0.00000000000E+00  0.00000000000E+00  0.45593999997E+02  0.45594000000E+02  0.51100000000E-03 0. -1.
         11   -1    0    0    0    0 -0.00000000000E+00 -0.00000000000E+00 -0.45593999997E+02  0.45594000000E+02  0.51100000000E-03 0.  1.
    9900012    2    1    2    0    0 -0.23819013910E+01  0.13748042752E+02 -0.41096728031E+02  0.47787272027E+02  0.20000004481E+02 0.  0.
         12    1    1    2    0    0  0.23819013910E+01 -0.13748042752E+02  0.41096728031E+02  0.43400727973E+02  0.00000000000E+00 0. -1.
         11    1    3    3    0    0  0.26894095760E+01  0.11088984485E+02 -0.92176487314E+01  0.14668454219E+02  0.51100000000E-03 0. -1.
        -11    1    3    3    0    0 -0.59864358757E+01  0.52510139405E+00 -0.16395631414E+02  0.17462241428E+02  0.51100000000E-03 0.  1.
         12    1    3    3    0    0  0.91512490867E+00  0.21339568727E+01 -0.15483447885E+02  0.15656576380E+02  0.00000000000E+00 0. -1.
</event>
<event>
 7    1  0.4818508E-009  0.4778728E+02  0.7816164E-02  0.1312668E+00
        -11   -1    0    0    0    0  0.00000000000E+00  0.00000000000E+00  0.45593999997E+02  0.45594000000E+02  0.51100000000E-03 0. -1.
         11   -1    0    0    0    0 -0.00000000000E+00 -0.00000000000E+00 -0.45593999997E+02  0.45594000000E+02  0.51100000000E-03 0.  1.
    9900012    2    1    2    0    0 -0.38051691869E+02  0.13078592056E+02 -0.16267814723E+02  0.47787278575E+02  0.20000034337E+02 0.  0.
         12    1    1    2    0    0  0.38051691869E+02 -0.13078592056E+02  0.16267814723E+02  0.43400721425E+02  0.00000000000E+00 0. -1.
         11    1    3    3    0    0 -0.63200234231E+01  0.34503267754E+01  0.43929672151E+01  0.84347858384E+01  0.51100000000E-03 0. -1.
        -11    1    3    3    0    0 -0.26456802268E+02  0.69042501129E+01 -0.18594850747E+02  0.33066592362E+02  0.51100000000E-03 0.  1.
         12    1    3    3    0    0 -0.52748661786E+01  0.27240151679E+01 -0.20659311912E+01  0.62859003750E+01  0.00000000000E+00 0. -1.
</event>
<event>
 7    1  0.4818508E-009  0.4778727E+02  0.7816164E-02  0.1312668E+00
        -11   -1    0    0    0    0  0.00000000000E+00  0.00000000000E+00  0.45593999997E+02  0.45594000000E+02  0.51100000000E-03 0.  1.
         11   -1    0    0    0    0 -0.00000000000E+00 -0.00000000000E+00 -0.45593999997E+02  0.45594000000E+02  0.51100000000E-03 0. -1.
    9900012    2    1    2    0    0  0.16384206314E+02 -0.21691744625E+02  0.33832663851E+02  0.47787272533E+02  0.20000006787E+02 0.  0.
         12    1    1    2    0    0 -0.16384206314E+02  0.21691744625E+02 -0.33832663851E+02  0.43400727467E+02  0.00000000000E+00 0. -1.
         11    1    3    3    0    0 -0.19585755591E+00 -0.23283361658E+01 -0.23377398556E+01  0.33052287934E+01  0.51100000000E-03 0. -1.
        -11    1    3    3    0    0  0.16868911697E+02 -0.19187997584E+02  0.35597736072E+02  0.43817099936E+02  0.51100000000E-03 0.  1.
        -12    1    3    3    0    0 -0.28884782676E+00 -0.17541087568E+00  0.57266763469E+00  0.66494380376E+00  0.00000000000E+00 0.  1.
</event>
<event>
 7    1  0.4818508E-009  0.4778727E+02  0.7816164E-02  0.1312668E+00
        -11   -1    0    0    0    0  0.00000000000E+00  0.00000000000E+00  0.45593999997E+02  0.45594000000E+02  0.51100000000E-03 0.  1.
         11   -1    0    0    0    0 -0.00000000000E+00 -0.00000000000E+00 -0.45593999997E+02  0.45594000000E+02  0.51100000000E-03 0. -1.
    9900012    2    1    2    0    0 -0.39427526667E+02  0.18117363241E+02  0.92452186516E+00  0.47787269009E+02  0.19999990719E+02 0.  0.
         12    1    1    2    0    0  0.39427526667E+02 -0.18117363241E+02 -0.92452186516E+00  0.43400730991E+02  0.00000000000E+00 0. -1.
         11    1    3    3    0    0 -0.11392332898E+02  0.10473903975E+02 -0.47291631176E+01  0.16181869403E+02  0.51100000000E-03 0. -1.
        -11    1    3    3    0    0 -0.19513638136E+02  0.45008193431E+00  0.10692488764E+01  0.19548093013E+02  0.51100000000E-03 0.  1.
        -12    1    3    3    0    0 -0.85215556337E+01  0.71933773318E+01  0.45844361063E+01  0.12057306593E+02  0.00000000000E+00 0.  1.
</event>
<event>
 7    1  0.4818508E-009  0.4778722E+02  0.7816164E-02  0.1312668E+00
        -11   -1    0    0    0    0  0.00000000000E+00  0.00000000000E+00  0.45593999997E+02  0.45594000000E+02  0.51100000000E-03 0.  1.
         11   -1    0    0    0    0 -0.00000000000E+00 -0.00000000000E+00 -0.45593999997E+02  0.45594000000E+02  0.51100000000E-03 0. -1.
    9900012    2    1    2    0    0  0.41072756045E+02 -0.53888796891E+00  0.14013060105E+02  0.47787221863E+02  0.19999775762E+02 0.  0.
         12    1    1    2    0    0 -0.41072756045E+02  0.53888796891E+00 -0.14013060105E+02  0.43400778137E+02  0.00000000000E+00 0. -1.
         11    1    3    3    0    0  0.10869848255E+02  0.73926902865E+01  0.16076333716E+01  0.13243487308E+02  0.51100000000E-03 0. -1.
        -11    1    3    3    0    0  0.23877787708E+02 -0.93887301842E+01  0.10923974855E+02  0.27886022075E+02  0.51100000000E-03 0.  1.
        -12    1    3    3    0    0  0.63251200821E+01  0.14571519288E+01  0.14814518780E+01  0.66577124798E+01  0.00000000000E+00 0.  1.
</event>
<event>
 7    1  0.4818508E-009  0.4778727E+02  0.7816164E-02  0.1312668E+00
        -11   -1    0    0    0    0  0.00000000000E+00  0.00000000000E+00  0.45593999997E+02  0.45594000000E+02  0.51100000000E-03 0.  1.
         11   -1    0    0    0    0 -0.00000000000E+00 -0.00000000000E+00 -0.45593999997E+02  0.45594000000E+02  0.51100000000E-03 0. -1.
    9900012    2    1    2    0    0  0.24398806150E+01  0.17382338182E+02  0.39692876731E+02  0.47787272342E+02  0.20000005915E+02 0.  0.
         12    1    1    2    0    0 -0.24398806150E+01 -0.17382338182E+02 -0.39692876731E+02  0.43400727658E+02  0.00000000000E+00 0. -1.
         11    1    3    3    0    0 -0.33708827602E+01  0.11267773124E+02  0.94507044791E+01  0.15087789009E+02  0.51100000000E-03 0. -1.
        -11    1    3    3    0    0  0.67007259821E+01  0.34708857737E+01  0.11526292526E+02  0.13776871793E+02  0.51100000000E-03 0.  1.
         12    1    3    3    0    0 -0.88996260695E+00  0.26436792846E+01  0.18715879726E+02  0.18922611540E+02  0.00000000000E+00 0. -1.
</event>
<event>
 7    1  0.4818508E-009  0.4778727E+02  0.7816164E-02  0.1312668E+00
        -11   -1    0    0    0    0  0.00000000000E+00  0.00000000000E+00  0.45593999997E+02  0.45594000000E+02  0.51100000000E-03 0.  1.
         11   -1    0    0    0    0 -0.00000000000E+00 -0.00000000000E+00 -0.45593999997E+02  0.45594000000E+02  0.51100000000E-03 0. -1.
    9900012    2    1    2    0    0  0.49930492386E+01  0.35214490640E+01  0.42968500984E+02  0.47787271654E+02  0.20000002778E+02 0.  0.
         12    1    1    2    0    0 -0.49930492386E+01 -0.35214490640E+01 -0.42968500984E+02  0.43400728346E+02  0.00000000000E+00 0. -1.
         11    1    3    3    0    0 -0.15536291872E+01 -0.63051709615E+01  0.82428141065E+01  0.10493470787E+02  0.51100000000E-03 0. -1.
        -11    1    3    3    0    0  0.56224714502E+01  0.96987045686E+01  0.34577079447E+02  0.36349023080E+02  0.51100000000E-03 0.  1.
        -12    1    3    3    0    0  0.92420697564E+00  0.12791545688E+00  0.14860743013E+00  0.94477778669E+00  0.00000000000E+00 0.  1.
</event>
<event>
 7    1  0.4818508E-009  0.4778727E+02  0.7816164E-02  0.1312668E+00
        -11   -1    0    0    0    0  0.00000000000E+00  0.00000000000E+00  0.45593999997E+02  0.45594000000E+02  0.51100000000E-03 0.  1.
         11   -1    0    0    0    0 -0.00000000000E+00 -0.00000000000E+00 -0.45593999997E+02  0.45594000000E+02  0.51100000000E-03 0. -1.
    9900012    2    1    2    0    0 -0.35122491963E+02  0.82473672341E+01  0.24124978823E+02  0.47787272918E+02  0.20000008543E+02 0.  0.
         12    1    1    2    0    0  0.35122491963E+02 -0.82473672341E+01 -0.24124978823E+02  0.43400727082E+02  0.00000000000E+00 0. -1.
         11    1    3    3    0    0  0.14049623877E+01 -0.17224038839E+01  0.38618426662E+01  0.44558302806E+01  0.51100000000E-03 0. -1.
        -11    1    3    3    0    0 -0.27487043299E+02  0.64983143756E+01  0.12355219575E+02  0.30828835367E+02  0.51100000000E-03 0.  1.
         12    1    3    3    0    0 -0.90404110518E+01  0.34714567424E+01  0.79079165820E+01  0.12502607271E+02  0.00000000000E+00 0. -1.
</event>
<event>
 7    1  0.4818508E-009  0.4778727E+02  0.7816164E-02  0.1312668E+00
        -11   -1    0    0    0    0  0.00000000000E+00  0.00000000000E+00  0.45593999997E+02  0.45594000000E+02  0.51100000000E-03 0. -1.
         11   -1    0    0    0    0 -0.00000000000E+00 -0.00000000000E+00 -0.45593999997E+02  0.45594000000E+02  0.51100000000E-03 0.  1.
    9900012    2    1    2    0    0 -0.30894992859E+02 -0.30093259935E+02  0.48495837581E+01  0.47787270284E+02  0.19999996534E+02 0.  0.
         12    1    1    2    0    0  0.30894992859E+02  0.30093259935E+02 -0.48495837581E+01  0.43400729716E+02  0.00000000000E+00 0. -1.
         11    1    3    3    0    0 -0.10136270513E+02 -0.38727987636E+01  0.73971341628E+01  0.13132408166E+02  0.51100000000E-03 0. -1.
        -11    1    3    3    0    0 -0.71870349945E+01 -0.15965977979E+02 -0.21452756784E+01  0.17639958414E+02  0.51100000000E-03 0.  1.
        -12    1    3    3    0    0 -0.13571687352E+02 -0.10254483192E+02 -0.40227472629E+00  0.17014903704E+02  0.00000000000E+00 0.  1.
</event>
<event>
 7    1  0.4818508E-009  0.4778723E+02  0.7816164E-02  0.1312668E+00
        -11   -1    0    0    0    0  0.00000000000E+00  0.00000000000E+00  0.45593999997E+02  0.45594000000E+02  0.51100000000E-03 0.  1.
         11   -1    0    0    0    0 -0.00000000000E+00 -0.00000000000E+00 -0.45593999997E+02  0.45594000000E+02  0.51100000000E-03 0. -1.
    9900012    2    1    2    0    0  0.37834330166E+02  0.95593026612E-02  0.21264754820E+02  0.47787234707E+02  0.19999834321E+02 0.  0.
         12    1    1    2    0    0 -0.37834330166E+02 -0.95593026612E-02 -0.21264754820E+02  0.43400765293E+02  0.00000000000E+00 0. -1.
         11    1    3    3    0    0  0.54069547290E+01 -0.44464257003E+01  0.20198084885E+01  0.72859788321E+01  0.51100000000E-03 0. -1.
        -11    1    3    3    0    0  0.32553324932E+02  0.21532063674E+01  0.19754845855E+02  0.38139339228E+02  0.51100000000E-03 0.  1.
        -12    1    3    3    0    0 -0.12594949510E+00  0.23027786356E+01 -0.50989952277E+00  0.23619166461E+01  0.00000000000E+00 0.  1.
</event>
<event>
 7    1  0.4818508E-009  0.4778726E+02  0.7816164E-02  0.1312668E+00
        -11   -1    0    0    0    0  0.00000000000E+00  0.00000000000E+00  0.45593999997E+02  0.45594000000E+02  0.51100000000E-03 0. -1.
         11   -1    0    0    0    0 -0.00000000000E+00 -0.00000000000E+00 -0.45593999997E+02  0.45594000000E+02  0.51100000000E-03 0.  1.
    9900012    2    1    2    0    0  0.26957737532E+02 -0.14921479226E+02 -0.30565566433E+02  0.47787262604E+02  0.19999961516E+02 0.  0.
         12    1    1    2    0    0 -0.26957737532E+02  0.14921479226E+02  0.30565566433E+02  0.43400737396E+02  0.00000000000E+00 0. -1.
         11    1    3    3    0    0  0.15274652142E+02 -0.31342930752E-01 -0.21639306232E+02  0.26487271564E+02  0.51100000000E-03 0. -1.
        -11    1    3    3    0    0 -0.98894748115E-01 -0.57215442896E+00 -0.95315491876E+00  0.11160848633E+01  0.51100000000E-03 0.  1.
         12    1    3    3    0    0  0.11781980138E+02 -0.14317981867E+02 -0.79731052823E+01  0.20183906177E+02  0.00000000000E+00 0. -1.
</event>
<event>
 7    1  0.4818508E-009  0.4778727E+02  0.7816164E-02  0.1312668E+00
        -11   -1    0    0    0    0  0.00000000000E+00  0.00000000000E+00  0.45593999997E+02  0.45594000000E+02  0.51100000000E-03 0. -1.
         11   -1    0    0    0    0 -0.00000000000E+00 -0.00000000000E+00 -0.45593999997E+02  0.45594000000E+02  0.51100000000E-03 0.  1.
    9900012    2    1    2    0    0 -0.13773187398E+02 -0.39627707639E+02 -0.11116085180E+02  0.47787271279E+02  0.20000001069E+02 0.  0.
         12    1    1    2    0    0  0.13773187398E+02  0.39627707639E+02  0.11116085180E+02  0.43400728721E+02  0.00000000000E+00 0. -1.
         11    1    3    3    0    0 -0.55046613329E+00  0.90771136518E+00 -0.10417140535E+01  0.14873201796E+01  0.51100000000E-03 0.  1.
        -11    1    3    3    0    0 -0.70299947371E+01 -0.16480588610E+02  0.30995704435E+01  0.18183453031E+02  0.51100000000E-03 0. -1.
        -12    1    3    3    0    0 -0.61927265271E+01 -0.24054830394E+02 -0.13173941570E+02  0.28116498068E+02  0.00000000000E+00 0.  1.
</event>
<event>
 7    1  0.4818508E-009  0.4778727E+02  0.7816164E-02  0.1312668E+00
        -11   -1    0    0    0    0  0.00000000000E+00  0.00000000000E+00  0.45593999997E+02  0.45594000000E+02  0.51100000000E-03 0.  1.
         11   -1    0    0    0    0 -0.00000000000E+00 -0.00000000000E+00 -0.45593999997E+02  0.45594000000E+02  0.51100000000E-03 0. -1.
    9900012    2    1    2    0    0 -0.32540230973E+02 -0.23158776057E+02  0.16983161647E+02  0.47787270515E+02  0.19999997588E+02 0.  0.
         12    1    1    2    0    0  0.32540230973E+02  0.23158776057E+02 -0.16983161647E+02  0.43400729485E+02  0.00000000000E+00 0. -1.
         11    1    3    3    0    0  0.14468712386E+01 -0.34837244461E+01 -0.11521945701E+01  0.39442774986E+01  0.51100000000E-03 0. -1.
        -11    1    3    3    0    0 -0.26456528847E+02 -0.17451479444E+02  0.16823389708E+02  0.35882147301E+02  0.51100000000E-03 0.  1.
         12    1    3    3    0    0 -0.75305733648E+01 -0.22235721667E+01  0.13119665096E+01  0.79608457155E+01  0.00000000000E+00 0. -1.
</event>
<event>
 7    1  0.4818508E-009  0.4778727E+02  0.7816164E-02  0.1312668E+00
        -11   -1    0    0    0    0  0.00000000000E+00  0.00000000000E+00  0.45593999997E+02  0.45594000000E+02  0.51100000000E-03 0.  1.
         11   -1    0    0    0    0 -0.00000000000E+00 -0.00000000000E+00 -0.45593999997E+02  0.45594000000E+02  0.51100000000E-03 0. -1.
    9900012    2    1    2    0    0 -0.11586308398E+02  0.33597711746E+02  0.24911338832E+02  0.47787267526E+02  0.19999983959E+02 0.  0.
         12    1    1    2    0    0  0.11586308398E+02 -0.33597711746E+02 -0.24911338832E+02  0.43400732474E+02  0.00000000000E+00 0. -1.
         11    1    3    3    0    0 -0.16214348247E+01  0.81301369055E+01 -0.21136290042E+01  0.85554429939E+01  0.51100000000E-03 0. -1.
        -11    1    3    3    0    0 -0.97993661543E+01  0.23171828290E+02  0.20963203555E+02  0.32747780182E+02  0.51100000000E-03 0.  1.
         12    1    3    3    0    0 -0.16550741883E+00  0.22957465504E+01  0.60617642815E+01  0.64840443501E+01  0.00000000000E+00 0. -1.
</event>
<event>
 7    1  0.4818508E-009  0.4778727E+02  0.7816164E-02  0.1312668E+00
        -11   -1    0    0    0    0  0.00000000000E+00  0.00000000000E+00  0.45593999997E+02  0.45594000000E+02  0.51100000000E-03 0.  1.
         11   -1    0    0    0    0 -0.00000000000E+00 -0.00000000000E+00 -0.45593999997E+02  0.45594000000E+02  0.51100000000E-03 0. -1.
    9900012    2    1    2    0    0 -0.17532305924E+02  0.27462874375E+02  0.28671099425E+02  0.47787272331E+02  0.20000005867E+02 0.  0.
         12    1    1    2    0    0  0.17532305924E+02 -0.27462874375E+02 -0.28671099425E+02  0.43400727669E+02  0.00000000000E+00 0. -1.
         11    1    3    3    0    0  0.24205272330E+01 -0.86506657850E+00  0.36257689185E+01  0.44444901600E+01  0.51100000000E-03 0. -1.
        -11    1    3    3    0    0 -0.85570537330E+01  0.16527306707E+02  0.16365731384E+02  0.24783304856E+02  0.51100000000E-03 0.  1.
         12    1    3    3    0    0 -0.11395779424E+02  0.11800634246E+02  0.86795991219E+01  0.18559477315E+02  0.00000000000E+00 0. -1.
</event>
<event>
 7    1  0.4818508E-009  0.4778727E+02  0.7816164E-02  0.1312668E+00
        -11   -1    0    0    0    0  0.00000000000E+00  0.00000000000E+00  0.45593999997E+02  0.45594000000E+02  0.51100000000E-03 0.  1.
         11   -1    0    0    0    0 -0.00000000000E+00 -0.00000000000E+00 -0.45593999997E+02  0.45594000000E+02  0.51100000000E-03 0. -1.
    9900012    2    1    2    0    0 -0.31895698806E+02 -0.11078605792E+02  0.27268154459E+02  0.47787270096E+02  0.19999995674E+02 0.  0.
         12    1    1    2    0    0  0.31895698806E+02  0.11078605792E+02 -0.27268154459E+02  0.43400729904E+02  0.00000000000E+00 0. -1.
         11    1    3    3    0    0 -0.10709100613E+01 -0.58892348405E+00  0.49508412350E+01  0.50994615818E+01  0.51100000000E-03 0. -1.
        -11    1    3    3    0    0 -0.24475868908E+02 -0.13546361168E+02  0.22078207942E+02  0.35637330510E+02  0.51100000000E-03 0.  1.
        -12    1    3    3    0    0 -0.63489198363E+01  0.30566788604E+01  0.23910528262E+00  0.70504780036E+01  0.00000000000E+00 0.  1.
</event>
<event>
 7    1  0.4818508E-009  0.4778727E+02  0.7816164E-02  0.1312668E+00
        -11   -1    0    0    0    0  0.00000000000E+00  0.00000000000E+00  0.45593999997E+02  0.45594000000E+02  0.51100000000E-03 0.  1.
         11   -1    0    0    0    0 -0.00000000000E+00 -0.00000000000E+00 -0.45593999997E+02  0.45594000000E+02  0.51100000000E-03 0. -1.
    9900012    2    1    2    0    0  0.22959974463E+02 -0.32203345435E+02  0.17871978425E+02  0.47787268470E+02  0.19999988261E+02 0.  0.
         12    1    1    2    0    0 -0.22959974463E+02  0.32203345435E+02 -0.17871978425E+02  0.43400731530E+02  0.00000000000E+00 0. -1.
         11    1    3    3    0    0  0.13337808138E+02 -0.66075742502E+01  0.12868684146E+02  0.19676386744E+02  0.51100000000E-03 0. -1.
        -11    1    3    3    0    0  0.45644795810E+01 -0.15542826330E+02  0.12474952441E+01  0.16247158792E+02  0.51100000000E-03 0.  1.
         12    1    3    3    0    0  0.50576867444E+01 -0.10052944855E+02  0.37557990345E+01  0.11863722934E+02  0.00000000000E+00 0. -1.
</event>
<event>
 7    1  0.4818508E-009  0.4778727E+02  0.7816164E-02  0.1312668E+00
        -11   -1    0    0    0    0  0.00000000000E+00  0.00000000000E+00  0.45593999997E+02  0.45594000000E+02  0.51100000000E-03 0.  1.
         11   -1    0    0    0    0 -0.00000000000E+00 -0.00000000000E+00 -0.45593999997E+02  0.45594000000E+02  0.51100000000E-03 0. -1.
    9900012    2    1    2    0    0  0.25855365394E+02 -0.63706342347E+01  0.34271537161E+02  0.47787272361E+02  0.20000006002E+02 0.  0.
         12    1    1    2    0    0 -0.25855365394E+02  0.63706342347E+01 -0.34271537161E+02  0.43400727639E+02  0.00000000000E+00 0. -1.
         11    1    3    3    0    0 -0.18901907741E+00  0.13410471524E+01  0.11568063986E-01  0.13543521543E+01  0.51100000000E-03 0. -1.
        -11    1    3    3    0    0  0.11285803307E+02 -0.41247122467E+00  0.25258052306E+02  0.27667827803E+02  0.51100000000E-03 0.  1.
        -12    1    3    3    0    0  0.14758581165E+02 -0.72992101625E+01  0.90019167910E+01  0.18765092403E+02  0.00000000000E+00 0.  1.
</event>
<event>
 7    1  0.4818508E-009  0.4778728E+02  0.7816164E-02  0.1312668E+00
        -11   -1    0    0    0    0  0.00000000000E+00  0.00000000000E+00  0.45593999997E+02  0.45594000000E+02  0.51100000000E-03 0. -1.
         11   -1    0    0    0    0 -0.00000000000E+00 -0.00000000000E+00 -0.45593999997E+02  0.45594000000E+02  0.51100000000E-03 0.  1.
    9900012    2    1    2    0    0  0.38773018572E+02 -0.17007608621E+02 -0.95402829034E+01  0.47787277447E+02  0.20000029193E+02 0.  0.
         12    1    1    2    0    0 -0.38773018572E+02  0.17007608621E+02  0.95402829034E+01  0.43400722553E+02  0.00000000000E+00 0. -1.
         11    1    3    3    0    0  0.35490707888E+01  0.76231142048E+00  0.46051412550E+01  0.58638168802E+01  0.51100000000E-03 0. -1.
        -11    1    3    3    0    0  0.20418138751E+02 -0.10692172777E+02 -0.86263219471E+01  0.24609680602E+02  0.51100000000E-03 0.  1.
         12    1    3    3    0    0  0.14805809032E+02 -0.70777472648E+01 -0.55191022113E+01  0.17313779965E+02  0.00000000000E+00 0. -1.
</event>
<event>
 7    1  0.4818508E-009  0.4778727E+02  0.7816164E-02  0.1312668E+00
        -11   -1    0    0    0    0  0.00000000000E+00  0.00000000000E+00  0.45593999997E+02  0.45594000000E+02  0.51100000000E-03 0. -1.
         11   -1    0    0    0    0 -0.00000000000E+00 -0.00000000000E+00 -0.45593999997E+02  0.45594000000E+02  0.51100000000E-03 0.  1.
    9900012    2    1    2    0    0  0.20594982895E+02  0.25992104484E+02 -0.27997861453E+02  0.47787273486E+02  0.20000011132E+02 0.  0.
         12    1    1    2    0    0 -0.20594982895E+02 -0.25992104484E+02  0.27997861453E+02  0.43400726514E+02  0.00000000000E+00 0. -1.
         11    1    3    3    0    0  0.74175206397E+01  0.11121029392E+00 -0.19617110140E+01  0.76733493686E+01  0.51100000000E-03 0. -1.
        -11    1    3    3    0    0  0.11600700970E+02  0.18610702281E+02 -0.14173850582E+02  0.26111923387E+02  0.51100000000E-03 0.  1.
         12    1    3    3    0    0  0.15767612857E+01  0.72701919097E+01 -0.11862299858E+02  0.14002000731E+02  0.00000000000E+00 0. -1.
</event>
<event>
 7    1  0.4818508E-009  0.4778727E+02  0.7816164E-02  0.1312668E+00
        -11   -1    0    0    0    0  0.00000000000E+00  0.00000000000E+00  0.45593999997E+02  0.45594000000E+02  0.51100000000E-03 0.  1.
         11   -1    0    0    0    0 -0.00000000000E+00 -0.00000000000E+00 -0.45593999997E+02  0.45594000000E+02  0.51100000000E-03 0. -1.
    9900012    2    1    2    0    0 -0.26157854728E+02 -0.18387376800E+02  0.29347816250E+02  0.47787270649E+02  0.19999998196E+02 0.  0.
         12    1    1    2    0    0  0.26157854728E+02  0.18387376800E+02 -0.29347816250E+02  0.43400729351E+02  0.00000000000E+00 0. -1.
         11    1    3    3    0    0  0.15191697598E+01 -0.28819335550E+01  0.33556514076E+01  0.46769449863E+01  0.51100000000E-03 0. -1.
        -11    1    3    3    0    0 -0.29017145170E+02 -0.15767177603E+02  0.24832813621E+02  0.41319090454E+02  0.51100000000E-03 0.  1.
        -12    1    3    3    0    0  0.13401206819E+01  0.26173435774E+00  0.11593512219E+01  0.17912352084E+01  0.00000000000E+00 0.  1.
</event>
<event>
 7    1  0.4818508E-009  0.4778727E+02  0.7816164E-02  0.1312668E+00
        -11   -1    0    0    0    0  0.00000000000E+00  0.00000000000E+00  0.45593999997E+02  0.45594000000E+02  0.51100000000E-03 0.  1.
         11   -1    0    0    0    0 -0.00000000000E+00 -0.00000000000E+00 -0.45593999997E+02  0.45594000000E+02  0.51100000000E-03 0. -1.
    9900012    2    1    2    0    0 -0.35168986411E+02  0.13243198235E+02 -0.21711364785E+02  0.47787271141E+02  0.20000000439E+02 0.  0.
         12    1    1    2    0    0  0.35168986411E+02 -0.13243198235E+02  0.21711364785E+02  0.43400728859E+02  0.00000000000E+00 0. -1.
         11    1    3    3    0    0 -0.11810890672E+02  0.30171131752E+01 -0.28714700699E+01  0.12523795391E+02  0.51100000000E-03 0. -1.
        -11    1    3    3    0    0 -0.21656358870E+02  0.10927688697E+02 -0.10006084677E+02  0.26239931223E+02  0.51100000000E-03 0.  1.
         12    1    3    3    0    0 -0.17017368695E+01 -0.70160363679E+00 -0.88338100382E+01  0.90235445268E+01  0.00000000000E+00 0. -1.
</event>
<event>
 7    1  0.4818508E-009  0.4778727E+02  0.7816164E-02  0.1312668E+00
        -11   -1    0    0    0    0  0.00000000000E+00  0.00000000000E+00  0.45593999997E+02  0.45594000000E+02  0.51100000000E-03 0.  1.
         11   -1    0    0    0    0 -0.00000000000E+00 -0.00000000000E+00 -0.45593999997E+02  0.45594000000E+02  0.51100000000E-03 0. -1.
    9900012    2    1    2    0    0  0.26334318297E+02 -0.91282709913E+01  0.33268634448E+02  0.47787266256E+02  0.19999978169E+02 0.  0.
         12    1    1    2    0    0 -0.26334318297E+02  0.91282709913E+01 -0.33268634448E+02  0.43400733744E+02  0.00000000000E+00 0. -1.
         11    1    3    3    0    0  0.40068463321E+01 -0.22669351448E+01  0.16947355431E+01  0.49057049750E+01  0.51100000000E-03 0. -1.
        -11    1    3    3    0    0  0.25021466273E+02 -0.64363037133E+01  0.25882969446E+02  0.36570861181E+02  0.51100000000E-03 0.  1.
        -12    1    3    3    0    0 -0.26939943081E+01 -0.42503213325E+00  0.56909294590E+01  0.63107001001E+01  0.00000000000E+00 0.  1.
</event>
<event>
 7    1  0.4818508E-009  0.4778727E+02  0.7816164E-02  0.1312668E+00
        -11   -1    0    0    0    0  0.00000000000E+00  0.00000000000E+00  0.45593999997E+02  0.45594000000E+02  0.51100000000E-03 0.  1.
         11   -1    0    0    0    0 -0.00000000000E+00 -0.00000000000E+00 -0.45593999997E+02  0.45594000000E+02  0.51100000000E-03 0. -1.
    9900012    2    1    2    0    0  0.35714149567E+02  0.23720607540E+02  0.67420829401E+01  0.47787269778E+02  0.19999994228E+02 0.  0.
         12    1    1    2    0    0 -0.35714149567E+02 -0.23720607540E+02 -0.67420829401E+01  0.43400730222E+02  0.00000000000E+00 0. -1.
         11    1    3    3    0    0  0.23170750610E+02  0.89899718982E+01  0.66929781633E+01  0.25739060502E+02  0.51100000000E-03 0. -1.
        -11    1    3    3    0    0  0.66080870876E+01  0.12739049949E+02  0.36742364047E+01  0.14813852368E+02  0.51100000000E-03 0.  1.
        -12    1    3    3    0    0  0.59353118699E+01  0.19915856931E+01 -0.36251316279E+01  0.72343569089E+01  0.00000000000E+00 0.  1.
</event>
<event>
 7    1  0.4818508E-009  0.4778728E+02  0.7816164E-02  0.1312668E+00
        -11   -1    0    0    0    0  0.00000000000E+00  0.00000000000E+00  0.45593999997E+02  0.45594000000E+02  0.51100000000E-03 0.  1.
         11   -1    0    0    0    0 -0.00000000000E+00 -0.00000000000E+00 -0.45593999997E+02  0.45594000000E+02  0.51100000000E-03 0. -1.
    9900012    2    1    2    0    0  0.30596224694E+02 -0.75088294998E+01  0.29851479323E+02  0.47787282221E+02  0.20000050957E+02 0.  0.
         12    1    1    2    0    0 -0.30596224694E+02  0.75088294998E+01 -0.29851479323E+02  0.43400717779E+02  0.00000000000E+00 0. -1.
         11    1    3    3    0    0  0.38359393378E+01 -0.22576872529E+01  0.14759756440E+01  0.46893588792E+01  0.51100000000E-03 0. -1.
        -11    1    3    3    0    0 -0.21073898871E+01  0.17160808845E+01  0.28599639135E+01  0.39453034846E+01  0.51100000000E-03 0.  1.
        -12    1    3    3    0    0  0.28867675244E+02 -0.69672231314E+01  0.25515539765E+02  0.39152619857E+02  0.00000000000E+00 0.  1.
</event>
<event>
 7    1  0.4818508E-009  0.4778726E+02  0.7816164E-02  0.1312668E+00
        -11   -1    0    0    0    0  0.00000000000E+00  0.00000000000E+00  0.45593999997E+02  0.45594000000E+02  0.51100000000E-03 0. -1.
         11   -1    0    0    0    0 -0.00000000000E+00 -0.00000000000E+00 -0.45593999997E+02  0.45594000000E+02  0.51100000000E-03 0.  1.
    9900012    2    1    2    0    0  0.76732639360E+00  0.99682113971E+01 -0.42233520713E+02  0.47787259222E+02  0.19999946097E+02 0.  0.
         12    1    1    2    0    0 -0.76732639360E+00 -0.99682113971E+01  0.42233520713E+02  0.43400740778E+02  0.00000000000E+00 0. -1.
         11    1    3    3    0    0  0.87698509791E+01  0.23123777760E+01 -0.23943779053E+02  0.25603943696E+02  0.51100000000E-03 0. -1.
        -11    1    3    3    0    0 -0.11297081399E+00  0.21554792646E+01 -0.71376688094E+01  0.74568873908E+01  0.51100000000E-03 0.  1.
         12    1    3    3    0    0 -0.78895537715E+01  0.55003543564E+01 -0.11152072851E+02  0.14726428135E+02  0.00000000000E+00 0. -1.
</event>
<event>
 7    1  0.4818508E-009  0.4778728E+02  0.7816164E-02  0.1312668E+00
        -11   -1    0    0    0    0  0.00000000000E+00  0.00000000000E+00  0.45593999997E+02  0.45594000000E+02  0.51100000000E-03 0. -1.
         11   -1    0    0    0    0 -0.00000000000E+00 -0.00000000000E+00 -0.45593999997E+02  0.45594000000E+02  0.51100000000E-03 0.  1.
    9900012    2    1    2    0    0 -0.33209073878E+02 -0.26532360164E+02 -0.87643596372E+01  0.47787277385E+02  0.20000028907E+02 0.  0.
         12    1    1    2    0    0  0.33209073878E+02  0.26532360164E+02  0.87643596372E+01  0.43400722615E+02  0.00000000000E+00 0. -1.
         11    1    3    3    0    0 -0.91420750030E+01 -0.19829412442E+02 -0.49687001516E+01  0.22393550737E+02  0.51100000000E-03 0. -1.
        -11    1    3    3    0    0 -0.18375626630E+02 -0.43407978312E+01 -0.36438103606E+01  0.19229756474E+02  0.51100000000E-03 0.  1.
         12    1    3    3    0    0 -0.56913722449E+01 -0.23621498904E+01 -0.15184912505E+00  0.61639701728E+01  0.00000000000E+00 0. -1.
</event>
<event>
 7    1  0.4818508E-009  0.4778727E+02  0.7816164E-02  0.1312668E+00
        -11   -1    0    0    0    0  0.00000000000E+00  0.00000000000E+00  0.45593999997E+02  0.45594000000E+02  0.51100000000E-03 0.  1.
         11   -1    0    0    0    0 -0.00000000000E+00 -0.00000000000E+00 -0.45593999997E+02  0.45594000000E+02  0.51100000000E-03 0. -1.
    9900012    2    1    2    0    0 -0.82183483980E+01 -0.72869151407E+01  0.41987889460E+02  0.47787271389E+02  0.20000001569E+02 0.  0.
         12    1    1    2    0    0  0.82183483980E+01  0.72869151407E+01 -0.41987889460E+02  0.43400728611E+02  0.00000000000E+00 0. -1.
         11    1    3    3    0    0 -0.65442821468E+01  0.44908356640E+01  0.20321988099E+02  0.21816929994E+02  0.51100000000E-03 0. -1.
        -11    1    3    3    0    0  0.12691829598E+01 -0.72631882260E+01  0.18002359925E+02  0.19453783480E+02  0.51100000000E-03 0.  1.
         12    1    3    3    0    0 -0.29432492110E+01 -0.45145625787E+01  0.36635414368E+01  0.65165579146E+01  0.00000000000E+00 0. -1.
</event>
<event>
 7    1  0.4818508E-009  0.4778727E+02  0.7816164E-02  0.1312668E+00
        -11   -1    0    0    0    0  0.00000000000E+00  0.00000000000E+00  0.45593999997E+02  0.45594000000E+02  0.51100000000E-03 0.  1.
         11   -1    0    0    0    0 -0.00000000000E+00 -0.00000000000E+00 -0.45593999997E+02  0.45594000000E+02  0.51100000000E-03 0. -1.
    9900012    2    1    2    0    0  0.98797528185E+01 -0.14374316055E+02  0.39741576340E+02  0.47787269963E+02  0.19999995069E+02 0.  0.
         12    1    1    2    0    0 -0.98797528185E+01  0.14374316055E+02 -0.39741576340E+02  0.43400730037E+02  0.00000000000E+00 0. -1.
         11    1    3    3    0    0 -0.19755290943E+01 -0.10294413226E+02  0.10302937744E+02  0.14697897308E+02  0.51100000000E-03 0. -1.
        -11    1    3    3    0    0  0.29575359374E+01 -0.19091808254E+00  0.17263561068E+02  0.17516107146E+02  0.51100000000E-03 0.  1.
         12    1    3    3    0    0  0.88977459754E+01 -0.38889847464E+01  0.12175077528E+02  0.15573265509E+02  0.00000000000E+00 0. -1.
</event>
<event>
 7    1  0.4818508E-009  0.4778727E+02  0.7816164E-02  0.1312668E+00
        -11   -1    0    0    0    0  0.00000000000E+00  0.00000000000E+00  0.45593999997E+02  0.45594000000E+02  0.51100000000E-03 0. -1.
         11   -1    0    0    0    0 -0.00000000000E+00 -0.00000000000E+00 -0.45593999997E+02  0.45594000000E+02  0.51100000000E-03 0.  1.
    9900012    2    1    2    0    0 -0.22166133463E+02 -0.56318909020E+01 -0.36885868468E+02  0.47787274654E+02  0.20000016460E+02 0.  0.
         12    1    1    2    0    0  0.22166133463E+02  0.56318909020E+01  0.36885868468E+02  0.43400725346E+02  0.00000000000E+00 0. -1.
         11    1    3    3    0    0 -0.45365290890E+01  0.48936504370E+00 -0.17880668011E+02  0.18453668012E+02  0.51100000000E-03 0. -1.
        -11    1    3    3    0    0  0.16825692820E+01 -0.19695648000E+01 -0.21484363068E+01  0.33654128596E+01  0.51100000000E-03 0.  1.
         12    1    3    3    0    0 -0.19312173656E+02 -0.41516911458E+01 -0.16856764150E+02  0.25968193782E+02  0.00000000000E+00 0. -1.
</event>
<event>
 7    1  0.4818508E-009  0.4778727E+02  0.7816164E-02  0.1312668E+00
        -11   -1    0    0    0    0  0.00000000000E+00  0.00000000000E+00  0.45593999997E+02  0.45594000000E+02  0.51100000000E-03 0. -1.
         11   -1    0    0    0    0 -0.00000000000E+00 -0.00000000000E+00 -0.45593999997E+02  0.45594000000E+02  0.51100000000E-03 0.  1.
    9900012    2    1    2    0    0  0.77753487912E+01 -0.30803548309E+02 -0.29568713680E+02  0.47787268831E+02  0.19999989909E+02 0.  0.
         12    1    1    2    0    0 -0.77753487912E+01  0.30803548309E+02  0.29568713680E+02  0.43400731169E+02  0.00000000000E+00 0. -1.
         11    1    3    3    0    0  0.72417027313E+01 -0.30302825593E+01 -0.75230827684E+01  0.10872977763E+02  0.51100000000E-03 0. -1.
        -11    1    3    3    0    0 -0.36401602311E+01 -0.18220429962E+02 -0.10434497425E+02  0.21309940668E+02  0.51100000000E-03 0.  1.
        -12    1    3    3    0    0  0.41738062910E+01 -0.95528357879E+01 -0.11611133487E+02  0.15604350400E+02  0.00000000000E+00 0.  1.
</event>
<event>
 7    1  0.4818508E-009  0.4778726E+02  0.7816164E-02  0.1312668E+00
        -11   -1    0    0    0    0  0.00000000000E+00  0.00000000000E+00  0.45593999997E+02  0.45594000000E+02  0.51100000000E-03 0. -1.
         11   -1    0    0    0    0 -0.00000000000E+00 -0.00000000000E+00 -0.45593999997E+02  0.45594000000E+02  0.51100000000E-03 0.  1.
    9900012    2    1    2    0    0  0.97590684639E+01  0.42224785302E+02  0.23349342997E+01  0.47787264646E+02  0.19999970826E+02 0.  0.
         12    1    1    2    0    0 -0.97590684639E+01 -0.42224785302E+02 -0.23349342997E+01  0.43400735354E+02  0.00000000000E+00 0. -1.
         11    1    3    3    0    0  0.87800813498E+01  0.14033624257E+02 -0.34105255251E+01  0.16901601194E+02  0.51100000000E-03 0. -1.
        -11    1    3    3    0    0 -0.42637723626E+01  0.17757949308E+02  0.10256957770E+01  0.18291434347E+02  0.51100000000E-03 0.  1.
         12    1    3    3    0    0  0.52427594767E+01  0.10433211738E+02  0.47197640478E+01  0.12594229106E+02  0.00000000000E+00 0. -1.
</event>
<event>
 7    1  0.4818508E-009  0.4778727E+02  0.7816164E-02  0.1312668E+00
        -11   -1    0    0    0    0  0.00000000000E+00  0.00000000000E+00  0.45593999997E+02  0.45594000000E+02  0.51100000000E-03 0. -1.
         11   -1    0    0    0    0 -0.00000000000E+00 -0.00000000000E+00 -0.45593999997E+02  0.45594000000E+02  0.51100000000E-03 0.  1.
    9900012    2    1    2    0    0 -0.43069524573E+02 -0.47734206683E+01  0.24194558644E+01  0.47787271222E+02  0.20000000808E+02 0.  0.
         12    1    1    2    0    0  0.43069524573E+02  0.47734206683E+01 -0.24194558644E+01  0.43400728778E+02  0.00000000000E+00 0. -1.
         11    1    3    3    0    0  0.45493097261E+00 -0.17994383699E+01 -0.24932477515E+01  0.31082511560E+01  0.51100000000E-03 0. -1.
        -11    1    3    3    0    0 -0.31684035264E+02 -0.56317144047E+01  0.48482445332E+01  0.32543813130E+02  0.51100000000E-03 0.  1.
         12    1    3    3    0    0 -0.11840420282E+02  0.26577321063E+01  0.64459082641E-01  0.12135206936E+02  0.00000000000E+00 0. -1.
</event>
<event>
 7    1  0.4818508E-009  0.4778727E+02  0.7816164E-02  0.1312668E+00
        -11   -1    0    0    0    0  0.00000000000E+00  0.00000000000E+00  0.45593999997E+02  0.45594000000E+02  0.51100000000E-03 0.  1.
         11   -1    0    0    0    0 -0.00000000000E+00 -0.00000000000E+00 -0.45593999997E+02  0.45594000000E+02  0.51100000000E-03 0. -1.
    9900012    2    1    2    0    0 -0.38837053758E+02 -0.17946950417E+02 -0.72947619167E+01  0.47787270452E+02  0.19999997301E+02 0.  0.
         12    1    1    2    0    0  0.38837053758E+02  0.17946950417E+02  0.72947619167E+01  0.43400729548E+02  0.00000000000E+00 0. -1.
         11    1    3    3    0    0 -0.63582015751E+01 -0.11553717939E+02 -0.36126450096E+01  0.13673563168E+02  0.51100000000E-03 0. -1.
        -11    1    3    3    0    0 -0.10777730455E+02  0.13502010811E+01 -0.15887731130E+01  0.10977555146E+02  0.51100000000E-03 0.  1.
         12    1    3    3    0    0 -0.21701121728E+02 -0.77434335587E+01 -0.20933437941E+01  0.23136152138E+02  0.00000000000E+00 0. -1.
</event>
<event>
 7    1  0.4818508E-009  0.4778727E+02  0.7816164E-02  0.1312668E+00
        -11   -1    0    0    0    0  0.00000000000E+00  0.00000000000E+00  0.45593999997E+02  0.45594000000E+02  0.51100000000E-03 0. -1.
         11   -1    0    0    0    0 -0.00000000000E+00 -0.00000000000E+00 -0.45593999997E+02  0.45594000000E+02  0.51100000000E-03 0.  1.
    9900012    2    1    2    0    0  0.21312715903E+02 -0.14656126462E+02 -0.34850966351E+02  0.47787265471E+02  0.19999974588E+02 0.  0.
         12    1    1    2    0    0 -0.21312715903E+02  0.14656126462E+02  0.34850966351E+02  0.43400734529E+02  0.00000000000E+00 0. -1.
         11    1    3    3    0    0  0.18114136569E+01 -0.44489179786E+01 -0.11612473289E+02  0.12566766758E+02  0.51100000000E-03 0. -1.
        -11    1    3    3    0    0  0.14583677024E+02 -0.11916058163E+02 -0.23368612017E+02  0.30012799029E+02  0.51100000000E-03 0.  1.
         12    1    3    3    0    0  0.49176252218E+01  0.17088496797E+01  0.13011895458E+00  0.52076996834E+01  0.00000000000E+00 0. -1.
</event>
<event>
 7    1  0.4818508E-009  0.4778727E+02  0.7816164E-02  0.1312668E+00
        -11   -1    0    0    0    0  0.00000000000E+00  0.00000000000E+00  0.45593999997E+02  0.45594000000E+02  0.51100000000E-03 0.  1.
         11   -1    0    0    0    0 -0.00000000000E+00 -0.00000000000E+00 -0.45593999997E+02  0.45594000000E+02  0.51100000000E-03 0. -1.
    9900012    2    1    2    0    0  0.46236299210E+01  0.14290107679E+02  0.40719014929E+02  0.47787270653E+02  0.19999998214E+02 0.  0.
         12    1    1    2    0    0 -0.46236299210E+01 -0.14290107679E+02 -0.40719014929E+02  0.43400729347E+02  0.00000000000E+00 0. -1.
         11    1    3    3    0    0 -0.26143881708E+01  0.56142186966E+01  0.45747934592E+01  0.76995592429E+01  0.51100000000E-03 0. -1.
        -11    1    3    3    0    0  0.58672699101E+01  0.21977283173E+01  0.31202660791E+02  0.31825475749E+02  0.51100000000E-03 0.  1.
        -12    1    3    3    0    0  0.13707481817E+01  0.64781606648E+01  0.49415606787E+01  0.82622356610E+01  0.00000000000E+00 0.  1.
</event>
<event>
 7    1  0.4818508E-009  0.4778726E+02  0.7816164E-02  0.1312668E+00
        -11   -1    0    0    0    0  0.00000000000E+00  0.00000000000E+00  0.45593999997E+02  0.45594000000E+02  0.51100000000E-03 0. -1.
         11   -1    0    0    0    0 -0.00000000000E+00 -0.00000000000E+00 -0.45593999997E+02  0.45594000000E+02  0.51100000000E-03 0.  1.
    9900012    2    1    2    0    0  0.12323076244E+02 -0.41359708847E+02 -0.45979008147E+01  0.47787257887E+02  0.19999940010E+02 0.  0.
         12    1    1    2    0    0 -0.12323076244E+02  0.41359708847E+02  0.45979008147E+01  0.43400742113E+02  0.00000000000E+00 0. -1.
         11    1    3    3    0    0  0.78736235001E+01 -0.64932639714E+01 -0.71169549162E+01  0.12442165067E+02  0.51100000000E-03 0. -1.
        -11    1    3    3    0    0  0.35804560502E+01 -0.18506909810E+02  0.71737609051E+00  0.18863721927E+02  0.51100000000E-03 0.  1.
         12    1    3    3    0    0  0.86899669428E+00 -0.16359535066E+02  0.18016780110E+01  0.16481370892E+02  0.00000000000E+00 0. -1.
</event>
<event>
 7    1  0.4818508E-009  0.4778727E+02  0.7816164E-02  0.1312668E+00
        -11   -1    0    0    0    0  0.00000000000E+00  0.00000000000E+00  0.45593999997E+02  0.45594000000E+02  0.51100000000E-03 0. -1.
         11   -1    0    0    0    0 -0.00000000000E+00 -0.00000000000E+00 -0.45593999997E+02  0.45594000000E+02  0.51100000000E-03 0.  1.
    9900012    2    1    2    0    0  0.74475682674E+01  0.18107556112E+02 -0.38733359907E+02  0.47787273841E+02  0.20000012749E+02 0.  0.
         12    1    1    2    0    0 -0.74475682674E+01 -0.18107556112E+02  0.38733359907E+02  0.43400726159E+02  0.00000000000E+00 0. -1.
         11    1    3    3    0    0 -0.95760130487E+00  0.84200716850E+01 -0.62249111098E+01  0.10514947742E+02  0.51100000000E-03 0. -1.
        -11    1    3    3    0    0  0.47610467980E+01  0.78719336912E+01 -0.31845058929E+02  0.33147287749E+02  0.51100000000E-03 0.  1.
        -12    1    3    3    0    0  0.36441227742E+01  0.18155507358E+01 -0.66338986858E+00  0.41250383496E+01  0.00000000000E+00 0.  1.
</event>
<event>
 7    1  0.4818508E-009  0.4778726E+02  0.7816164E-02  0.1312668E+00
        -11   -1    0    0    0    0  0.00000000000E+00  0.00000000000E+00  0.45593999997E+02  0.45594000000E+02  0.51100000000E-03 0. -1.
         11   -1    0    0    0    0 -0.00000000000E+00 -0.00000000000E+00 -0.45593999997E+02  0.45594000000E+02  0.51100000000E-03 0.  1.
    9900012    2    1    2    0    0 -0.39968407977E+02 -0.12945245992E+02  0.10889042993E+02  0.47787259369E+02  0.19999946765E+02 0.  0.
         12    1    1    2    0    0  0.39968407977E+02  0.12945245992E+02 -0.10889042993E+02  0.43400740631E+02  0.00000000000E+00 0. -1.
         11    1    3    3    0    0 -0.19237036220E+02 -0.77437157292E+01  0.14709349623E+02  0.25424273096E+02  0.51100000000E-03 0.  1.
        -11    1    3    3    0    0 -0.19908936441E+02 -0.56990300800E+01 -0.26952304777E+01  0.20883222013E+02  0.51100000000E-03 0. -1.
         12    1    3    3    0    0 -0.82243531604E+00  0.49749981668E+00 -0.11250761522E+01  0.14797642599E+01  0.00000000000E+00 0. -1.
</event>
<event>
 7    1  0.4818508E-009  0.4778727E+02  0.7816164E-02  0.1312668E+00
        -11   -1    0    0    0    0  0.00000000000E+00  0.00000000000E+00  0.45593999997E+02  0.45594000000E+02  0.51100000000E-03 0.  1.
         11   -1    0    0    0    0 -0.00000000000E+00 -0.00000000000E+00 -0.45593999997E+02  0.45594000000E+02  0.51100000000E-03 0. -1.
    9900012    2    1    2    0    0  0.22590638702E+02 -0.36212610679E+02 -0.78697806044E+01  0.47787267565E+02  0.19999984134E+02 0.  0.
         12    1    1    2    0    0 -0.22590638702E+02  0.36212610679E+02  0.78697806044E+01  0.43400732435E+02  0.00000000000E+00 0. -1.
         11    1    3    3    0    0  0.60714679493E+01 -0.20140563428E+02 -0.92169051573E+01  0.22966418075E+02  0.51100000000E-03 0. -1.
        -11    1    3    3    0    0  0.25475823308E+01 -0.51541129472E+01  0.38416620458E+01  0.69147251240E+01  0.51100000000E-03 0.  1.
         12    1    3    3    0    0  0.13971588422E+02 -0.10917934304E+02 -0.24945374930E+01  0.17906124366E+02  0.00000000000E+00 0. -1.
</event>
<event>
 7    1  0.4818508E-009  0.4778728E+02  0.7816164E-02  0.1312668E+00
        -11   -1    0    0    0    0  0.00000000000E+00  0.00000000000E+00  0.45593999997E+02  0.45594000000E+02  0.51100000000E-03 0. -1.
         11   -1    0    0    0    0 -0.00000000000E+00 -0.00000000000E+00 -0.45593999997E+02  0.45594000000E+02  0.51100000000E-03 0.  1.
    9900012    2    1    2    0    0 -0.36794243622E+01  0.41561188003E+02 -0.11947892834E+02  0.47787278173E+02  0.20000032504E+02 0.  0.
         12    1    1    2    0    0  0.36794243622E+01 -0.41561188003E+02  0.11947892834E+02  0.43400721827E+02  0.00000000000E+00 0. -1.
         11    1    3    3    0    0 -0.46959404199E+01  0.19249936308E+02 -0.41494265461E+01  0.20244249682E+02  0.51100000000E-03 0. -1.
        -11    1    3    3    0    0 -0.98139503015E+00  0.12783937033E+01  0.33038755692E+01  0.36760060804E+01  0.51100000000E-03 0.  1.
        -12    1    3    3    0    0  0.19979110879E+01  0.21032857992E+02 -0.11102341857E+02  0.23867022411E+02  0.00000000000E+00 0.  1.
</event>
<event>
 7    1  0.4818508E-009  0.4778726E+02  0.7816164E-02  0.1312668E+00
        -11   -1    0    0    0    0  0.00000000000E+00  0.00000000000E+00  0.45593999997E+02  0.45594000000E+02  0.51100000000E-03 0. -1.
         11   -1    0    0    0    0 -0.00000000000E+00 -0.00000000000E+00 -0.45593999997E+02  0.45594000000E+02  0.51100000000E-03 0.  1.
    9900012    2    1    2    0    0 -0.21259382905E+02 -0.27393043527E+02 -0.26101414176E+02  0.47787262481E+02  0.19999960957E+02 0.  0.
         12    1    1    2    0    0  0.21259382905E+02  0.27393043527E+02  0.26101414176E+02  0.43400737519E+02  0.00000000000E+00 0. -1.
         11    1    3    3    0    0 -0.12573251248E+01 -0.31427433220E+01 -0.74240898961E+00  0.34653821473E+01  0.51100000000E-03 0.  1.
        -11    1    3    3    0    0  0.14129383415E+01 -0.53440613068E+01  0.80287673742E+00  0.55856957780E+01  0.51100000000E-03 0. -1.
        -12    1    3    3    0    0 -0.21414996121E+02 -0.18906238898E+02 -0.26161881924E+02  0.38736184556E+02  0.00000000000E+00 0.  1.
</event>
<event>
 7    1  0.4818508E-009  0.4778726E+02  0.7816164E-02  0.1312668E+00
        -11   -1    0    0    0    0  0.00000000000E+00  0.00000000000E+00  0.45593999997E+02  0.45594000000E+02  0.51100000000E-03 0.  1.
         11   -1    0    0    0    0 -0.00000000000E+00 -0.00000000000E+00 -0.45593999997E+02  0.45594000000E+02  0.51100000000E-03 0. -1.
    9900012    2    1    2    0    0  0.41342994757E+02  0.53834011426E+01  0.12058177443E+02  0.47787264216E+02  0.19999968866E+02 0.  0.
         12    1    1    2    0    0 -0.41342994757E+02 -0.53834011426E+01 -0.12058177443E+02  0.43400735784E+02  0.00000000000E+00 0. -1.
         11    1    3    3    0    0  0.10135917144E+02  0.82155455323E+01  0.15704815661E+01  0.13141476986E+02  0.51100000000E-03 0. -1.
        -11    1    3    3    0    0  0.29197663687E+02 -0.72970238219E+00  0.68696957582E+01  0.30003812265E+02  0.51100000000E-03 0.  1.
        -12    1    3    3    0    0  0.20094139258E+01 -0.21024420076E+01  0.36180001190E+01  0.46419749657E+01  0.00000000000E+00 0.  1.
</event>
<event>
 7    1  0.4818508E-009  0.4778727E+02  0.7816164E-02  0.1312668E+00
        -11   -1    0    0    0    0  0.00000000000E+00  0.00000000000E+00  0.45593999997E+02  0.45594000000E+02  0.51100000000E-03 0. -1.
         11   -1    0    0    0    0 -0.00000000000E+00 -0.00000000000E+00 -0.45593999997E+02  0.45594000000E+02  0.51100000000E-03 0.  1.
    9900012    2    1    2    0    0 -0.30826856694E+02 -0.29010335032E+02 -0.95775044181E+01  0.47787271628E+02  0.20000002662E+02 0.  0.
         12    1    1    2    0    0  0.30826856694E+02  0.29010335032E+02  0.95775044181E+01  0.43400728372E+02  0.00000000000E+00 0. -1.
         11    1    3    3    0    0 -0.14523367763E+02 -0.86737207803E+01 -0.12454671555E+01  0.16962099871E+02  0.51100000000E-03 0. -1.
        -11    1    3    3    0    0 -0.12596617268E+02 -0.21774790261E+02 -0.91455439573E+01  0.26766718738E+02  0.51100000000E-03 0.  1.
        -12    1    3    3    0    0 -0.37068716638E+01  0.14381760086E+01  0.81350669467E+00  0.40584530188E+01  0.00000000000E+00 0.  1.
</event>
<event>
 7    1  0.4818508E-009  0.4778727E+02  0.7816164E-02  0.1312668E+00
        -11   -1    0    0    0    0  0.00000000000E+00  0.00000000000E+00  0.45593999997E+02  0.45594000000E+02  0.51100000000E-03 0.  1.
         11   -1    0    0    0    0 -0.00000000000E+00 -0.00000000000E+00 -0.45593999997E+02  0.45594000000E+02  0.51100000000E-03 0. -1.
    9900012    2    1    2    0    0  0.27512810548E+02 -0.10121287349E+02  0.32003565070E+02  0.47787269833E+02  0.19999994475E+02 0.  0.
         12    1    1    2    0    0 -0.27512810548E+02  0.10121287349E+02 -0.32003565070E+02  0.43400730167E+02  0.00000000000E+00 0. -1.
         11    1    3    3    0    0  0.12740585795E+02 -0.12893323392E+02  0.13199244175E+02  0.22422764360E+02  0.51100000000E-03 0. -1.
        -11    1    3    3    0    0  0.92333765847E+01 -0.31497802699E+00  0.58324648987E+01  0.10925754041E+02  0.51100000000E-03 0.  1.
         12    1    3    3    0    0  0.55388481686E+01  0.30870140706E+01  0.12971855997E+02  0.14438751432E+02  0.00000000000E+00 0. -1.
</event>
<event>
 7    1  0.4818508E-009  0.4778727E+02  0.7816164E-02  0.1312668E+00
        -11   -1    0    0    0    0  0.00000000000E+00  0.00000000000E+00  0.45593999997E+02  0.45594000000E+02  0.51100000000E-03 0.  1.
         11   -1    0    0    0    0 -0.00000000000E+00 -0.00000000000E+00 -0.45593999997E+02  0.45594000000E+02  0.51100000000E-03 0. -1.
    9900012    2    1    2    0    0 -0.35839350254E+02  0.21833238296E+01  0.24380270139E+02  0.47787268421E+02  0.19999988037E+02 0.  0.
         12    1    1    2    0    0  0.35839350254E+02 -0.21833238296E+01 -0.24380270139E+02  0.43400731579E+02  0.00000000000E+00 0. -1.
         11    1    3    3    0    0 -0.27914696126E+01  0.10851537364E+01  0.43141952473E+01  0.52518703452E+01  0.51100000000E-03 0. -1.
        -11    1    3    3    0    0 -0.18931773249E+02  0.29260462028E+01  0.20806460197E+02  0.28282195299E+02  0.51100000000E-03 0.  1.
        -12    1    3    3    0    0 -0.14116107393E+02 -0.18278761097E+01 -0.74038530507E+00  0.14253202777E+02  0.00000000000E+00 0.  1.
</event>
<event>
 7    1  0.4818508E-009  0.4778728E+02  0.7816164E-02  0.1312668E+00
        -11   -1    0    0    0    0  0.00000000000E+00  0.00000000000E+00  0.45593999997E+02  0.45594000000E+02  0.51100000000E-03 0. -1.
         11   -1    0    0    0    0 -0.00000000000E+00 -0.00000000000E+00 -0.45593999997E+02  0.45594000000E+02  0.51100000000E-03 0.  1.
    9900012    2    1    2    0    0  0.65646869190E+01 -0.17768533387E+02 -0.39048776866E+02  0.47787275722E+02  0.20000021328E+02 0.  0.
         12    1    1    2    0    0 -0.65646869190E+01  0.17768533387E+02  0.39048776866E+02  0.43400724278E+02  0.00000000000E+00 0. -1.
         11    1    3    3    0    0  0.22143058425E+01 -0.51450823144E+01  0.39317526675E-01  0.56014791363E+01  0.51100000000E-03 0. -1.
        -11    1    3    3    0    0  0.26481414404E+01 -0.13615591984E+02 -0.34977008662E+02  0.37626960193E+02  0.51100000000E-03 0.  1.
        -12    1    3    3    0    0  0.17022396361E+01  0.99214091182E+00 -0.41110857315E+01  0.45588363931E+01  0.00000000000E+00 0.  1.
</event>
<event>
 7    1  0.4818508E-009  0.4778727E+02  0.7816164E-02  0.1312668E+00
        -11   -1    0    0    0    0  0.00000000000E+00  0.00000000000E+00  0.45593999997E+02  0.45594000000E+02  0.51100000000E-03 0.  1.
         11   -1    0    0    0    0 -0.00000000000E+00 -0.00000000000E+00 -0.45593999997E+02  0.45594000000E+02  0.51100000000E-03 0. -1.
    9900012    2    1    2    0    0  0.34203660605E+02  0.20983738390E+02  0.16535282623E+02  0.47787271354E+02  0.20000001411E+02 0.  0.
         12    1    1    2    0    0 -0.34203660605E+02 -0.20983738390E+02 -0.16535282623E+02  0.43400728646E+02  0.00000000000E+00 0. -1.
         11    1    3    3    0    0  0.41952160134E+01  0.10392998302E+02  0.30537655113E+01  0.11616356364E+02  0.51100000000E-03 0.  1.
        -11    1    3    3    0    0  0.18100026427E+02  0.26147845941E+01  0.11742134059E+02  0.21733057025E+02  0.51100000000E-03 0. -1.
         12    1    3    3    0    0  0.11908418164E+02  0.79759554942E+01  0.17393830530E+01  0.14437857965E+02  0.00000000000E+00 0. -1.
</event>
<event>
 7    1  0.4818508E-009  0.4778727E+02  0.7816164E-02  0.1312668E+00
        -11   -1    0    0    0    0  0.00000000000E+00  0.00000000000E+00  0.45593999997E+02  0.45594000000E+02  0.51100000000E-03 0. -1.
         11   -1    0    0    0    0 -0.00000000000E+00 -0.00000000000E+00 -0.45593999997E+02  0.45594000000E+02  0.51100000000E-03 0.  1.
    9900012    2    1    2    0    0  0.25750853435E+02 -0.34796320017E+02 -0.31197537927E+01  0.47787271859E+02  0.20000003716E+02 0.  0.
         12    1    1    2    0    0 -0.25750853435E+02  0.34796320017E+02  0.31197537927E+01  0.43400728141E+02  0.00000000000E+00 0. -1.
         11    1    3    3    0    0  0.32679713980E+00  0.92303927749E+00  0.22538227889E+00  0.10047862017E+01  0.51100000000E-03 0. -1.
        -11    1    3    3    0    0  0.31958119231E+01 -0.29158879634E+01 -0.56196617420E+01  0.70919824322E+01  0.51100000000E-03 0.  1.
        -12    1    3    3    0    0  0.22228244372E+02 -0.32803471332E+02  0.22745256704E+01  0.39690503226E+02  0.00000000000E+00 0.  1.
</event>
<event>
 7    1  0.4818508E-009  0.4778728E+02  0.7816164E-02  0.1312668E+00
        -11   -1    0    0    0    0  0.00000000000E+00  0.00000000000E+00  0.45593999997E+02  0.45594000000E+02  0.51100000000E-03 0.  1.
         11   -1    0    0    0    0 -0.00000000000E+00 -0.00000000000E+00 -0.45593999997E+02  0.45594000000E+02  0.51100000000E-03 0. -1.
    9900012    2    1    2    0    0  0.28387127429E+02 -0.22584295270E+02 -0.23827367187E+02  0.47787276231E+02  0.20000023650E+02 0.  0.
         12    1    1    2    0    0 -0.28387127429E+02  0.22584295270E+02  0.23827367187E+02  0.43400723769E+02  0.00000000000E+00 0. -1.
         11    1    3    3    0    0  0.60054456013E+01 -0.52807186083E+01 -0.79810433953E+01  0.11298160020E+02  0.51100000000E-03 0. -1.
        -11    1    3    3    0    0  0.12287675106E+02 -0.17879908185E+02 -0.14932657598E+02  0.26337470255E+02  0.51100000000E-03 0.  1.
        -12    1    3    3    0    0  0.10094006722E+02  0.57633152309E+00 -0.91366619444E+00  0.10151645957E+02  0.00000000000E+00 0.  1.
</event>
<event>
 7    1  0.4818508E-009  0.4778727E+02  0.7816164E-02  0.1312668E+00
        -11   -1    0    0    0    0  0.00000000000E+00  0.00000000000E+00  0.45593999997E+02  0.45594000000E+02  0.51100000000E-03 0.  1.
         11   -1    0    0    0    0 -0.00000000000E+00 -0.00000000000E+00 -0.45593999997E+02  0.45594000000E+02  0.51100000000E-03 0. -1.
    9900012    2    1    2    0    0  0.22048108827E+02 -0.20299220347E+02  0.31391807693E+02  0.47787273741E+02  0.20000012296E+02 0.  0.
         12    1    1    2    0    0 -0.22048108827E+02  0.20299220347E+02 -0.31391807693E+02  0.43400726259E+02  0.00000000000E+00 0. -1.
         11    1    3    3    0    0  0.82380632265E+01  0.94490412085E+00  0.41114852514E+01  0.92554222353E+01  0.51100000000E-03 0. -1.
        -11    1    3    3    0    0  0.14851013470E+02 -0.18932156929E+02  0.21696565203E+02  0.32399384392E+02  0.51100000000E-03 0.  1.
         12    1    3    3    0    0 -0.10409678696E+01 -0.23119675381E+01  0.55837572392E+01  0.61324671144E+01  0.00000000000E+00 0. -1.
</event>
<event>
 7    1  0.4818508E-009  0.4778727E+02  0.7816164E-02  0.1312668E+00
        -11   -1    0    0    0    0  0.00000000000E+00  0.00000000000E+00  0.45593999997E+02  0.45594000000E+02  0.51100000000E-03 0. -1.
         11   -1    0    0    0    0 -0.00000000000E+00 -0.00000000000E+00 -0.45593999997E+02  0.45594000000E+02  0.51100000000E-03 0.  1.
    9900012    2    1    2    0    0 -0.36896079545E+01  0.17515864027E+02 -0.39537382695E+02  0.47787270400E+02  0.19999997061E+02 0.  0.
         12    1    1    2    0    0  0.36896079545E+01 -0.17515864027E+02  0.39537382695E+02  0.43400729600E+02  0.00000000000E+00 0. -1.
         11    1    3    3    0    0  0.41889375638E+01  0.81721145908E+01 -0.41864705550E+01  0.10092432351E+02  0.51100000000E-03 0. -1.
        -11    1    3    3    0    0 -0.21599241358E+01  0.30645194587E+01 -0.17881558311E+02  0.18270377108E+02  0.51100000000E-03 0.  1.
         12    1    3    3    0    0 -0.57186213825E+01  0.62792299779E+01 -0.17469353829E+02  0.19424460940E+02  0.00000000000E+00 0. -1.
</event>
<event>
 7    1  0.4818508E-009  0.4778727E+02  0.7816164E-02  0.1312668E+00
        -11   -1    0    0    0    0  0.00000000000E+00  0.00000000000E+00  0.45593999997E+02  0.45594000000E+02  0.51100000000E-03 0.  1.
         11   -1    0    0    0    0 -0.00000000000E+00 -0.00000000000E+00 -0.45593999997E+02  0.45594000000E+02  0.51100000000E-03 0. -1.
    9900012    2    1    2    0    0  0.44286609399E+01 -0.41992940975E+02 -0.10030098495E+02  0.47787274139E+02  0.20000014107E+02 0.  0.
         12    1    1    2    0    0 -0.44286609399E+01  0.41992940975E+02  0.10030098495E+02  0.43400725861E+02  0.00000000000E+00 0. -1.
         11    1    3    3    0    0  0.75625402679E+01 -0.20282385189E+02 -0.95979641060E+01  0.23678853002E+02  0.51100000000E-03 0. -1.
        -11    1    3    3    0    0  0.21637997190E+00 -0.35821464327E+01  0.37649650552E+01  0.52013032488E+01  0.51100000000E-03 0.  1.
         12    1    3    3    0    0 -0.33502592999E+01 -0.18128409354E+02 -0.41970994439E+01  0.18907117888E+02  0.00000000000E+00 0. -1.
</event>
<event>
 7    1  0.4818508E-009  0.4778726E+02  0.7816164E-02  0.1312668E+00
        -11   -1    0    0    0    0  0.00000000000E+00  0.00000000000E+00  0.45593999997E+02  0.45594000000E+02  0.51100000000E-03 0.  1.
         11   -1    0    0    0    0 -0.00000000000E+00 -0.00000000000E+00 -0.45593999997E+02  0.45594000000E+02  0.51100000000E-03 0. -1.
    9900012    2    1    2    0    0  0.61916173483E+01  0.37538350153E+02  0.20884462198E+02  0.47787255549E+02  0.19999929351E+02 0.  0.
         12    1    1    2    0    0 -0.61916173483E+01 -0.37538350153E+02 -0.20884462198E+02  0.43400744451E+02  0.00000000000E+00 0. -1.
         11    1    3    3    0    0  0.27521639339E+01  0.70278465896E+01  0.10782912015E+02  0.13161923332E+02  0.51100000000E-03 0. -1.
        -11    1    3    3    0    0 -0.54407268893E+00  0.23446741667E+02  0.26326072232E+01  0.23600345992E+02  0.51100000000E-03 0.  1.
         12    1    3    3    0    0  0.39835261033E+01  0.70637618963E+01  0.74689429596E+01  0.11024986226E+02  0.00000000000E+00 0. -1.
</event>
<event>
 7    1  0.4818508E-009  0.4778725E+02  0.7816164E-02  0.1312668E+00
        -11   -1    0    0    0    0  0.00000000000E+00  0.00000000000E+00  0.45593999997E+02  0.45594000000E+02  0.51100000000E-03 0. -1.
         11   -1    0    0    0    0 -0.00000000000E+00 -0.00000000000E+00 -0.45593999997E+02  0.45594000000E+02  0.51100000000E-03 0.  1.
    9900012    2    1    2    0    0 -0.17683668024E+01 -0.21529413066E+02 -0.37642824081E+02  0.47787251701E+02  0.19999911807E+02 0.  0.
         12    1    1    2    0    0  0.17683668024E+01  0.21529413066E+02  0.37642824081E+02  0.43400748299E+02  0.00000000000E+00 0. -1.
         11    1    3    3    0    0  0.84025776139E+01 -0.11683027067E+02 -0.23756017179E+02  0.27774894860E+02  0.51100000000E-03 0.  1.
        -11    1    3    3    0    0 -0.61325425212E+01 -0.73925792993E+01 -0.82938335840E+01  0.12690389366E+02  0.51100000000E-03 0. -1.
        -12    1    3    3    0    0 -0.40384018950E+01 -0.24538067001E+01 -0.55929733175E+01  0.73219674758E+01  0.00000000000E+00 0.  1.
</event>
<event>
 7    1  0.4818508E-009  0.4778727E+02  0.7816164E-02  0.1312668E+00
        -11   -1    0    0    0    0  0.00000000000E+00  0.00000000000E+00  0.45593999997E+02  0.45594000000E+02  0.51100000000E-03 0.  1.
         11   -1    0    0    0    0 -0.00000000000E+00 -0.00000000000E+00 -0.45593999997E+02  0.45594000000E+02  0.51100000000E-03 0. -1.
    9900012    2    1    2    0    0 -0.16701898400E+02 -0.22966777501E+02  0.32820683609E+02  0.47787267846E+02  0.19999985416E+02 0.  0.
         12    1    1    2    0    0  0.16701898400E+02  0.22966777501E+02 -0.32820683609E+02  0.43400732154E+02  0.00000000000E+00 0. -1.
         11    1    3    3    0    0 -0.53640597456E+01 -0.58695073957E+01  0.34901442222E+01  0.86836260269E+01  0.51100000000E-03 0. -1.
        -11    1    3    3    0    0 -0.14213820417E+02 -0.17915903038E+02  0.25791563533E+02  0.34470523962E+02  0.51100000000E-03 0.  1.
        -12    1    3    3    0    0  0.28759817628E+01  0.81863293213E+00  0.35389758542E+01  0.46331178567E+01  0.00000000000E+00 0.  1.
</event>
<event>
 7    1  0.4818508E-009  0.4778727E+02  0.7816164E-02  0.1312668E+00
        -11   -1    0    0    0    0  0.00000000000E+00  0.00000000000E+00  0.45593999997E+02  0.45594000000E+02  0.51100000000E-03 0. -1.
         11   -1    0    0    0    0 -0.00000000000E+00 -0.00000000000E+00 -0.45593999997E+02  0.45594000000E+02  0.51100000000E-03 0.  1.
    9900012    2    1    2    0    0 -0.13998356757E+02  0.40906134653E+02 -0.37891763431E+01  0.47787266118E+02  0.19999977538E+02 0.  0.
         12    1    1    2    0    0  0.13998356757E+02 -0.40906134653E+02  0.37891763431E+01  0.43400733882E+02  0.00000000000E+00 0. -1.
         11    1    3    3    0    0 -0.56825112606E+00 -0.12193862854E+01  0.18583458303E+01  0.22941799715E+01  0.51100000000E-03 0. -1.
        -11    1    3    3    0    0 -0.13856570816E+02  0.31648064408E+02 -0.30043862575E+01  0.34678968736E+02  0.51100000000E-03 0.  1.
        -12    1    3    3    0    0  0.42646518504E+00  0.10477456530E+02 -0.26431359159E+01  0.10814117410E+02  0.00000000000E+00 0.  1.
</event>
<event>
 7    1  0.4818508E-009  0.4778728E+02  0.7816164E-02  0.1312668E+00
        -11   -1    0    0    0    0  0.00000000000E+00  0.00000000000E+00  0.45593999997E+02  0.45594000000E+02  0.51100000000E-03 0.  1.
         11   -1    0    0    0    0 -0.00000000000E+00 -0.00000000000E+00 -0.45593999997E+02  0.45594000000E+02  0.51100000000E-03 0. -1.
    9900012    2    1    2    0    0 -0.16750820245E+02  0.39860614761E+02 -0.37635118292E+01  0.47787278701E+02  0.20000034910E+02 0.  0.
         12    1    1    2    0    0  0.16750820245E+02 -0.39860614761E+02  0.37635118292E+01  0.43400721299E+02  0.00000000000E+00 0. -1.
         11    1    3    3    0    0  0.18263704382E+01  0.87536713481E+01 -0.53225170136E+01  0.10406323975E+02  0.51100000000E-03 0. -1.
        -11    1    3    3    0    0 -0.17241638217E+02  0.21141375810E+02  0.15790181670E+01  0.27326272307E+02  0.51100000000E-03 0.  1.
        -12    1    3    3    0    0 -0.13355524654E+01  0.99655676027E+01 -0.20012982606E-01  0.10054682419E+02  0.00000000000E+00 0.  1.
</event>
<event>
 7    1  0.4818508E-009  0.4778727E+02  0.7816164E-02  0.1312668E+00
        -11   -1    0    0    0    0  0.00000000000E+00  0.00000000000E+00  0.45593999997E+02  0.45594000000E+02  0.51100000000E-03 0.  1.
         11   -1    0    0    0    0 -0.00000000000E+00 -0.00000000000E+00 -0.45593999997E+02  0.45594000000E+02  0.51100000000E-03 0. -1.
    9900012    2    1    2    0    0 -0.79279791670E+01 -0.35838877042E+02  0.23159132425E+02  0.47787269868E+02  0.19999994638E+02 0.  0.
         12    1    1    2    0    0  0.79279791670E+01  0.35838877042E+02 -0.23159132425E+02  0.43400730132E+02  0.00000000000E+00 0. -1.
         11    1    3    3    0    0  0.39898301326E+01 -0.17574690735E+01  0.42841727563E+01  0.61124118397E+01  0.51100000000E-03 0. -1.
        -11    1    3    3    0    0 -0.73741797946E+01 -0.17045633556E+02  0.14355201764E+02  0.23473473729E+02  0.51100000000E-03 0.  1.
         12    1    3    3    0    0 -0.45436295050E+01 -0.17035774413E+02  0.45197579045E+01  0.18201384300E+02  0.00000000000E+00 0. -1.
</event>
<event>
 7    1  0.4818508E-009  0.4778732E+02  0.7816164E-02  0.1312668E+00
        -11   -1    0    0    0    0  0.00000000000E+00  0.00000000000E+00  0.45593999997E+02  0.45594000000E+02  0.51100000000E-03 0.  1.
         11   -1    0    0    0    0 -0.00000000000E+00 -0.00000000000E+00 -0.45593999997E+02  0.45594000000E+02  0.51100000000E-03 0. -1.
    9900012    2    1    2    0    0 -0.28883697105E+02 -0.32291590213E+02 -0.25698013799E+01  0.47787324475E+02  0.20000243608E+02 0.  0.
         12    1    1    2    0    0  0.28883697105E+02  0.32291590213E+02  0.25698013799E+01  0.43400675525E+02  0.00000000000E+00 0. -1.
         11    1    3    3    0    0 -0.51280873380E+01 -0.18250104461E+01 -0.28527276165E+01  0.61454046237E+01  0.51100000000E-03 0.  1.
        -11    1    3    3    0    0 -0.46376401968E+01 -0.81308219597E+01 -0.65916672451E+01  0.11448495520E+02  0.51100000000E-03 0. -1.
        -12    1    3    3    0    0 -0.19117969570E+02 -0.22335757807E+02  0.68745934816E+01  0.30193424331E+02  0.00000000000E+00 0.  1.
</event>
<event>
 7    1  0.4818508E-009  0.4778727E+02  0.7816164E-02  0.1312668E+00
        -11   -1    0    0    0    0  0.00000000000E+00  0.00000000000E+00  0.45593999997E+02  0.45594000000E+02  0.51100000000E-03 0. -1.
         11   -1    0    0    0    0 -0.00000000000E+00 -0.00000000000E+00 -0.45593999997E+02  0.45594000000E+02  0.51100000000E-03 0.  1.
    9900012    2    1    2    0    0 -0.31832405179E+02 -0.28761603783E+02 -0.65644131436E+01  0.47787269689E+02  0.19999993819E+02 0.  0.
         12    1    1    2    0    0  0.31832405179E+02  0.28761603783E+02  0.65644131436E+01  0.43400730311E+02  0.00000000000E+00 0. -1.
         11    1    3    3    0    0 -0.50779674719E+00 -0.91045627748E+00 -0.33802882753E+01  0.35373913064E+01  0.51100000000E-03 0. -1.
        -11    1    3    3    0    0 -0.31213710781E+02 -0.29055055599E+02 -0.22165199434E+01  0.42701346085E+02  0.51100000000E-03 0.  1.
        -12    1    3    3    0    0 -0.11089765088E+00  0.12039080930E+01 -0.96760492499E+00  0.15485322974E+01  0.00000000000E+00 0.  1.
</event>
<event>
 7    1  0.4818508E-009  0.4778727E+02  0.7816164E-02  0.1312668E+00
        -11   -1    0    0    0    0  0.00000000000E+00  0.00000000000E+00  0.45593999997E+02  0.45594000000E+02  0.51100000000E-03 0.  1.
         11   -1    0    0    0    0 -0.00000000000E+00 -0.00000000000E+00 -0.45593999997E+02  0.45594000000E+02  0.51100000000E-03 0. -1.
    9900012    2    1    2    0    0 -0.72851998065E+01 -0.42065605167E+02  0.78124385985E+01  0.47787268772E+02  0.19999989638E+02 0.  0.
         12    1    1    2    0    0  0.72851998065E+01  0.42065605167E+02 -0.78124385985E+01  0.43400731228E+02  0.00000000000E+00 0. -1.
         11    1    3    3    0    0 -0.86616758993E+00 -0.14814969492E+01 -0.32959841995E+01  0.37159913359E+01  0.51100000000E-03 0. -1.
        -11    1    3    3    0    0 -0.70587070301E+01 -0.40125301989E+02  0.12375521943E+02  0.42579557869E+02  0.51100000000E-03 0.  1.
        -12    1    3    3    0    0  0.63967481354E+00 -0.45880622847E+00 -0.12670991454E+01  0.14917195670E+01  0.00000000000E+00 0.  1.
</event>
<event>
 7    1  0.4818508E-009  0.4778727E+02  0.7816164E-02  0.1312668E+00
        -11   -1    0    0    0    0  0.00000000000E+00  0.00000000000E+00  0.45593999997E+02  0.45594000000E+02  0.51100000000E-03 0.  1.
         11   -1    0    0    0    0 -0.00000000000E+00 -0.00000000000E+00 -0.45593999997E+02  0.45594000000E+02  0.51100000000E-03 0. -1.
    9900012    2    1    2    0    0 -0.69412976155E+01 -0.11104065881E+02  0.41378029614E+02  0.47787271591E+02  0.20000002492E+02 0.  0.
         12    1    1    2    0    0  0.69412976155E+01  0.11104065881E+02 -0.41378029614E+02  0.43400728409E+02  0.00000000000E+00 0. -1.
         11    1    3    3    0    0 -0.53315475110E+01  0.74636569956E+00  0.79985169947E+01  0.96415110327E+01  0.51100000000E-03 0. -1.
        -11    1    3    3    0    0  0.33573907309E+01 -0.50760912750E+01  0.26780943979E+02  0.27463753127E+02  0.51100000000E-03 0.  1.
        -12    1    3    3    0    0 -0.49671408354E+01 -0.67743403054E+01  0.65985686404E+01  0.10682007431E+02  0.00000000000E+00 0.  1.
</event>
<event>
 7    1  0.4818508E-009  0.4778726E+02  0.7816164E-02  0.1312668E+00
        -11   -1    0    0    0    0  0.00000000000E+00  0.00000000000E+00  0.45593999997E+02  0.45594000000E+02  0.51100000000E-03 0.  1.
         11   -1    0    0    0    0 -0.00000000000E+00 -0.00000000000E+00 -0.45593999997E+02  0.45594000000E+02  0.51100000000E-03 0. -1.
    9900012    2    1    2    0    0 -0.32635423291E+01  0.36275690657E+02  0.23601857966E+02  0.47787261059E+02  0.19999954474E+02 0.  0.
         12    1    1    2    0    0  0.32635423291E+01 -0.36275690657E+02 -0.23601857966E+02  0.43400738941E+02  0.00000000000E+00 0. -1.
         11    1    3    3    0    0 -0.22867364848E+01  0.32092921283E+02  0.12411995890E+02  0.34485394046E+02  0.51100000000E-03 0.  1.
        -11    1    3    3    0    0 -0.14469458081E+01  0.49434714545E+01  0.11282644783E+02  0.12402807576E+02  0.51100000000E-03 0. -1.
        -12    1    3    3    0    0  0.47013996383E+00 -0.76070208132E+00 -0.92782707387E-01  0.89905943792E+00  0.00000000000E+00 0.  1.
</event>
<event>
 7    1  0.4818508E-009  0.4778727E+02  0.7816164E-02  0.1312668E+00
        -11   -1    0    0    0    0  0.00000000000E+00  0.00000000000E+00  0.45593999997E+02  0.45594000000E+02  0.51100000000E-03 0. -1.
         11   -1    0    0    0    0 -0.00000000000E+00 -0.00000000000E+00 -0.45593999997E+02  0.45594000000E+02  0.51100000000E-03 0.  1.
    9900012    2    1    2    0    0  0.10661770591E+02  0.31593203055E+02 -0.27781636865E+02  0.47787272146E+02  0.20000005022E+02 0.  0.
         12    1    1    2    0    0 -0.10661770591E+02 -0.31593203055E+02  0.27781636865E+02  0.43400727854E+02  0.00000000000E+00 0. -1.
         11    1    3    3    0    0 -0.21201696915E+01 -0.50441373988E+00  0.10021870423E+01  0.23987354733E+01  0.51100000000E-03 0. -1.
        -11    1    3    3    0    0  0.69640132929E+01  0.21587210831E+02 -0.21966211124E+02  0.31575616922E+02  0.51100000000E-03 0.  1.
         12    1    3    3    0    0  0.58179269896E+01  0.10510405964E+02 -0.68176127832E+01  0.13812919751E+02  0.00000000000E+00 0. -1.
</event>
<event>
 7    1  0.4818508E-009  0.4778725E+02  0.7816164E-02  0.1312668E+00
        -11   -1    0    0    0    0  0.00000000000E+00  0.00000000000E+00  0.45593999997E+02  0.45594000000E+02  0.51100000000E-03 0.  1.
         11   -1    0    0    0    0 -0.00000000000E+00 -0.00000000000E+00 -0.45593999997E+02  0.45594000000E+02  0.51100000000E-03 0. -1.
    9900012    2    1    2    0    0 -0.38304715478E+00  0.35692460550E+02  0.24688593299E+02  0.47787249957E+02  0.19999903852E+02 0.  0.
         12    1    1    2    0    0  0.38304715478E+00 -0.35692460550E+02 -0.24688593299E+02  0.43400750043E+02  0.00000000000E+00 0. -1.
         11    1    3    3    0    0  0.45065245154E+01  0.14357745415E+01  0.36021283532E+01  0.59452115754E+01  0.51100000000E-03 0. -1.
        -11    1    3    3    0    0 -0.34913861801E+01  0.32485705805E+02  0.16218834643E+02  0.36476861934E+02  0.51100000000E-03 0.  1.
        -12    1    3    3    0    0 -0.13981854901E+01  0.17709802033E+01  0.48676303025E+01  0.53651764470E+01  0.00000000000E+00 0.  1.
</event>
<event>
 7    1  0.4818508E-009  0.4778727E+02  0.7816164E-02  0.1312668E+00
        -11   -1    0    0    0    0  0.00000000000E+00  0.00000000000E+00  0.45593999997E+02  0.45594000000E+02  0.51100000000E-03 0.  1.
         11   -1    0    0    0    0 -0.00000000000E+00 -0.00000000000E+00 -0.45593999997E+02  0.45594000000E+02  0.51100000000E-03 0. -1.
    9900012    2    1    2    0    0  0.13746056930E+02 -0.15689748406E+02  0.38059181640E+02  0.47787267365E+02  0.19999983222E+02 0.  0.
         12    1    1    2    0    0 -0.13746056930E+02  0.15689748406E+02 -0.38059181640E+02  0.43400732635E+02  0.00000000000E+00 0. -1.
         11    1    3    3    0    0  0.74599486233E+01 -0.94010524040E+01  0.73183233933E+01  0.14056616852E+02  0.51100000000E-03 0. -1.
        -11    1    3    3    0    0  0.36775606224E+01 -0.87453148140E+01  0.26671510089E+02  0.28308557611E+02  0.51100000000E-03 0.  1.
         12    1    3    3    0    0  0.26085476842E+01  0.24566188118E+01  0.40693481574E+01  0.54220929016E+01  0.00000000000E+00 0. -1.
</event>
<event>
 7    1  0.4818508E-009  0.4778727E+02  0.7816164E-02  0.1312668E+00
        -11   -1    0    0    0    0  0.00000000000E+00  0.00000000000E+00  0.45593999997E+02  0.45594000000E+02  0.51100000000E-03 0.  1.
         11   -1    0    0    0    0 -0.00000000000E+00 -0.00000000000E+00 -0.45593999997E+02  0.45594000000E+02  0.51100000000E-03 0. -1.
    9900012    2    1    2    0    0 -0.34848128401E+02 -0.24663348618E+02  0.78070783765E+01  0.47787270848E+02  0.19999999105E+02 0.  0.
         12    1    1    2    0    0  0.34848128401E+02  0.24663348618E+02 -0.78070783765E+01  0.43400729152E+02  0.00000000000E+00 0. -1.
         11    1    3    3    0    0 -0.17449466053E+01 -0.64889417001E+01  0.38811110970E+01  0.77597826420E+01  0.51100000000E-03 0. -1.
        -11    1    3    3    0    0 -0.30466923433E+02 -0.14840993415E+02  0.72206899036E+01  0.34650063087E+02  0.51100000000E-03 0.  1.
         12    1    3    3    0    0 -0.26362583629E+01 -0.33334135031E+01 -0.32947226240E+01  0.53774251187E+01  0.00000000000E+00 0. -1.
</event>
<event>
 7    1  0.4818508E-009  0.4778727E+02  0.7816164E-02  0.1312668E+00
        -11   -1    0    0    0    0  0.00000000000E+00  0.00000000000E+00  0.45593999997E+02  0.45594000000E+02  0.51100000000E-03 0.  1.
         11   -1    0    0    0    0 -0.00000000000E+00 -0.00000000000E+00 -0.45593999997E+02  0.45594000000E+02  0.51100000000E-03 0. -1.
    9900012    2    1    2    0    0  0.13342307148E+02  0.11408141244E+01  0.41283229982E+02  0.47787266197E+02  0.19999977899E+02 0.  0.
         12    1    1    2    0    0 -0.13342307148E+02 -0.11408141244E+01 -0.41283229982E+02  0.43400733803E+02  0.00000000000E+00 0. -1.
         11    1    3    3    0    0  0.54428118142E+01  0.48173175917E+01  0.44188957845E+01  0.85063146803E+01  0.51100000000E-03 0. -1.
        -11    1    3    3    0    0  0.41904907680E+01 -0.68643842738E+01  0.16751860165E+02  0.18582378847E+02  0.51100000000E-03 0.  1.
        -12    1    3    3    0    0  0.37090045661E+01  0.31878808065E+01  0.20112474032E+02  0.20698572670E+02  0.00000000000E+00 0.  1.
</event>
<event>
 7    1  0.4818508E-009  0.4778727E+02  0.7816164E-02  0.1312668E+00
        -11   -1    0    0    0    0  0.00000000000E+00  0.00000000000E+00  0.45593999997E+02  0.45594000000E+02  0.51100000000E-03 0.  1.
         11   -1    0    0    0    0 -0.00000000000E+00 -0.00000000000E+00 -0.45593999997E+02  0.45594000000E+02  0.51100000000E-03 0. -1.
    9900012    2    1    2    0    0  0.42393505967E+02  0.91596759386E+01 -0.15856474472E+01  0.47787270867E+02  0.19999999191E+02 0.  0.
         12    1    1    2    0    0 -0.42393505967E+02 -0.91596759386E+01  0.15856474472E+01  0.43400729133E+02  0.00000000000E+00 0. -1.
         11    1    3    3    0    0  0.20165404992E+02  0.11554409412E+02  0.84386287163E+00  0.23256397833E+02  0.51100000000E-03 0. -1.
        -11    1    3    3    0    0  0.16361131725E+02 -0.18812324794E+01  0.27390124134E+01  0.16695144690E+02  0.51100000000E-03 0.  1.
         12    1    3    3    0    0  0.58669692496E+01 -0.51350099422E+00 -0.51685227323E+01  0.78357283440E+01  0.00000000000E+00 0. -1.
</event>
<event>
 7    1  0.4818508E-009  0.4778727E+02  0.7816164E-02  0.1312668E+00
        -11   -1    0    0    0    0  0.00000000000E+00  0.00000000000E+00  0.45593999997E+02  0.45594000000E+02  0.51100000000E-03 0.  1.
         11   -1    0    0    0    0 -0.00000000000E+00 -0.00000000000E+00 -0.45593999997E+02  0.45594000000E+02  0.51100000000E-03 0. -1.
    9900012    2    1    2    0    0  0.26325554068E+02 -0.24627043644E+02  0.24168101125E+02  0.47787272038E+02  0.20000004530E+02 0.  0.
         12    1    1    2    0    0 -0.26325554068E+02  0.24627043644E+02 -0.24168101125E+02  0.43400727962E+02  0.00000000000E+00 0. -1.
         11    1    3    3    0    0  0.92097244428E+01 -0.11381117957E+02  0.19971724257E+02  0.24763251812E+02  0.51100000000E-03 0. -1.
        -11    1    3    3    0    0  0.10455840973E+02 -0.63131131353E+01 -0.70284159382E+00  0.12234132355E+02  0.51100000000E-03 0.  1.
        -12    1    3    3    0    0  0.66599886525E+01 -0.69328125517E+01  0.48992184621E+01  0.10789887871E+02  0.00000000000E+00 0.  1.
</event>
<event>
 7    1  0.4818508E-009  0.4778727E+02  0.7816164E-02  0.1312668E+00
        -11   -1    0    0    0    0  0.00000000000E+00  0.00000000000E+00  0.45593999997E+02  0.45594000000E+02  0.51100000000E-03 0. -1.
         11   -1    0    0    0    0 -0.00000000000E+00 -0.00000000000E+00 -0.45593999997E+02  0.45594000000E+02  0.51100000000E-03 0.  1.
    9900012    2    1    2    0    0 -0.66721324957E+01  0.15513614751E+01 -0.42856726581E+02  0.47787273189E+02  0.20000009777E+02 0.  0.
         12    1    1    2    0    0  0.66721324957E+01 -0.15513614751E+01  0.42856726581E+02  0.43400726811E+02  0.00000000000E+00 0. -1.
         11    1    3    3    0    0 -0.62566894241E+01 -0.40336201517E+01 -0.55769978284E+01  0.93015675623E+01  0.51100000000E-03 0. -1.
        -11    1    3    3    0    0 -0.17869607492E+01  0.21825206824E+01 -0.31591117264E+02  0.31716798632E+02  0.51100000000E-03 0.  1.
         12    1    3    3    0    0  0.13715176776E+01  0.34024609444E+01 -0.56886114894E+01  0.67689069941E+01  0.00000000000E+00 0. -1.
</event>
<event>
 7    1  0.7942931E-009  0.4778727E+02  0.7816164E-02  0.1312668E+00
        -11   -1    0    0    0    0  0.00000000000E+00  0.00000000000E+00  0.45593999997E+02  0.45594000000E+02  0.51100000000E-03 0.  1.
         11   -1    0    0    0    0 -0.00000000000E+00 -0.00000000000E+00 -0.45593999997E+02  0.45594000000E+02  0.51100000000E-03 0. -1.
    9900012    2    1    2    0    0 -0.38794462181E+02 -0.15297768932E+02  0.12024614908E+02  0.47787269661E+02  0.19999993694E+02 0.  0.
         12    1    1    2    0    0  0.38794462181E+02  0.15297768932E+02 -0.12024614908E+02  0.43400730339E+02  0.00000000000E+00 0. -1.
         11    1    3    3    0    0  0.87321302286E+00  0.18422179418E+01 -0.51801252831E+00  0.21034745467E+01  0.51100000000E-03 0. -1.
        -11    1    3    3    0    0 -0.11754913689E+02 -0.24001705664E+01  0.61326355958E+01  0.13473976183E+02  0.51100000000E-03 0.  1.
         12    1    3    3    0    0 -0.27912761516E+02 -0.14739816307E+02  0.64099918409E+01  0.32209818932E+02  0.00000000000E+00 0. -1.
</event>
<event>
 7    1  0.4818508E-009  0.4778727E+02  0.7816164E-02  0.1312668E+00
        -11   -1    0    0    0    0  0.00000000000E+00  0.00000000000E+00  0.45593999997E+02  0.45594000000E+02  0.51100000000E-03 0. -1.
         11   -1    0    0    0    0 -0.00000000000E+00 -0.00000000000E+00 -0.45593999997E+02  0.45594000000E+02  0.51100000000E-03 0.  1.
    9900012    2    1    2    0    0 -0.38470180833E+02  0.16329757397E+02 -0.11705026056E+02  0.47787269304E+02  0.19999992064E+02 0.  0.
         12    1    1    2    0    0  0.38470180833E+02 -0.16329757397E+02  0.11705026056E+02  0.43400730696E+02  0.00000000000E+00 0. -1.
         11    1    3    3    0    0 -0.13630613176E+02  0.14344005775E+02 -0.73472315382E+01  0.21107485136E+02  0.51100000000E-03 0. -1.
        -11    1    3    3    0    0 -0.16465707644E+02  0.47500825430E+00 -0.68095428895E+01  0.17824562707E+02  0.51100000000E-03 0.  1.
        -12    1    3    3    0    0 -0.83738600132E+01  0.15107433676E+01  0.24517483717E+01  0.88552214609E+01  0.00000000000E+00 0.  1.
</event>
<event>
 7    1  0.4818508E-009  0.4778727E+02  0.7816164E-02  0.1312668E+00
        -11   -1    0    0    0    0  0.00000000000E+00  0.00000000000E+00  0.45593999997E+02  0.45594000000E+02  0.51100000000E-03 0. -1.
         11   -1    0    0    0    0 -0.00000000000E+00 -0.00000000000E+00 -0.45593999997E+02  0.45594000000E+02  0.51100000000E-03 0.  1.
    9900012    2    1    2    0    0  0.23374824647E+02 -0.14911304658E+02 -0.33390027377E+02  0.47787270028E+02  0.19999995367E+02 0.  0.
         12    1    1    2    0    0 -0.23374824647E+02  0.14911304658E+02  0.33390027377E+02  0.43400729972E+02  0.00000000000E+00 0. -1.
         11    1    3    3    0    0  0.14542200974E+02 -0.11101857835E+02 -0.17610358301E+02  0.25393927942E+02  0.51100000000E-03 0.  1.
        -11    1    3    3    0    0 -0.23117831832E+01 -0.14346810769E+01  0.24357428937E+00  0.27316624927E+01  0.51100000000E-03 0. -1.
        -12    1    3    3    0    0  0.11144406856E+02 -0.23747657455E+01 -0.16023243365E+02  0.19661679594E+02  0.00000000000E+00 0.  1.
</event>
<event>
 7    1  0.4818508E-009  0.4778727E+02  0.7816164E-02  0.1312668E+00
        -11   -1    0    0    0    0  0.00000000000E+00  0.00000000000E+00  0.45593999997E+02  0.45594000000E+02  0.51100000000E-03 0.  1.
         11   -1    0    0    0    0 -0.00000000000E+00 -0.00000000000E+00 -0.45593999997E+02  0.45594000000E+02  0.51100000000E-03 0. -1.
    9900012    2    1    2    0    0  0.56080437649E+01 -0.42495609373E+02 -0.68041235973E+01  0.47787273407E+02  0.20000010772E+02 0.  0.
         12    1    1    2    0    0 -0.56080437649E+01  0.42495609373E+02  0.68041235973E+01  0.43400726593E+02  0.00000000000E+00 0. -1.
         11    1    3    3    0    0  0.42781131164E+01 -0.29927170860E+02 -0.60340090240E+01  0.30827699763E+02  0.51100000000E-03 0. -1.
        -11    1    3    3    0    0 -0.36044603362E+01 -0.77646731978E+01  0.30461331696E+01  0.90863200325E+01  0.51100000000E-03 0.  1.
         12    1    3    3    0    0  0.49343909847E+01 -0.48037653157E+01 -0.38162477429E+01  0.78732536117E+01  0.00000000000E+00 0. -1.
</event>
<event>
 7    1  0.4818508E-009  0.4778727E+02  0.7816164E-02  0.1312668E+00
        -11   -1    0    0    0    0  0.00000000000E+00  0.00000000000E+00  0.45593999997E+02  0.45594000000E+02  0.51100000000E-03 0.  1.
         11   -1    0    0    0    0 -0.00000000000E+00 -0.00000000000E+00 -0.45593999997E+02  0.45594000000E+02  0.51100000000E-03 0. -1.
    9900012    2    1    2    0    0  0.24787049102E+02 -0.12162211591E+02  0.33485906637E+02  0.47787272618E+02  0.20000007176E+02 0.  0.
         12    1    1    2    0    0 -0.24787049102E+02  0.12162211591E+02 -0.33485906637E+02  0.43400727382E+02  0.00000000000E+00 0. -1.
         11    1    3    3    0    0 -0.22313302194E+01 -0.42498580090E+01  0.46334134641E+01  0.66714802132E+01  0.51100000000E-03 0. -1.
        -11    1    3    3    0    0  0.16976724500E+02 -0.67863834455E+01  0.13460929532E+02  0.22703761784E+02  0.51100000000E-03 0.  1.
         12    1    3    3    0    0  0.10041654822E+02 -0.11259701369E+01  0.15391563640E+02  0.18412030621E+02  0.00000000000E+00 0. -1.
</event>
<event>
 7    1  0.4818508E-009  0.4778726E+02  0.7816164E-02  0.1312668E+00
        -11   -1    0    0    0    0  0.00000000000E+00  0.00000000000E+00  0.45593999997E+02  0.45594000000E+02  0.51100000000E-03 0.  1.
         11   -1    0    0    0    0 -0.00000000000E+00 -0.00000000000E+00 -0.45593999997E+02  0.45594000000E+02  0.51100000000E-03 0. -1.
    9900012    2    1    2    0    0  0.16396791519E+02  0.33486699992E+02  0.22212833729E+02  0.47787264629E+02  0.19999970751E+02 0.  0.
         12    1    1    2    0    0 -0.16396791519E+02 -0.33486699992E+02 -0.22212833729E+02  0.43400735371E+02  0.00000000000E+00 0. -1.
         11    1    3    3    0    0 -0.49952273530E+00  0.48871774274E+01 -0.25872952261E+01  0.55523079002E+01  0.51100000000E-03 0. -1.
        -11    1    3    3    0    0  0.15347949395E+02  0.24191239563E+02  0.17511090075E+02  0.33576984649E+02  0.51100000000E-03 0.  1.
         12    1    3    3    0    0  0.15483648593E+01  0.44082830016E+01  0.72890388797E+01  0.86579720807E+01  0.00000000000E+00 0. -1.
</event>
<event>
 7    1  0.4818508E-009  0.4778727E+02  0.7816164E-02  0.1312668E+00
        -11   -1    0    0    0    0  0.00000000000E+00  0.00000000000E+00  0.45593999997E+02  0.45594000000E+02  0.51100000000E-03 0.  1.
         11   -1    0    0    0    0 -0.00000000000E+00 -0.00000000000E+00 -0.45593999997E+02  0.45594000000E+02  0.51100000000E-03 0. -1.
    9900012    2    1    2    0    0 -0.14228813148E+02  0.23472420978E+02  0.33618587471E+02  0.47787273120E+02  0.20000009463E+02 0.  0.
         12    1    1    2    0    0  0.14228813148E+02 -0.23472420978E+02 -0.33618587471E+02  0.43400726880E+02  0.00000000000E+00 0. -1.
         11    1    3    3    0    0 -0.36339569667E+01  0.20185340792E+01  0.12467601776E+02  0.13142344439E+02  0.51100000000E-03 0. -1.
        -11    1    3    3    0    0 -0.25588772142E+01  0.10484790328E+02  0.17200967046E+01  0.10928742551E+02  0.51100000000E-03 0.  1.
        -12    1    3    3    0    0 -0.80359789668E+01  0.10969096571E+02  0.19430888991E+02  0.23716186129E+02  0.00000000000E+00 0.  1.
</event>
<event>
 7    1  0.4818508E-009  0.4778728E+02  0.7816164E-02  0.1312668E+00
        -11   -1    0    0    0    0  0.00000000000E+00  0.00000000000E+00  0.45593999997E+02  0.45594000000E+02  0.51100000000E-03 0. -1.
         11   -1    0    0    0    0 -0.00000000000E+00 -0.00000000000E+00 -0.45593999997E+02  0.45594000000E+02  0.51100000000E-03 0.  1.
    9900012    2    1    2    0    0 -0.28806023545E+02  0.10743786038E+02 -0.30633423732E+02  0.47787279033E+02  0.20000036424E+02 0.  0.
         12    1    1    2    0    0  0.28806023545E+02 -0.10743786038E+02  0.30633423732E+02  0.43400720967E+02  0.00000000000E+00 0. -1.
         11    1    3    3    0    0 -0.11109810732E+02  0.21134939100E+01 -0.97660281060E+00  0.11351145507E+02  0.51100000000E-03 0. -1.
        -11    1    3    3    0    0 -0.54217916280E+01  0.64154317716E+01 -0.14990589164E+02  0.17183461613E+02  0.51100000000E-03 0.  1.
         12    1    3    3    0    0 -0.12274421185E+02  0.22148603559E+01 -0.14666231758E+02  0.19252671913E+02  0.00000000000E+00 0. -1.
</event>
<event>
 7    1  0.4818508E-009  0.4778727E+02  0.7816164E-02  0.1312668E+00
        -11   -1    0    0    0    0  0.00000000000E+00  0.00000000000E+00  0.45593999997E+02  0.45594000000E+02  0.51100000000E-03 0.  1.
         11   -1    0    0    0    0 -0.00000000000E+00 -0.00000000000E+00 -0.45593999997E+02  0.45594000000E+02  0.51100000000E-03 0. -1.
    9900012    2    1    2    0    0 -0.38635050155E+02 -0.92697112544E+01  0.17465068473E+02  0.47787271158E+02  0.20000000517E+02 0.  0.
         12    1    1    2    0    0  0.38635050155E+02  0.92697112544E+01 -0.17465068473E+02  0.43400728842E+02  0.00000000000E+00 0. -1.
         11    1    3    3    0    0 -0.13724258154E+02 -0.11299974179E+02  0.12575524079E+02  0.21775869316E+02  0.51100000000E-03 0. -1.
        -11    1    3    3    0    0 -0.15968678457E+02  0.28204303154E+01  0.51996525639E+01  0.17029089989E+02  0.51100000000E-03 0.  1.
        -12    1    3    3    0    0 -0.89421135443E+01 -0.79016739111E+00 -0.31010816956E+00  0.89823118528E+01  0.00000000000E+00 0.  1.
</event>
<event>
 7    1  0.4818508E-009  0.4778727E+02  0.7816164E-02  0.1312668E+00
        -11   -1    0    0    0    0  0.00000000000E+00  0.00000000000E+00  0.45593999997E+02  0.45594000000E+02  0.51100000000E-03 0.  1.
         11   -1    0    0    0    0 -0.00000000000E+00 -0.00000000000E+00 -0.45593999997E+02  0.45594000000E+02  0.51100000000E-03 0. -1.
    9900012    2    1    2    0    0 -0.31788772557E+02 -0.24835188269E+02  0.16009716134E+02  0.47787266737E+02  0.19999980362E+02 0.  0.
         12    1    1    2    0    0  0.31788772557E+02  0.24835188269E+02 -0.16009716134E+02  0.43400733263E+02  0.00000000000E+00 0. -1.
         11    1    3    3    0    0 -0.69367549735E+01 -0.14423056362E+02  0.52679949544E+01  0.16849180855E+02  0.51100000000E-03 0. -1.
        -11    1    3    3    0    0 -0.23036239867E+02 -0.72072537037E+01  0.12114693888E+02  0.27007011338E+02  0.51100000000E-03 0.  1.
         12    1    3    3    0    0 -0.18157777156E+01 -0.32048782037E+01 -0.13729727079E+01  0.39310745439E+01  0.00000000000E+00 0. -1.
</event>
<event>
 7    1  0.4818508E-009  0.4778727E+02  0.7816164E-02  0.1312668E+00
        -11   -1    0    0    0    0  0.00000000000E+00  0.00000000000E+00  0.45593999997E+02  0.45594000000E+02  0.51100000000E-03 0.  1.
         11   -1    0    0    0    0 -0.00000000000E+00 -0.00000000000E+00 -0.45593999997E+02  0.45594000000E+02  0.51100000000E-03 0. -1.
    9900012    2    1    2    0    0  0.28665719483E+02 -0.11675393329E+02  0.30423429231E+02  0.47787270409E+02  0.19999997103E+02 0.  0.
         12    1    1    2    0    0 -0.28665719483E+02  0.11675393329E+02 -0.30423429231E+02  0.43400729591E+02  0.00000000000E+00 0. -1.
         11    1    3    3    0    0  0.28315546754E+01 -0.18085795119E+01  0.83196381688E-01  0.33608903031E+01  0.51100000000E-03 0. -1.
        -11    1    3    3    0    0  0.68829267848E+01  0.30693790160E+01  0.16954884669E+01  0.77246650459E+01  0.51100000000E-03 0.  1.
        -12    1    3    3    0    0  0.18951238023E+02 -0.12936192833E+02  0.28644744382E+02  0.36701715060E+02  0.00000000000E+00 0.  1.
</event>
<event>
 7    1  0.4818508E-009  0.4778727E+02  0.7816164E-02  0.1312668E+00
        -11   -1    0    0    0    0  0.00000000000E+00  0.00000000000E+00  0.45593999997E+02  0.45594000000E+02  0.51100000000E-03 0.  1.
         11   -1    0    0    0    0 -0.00000000000E+00 -0.00000000000E+00 -0.45593999997E+02  0.45594000000E+02  0.51100000000E-03 0. -1.
    9900012    2    1    2    0    0  0.11020558313E+02 -0.17554390805E+02  0.38131539059E+02  0.47787267137E+02  0.19999982184E+02 0.  0.
         12    1    1    2    0    0 -0.11020558313E+02  0.17554390805E+02 -0.38131539059E+02  0.43400732863E+02  0.00000000000E+00 0. -1.
         11    1    3    3    0    0 -0.51105789712E+01 -0.40496309656E+01  0.67499501811E+01  0.93850602602E+01  0.51100000000E-03 0. -1.
        -11    1    3    3    0    0  0.12771894960E+02 -0.68089512698E+01  0.22853249500E+02  0.27050954350E+02  0.51100000000E-03 0.  1.
         12    1    3    3    0    0  0.33592423239E+01 -0.66958085695E+01  0.85283393771E+01  0.11351252527E+02  0.00000000000E+00 0. -1.
</event>
<event>
 7    1  0.4818508E-009  0.4778727E+02  0.7816164E-02  0.1312668E+00
        -11   -1    0    0    0    0  0.00000000000E+00  0.00000000000E+00  0.45593999997E+02  0.45594000000E+02  0.51100000000E-03 0.  1.
         11   -1    0    0    0    0 -0.00000000000E+00 -0.00000000000E+00 -0.45593999997E+02  0.45594000000E+02  0.51100000000E-03 0. -1.
    9900012    2    1    2    0    0  0.39424812759E+02  0.71676751334E+01  0.16671291412E+02  0.47787269762E+02  0.19999994152E+02 0.  0.
         12    1    1    2    0    0 -0.39424812759E+02 -0.71676751334E+01 -0.16671291412E+02  0.43400730238E+02  0.00000000000E+00 0. -1.
         11    1    3    3    0    0  0.61748155911E+01  0.46276851780E+01  0.72812031926E+01  0.10609417415E+02  0.51100000000E-03 0. -1.
        -11    1    3    3    0    0  0.26765868307E+02 -0.11618362275E+01  0.23136301971E+01  0.26890787541E+02  0.51100000000E-03 0.  1.
        -12    1    3    3    0    0  0.64841288606E+01  0.37018261829E+01  0.70764580222E+01  0.10287064805E+02  0.00000000000E+00 0.  1.
</event>
<event>
 7    1  0.4818508E-009  0.4778728E+02  0.7816164E-02  0.1312668E+00
        -11   -1    0    0    0    0  0.00000000000E+00  0.00000000000E+00  0.45593999997E+02  0.45594000000E+02  0.51100000000E-03 0.  1.
         11   -1    0    0    0    0 -0.00000000000E+00 -0.00000000000E+00 -0.45593999997E+02  0.45594000000E+02  0.51100000000E-03 0. -1.
    9900012    2    1    2    0    0 -0.23644582019E+02  0.23521792672E+02  0.27771962900E+02  0.47787275206E+02  0.20000018974E+02 0.  0.
         12    1    1    2    0    0  0.23644582019E+02 -0.23521792672E+02 -0.27771962900E+02  0.43400724794E+02  0.00000000000E+00 0. -1.
         11    1    3    3    0    0 -0.42892355050E+01  0.10514637849E+01  0.14266021883E+02  0.14933937791E+02  0.51100000000E-03 0. -1.
        -11    1    3    3    0    0 -0.16315581679E+02  0.17521760725E+02  0.12320677216E+02  0.26925998436E+02  0.51100000000E-03 0.  1.
         12    1    3    3    0    0 -0.30397648350E+01  0.49485681618E+01  0.11852638007E+01  0.59273389798E+01  0.00000000000E+00 0. -1.
</event>
<event>
 7    1  0.4818508E-009  0.4778728E+02  0.7816164E-02  0.1312668E+00
        -11   -1    0    0    0    0  0.00000000000E+00  0.00000000000E+00  0.45593999997E+02  0.45594000000E+02  0.51100000000E-03 0.  1.
         11   -1    0    0    0    0 -0.00000000000E+00 -0.00000000000E+00 -0.45593999997E+02  0.45594000000E+02  0.51100000000E-03 0. -1.
    9900012    2    1    2    0    0  0.31792810660E+02  0.80295405482E+01  0.28431785991E+02  0.47787276668E+02  0.20000025642E+02 0.  0.
         12    1    1    2    0    0 -0.31792810660E+02 -0.80295405482E+01 -0.28431785991E+02  0.43400723332E+02  0.00000000000E+00 0. -1.
         11    1    3    3    0    0 -0.17996339179E+00  0.70795879757E+00  0.67284211827E+01  0.67679571773E+01  0.51100000000E-03 0. -1.
        -11    1    3    3    0    0  0.23923919760E+02  0.96173532939E+01  0.12756039985E+02  0.28767411727E+02  0.51100000000E-03 0.  1.
         12    1    3    3    0    0  0.80488542913E+01 -0.22957715433E+01  0.89473248232E+01  0.12251907765E+02  0.00000000000E+00 0. -1.
</event>
<event>
 7    1  0.4818508E-009  0.4778727E+02  0.7816164E-02  0.1312668E+00
        -11   -1    0    0    0    0  0.00000000000E+00  0.00000000000E+00  0.45593999997E+02  0.45594000000E+02  0.51100000000E-03 0.  1.
         11   -1    0    0    0    0 -0.00000000000E+00 -0.00000000000E+00 -0.45593999997E+02  0.45594000000E+02  0.51100000000E-03 0. -1.
    9900012    2    1    2    0    0 -0.10138465968E+01 -0.13025639120E+02  0.41387536232E+02  0.47787270573E+02  0.19999997851E+02 0.  0.
         12    1    1    2    0    0  0.10138465968E+01  0.13025639120E+02 -0.41387536232E+02  0.43400729427E+02  0.00000000000E+00 0. -1.
         11    1    3    3    0    0  0.71565544169E+00  0.30834203311E-01 -0.12725602271E+01  0.14603161480E+01  0.51100000000E-03 0. -1.
        -11    1    3    3    0    0  0.20130414297E+01 -0.13398447085E+02  0.37982407970E+02  0.40326592164E+02  0.51100000000E-03 0.  1.
        -12    1    3    3    0    0 -0.37425434682E+01  0.34197376106E+00  0.46776884889E+01  0.60003622611E+01  0.00000000000E+00 0.  1.
</event>
<event>
 7    1  0.4818508E-009  0.4778727E+02  0.7816164E-02  0.1312668E+00
        -11   -1    0    0    0    0  0.00000000000E+00  0.00000000000E+00  0.45593999997E+02  0.45594000000E+02  0.51100000000E-03 0.  1.
         11   -1    0    0    0    0 -0.00000000000E+00 -0.00000000000E+00 -0.45593999997E+02  0.45594000000E+02  0.51100000000E-03 0. -1.
    9900012    2    1    2    0    0 -0.33615620300E+02 -0.26179813960E+02 -0.82601702129E+01  0.47787274210E+02  0.20000014434E+02 0.  0.
         12    1    1    2    0    0  0.33615620300E+02  0.26179813960E+02  0.82601702129E+01  0.43400725790E+02  0.00000000000E+00 0. -1.
         11    1    3    3    0    0 -0.16182752702E+02 -0.19579914194E+02  0.10048481682E-01  0.25401862650E+02  0.51100000000E-03 0. -1.
        -11    1    3    3    0    0 -0.82955628160E+01 -0.24387548244E+01  0.10198711237E+01  0.87065506888E+01  0.51100000000E-03 0.  1.
         12    1    3    3    0    0 -0.91373047826E+01 -0.41611449413E+01 -0.92900898183E+01  0.13678860872E+02  0.00000000000E+00 0. -1.
</event>
<event>
 7    1  0.4818508E-009  0.4778727E+02  0.7816164E-02  0.1312668E+00
        -11   -1    0    0    0    0  0.00000000000E+00  0.00000000000E+00  0.45593999997E+02  0.45594000000E+02  0.51100000000E-03 0.  1.
         11   -1    0    0    0    0 -0.00000000000E+00 -0.00000000000E+00 -0.45593999997E+02  0.45594000000E+02  0.51100000000E-03 0. -1.
    9900012    2    1    2    0    0  0.17993314878E+02 -0.27788271953E+02  0.28065571273E+02  0.47787265798E+02  0.19999976079E+02 0.  0.
         12    1    1    2    0    0 -0.17993314878E+02  0.27788271953E+02 -0.28065571273E+02  0.43400734202E+02  0.00000000000E+00 0. -1.
         11    1    3    3    0    0  0.60429193555E+01 -0.24968285254E+02  0.22444954056E+02  0.34113166163E+02  0.51100000000E-03 0.  1.
        -11    1    3    3    0    0  0.48036363913E+01 -0.66277932395E+00  0.11897931604E+01  0.49929757698E+01  0.51100000000E-03 0. -1.
        -12    1    3    3    0    0  0.71467591309E+01 -0.21572073749E+01  0.44308240567E+01  0.86811238647E+01  0.00000000000E+00 0.  1.
</event>
<event>
 7    1  0.4818508E-009  0.4778727E+02  0.7816164E-02  0.1312668E+00
        -11   -1    0    0    0    0  0.00000000000E+00  0.00000000000E+00  0.45593999997E+02  0.45594000000E+02  0.51100000000E-03 0.  1.
         11   -1    0    0    0    0 -0.00000000000E+00 -0.00000000000E+00 -0.45593999997E+02  0.45594000000E+02  0.51100000000E-03 0. -1.
    9900012    2    1    2    0    0 -0.16561679740E+01 -0.20415747079E+02  0.38263270547E+02  0.47787268507E+02  0.19999988433E+02 0.  0.
         12    1    1    2    0    0  0.16561679740E+01  0.20415747079E+02 -0.38263270547E+02  0.43400731493E+02  0.00000000000E+00 0. -1.
         11    1    3    3    0    0 -0.57588727119E+01  0.67867559049E+00  0.97862960024E+01  0.11375271653E+02  0.51100000000E-03 0. -1.
        -11    1    3    3    0    0  0.28208277742E+01 -0.93929080522E+01  0.74569832231E+01  0.12320324268E+02  0.51100000000E-03 0.  1.
        -12    1    3    3    0    0  0.12818769638E+01 -0.11701514617E+02  0.21019991321E+02  0.24091672587E+02  0.00000000000E+00 0.  1.
</event>
<event>
 7    1  0.4818508E-009  0.4778727E+02  0.7816164E-02  0.1312668E+00
        -11   -1    0    0    0    0  0.00000000000E+00  0.00000000000E+00  0.45593999997E+02  0.45594000000E+02  0.51100000000E-03 0.  1.
         11   -1    0    0    0    0 -0.00000000000E+00 -0.00000000000E+00 -0.45593999997E+02  0.45594000000E+02  0.51100000000E-03 0. -1.
    9900012    2    1    2    0    0  0.26612625777E+02 -0.52295086249E+01  0.33882790004E+02  0.47787273398E+02  0.20000010729E+02 0.  0.
         12    1    1    2    0    0 -0.26612625777E+02  0.52295086249E+01 -0.33882790004E+02  0.43400726602E+02  0.00000000000E+00 0. -1.
         11    1    3    3    0    0 -0.12221949930E+01 -0.29540338185E+01  0.36106089273E+01  0.48225069714E+01  0.51100000000E-03 0. -1.
        -11    1    3    3    0    0  0.24115494683E+02 -0.61761681801E+01  0.26666492409E+02  0.36480185784E+02  0.51100000000E-03 0.  1.
         12    1    3    3    0    0  0.37193260863E+01  0.39006933738E+01  0.36056886678E+01  0.64845806419E+01  0.00000000000E+00 0. -1.
</event>
<event>
 7    1  0.4818508E-009  0.4778727E+02  0.7816164E-02  0.1312668E+00
        -11   -1    0    0    0    0  0.00000000000E+00  0.00000000000E+00  0.45593999997E+02  0.45594000000E+02  0.51100000000E-03 0.  1.
         11   -1    0    0    0    0 -0.00000000000E+00 -0.00000000000E+00 -0.45593999997E+02  0.45594000000E+02  0.51100000000E-03 0. -1.
    9900012    2    1    2    0    0  0.42971869306E+02 -0.46870932686E+01 -0.38823754751E+01  0.47787271500E+02  0.20000002079E+02 0.  0.
         12    1    1    2    0    0 -0.42971869306E+02  0.46870932686E+01  0.38823754751E+01  0.43400728500E+02  0.00000000000E+00 0. -1.
         11    1    3    3    0    0  0.79431629353E+00 -0.14169940281E+01 -0.75811500040E-01  0.16262097326E+01  0.51100000000E-03 0. -1.
        -11    1    3    3    0    0  0.27361817949E+02 -0.30716977832E+01 -0.11049965524E+02  0.29668268353E+02  0.51100000000E-03 0.  1.
        -12    1    3    3    0    0  0.14815735064E+02 -0.19840145733E+00  0.72434015488E+01  0.16492793415E+02  0.00000000000E+00 0.  1.
</event>
<event>
 7    1  0.4818508E-009  0.4778727E+02  0.7816164E-02  0.1312668E+00
        -11   -1    0    0    0    0  0.00000000000E+00  0.00000000000E+00  0.45593999997E+02  0.45594000000E+02  0.51100000000E-03 0.  1.
         11   -1    0    0    0    0 -0.00000000000E+00 -0.00000000000E+00 -0.45593999997E+02  0.45594000000E+02  0.51100000000E-03 0. -1.
    9900012    2    1    2    0    0 -0.31920402768E+02 -0.20213261854E+01  0.29336417159E+02  0.47787271387E+02  0.20000001562E+02 0.  0.
         12    1    1    2    0    0  0.31920402768E+02  0.20213261854E+01 -0.29336417159E+02  0.43400728613E+02  0.00000000000E+00 0. -1.
         11    1    3    3    0    0 -0.16190635197E+01 -0.51126061132E+01  0.68976382355E+01  0.87371346241E+01  0.51100000000E-03 0. -1.
        -11    1    3    3    0    0 -0.21090682774E+02 -0.63998998983E-01  0.19880067183E+02  0.28983410207E+02  0.51100000000E-03 0.  1.
         12    1    3    3    0    0 -0.92106564738E+01  0.31552789268E+01  0.25587117402E+01  0.10066726556E+02  0.00000000000E+00 0. -1.
</event>
<event>
 7    1  0.4818508E-009  0.4778727E+02  0.7816164E-02  0.1312668E+00
        -11   -1    0    0    0    0  0.00000000000E+00  0.00000000000E+00  0.45593999997E+02  0.45594000000E+02  0.51100000000E-03 0.  1.
         11   -1    0    0    0    0 -0.00000000000E+00 -0.00000000000E+00 -0.45593999997E+02  0.45594000000E+02  0.51100000000E-03 0. -1.
    9900012    2    1    2    0    0  0.56929118688E+01 -0.42434788554E+02  0.71065380636E+01  0.47787269494E+02  0.19999992933E+02 0.  0.
         12    1    1    2    0    0 -0.56929118688E+01  0.42434788554E+02 -0.71065380636E+01  0.43400730506E+02  0.00000000000E+00 0. -1.
         11    1    3    3    0    0  0.28050530193E+00  0.19673936046E+01  0.17423474514E+01  0.26429331665E+01  0.51100000000E-03 0. -1.
        -11    1    3    3    0    0  0.39071303148E+01 -0.35377793204E+02  0.31558570453E+01  0.35732525145E+02  0.51100000000E-03 0.  1.
         12    1    3    3    0    0  0.15052762520E+01 -0.90243889548E+01  0.22083335670E+01  0.94118111830E+01  0.00000000000E+00 0. -1.
</event>
<event>
 7    1  0.4818508E-009  0.4778727E+02  0.7816164E-02  0.1312668E+00
        -11   -1    0    0    0    0  0.00000000000E+00  0.00000000000E+00  0.45593999997E+02  0.45594000000E+02  0.51100000000E-03 0.  1.
         11   -1    0    0    0    0 -0.00000000000E+00 -0.00000000000E+00 -0.45593999997E+02  0.45594000000E+02  0.51100000000E-03 0. -1.
    9900012    2    1    2    0    0  0.38666846571E+02 -0.10033601525E+02  0.16965402546E+02  0.47787273429E+02  0.20000010874E+02 0.  0.
         12    1    1    2    0    0 -0.38666846571E+02  0.10033601525E+02 -0.16965402546E+02  0.43400726571E+02  0.00000000000E+00 0. -1.
         11    1    3    3    0    0  0.10192036998E+02 -0.93317277537E+01  0.10372408330E+02  0.17278472613E+02  0.51100000000E-03 0. -1.
        -11    1    3    3    0    0  0.17954268961E+02  0.22719379357E+00  0.83498241804E+01  0.19802195713E+02  0.51100000000E-03 0.  1.
         12    1    3    3    0    0  0.10520540613E+02 -0.92906756530E+00 -0.17568299641E+01  0.10706605104E+02  0.00000000000E+00 0. -1.
</event>
<event>
 7    1  0.4818508E-009  0.4778727E+02  0.7816164E-02  0.1312668E+00
        -11   -1    0    0    0    0  0.00000000000E+00  0.00000000000E+00  0.45593999997E+02  0.45594000000E+02  0.51100000000E-03 0.  1.
         11   -1    0    0    0    0 -0.00000000000E+00 -0.00000000000E+00 -0.45593999997E+02  0.45594000000E+02  0.51100000000E-03 0. -1.
    9900012    2    1    2    0    0 -0.29341228822E+02  0.12063706832E+02  0.29617263568E+02  0.47787273824E+02  0.20000012675E+02 0.  0.
         12    1    1    2    0    0  0.29341228822E+02 -0.12063706832E+02 -0.29617263568E+02  0.43400726176E+02  0.00000000000E+00 0. -1.
         11    1    3    3    0    0 -0.18847687844E+02  0.64627816470E+01  0.20231820329E+02  0.28395940516E+02  0.51100000000E-03 0. -1.
        -11    1    3    3    0    0 -0.69506689418E+01  0.50504006766E+01  0.12138076792E+02  0.14871155107E+02  0.51100000000E-03 0.  1.
         12    1    3    3    0    0 -0.35428720361E+01  0.55052450820E+00 -0.27526335534E+01  0.45201782019E+01  0.00000000000E+00 0. -1.
</event>
<event>
 7    1  0.4818508E-009  0.4778727E+02  0.7816164E-02  0.1312668E+00
        -11   -1    0    0    0    0  0.00000000000E+00  0.00000000000E+00  0.45593999997E+02  0.45594000000E+02  0.51100000000E-03 0.  1.
         11   -1    0    0    0    0 -0.00000000000E+00 -0.00000000000E+00 -0.45593999997E+02  0.45594000000E+02  0.51100000000E-03 0. -1.
    9900012    2    1    2    0    0 -0.98272377141E+01 -0.92048544184E+01  0.41259169110E+02  0.47787274412E+02  0.20000015353E+02 0.  0.
         12    1    1    2    0    0  0.98272377141E+01  0.92048544184E+01 -0.41259169110E+02  0.43400725588E+02  0.00000000000E+00 0. -1.
         11    1    3    3    0    0 -0.75946712056E+01 -0.81477238814E+01  0.16549878492E+02  0.19949007833E+02  0.51100000000E-03 0. -1.
        -11    1    3    3    0    0 -0.13986533643E+01 -0.68234751262E+01  0.14412288126E+02  0.16007188801E+02  0.51100000000E-03 0.  1.
         12    1    3    3    0    0 -0.83391314420E+00  0.57663445892E+01  0.10297002492E+02  0.11831077777E+02  0.00000000000E+00 0. -1.
</event>
<event>
 7    1  0.4818508E-009  0.4778727E+02  0.7816164E-02  0.1312668E+00
        -11   -1    0    0    0    0  0.00000000000E+00  0.00000000000E+00  0.45593999997E+02  0.45594000000E+02  0.51100000000E-03 0.  1.
         11   -1    0    0    0    0 -0.00000000000E+00 -0.00000000000E+00 -0.45593999997E+02  0.45594000000E+02  0.51100000000E-03 0. -1.
    9900012    2    1    2    0    0 -0.21808926915E+02 -0.53670818910E+01  0.37137422028E+02  0.47787274475E+02  0.20000015642E+02 0.  0.
         12    1    1    2    0    0  0.21808926915E+02  0.53670818910E+01 -0.37137422028E+02  0.43400725525E+02  0.00000000000E+00 0. -1.
         11    1    3    3    0    0  0.37525631343E+00  0.24669150230E+01  0.28574045509E+01  0.37935798476E+01  0.51100000000E-03 0. -1.
        -11    1    3    3    0    0 -0.69397033103E+01 -0.82260095519E+01  0.73072198459E+01  0.13008542475E+02  0.51100000000E-03 0.  1.
        -12    1    3    3    0    0 -0.15244479918E+02  0.39201263791E+00  0.26972797631E+02  0.30985152153E+02  0.00000000000E+00 0.  1.
</event>
<event>
 7    1  0.4818508E-009  0.4778727E+02  0.7816164E-02  0.1312668E+00
        -11   -1    0    0    0    0  0.00000000000E+00  0.00000000000E+00  0.45593999997E+02  0.45594000000E+02  0.51100000000E-03 0. -1.
         11   -1    0    0    0    0 -0.00000000000E+00 -0.00000000000E+00 -0.45593999997E+02  0.45594000000E+02  0.51100000000E-03 0.  1.
    9900012    2    1    2    0    0 -0.29526937810E+02 -0.35739677551E+01 -0.31607123710E+02  0.47787267620E+02  0.19999984385E+02 0.  0.
         12    1    1    2    0    0  0.29526937810E+02  0.35739677551E+01  0.31607123710E+02  0.43400732380E+02  0.00000000000E+00 0. -1.
         11    1    3    3    0    0 -0.85808451453E+01 -0.36270191211E+01 -0.13432660970E+02  0.16346943204E+02  0.51100000000E-03 0. -1.
        -11    1    3    3    0    0 -0.11645338333E+02  0.71985950239E+01 -0.76559204901E+01  0.15685878809E+02  0.51100000000E-03 0.  1.
        -12    1    3    3    0    0 -0.93007543314E+01 -0.71455436579E+01 -0.10518542250E+02  0.15754445606E+02  0.00000000000E+00 0.  1.
</event>
<event>
 7    1  0.4818508E-009  0.4778728E+02  0.7816164E-02  0.1312668E+00
        -11   -1    0    0    0    0  0.00000000000E+00  0.00000000000E+00  0.45593999997E+02  0.45594000000E+02  0.51100000000E-03 0. -1.
         11   -1    0    0    0    0 -0.00000000000E+00 -0.00000000000E+00 -0.45593999997E+02  0.45594000000E+02  0.51100000000E-03 0.  1.
    9900012    2    1    2    0    0  0.20523744863E+02 -0.33401356112E+02 -0.18621176154E+02  0.47787275413E+02  0.20000019918E+02 0.  0.
         12    1    1    2    0    0 -0.20523744863E+02  0.33401356112E+02  0.18621176154E+02  0.43400724587E+02  0.00000000000E+00 0. -1.
         11    1    3    3    0    0  0.39407642784E+01 -0.20106048729E+01 -0.39833391109E+00  0.44419393533E+01  0.51100000000E-03 0. -1.
        -11    1    3    3    0    0  0.44062552657E+01 -0.67121979982E+01  0.30226471181E+01  0.85793404930E+01  0.51100000000E-03 0.  1.
        -12    1    3    3    0    0  0.12176725319E+02 -0.24678553241E+02 -0.21245489361E+02  0.34765995567E+02  0.00000000000E+00 0.  1.
</event>
<event>
 7    1  0.4818508E-009  0.4778727E+02  0.7816164E-02  0.1312668E+00
        -11   -1    0    0    0    0  0.00000000000E+00  0.00000000000E+00  0.45593999997E+02  0.45594000000E+02  0.51100000000E-03 0.  1.
         11   -1    0    0    0    0 -0.00000000000E+00 -0.00000000000E+00 -0.45593999997E+02  0.45594000000E+02  0.51100000000E-03 0. -1.
    9900012    2    1    2    0    0  0.76712129556E+01 -0.40268378485E+02  0.14256002822E+02  0.47787269240E+02  0.19999991774E+02 0.  0.
         12    1    1    2    0    0 -0.76712129556E+01  0.40268378485E+02 -0.14256002822E+02  0.43400730760E+02  0.00000000000E+00 0. -1.
         11    1    3    3    0    0  0.56672200087E+01 -0.34886957162E+01  0.16326424658E+00  0.66569539507E+01  0.51100000000E-03 0. -1.
        -11    1    3    3    0    0  0.41878734599E+00 -0.29869078223E+02  0.61777947078E+01  0.30504136841E+02  0.51100000000E-03 0.  1.
        -12    1    3    3    0    0  0.15852056009E+01 -0.69106045459E+01  0.79149438673E+01  0.10626178448E+02  0.00000000000E+00 0.  1.
</event>
<event>
 7    1  0.4818508E-009  0.4778726E+02  0.7816164E-02  0.1312668E+00
        -11   -1    0    0    0    0  0.00000000000E+00  0.00000000000E+00  0.45593999997E+02  0.45594000000E+02  0.51100000000E-03 0. -1.
         11   -1    0    0    0    0 -0.00000000000E+00 -0.00000000000E+00 -0.45593999997E+02  0.45594000000E+02  0.51100000000E-03 0.  1.
    9900012    2    1    2    0    0  0.40104002048E+02  0.16391148830E+02 -0.25735899258E+01  0.47787261466E+02  0.19999956328E+02 0.  0.
         12    1    1    2    0    0 -0.40104002048E+02 -0.16391148830E+02  0.25735899258E+01  0.43400738534E+02  0.00000000000E+00 0. -1.
         11    1    3    3    0    0  0.52046777786E+01  0.25891090897E+01 -0.65478717829E+01  0.87559569325E+01  0.51100000000E-03 0. -1.
        -11    1    3    3    0    0  0.33037348838E+02  0.98767313908E+01  0.36475686898E+01  0.34674500701E+02  0.51100000000E-03 0.  1.
        -12    1    3    3    0    0  0.18619754305E+01  0.39253083494E+01  0.32671316726E+00  0.43568038326E+01  0.00000000000E+00 0.  1.
</event>
<event>
 7    1  0.4818508E-009  0.4778727E+02  0.7816164E-02  0.1312668E+00
        -11   -1    0    0    0    0  0.00000000000E+00  0.00000000000E+00  0.45593999997E+02  0.45594000000E+02  0.51100000000E-03 0. -1.
         11   -1    0    0    0    0 -0.00000000000E+00 -0.00000000000E+00 -0.45593999997E+02  0.45594000000E+02  0.51100000000E-03 0.  1.
    9900012    2    1    2    0    0  0.40665046706E+02  0.14458173089E+02  0.45758724946E+01  0.47787269571E+02  0.19999993281E+02 0.  0.
         12    1    1    2    0    0 -0.40665046706E+02 -0.14458173089E+02 -0.45758724946E+01  0.43400730429E+02  0.00000000000E+00 0. -1.
         11    1    3    3    0    0  0.24221336983E+02  0.92518099934E+01  0.11601804021E+02  0.28405475004E+02  0.51100000000E-03 0. -1.
        -11    1    3    3    0    0  0.26826221682E+01  0.60844684514E+00 -0.34981974117E+01  0.44501746767E+01  0.51100000000E-03 0.  1.
         12    1    3    3    0    0  0.13761087555E+02  0.45979162509E+01 -0.35277341151E+01  0.14931619890E+02  0.00000000000E+00 0. -1.
</event>
<event>
 7    1  0.4818508E-009  0.4778726E+02  0.7816164E-02  0.1312668E+00
        -11   -1    0    0    0    0  0.00000000000E+00  0.00000000000E+00  0.45593999997E+02  0.45594000000E+02  0.51100000000E-03 0. -1.
         11   -1    0    0    0    0 -0.00000000000E+00 -0.00000000000E+00 -0.45593999997E+02  0.45594000000E+02  0.51100000000E-03 0.  1.
    9900012    2    1    2    0    0 -0.42888623762E+02  0.66475266657E+01 -0.12334985524E-01  0.47787264855E+02  0.19999971781E+02 0.  0.
         12    1    1    2    0    0  0.42888623762E+02 -0.66475266657E+01  0.12334985524E-01  0.43400735145E+02  0.00000000000E+00 0. -1.
         11    1    3    3    0    0 -0.13192606941E+02  0.84722139266E+01  0.12008592896E+01  0.15724673288E+02  0.51100000000E-03 0. -1.
        -11    1    3    3    0    0 -0.97245674408E+01 -0.27531507102E+01 -0.56561630735E+01  0.11581849236E+02  0.51100000000E-03 0.  1.
         12    1    3    3    0    0 -0.19971449380E+02  0.92846344934E+00  0.44429687984E+01  0.20480742331E+02  0.00000000000E+00 0. -1.
</event>
<event>
 7    1  0.4818508E-009  0.4778727E+02  0.7816164E-02  0.1312668E+00
        -11   -1    0    0    0    0  0.00000000000E+00  0.00000000000E+00  0.45593999997E+02  0.45594000000E+02  0.51100000000E-03 0. -1.
         11   -1    0    0    0    0 -0.00000000000E+00 -0.00000000000E+00 -0.45593999997E+02  0.45594000000E+02  0.51100000000E-03 0.  1.
    9900012    2    1    2    0    0 -0.79695253600E+01  0.25706830829E+02 -0.34048037932E+02  0.47787269906E+02  0.19999994807E+02 0.  0.
         12    1    1    2    0    0  0.79695253600E+01 -0.25706830829E+02  0.34048037932E+02  0.43400730094E+02  0.00000000000E+00 0. -1.
         11    1    3    3    0    0 -0.25426378194E+00 -0.73825283180E+00  0.82916108658E-01  0.78520230301E+00  0.51100000000E-03 0. -1.
        -11    1    3    3    0    0 -0.12436739443E+02  0.13690446592E+02 -0.22331601027E+02  0.28996572566E+02  0.51100000000E-03 0.  1.
        -12    1    3    3    0    0  0.47214778652E+01  0.12754637069E+02 -0.11799353013E+02  0.18005495037E+02  0.00000000000E+00 0.  1.
</event>
<event>
 7    1  0.4818508E-009  0.4778727E+02  0.7816164E-02  0.1312668E+00
        -11   -1    0    0    0    0  0.00000000000E+00  0.00000000000E+00  0.45593999997E+02  0.45594000000E+02  0.51100000000E-03 0.  1.
         11   -1    0    0    0    0 -0.00000000000E+00 -0.00000000000E+00 -0.45593999997E+02  0.45594000000E+02  0.51100000000E-03 0. -1.
    9900012    2    1    2    0    0  0.59477971741E+01  0.17796680367E+02  0.39134701540E+02  0.47787274339E+02  0.20000015020E+02 0.  0.
         12    1    1    2    0    0 -0.59477971741E+01 -0.17796680367E+02 -0.39134701540E+02  0.43400725661E+02  0.00000000000E+00 0. -1.
         11    1    3    3    0    0 -0.24916208995E+01  0.37534740710E+01  0.63672483639E+01  0.77999098903E+01  0.51100000000E-03 0. -1.
        -11    1    3    3    0    0  0.17951965453E+01  0.14523979498E+02  0.28607878638E+02  0.32133774000E+02  0.51100000000E-03 0.  1.
        -12    1    3    3    0    0  0.66442215283E+01 -0.48077320216E+00  0.41595745384E+01  0.78535904483E+01  0.00000000000E+00 0.  1.
</event>
<event>
 7    1  0.4818508E-009  0.4778728E+02  0.7816164E-02  0.1312668E+00
        -11   -1    0    0    0    0  0.00000000000E+00  0.00000000000E+00  0.45593999997E+02  0.45594000000E+02  0.51100000000E-03 0. -1.
         11   -1    0    0    0    0 -0.00000000000E+00 -0.00000000000E+00 -0.45593999997E+02  0.45594000000E+02  0.51100000000E-03 0.  1.
    9900012    2    1    2    0    0 -0.91018966528E+00 -0.30237550416E+02 -0.31120483333E+02  0.47787281305E+02  0.20000046782E+02 0.  0.
         12    1    1    2    0    0  0.91018966528E+00  0.30237550416E+02  0.31120483333E+02  0.43400718695E+02  0.00000000000E+00 0. -1.
         11    1    3    3    0    0  0.69246232683E+01 -0.10638981292E+02 -0.14026317396E+02  0.18917608472E+02  0.51100000000E-03 0. -1.
        -11    1    3    3    0    0 -0.10179434001E+01 -0.14424533993E+02 -0.12718731241E+02  0.19257972747E+02  0.51100000000E-03 0.  1.
         12    1    3    3    0    0 -0.68168695335E+01 -0.51740351305E+01 -0.43754346955E+01  0.96117000860E+01  0.00000000000E+00 0. -1.
</event>
<event>
 7    1  0.4818508E-009  0.4778727E+02  0.7816164E-02  0.1312668E+00
        -11   -1    0    0    0    0  0.00000000000E+00  0.00000000000E+00  0.45593999997E+02  0.45594000000E+02  0.51100000000E-03 0. -1.
         11   -1    0    0    0    0 -0.00000000000E+00 -0.00000000000E+00 -0.45593999997E+02  0.45594000000E+02  0.51100000000E-03 0.  1.
    9900012    2    1    2    0    0 -0.22269947960E+02  0.37152961242E+02 -0.27074586810E+01  0.47787269088E+02  0.19999991082E+02 0.  0.
         12    1    1    2    0    0  0.22269947960E+02 -0.37152961242E+02  0.27074586810E+01  0.43400730912E+02  0.00000000000E+00 0. -1.
         11    1    3    3    0    0 -0.57508110233E+01  0.46019470338E+01  0.43570258349E+01  0.85576526171E+01  0.51100000000E-03 0. -1.
        -11    1    3    3    0    0 -0.18156858701E+02  0.30170355726E+02 -0.47582939142E+01  0.35532565961E+02  0.51100000000E-03 0.  1.
        -12    1    3    3    0    0  0.16377217649E+01  0.23806584821E+01 -0.23061906017E+01  0.36970505108E+01  0.00000000000E+00 0.  1.
</event>
<event>
 7    1  0.4818508E-009  0.4778727E+02  0.7816164E-02  0.1312668E+00
        -11   -1    0    0    0    0  0.00000000000E+00  0.00000000000E+00  0.45593999997E+02  0.45594000000E+02  0.51100000000E-03 0.  1.
         11   -1    0    0    0    0 -0.00000000000E+00 -0.00000000000E+00 -0.45593999997E+02  0.45594000000E+02  0.51100000000E-03 0. -1.
    9900012    2    1    2    0    0  0.11441569161E+02 -0.34979297524E+02  0.23003534370E+02  0.47787270125E+02  0.19999995810E+02 0.  0.
         12    1    1    2    0    0 -0.11441569161E+02  0.34979297524E+02 -0.23003534370E+02  0.43400729875E+02  0.00000000000E+00 0. -1.
         11    1    3    3    0    0 -0.37994545737E+01 -0.14591200625E+02  0.85546143748E+01  0.17335524743E+02  0.51100000000E-03 0. -1.
        -11    1    3    3    0    0  0.29323416689E+01 -0.10146320681E+02  0.38127436337E+01  0.11228689385E+02  0.51100000000E-03 0.  1.
         12    1    3    3    0    0  0.12308682066E+02 -0.10241776218E+02  0.10636176362E+02  0.19223055998E+02  0.00000000000E+00 0. -1.
</event>
<event>
 7    1  0.4818508E-009  0.4778727E+02  0.7816164E-02  0.1312668E+00
        -11   -1    0    0    0    0  0.00000000000E+00  0.00000000000E+00  0.45593999997E+02  0.45594000000E+02  0.51100000000E-03 0.  1.
         11   -1    0    0    0    0 -0.00000000000E+00 -0.00000000000E+00 -0.45593999997E+02  0.45594000000E+02  0.51100000000E-03 0. -1.
    9900012    2    1    2    0    0  0.83533311040E+01 -0.11424205814E+01  0.42573935793E+02  0.47787271040E+02  0.19999999982E+02 0.  0.
         12    1    1    2    0    0 -0.83533311040E+01  0.11424205814E+01 -0.42573935793E+02  0.43400728960E+02  0.00000000000E+00 0. -1.
         11    1    3    3    0    0 -0.17594083621E+01  0.59906125656E+01  0.13685702313E+02  0.15042652850E+02  0.51100000000E-03 0. -1.
        -11    1    3    3    0    0  0.70561998413E+01 -0.56986192274E+01  0.97720989276E+01  0.13332596709E+02  0.51100000000E-03 0.  1.
        -12    1    3    3    0    0  0.30565396248E+01 -0.14344139195E+01  0.19116134552E+02  0.19412021481E+02  0.00000000000E+00 0.  1.
</event>
<event>
 7    1  0.4818508E-009  0.4778727E+02  0.7816164E-02  0.1312668E+00
        -11   -1    0    0    0    0  0.00000000000E+00  0.00000000000E+00  0.45593999997E+02  0.45594000000E+02  0.51100000000E-03 0.  1.
         11   -1    0    0    0    0 -0.00000000000E+00 -0.00000000000E+00 -0.45593999997E+02  0.45594000000E+02  0.51100000000E-03 0. -1.
    9900012    2    1    2    0    0 -0.12189329697E+02  0.11796003779E+02  0.39948686626E+02  0.47787273892E+02  0.20000012982E+02 0.  0.
         12    1    1    2    0    0  0.12189329697E+02 -0.11796003779E+02 -0.39948686626E+02  0.43400726108E+02  0.00000000000E+00 0. -1.
         11    1    3    3    0    0  0.98088264689E-01  0.23022596703E+01 -0.11538671750E+01  0.25770973237E+01  0.51100000000E-03 0. -1.
        -11    1    3    3    0    0 -0.88899282504E+01  0.10036554470E+02  0.38848286930E+02  0.41096869073E+02  0.51100000000E-03 0.  1.
         12    1    3    3    0    0 -0.33974897110E+01 -0.54281036192E+00  0.22542668701E+01  0.41133074949E+01  0.00000000000E+00 0. -1.
</event>
<event>
 7    1  0.4818508E-009  0.4778727E+02  0.7816164E-02  0.1312668E+00
        -11   -1    0    0    0    0  0.00000000000E+00  0.00000000000E+00  0.45593999997E+02  0.45594000000E+02  0.51100000000E-03 0.  1.
         11   -1    0    0    0    0 -0.00000000000E+00 -0.00000000000E+00 -0.45593999997E+02  0.45594000000E+02  0.51100000000E-03 0. -1.
    9900012    2    1    2    0    0  0.19604154295E+02  0.38681867369E+02 -0.17359240876E+01  0.47787272342E+02  0.20000005917E+02 0.  0.
         12    1    1    2    0    0 -0.19604154295E+02 -0.38681867369E+02  0.17359240876E+01  0.43400727658E+02  0.00000000000E+00 0. -1.
         11    1    3    3    0    0  0.18495587014E+02  0.32491829446E+02  0.10264174910E+01  0.37401326887E+02  0.51100000000E-03 0. -1.
        -11    1    3    3    0    0  0.35746170238E+01  0.66032697908E+01 -0.19675720707E+01  0.77622418741E+01  0.51100000000E-03 0.  1.
         12    1    3    3    0    0 -0.24660497432E+01 -0.41323186761E+00 -0.79476950789E+00  0.26237035814E+01  0.00000000000E+00 0. -1.
</event>
<event>
 7    1  0.4818508E-009  0.4778727E+02  0.7816164E-02  0.1312668E+00
        -11   -1    0    0    0    0  0.00000000000E+00  0.00000000000E+00  0.45593999997E+02  0.45594000000E+02  0.51100000000E-03 0.  1.
         11   -1    0    0    0    0 -0.00000000000E+00 -0.00000000000E+00 -0.45593999997E+02  0.45594000000E+02  0.51100000000E-03 0. -1.
    9900012    2    1    2    0    0  0.31811015727E+01 -0.19161065315E+02  0.38811822156E+02  0.47787269934E+02  0.19999994935E+02 0.  0.
         12    1    1    2    0    0 -0.31811015727E+01  0.19161065315E+02 -0.38811822156E+02  0.43400730066E+02  0.00000000000E+00 0. -1.
         11    1    3    3    0    0  0.38470440861E+01 -0.31780981234E+01  0.83734985561E+00  0.50597639199E+01  0.51100000000E-03 0. -1.
        -11    1    3    3    0    0 -0.26880092475E+01 -0.67209994100E+01  0.28186618342E+02  0.29101248781E+02  0.51100000000E-03 0.  1.
        -12    1    3    3    0    0  0.20220667340E+01 -0.92619677820E+01  0.97878539584E+01  0.13626257233E+02  0.00000000000E+00 0.  1.
</event>
<event>
 7    1  0.4818508E-009  0.4778727E+02  0.7816164E-02  0.1312668E+00
        -11   -1    0    0    0    0  0.00000000000E+00  0.00000000000E+00  0.45593999997E+02  0.45594000000E+02  0.51100000000E-03 0. -1.
         11   -1    0    0    0    0 -0.00000000000E+00 -0.00000000000E+00 -0.45593999997E+02  0.45594000000E+02  0.51100000000E-03 0.  1.
    9900012    2    1    2    0    0 -0.26734207848E+02 -0.31467181648E+02 -0.13368695931E+02  0.47787269350E+02  0.19999992272E+02 0.  0.
         12    1    1    2    0    0  0.26734207848E+02  0.31467181648E+02  0.13368695931E+02  0.43400730650E+02  0.00000000000E+00 0. -1.
         11    1    3    3    0    0 -0.18456298603E+02 -0.24728224808E+02 -0.13685615505E+02  0.33755238590E+02  0.51100000000E-03 0. -1.
        -11    1    3    3    0    0 -0.39043694741E+01 -0.50682742740E+01 -0.40973666995E+01  0.75973626501E+01  0.51100000000E-03 0.  1.
         12    1    3    3    0    0 -0.43735397712E+01 -0.16706825662E+01  0.44142862743E+01  0.64346681095E+01  0.00000000000E+00 0. -1.
</event>
<event>
 7    1  0.4818508E-009  0.4778729E+02  0.7816164E-02  0.1312668E+00
        -11   -1    0    0    0    0  0.00000000000E+00  0.00000000000E+00  0.45593999997E+02  0.45594000000E+02  0.51100000000E-03 0. -1.
         11   -1    0    0    0    0 -0.00000000000E+00 -0.00000000000E+00 -0.45593999997E+02  0.45594000000E+02  0.51100000000E-03 0.  1.
    9900012    2    1    2    0    0  0.21875649834E+02 -0.37376725606E+02 -0.28386893345E+01  0.47787287680E+02  0.20000075850E+02 0.  0.
         12    1    1    2    0    0 -0.21875649834E+02  0.37376725606E+02  0.28386893345E+01  0.43400712320E+02  0.00000000000E+00 0. -1.
         11    1    3    3    0    0  0.14788129304E+02 -0.11348061238E+02 -0.49252318985E+01  0.19280175613E+02  0.51100000000E-03 0. -1.
        -11    1    3    3    0    0  0.56111680322E+01 -0.86353157346E+01 -0.22044577507E+01  0.10531548735E+02  0.51100000000E-03 0.  1.
         12    1    3    3    0    0  0.14763524978E+01 -0.17393348634E+02  0.42910003147E+01  0.17975563332E+02  0.00000000000E+00 0. -1.
</event>
<event>
 7    1  0.4818508E-009  0.4778727E+02  0.7816164E-02  0.1312668E+00
        -11   -1    0    0    0    0  0.00000000000E+00  0.00000000000E+00  0.45593999997E+02  0.45594000000E+02  0.51100000000E-03 0. -1.
         11   -1    0    0    0    0 -0.00000000000E+00 -0.00000000000E+00 -0.45593999997E+02  0.45594000000E+02  0.51100000000E-03 0.  1.
    9900012    2    1    2    0    0  0.41879908456E+02  0.29115301448E+01  0.11009977806E+02  0.47787270152E+02  0.19999995930E+02 0.  0.
         12    1    1    2    0    0 -0.41879908456E+02 -0.29115301448E+01 -0.11009977806E+02  0.43400729848E+02  0.00000000000E+00 0. -1.
         11    1    3    3    0    0 -0.13452629744E+01 -0.13566600056E+01  0.21579351257E+01  0.28821768004E+01  0.51100000000E-03 0. -1.
        -11    1    3    3    0    0  0.41933918307E+02  0.53855282900E+01  0.88637216839E+01  0.43197488143E+02  0.51100000000E-03 0.  1.
        -12    1    3    3    0    0  0.12912531236E+01 -0.11173381396E+01 -0.11679003597E-01  0.17076052080E+01  0.00000000000E+00 0.  1.
</event>
<event>
 7    1  0.4818508E-009  0.4778727E+02  0.7816164E-02  0.1312668E+00
        -11   -1    0    0    0    0  0.00000000000E+00  0.00000000000E+00  0.45593999997E+02  0.45594000000E+02  0.51100000000E-03 0. -1.
         11   -1    0    0    0    0 -0.00000000000E+00 -0.00000000000E+00 -0.45593999997E+02  0.45594000000E+02  0.51100000000E-03 0.  1.
    9900012    2    1    2    0    0 -0.78609085257E+01  0.57403076562E+00 -0.42679032500E+02  0.47787271789E+02  0.20000003393E+02 0.  0.
         12    1    1    2    0    0  0.78609085257E+01 -0.57403076562E+00  0.42679032500E+02  0.43400728211E+02  0.00000000000E+00 0. -1.
         11    1    3    3    0    0 -0.80035285838E+01  0.25045009658E+01 -0.50110888351E+01  0.97693401238E+01  0.51100000000E-03 0. -1.
        -11    1    3    3    0    0  0.18228428224E+01 -0.79919976088E+00 -0.30621917972E+02  0.30686533475E+02  0.51100000000E-03 0.  1.
        -12    1    3    3    0    0 -0.16802227643E+01 -0.11312704393E+01 -0.70460256929E+01  0.73313981892E+01  0.00000000000E+00 0.  1.
</event>
<event>
 7    1  0.4818508E-009  0.4778727E+02  0.7816164E-02  0.1312668E+00
        -11   -1    0    0    0    0  0.00000000000E+00  0.00000000000E+00  0.45593999997E+02  0.45594000000E+02  0.51100000000E-03 0.  1.
         11   -1    0    0    0    0 -0.00000000000E+00 -0.00000000000E+00 -0.45593999997E+02  0.45594000000E+02  0.51100000000E-03 0. -1.
    9900012    2    1    2    0    0 -0.17108846666E+02  0.24502809866E+02  0.31472574157E+02  0.47787271323E+02  0.20000001270E+02 0.  0.
         12    1    1    2    0    0  0.17108846666E+02 -0.24502809866E+02 -0.31472574157E+02  0.43400728677E+02  0.00000000000E+00 0. -1.
         11    1    3    3    0    0 -0.66889911468E+00 -0.32876771182E+01  0.27363805411E+01  0.43294370981E+01  0.51100000000E-03 0. -1.
        -11    1    3    3    0    0 -0.90360733877E+01  0.17487332914E+02  0.14916647734E+02  0.24697445508E+02  0.51100000000E-03 0.  1.
        -12    1    3    3    0    0 -0.74038741637E+01  0.10303154070E+02  0.13819545882E+02  0.18760388717E+02  0.00000000000E+00 0.  1.
</event>
<event>
 7    1  0.4818508E-009  0.4778726E+02  0.7816164E-02  0.1312668E+00
        -11   -1    0    0    0    0  0.00000000000E+00  0.00000000000E+00  0.45593999997E+02  0.45594000000E+02  0.51100000000E-03 0.  1.
         11   -1    0    0    0    0 -0.00000000000E+00 -0.00000000000E+00 -0.45593999997E+02  0.45594000000E+02  0.51100000000E-03 0. -1.
    9900012    2    1    2    0    0  0.60742278111E+01  0.39038995210E+02  0.17963422092E+02  0.47787263557E+02  0.19999965864E+02 0.  0.
         12    1    1    2    0    0 -0.60742278111E+01 -0.39038995210E+02 -0.17963422092E+02  0.43400736443E+02  0.00000000000E+00 0. -1.
         11    1    3    3    0    0 -0.21841333564E+01  0.34058080249E+01  0.79272711873E+01  0.89000896377E+01  0.51100000000E-03 0. -1.
        -11    1    3    3    0    0  0.35806302849E+00  0.98680019389E+01  0.62171930106E+01  0.11668725748E+02  0.51100000000E-03 0.  1.
         12    1    3    3    0    0  0.79002981390E+01  0.25765185246E+02  0.38189578939E+01  0.27218448171E+02  0.00000000000E+00 0. -1.
</event>
<event>
 7    1  0.4818508E-009  0.4778727E+02  0.7816164E-02  0.1312668E+00
        -11   -1    0    0    0    0  0.00000000000E+00  0.00000000000E+00  0.45593999997E+02  0.45594000000E+02  0.51100000000E-03 0. -1.
         11   -1    0    0    0    0 -0.00000000000E+00 -0.00000000000E+00 -0.45593999997E+02  0.45594000000E+02  0.51100000000E-03 0.  1.
    9900012    2    1    2    0    0  0.97359376762E+01 -0.22056187760E+02 -0.36088215464E+02  0.47787271938E+02  0.20000004076E+02 0.  0.
         12    1    1    2    0    0 -0.97359376762E+01  0.22056187760E+02  0.36088215464E+02  0.43400728062E+02  0.00000000000E+00 0. -1.
         11    1    3    3    0    0  0.74947963723E+01 -0.46099224559E+01 -0.90353311321E+01  0.12611921608E+02  0.51100000000E-03 0. -1.
        -11    1    3    3    0    0  0.30863943583E+01 -0.19463922323E+02 -0.21288459362E+02  0.29009801871E+02  0.51100000000E-03 0.  1.
        -12    1    3    3    0    0 -0.84525305435E+00  0.20176570197E+01 -0.57644249694E+01  0.61655484592E+01  0.00000000000E+00 0.  1.
</event>
<event>
 7    1  0.4818508E-009  0.4778727E+02  0.7816164E-02  0.1312668E+00
        -11   -1    0    0    0    0  0.00000000000E+00  0.00000000000E+00  0.45593999997E+02  0.45594000000E+02  0.51100000000E-03 0.  1.
         11   -1    0    0    0    0 -0.00000000000E+00 -0.00000000000E+00 -0.45593999997E+02  0.45594000000E+02  0.51100000000E-03 0. -1.
    9900012    2    1    2    0    0  0.19187722113E+02  0.27701130237E+02  0.27351448761E+02  0.47787273674E+02  0.20000011989E+02 0.  0.
         12    1    1    2    0    0 -0.19187722113E+02 -0.27701130237E+02 -0.27351448761E+02  0.43400726326E+02  0.00000000000E+00 0. -1.
         11    1    3    3    0    0  0.64730490061E+01  0.37227640430E+01  0.10919434263E+02  0.13228506357E+02  0.51100000000E-03 0. -1.
        -11    1    3    3    0    0  0.23217619030E+01 -0.15561196609E+01  0.10241825229E+01  0.29767493738E+01  0.51100000000E-03 0.  1.
        -12    1    3    3    0    0  0.10392911204E+02  0.25534485855E+02  0.15407831976E+02  0.31582017943E+02  0.00000000000E+00 0.  1.
</event>
<event>
 7    1  0.4818508E-009  0.4778726E+02  0.7816164E-02  0.1312668E+00
        -11   -1    0    0    0    0  0.00000000000E+00  0.00000000000E+00  0.45593999997E+02  0.45594000000E+02  0.51100000000E-03 0. -1.
         11   -1    0    0    0    0 -0.00000000000E+00 -0.00000000000E+00 -0.45593999997E+02  0.45594000000E+02  0.51100000000E-03 0.  1.
    9900012    2    1    2    0    0 -0.71467349361E+01  0.24298667900E+02 -0.35243765081E+02  0.47787261998E+02  0.19999958755E+02 0.  0.
         12    1    1    2    0    0  0.71467349361E+01 -0.24298667900E+02  0.35243765081E+02  0.43400738002E+02  0.00000000000E+00 0. -1.
         11    1    3    3    0    0 -0.95470423178E+01  0.12554015089E+02 -0.24172711551E+02  0.28862939834E+02  0.51100000000E-03 0. -1.
        -11    1    3    3    0    0  0.25306784242E+01  0.12822004530E+02 -0.11807183222E+02  0.17612998307E+02  0.51100000000E-03 0.  1.
         12    1    3    3    0    0 -0.13037104244E+00 -0.10773517187E+01  0.73612969206E+00  0.13113238571E+01  0.00000000000E+00 0. -1.
</event>
<event>
 7    1  0.4818508E-009  0.4778727E+02  0.7816164E-02  0.1312668E+00
        -11   -1    0    0    0    0  0.00000000000E+00  0.00000000000E+00  0.45593999997E+02  0.45594000000E+02  0.51100000000E-03 0.  1.
         11   -1    0    0    0    0 -0.00000000000E+00 -0.00000000000E+00 -0.45593999997E+02  0.45594000000E+02  0.51100000000E-03 0. -1.
    9900012    2    1    2    0    0  0.19932693583E+02  0.33729698624E+02  0.18671329575E+02  0.47787269696E+02  0.19999993854E+02 0.  0.
         12    1    1    2    0    0 -0.19932693583E+02 -0.33729698624E+02 -0.18671329575E+02  0.43400730304E+02  0.00000000000E+00 0. -1.
         11    1    3    3    0    0  0.46378089841E+01  0.74320051382E+00  0.34638061904E+01  0.58360579814E+01  0.51100000000E-03 0. -1.
        -11    1    3    3    0    0  0.13894756217E+02  0.34404719080E+02  0.14397054789E+02  0.39799800655E+02  0.51100000000E-03 0.  1.
        -12    1    3    3    0    0  0.14001283825E+01 -0.14182209695E+01  0.81046859632E+00  0.21514110605E+01  0.00000000000E+00 0.  1.
</event>
<event>
 7    1  0.4818508E-009  0.4778727E+02  0.7816164E-02  0.1312668E+00
        -11   -1    0    0    0    0  0.00000000000E+00  0.00000000000E+00  0.45593999997E+02  0.45594000000E+02  0.51100000000E-03 0.  1.
         11   -1    0    0    0    0 -0.00000000000E+00 -0.00000000000E+00 -0.45593999997E+02  0.45594000000E+02  0.51100000000E-03 0. -1.
    9900012    2    1    2    0    0  0.21514818597E+01 -0.21666879484E+02  0.37543847207E+02  0.47787274155E+02  0.20000014182E+02 0.  0.
         12    1    1    2    0    0 -0.21514818597E+01  0.21666879484E+02 -0.37543847207E+02  0.43400725845E+02  0.00000000000E+00 0. -1.
         11    1    3    3    0    0  0.76694266449E+01 -0.15778894837E+02  0.18309398838E+02  0.25357991116E+02  0.51100000000E-03 0.  1.
        -11    1    3    3    0    0 -0.69754997809E+01 -0.35172499478E+01  0.94720430870E+01  0.12277957684E+02  0.51100000000E-03 0. -1.
        -12    1    3    3    0    0  0.14575549958E+01 -0.23707346994E+01  0.97624052818E+01  0.10151325355E+02  0.00000000000E+00 0.  1.
</event>
<event>
 7    1  0.4818508E-009  0.4778727E+02  0.7816164E-02  0.1312668E+00
        -11   -1    0    0    0    0  0.00000000000E+00  0.00000000000E+00  0.45593999997E+02  0.45594000000E+02  0.51100000000E-03 0. -1.
         11   -1    0    0    0    0 -0.00000000000E+00 -0.00000000000E+00 -0.45593999997E+02  0.45594000000E+02  0.51100000000E-03 0.  1.
    9900012    2    1    2    0    0  0.38319153501E+02 -0.20051563813E+02 -0.36333171226E+01  0.47787265794E+02  0.19999976059E+02 0.  0.
         12    1    1    2    0    0 -0.38319153501E+02  0.20051563813E+02  0.36333171226E+01  0.43400734206E+02  0.00000000000E+00 0. -1.
         11    1    3    3    0    0  0.73110602586E+01  0.13824796876E+01 -0.57562168503E+01  0.94072782929E+01  0.51100000000E-03 0. -1.
        -11    1    3    3    0    0  0.25098661761E+02 -0.14438609289E+02 -0.10453464176E+00  0.28955607198E+02  0.51100000000E-03 0.  1.
         12    1    3    3    0    0  0.59094314806E+01 -0.69954342112E+01  0.22274343694E+01  0.94243803031E+01  0.00000000000E+00 0. -1.
</event>
<event>
 7    1  0.4818508E-009  0.4778728E+02  0.7816164E-02  0.1312668E+00
        -11   -1    0    0    0    0  0.00000000000E+00  0.00000000000E+00  0.45593999997E+02  0.45594000000E+02  0.51100000000E-03 0.  1.
         11   -1    0    0    0    0 -0.00000000000E+00 -0.00000000000E+00 -0.45593999997E+02  0.45594000000E+02  0.51100000000E-03 0. -1.
    9900012    2    1    2    0    0  0.18351657548E+02 -0.38786373656E+02  0.65158711553E+01  0.47787277736E+02  0.20000030510E+02 0.  0.
         12    1    1    2    0    0 -0.18351657548E+02  0.38786373656E+02 -0.65158711553E+01  0.43400722264E+02  0.00000000000E+00 0. -1.
         11    1    3    3    0    0  0.84805325075E+01 -0.14350591499E+02 -0.57669857266E+01  0.17638509932E+02  0.51100000000E-03 0. -1.
        -11    1    3    3    0    0  0.36335807620E+00 -0.52941128892E+01  0.56937729034E+01  0.77832326518E+01  0.51100000000E-03 0.  1.
        -12    1    3    3    0    0  0.95077669641E+01 -0.19141669268E+02  0.65890839786E+01  0.22365535153E+02  0.00000000000E+00 0.  1.
</event>
<event>
 7    1  0.4818508E-009  0.4778728E+02  0.7816164E-02  0.1312668E+00
        -11   -1    0    0    0    0  0.00000000000E+00  0.00000000000E+00  0.45593999997E+02  0.45594000000E+02  0.51100000000E-03 0. -1.
         11   -1    0    0    0    0 -0.00000000000E+00 -0.00000000000E+00 -0.45593999997E+02  0.45594000000E+02  0.51100000000E-03 0.  1.
    9900012    2    1    2    0    0 -0.19422722377E+02  0.33008123874E+02 -0.20416770635E+02  0.47787275243E+02  0.20000019145E+02 0.  0.
         12    1    1    2    0    0  0.19422722377E+02 -0.33008123874E+02  0.20416770635E+02  0.43400724757E+02  0.00000000000E+00 0. -1.
         11    1    3    3    0    0  0.29453894455E+01  0.81882638634E+01 -0.88804834788E+01  0.12433260681E+02  0.51100000000E-03 0. -1.
        -11    1    3    3    0    0 -0.16090176971E+02  0.17608553230E+02 -0.85094442323E+01  0.25325196607E+02  0.51100000000E-03 0.  1.
         12    1    3    3    0    0 -0.62779348517E+01  0.72113067814E+01 -0.30268429241E+01  0.10028817956E+02  0.00000000000E+00 0. -1.
</event>
<event>
 7    1  0.4818508E-009  0.4778727E+02  0.7816164E-02  0.1312668E+00
        -11   -1    0    0    0    0  0.00000000000E+00  0.00000000000E+00  0.45593999997E+02  0.45594000000E+02  0.51100000000E-03 0.  1.
         11   -1    0    0    0    0 -0.00000000000E+00 -0.00000000000E+00 -0.45593999997E+02  0.45594000000E+02  0.51100000000E-03 0. -1.
    9900012    2    1    2    0    0 -0.12368620431E+02  0.41542304439E+02 -0.22084988428E+01  0.47787270783E+02  0.19999998807E+02 0.  0.
         12    1    1    2    0    0  0.12368620431E+02 -0.41542304439E+02  0.22084988428E+01  0.43400729217E+02  0.00000000000E+00 0. -1.
         11    1    3    3    0    0 -0.85229966874E+01  0.33355704432E+02  0.12952556583E+01  0.34451736940E+02  0.51100000000E-03 0. -1.
        -11    1    3    3    0    0  0.29361015012E+00  0.38000957505E+01  0.27095942127E+01  0.46764126948E+01  0.51100000000E-03 0.  1.
         12    1    3    3    0    0 -0.41392338933E+01  0.43865042561E+01 -0.62133487138E+01  0.86591211478E+01  0.00000000000E+00 0. -1.
</event>
<event>
 7    1  0.4818508E-009  0.4778728E+02  0.7816164E-02  0.1312668E+00
        -11   -1    0    0    0    0  0.00000000000E+00  0.00000000000E+00  0.45593999997E+02  0.45594000000E+02  0.51100000000E-03 0. -1.
         11   -1    0    0    0    0 -0.00000000000E+00 -0.00000000000E+00 -0.45593999997E+02  0.45594000000E+02  0.51100000000E-03 0.  1.
    9900012    2    1    2    0    0  0.33094699874E+02 -0.40772190270E+01 -0.27780209266E+02  0.47787275333E+02  0.20000019552E+02 0.  0.
         12    1    1    2    0    0 -0.33094699874E+02  0.40772190270E+01  0.27780209266E+02  0.43400724667E+02  0.00000000000E+00 0. -1.
         11    1    3    3    0    0  0.18553932729E+02 -0.66258187349E+01 -0.68313923609E+01  0.20852285617E+02  0.51100000000E-03 0. -1.
        -11    1    3    3    0    0  0.74151862034E+01 -0.25420866442E+01 -0.72578438814E+01  0.10682859589E+02  0.51100000000E-03 0.  1.
        -12    1    3    3    0    0  0.71255809423E+01  0.50906863521E+01 -0.13690973024E+02  0.16252130127E+02  0.00000000000E+00 0.  1.
</event>
<event>
 7    1  0.4818508E-009  0.4778727E+02  0.7816164E-02  0.1312668E+00
        -11   -1    0    0    0    0  0.00000000000E+00  0.00000000000E+00  0.45593999997E+02  0.45594000000E+02  0.51100000000E-03 0. -1.
         11   -1    0    0    0    0 -0.00000000000E+00 -0.00000000000E+00 -0.45593999997E+02  0.45594000000E+02  0.51100000000E-03 0.  1.
    9900012    2    1    2    0    0  0.27504299603E+01  0.43192514167E+02 -0.32349722338E+01  0.47787272006E+02  0.20000004386E+02 0.  0.
         12    1    1    2    0    0 -0.27504299603E+01 -0.43192514167E+02  0.32349722338E+01  0.43400727994E+02  0.00000000000E+00 0. -1.
         11    1    3    3    0    0 -0.65314127027E+01  0.25026724508E+02 -0.23341222777E+01  0.25970067743E+02  0.51100000000E-03 0. -1.
        -11    1    3    3    0    0  0.54846606736E+01  0.12827014264E+02 -0.40805178177E+01  0.14534938031E+02  0.51100000000E-03 0.  1.
         12    1    3    3    0    0  0.37971819894E+01  0.53387753946E+01  0.31796678616E+01  0.72822662327E+01  0.00000000000E+00 0. -1.
</event>
<event>
 7    1  0.4818508E-009  0.4778727E+02  0.7816164E-02  0.1312668E+00
        -11   -1    0    0    0    0  0.00000000000E+00  0.00000000000E+00  0.45593999997E+02  0.45594000000E+02  0.51100000000E-03 0.  1.
         11   -1    0    0    0    0 -0.00000000000E+00 -0.00000000000E+00 -0.45593999997E+02  0.45594000000E+02  0.51100000000E-03 0. -1.
    9900012    2    1    2    0    0  0.16716909576E+02 -0.32874484423E+02  0.22878737371E+02  0.47787269412E+02  0.19999992558E+02 0.  0.
         12    1    1    2    0    0 -0.16716909576E+02  0.32874484423E+02 -0.22878737371E+02  0.43400730588E+02  0.00000000000E+00 0. -1.
         11    1    3    3    0    0 -0.78250177352E+00  0.12986970241E+01  0.52803324841E+01  0.54937086189E+01  0.51100000000E-03 0. -1.
        -11    1    3    3    0    0  0.16046819814E+02 -0.31779103077E+02  0.16895121078E+02  0.39406305777E+02  0.51100000000E-03 0.  1.
         12    1    3    3    0    0  0.14525915351E+01 -0.23940783703E+01  0.70328380904E+00  0.28872550159E+01  0.00000000000E+00 0. -1.
</event>
<event>
 7    1  0.4818508E-009  0.4778727E+02  0.7816164E-02  0.1312668E+00
        -11   -1    0    0    0    0  0.00000000000E+00  0.00000000000E+00  0.45593999997E+02  0.45594000000E+02  0.51100000000E-03 0.  1.
         11   -1    0    0    0    0 -0.00000000000E+00 -0.00000000000E+00 -0.45593999997E+02  0.45594000000E+02  0.51100000000E-03 0. -1.
    9900012    2    1    2    0    0  0.56128901748E+01 -0.11060044703E+02  0.41590797043E+02  0.47787268167E+02  0.19999986880E+02 0.  0.
         12    1    1    2    0    0 -0.56128901748E+01  0.11060044703E+02 -0.41590797043E+02  0.43400731833E+02  0.00000000000E+00 0. -1.
         11    1    3    3    0    0 -0.37158350792E+01 -0.65304121248E+01  0.78301770186E+01  0.10851976099E+02  0.51100000000E-03 0. -1.
        -11    1    3    3    0    0  0.79603009718E+01  0.18420563185E+01  0.22322931131E+02  0.23771260328E+02  0.51100000000E-03 0.  1.
        -12    1    3    3    0    0  0.13684242822E+01 -0.63716888969E+01  0.11437688894E+02  0.13164031740E+02  0.00000000000E+00 0.  1.
</event>
<event>
 7    1  0.4818508E-009  0.4778725E+02  0.7816164E-02  0.1312668E+00
        -11   -1    0    0    0    0  0.00000000000E+00  0.00000000000E+00  0.45593999997E+02  0.45594000000E+02  0.51100000000E-03 0.  1.
         11   -1    0    0    0    0 -0.00000000000E+00 -0.00000000000E+00 -0.45593999997E+02  0.45594000000E+02  0.51100000000E-03 0. -1.
    9900012    2    1    2    0    0  0.23761760849E+01  0.21778896269E+02  0.37465432761E+02  0.47787248999E+02  0.19999899486E+02 0.  0.
         12    1    1    2    0    0 -0.23761760849E+01 -0.21778896269E+02 -0.37465432761E+02  0.43400751001E+02  0.00000000000E+00 0. -1.
         11    1    3    3    0    0 -0.62643976498E+01  0.33830845558E+01  0.80221855923E+01  0.10725828684E+02  0.51100000000E-03 0. -1.
        -11    1    3    3    0    0  0.91910855085E+01  0.12829395177E+02  0.26226666418E+02  0.30608944201E+02  0.51100000000E-03 0.  1.
         12    1    3    3    0    0 -0.55051177380E+00  0.55664165368E+01  0.32165807501E+01  0.64524761136E+01  0.00000000000E+00 0. -1.
</event>
<event>
 7    1  0.4818508E-009  0.4778727E+02  0.7816164E-02  0.1312668E+00
        -11   -1    0    0    0    0  0.00000000000E+00  0.00000000000E+00  0.45593999997E+02  0.45594000000E+02  0.51100000000E-03 0.  1.
         11   -1    0    0    0    0 -0.00000000000E+00 -0.00000000000E+00 -0.45593999997E+02  0.45594000000E+02  0.51100000000E-03 0. -1.
    9900012    2    1    2    0    0 -0.26391987614E+02 -0.43145525790E+01  0.34182905285E+02  0.47787269731E+02  0.19999994011E+02 0.  0.
         12    1    1    2    0    0  0.26391987614E+02  0.43145525790E+01 -0.34182905285E+02  0.43400730269E+02  0.00000000000E+00 0. -1.
         11    1    3    3    0    0 -0.13759239932E+02  0.24950123307E+01  0.23362358449E+02  0.27227588262E+02  0.51100000000E-03 0. -1.
        -11    1    3    3    0    0 -0.84111694782E+01 -0.47102612908E+01  0.12291330049E+02  0.15620855548E+02  0.51100000000E-03 0.  1.
         12    1    3    3    0    0 -0.42215782033E+01 -0.20993036189E+01 -0.14707832126E+01  0.49388259202E+01  0.00000000000E+00 0. -1.
</event>
<event>
 7    1  0.4818508E-009  0.4778728E+02  0.7816164E-02  0.1312668E+00
        -11   -1    0    0    0    0  0.00000000000E+00  0.00000000000E+00  0.45593999997E+02  0.45594000000E+02  0.51100000000E-03 0.  1.
         11   -1    0    0    0    0 -0.00000000000E+00 -0.00000000000E+00 -0.45593999997E+02  0.45594000000E+02  0.51100000000E-03 0. -1.
    9900012    2    1    2    0    0  0.30069658983E+01 -0.34935055799E+02  0.25575812965E+02  0.47787283687E+02  0.20000057644E+02 0.  0.
         12    1    1    2    0    0 -0.30069658983E+01  0.34935055799E+02 -0.25575812965E+02  0.43400716313E+02  0.00000000000E+00 0. -1.
         11    1    3    3    0    0 -0.56803499260E+01 -0.47991211136E+01  0.90166493675E+01  0.11687510634E+02  0.51100000000E-03 0. -1.
        -11    1    3    3    0    0  0.91052421323E+01 -0.20808002298E+02  0.11048680960E+02  0.25257706648E+02  0.51100000000E-03 0.  1.
         12    1    3    3    0    0 -0.41792630801E+00 -0.93279323876E+01  0.55104826377E+01  0.10842066405E+02  0.00000000000E+00 0. -1.
</event>
<event>
 7    1  0.4818508E-009  0.4778727E+02  0.7816164E-02  0.1312668E+00
        -11   -1    0    0    0    0  0.00000000000E+00  0.00000000000E+00  0.45593999997E+02  0.45594000000E+02  0.51100000000E-03 0.  1.
         11   -1    0    0    0    0 -0.00000000000E+00 -0.00000000000E+00 -0.45593999997E+02  0.45594000000E+02  0.51100000000E-03 0. -1.
    9900012    2    1    2    0    0  0.14287301868E+02  0.14997502695E+02  0.38138841111E+02  0.47787270939E+02  0.19999999519E+02 0.  0.
         12    1    1    2    0    0 -0.14287301868E+02 -0.14997502695E+02 -0.38138841111E+02  0.43400729061E+02  0.00000000000E+00 0. -1.
         11    1    3    3    0    0 -0.41969993746E+01  0.59752171302E+01  0.60990825704E+01  0.95140334226E+01  0.51100000000E-03 0. -1.
        -11    1    3    3    0    0  0.74205967077E+01  0.29724835469E+01  0.15854429823E+02  0.17755671185E+02  0.51100000000E-03 0.  1.
         12    1    3    3    0    0  0.11063704534E+02  0.60498020178E+01  0.16185328717E+02  0.20517566332E+02  0.00000000000E+00 0. -1.
</event>
<event>
 7    1  0.4818508E-009  0.4778727E+02  0.7816164E-02  0.1312668E+00
        -11   -1    0    0    0    0  0.00000000000E+00  0.00000000000E+00  0.45593999997E+02  0.45594000000E+02  0.51100000000E-03 0. -1.
         11   -1    0    0    0    0 -0.00000000000E+00 -0.00000000000E+00 -0.45593999997E+02  0.45594000000E+02  0.51100000000E-03 0.  1.
    9900012    2    1    2    0    0  0.26478154181E+02 -0.20360280115E+02 -0.27712626523E+02  0.47787270467E+02  0.19999997367E+02 0.  0.
         12    1    1    2    0    0 -0.26478154181E+02  0.20360280115E+02  0.27712626523E+02  0.43400729533E+02  0.00000000000E+00 0. -1.
         11    1    3    3    0    0  0.86566847601E+01 -0.11664978618E+02 -0.40752235106E+01  0.15086993210E+02  0.51100000000E-03 0. -1.
        -11    1    3    3    0    0  0.15991008541E+02 -0.10044532014E+02 -0.23844903708E+02  0.30416844193E+02  0.51100000000E-03 0.  1.
        -12    1    3    3    0    0  0.18304608799E+01  0.13492305169E+01  0.20750069535E+00  0.22834330643E+01  0.00000000000E+00 0.  1.
</event>
<event>
 7    1  0.4818508E-009  0.4778727E+02  0.7816164E-02  0.1312668E+00
        -11   -1    0    0    0    0  0.00000000000E+00  0.00000000000E+00  0.45593999997E+02  0.45594000000E+02  0.51100000000E-03 0. -1.
         11   -1    0    0    0    0 -0.00000000000E+00 -0.00000000000E+00 -0.45593999997E+02  0.45594000000E+02  0.51100000000E-03 0.  1.
    9900012    2    1    2    0    0  0.82991403916E+01 -0.28768364035E+02 -0.31418602813E+02  0.47787273011E+02  0.20000008964E+02 0.  0.
         12    1    1    2    0    0 -0.82991403916E+01  0.28768364035E+02  0.31418602813E+02  0.43400726989E+02  0.00000000000E+00 0. -1.
         11    1    3    3    0    0  0.55051722484E+01 -0.23851865998E+02 -0.12060473970E+02  0.27288705827E+02  0.51100000000E-03 0. -1.
        -11    1    3    3    0    0  0.25054778552E+01 -0.14463529444E+01 -0.12201416596E+02  0.12539693909E+02  0.51100000000E-03 0.  1.
        -12    1    3    3    0    0  0.28849028800E+00 -0.34701450928E+01 -0.71567122470E+01  0.79588732743E+01  0.00000000000E+00 0.  1.
</event>
<event>
 7    1  0.4818508E-009  0.4778727E+02  0.7816164E-02  0.1312668E+00
        -11   -1    0    0    0    0  0.00000000000E+00  0.00000000000E+00  0.45593999997E+02  0.45594000000E+02  0.51100000000E-03 0.  1.
         11   -1    0    0    0    0 -0.00000000000E+00 -0.00000000000E+00 -0.45593999997E+02  0.45594000000E+02  0.51100000000E-03 0. -1.
    9900012    2    1    2    0    0 -0.81199655466E+01  0.42419350619E+02  0.42764519569E+01  0.47787272025E+02  0.20000004469E+02 0.  0.
         12    1    1    2    0    0  0.81199655466E+01 -0.42419350619E+02 -0.42764519569E+01  0.43400727975E+02  0.00000000000E+00 0. -1.
         11    1    3    3    0    0 -0.14719044078E+02  0.27325569496E+02  0.36946233551E+01  0.31256795243E+02  0.51100000000E-03 0. -1.
        -11    1    3    3    0    0  0.37469214267E+01  0.77966682281E+01 -0.23366174608E+00  0.86534417263E+01  0.51100000000E-03 0.  1.
         12    1    3    3    0    0  0.28521571051E+01  0.72971128948E+01  0.81549034785E+00  0.78770350550E+01  0.00000000000E+00 0. -1.
</event>
<event>
 7    1  0.4818508E-009  0.4778727E+02  0.7816164E-02  0.1312668E+00
        -11   -1    0    0    0    0  0.00000000000E+00  0.00000000000E+00  0.45593999997E+02  0.45594000000E+02  0.51100000000E-03 0.  1.
         11   -1    0    0    0    0 -0.00000000000E+00 -0.00000000000E+00 -0.45593999997E+02  0.45594000000E+02  0.51100000000E-03 0. -1.
    9900012    2    1    2    0    0  0.20181111328E+02 -0.13566141797E+02  0.35948653225E+02  0.47787272744E+02  0.20000007748E+02 0.  0.
         12    1    1    2    0    0 -0.20181111328E+02  0.13566141797E+02 -0.35948653225E+02  0.43400727256E+02  0.00000000000E+00 0. -1.
         11    1    3    3    0    0  0.40031398157E+01 -0.51442865139E-01  0.70190921816E+00  0.40645358362E+01  0.51100000000E-03 0. -1.
        -11    1    3    3    0    0 -0.96499033698E+00 -0.76895348260E+01  0.98642424588E+01  0.12544458208E+02  0.51100000000E-03 0.  1.
        -12    1    3    3    0    0  0.17142961849E+02 -0.58251641059E+01  0.25382501548E+02  0.31178278699E+02  0.00000000000E+00 0.  1.
</event>
<event>
 7    1  0.4818508E-009  0.4778730E+02  0.7816164E-02  0.1312668E+00
        -11   -1    0    0    0    0  0.00000000000E+00  0.00000000000E+00  0.45593999997E+02  0.45594000000E+02  0.51100000000E-03 0.  1.
         11   -1    0    0    0    0 -0.00000000000E+00 -0.00000000000E+00 -0.45593999997E+02  0.45594000000E+02  0.51100000000E-03 0. -1.
    9900012    2    1    2    0    0 -0.31779282030E+00 -0.14825209964E+02  0.40788880964E+02  0.47787301238E+02  0.20000137663E+02 0.  0.
         12    1    1    2    0    0  0.31779282030E+00  0.14825209964E+02 -0.40788880964E+02  0.43400698762E+02  0.00000000000E+00 0. -1.
         11    1    3    3    0    0 -0.14852597276E+01 -0.99507391956E+01  0.71556437716E+01  0.12346110523E+02  0.51100000000E-03 0. -1.
        -11    1    3    3    0    0  0.42515895898E+01 -0.60250433311E+01  0.17756758562E+02  0.19227054795E+02  0.51100000000E-03 0.  1.
         12    1    3    3    0    0 -0.30841226825E+01  0.11505725628E+01  0.15876478630E+02  0.16214135920E+02  0.00000000000E+00 0. -1.
</event>
<event>
 7    1  0.4818508E-009  0.4778727E+02  0.7816164E-02  0.1312668E+00
        -11   -1    0    0    0    0  0.00000000000E+00  0.00000000000E+00  0.45593999997E+02  0.45594000000E+02  0.51100000000E-03 0.  1.
         11   -1    0    0    0    0 -0.00000000000E+00 -0.00000000000E+00 -0.45593999997E+02  0.45594000000E+02  0.51100000000E-03 0. -1.
    9900012    2    1    2    0    0  0.41230433200E+02 -0.12922961600E+02  0.40830946028E+01  0.47787271666E+02  0.20000002833E+02 0.  0.
         12    1    1    2    0    0 -0.41230433200E+02  0.12922961600E+02 -0.40830946028E+01  0.43400728334E+02  0.00000000000E+00 0. -1.
         11    1    3    3    0    0  0.12284604886E+02  0.13702418781E+00  0.75197485063E+01  0.14404058827E+02  0.51100000000E-03 0. -1.
        -11    1    3    3    0    0  0.25312836752E+02 -0.83872918610E+01 -0.52801277655E+01  0.27183931259E+02  0.51100000000E-03 0.  1.
         12    1    3    3    0    0  0.36329915621E+01 -0.46726939269E+01  0.18434738620E+01  0.61992815797E+01  0.00000000000E+00 0. -1.
</event>
<event>
 7    1  0.4818508E-009  0.4778727E+02  0.7816164E-02  0.1312668E+00
        -11   -1    0    0    0    0  0.00000000000E+00  0.00000000000E+00  0.45593999997E+02  0.45594000000E+02  0.51100000000E-03 0. -1.
         11   -1    0    0    0    0 -0.00000000000E+00 -0.00000000000E+00 -0.45593999997E+02  0.45594000000E+02  0.51100000000E-03 0.  1.
    9900012    2    1    2    0    0  0.41631878259E+02 -0.35198867938E+01  0.11748217237E+02  0.47787268455E+02  0.19999988192E+02 0.  0.
         12    1    1    2    0    0 -0.41631878259E+02  0.35198867938E+01 -0.11748217237E+02  0.43400731545E+02  0.00000000000E+00 0. -1.
         11    1    3    3    0    0  0.11205694245E+02 -0.55771571636E+01  0.87267871790E+01  0.15258737833E+02  0.51100000000E-03 0. -1.
        -11    1    3    3    0    0  0.13591739437E+02 -0.20418249374E+01 -0.32128064122E+01  0.14114763735E+02  0.51100000000E-03 0.  1.
        -12    1    3    3    0    0  0.16834444577E+02  0.40990953072E+01  0.62342364700E+01  0.18413766886E+02  0.00000000000E+00 0.  1.
</event>
<event>
 7    1  0.4818508E-009  0.4778727E+02  0.7816164E-02  0.1312668E+00
        -11   -1    0    0    0    0  0.00000000000E+00  0.00000000000E+00  0.45593999997E+02  0.45594000000E+02  0.51100000000E-03 0.  1.
         11   -1    0    0    0    0 -0.00000000000E+00 -0.00000000000E+00 -0.45593999997E+02  0.45594000000E+02  0.51100000000E-03 0. -1.
    9900012    2    1    2    0    0 -0.30054340768E+02  0.20452639515E+02  0.23707582281E+02  0.47787270517E+02  0.19999997593E+02 0.  0.
         12    1    1    2    0    0  0.30054340768E+02 -0.20452639515E+02 -0.23707582281E+02  0.43400729483E+02  0.00000000000E+00 0. -1.
         11    1    3    3    0    0 -0.83315574968E+01  0.85088656351E+01  0.11806824940E+02  0.16769518781E+02  0.51100000000E-03 0. -1.
        -11    1    3    3    0    0 -0.17004242094E+02  0.98198226336E+01  0.18623304722E+01  0.19724133461E+02  0.51100000000E-03 0.  1.
        -12    1    3    3    0    0 -0.47185411768E+01  0.21239512463E+01  0.10038426869E+02  0.11293618275E+02  0.00000000000E+00 0.  1.
</event>
<event>
 7    1  0.4818508E-009  0.4778727E+02  0.7816164E-02  0.1312668E+00
        -11   -1    0    0    0    0  0.00000000000E+00  0.00000000000E+00  0.45593999997E+02  0.45594000000E+02  0.51100000000E-03 0. -1.
         11   -1    0    0    0    0 -0.00000000000E+00 -0.00000000000E+00 -0.45593999997E+02  0.45594000000E+02  0.51100000000E-03 0.  1.
    9900012    2    1    2    0    0  0.42755835575E+02 -0.17034832565E+01 -0.72567306662E+01  0.47787268775E+02  0.19999989653E+02 0.  0.
         12    1    1    2    0    0 -0.42755835575E+02  0.17034832565E+01  0.72567306662E+01  0.43400731225E+02  0.00000000000E+00 0. -1.
         11    1    3    3    0    0 -0.19101103865E+00  0.10158267052E+00  0.17507971094E+00  0.27831173554E+00  0.51100000000E-03 0.  1.
        -11    1    3    3    0    0  0.21273765257E+02  0.75743081294E+01  0.52774783801E+00  0.22588088673E+02  0.51100000000E-03 0. -1.
        -12    1    3    3    0    0  0.21673081356E+02 -0.93793740564E+01 -0.79595582152E+01  0.24920868367E+02  0.00000000000E+00 0.  1.
</event>
<event>
 7    1  0.4818508E-009  0.4778727E+02  0.7816164E-02  0.1312668E+00
        -11   -1    0    0    0    0  0.00000000000E+00  0.00000000000E+00  0.45593999997E+02  0.45594000000E+02  0.51100000000E-03 0.  1.
         11   -1    0    0    0    0 -0.00000000000E+00 -0.00000000000E+00 -0.45593999997E+02  0.45594000000E+02  0.51100000000E-03 0. -1.
    9900012    2    1    2    0    0  0.89146905700E+01  0.41931453556E+02  0.67752961869E+01  0.47787272544E+02  0.20000006837E+02 0.  0.
         12    1    1    2    0    0 -0.89146905700E+01 -0.41931453556E+02 -0.67752961869E+01  0.43400727456E+02  0.00000000000E+00 0. -1.
         11    1    3    3    0    0  0.43021491440E+00 -0.93763967753E+00 -0.57763166644E+00  0.11823331344E+01  0.51100000000E-03 0. -1.
        -11    1    3    3    0    0  0.45609887954E+01  0.38719806274E+02  0.10090486272E+02  0.40272123487E+02  0.51100000000E-03 0.  1.
        -12    1    3    3    0    0  0.39234868602E+01  0.41492869600E+01 -0.27375584186E+01  0.63328159229E+01  0.00000000000E+00 0.  1.
</event>
<event>
 7    1  0.4818508E-009  0.4778727E+02  0.7816164E-02  0.1312668E+00
        -11   -1    0    0    0    0  0.00000000000E+00  0.00000000000E+00  0.45593999997E+02  0.45594000000E+02  0.51100000000E-03 0. -1.
         11   -1    0    0    0    0 -0.00000000000E+00 -0.00000000000E+00 -0.45593999997E+02  0.45594000000E+02  0.51100000000E-03 0.  1.
    9900012    2    1    2    0    0 -0.19587740022E+02  0.34758842507E+01 -0.38572816488E+02  0.47787268412E+02  0.19999987999E+02 0.  0.
         12    1    1    2    0    0  0.19587740022E+02 -0.34758842507E+01  0.38572816488E+02  0.43400731588E+02  0.00000000000E+00 0. -1.
         11    1    3    3    0    0 -0.10036278882E+02 -0.56600099689E+01 -0.14903058951E+02  0.18837828246E+02  0.51100000000E-03 0. -1.
        -11    1    3    3    0    0  0.11863476476E+01  0.37287046196E+01 -0.26222185258E+01  0.47102748475E+01  0.51100000000E-03 0.  1.
         12    1    3    3    0    0 -0.10737808788E+02  0.54071896000E+01 -0.21047539011E+02  0.24239165319E+02  0.00000000000E+00 0. -1.
</event>
<event>
 7    1  0.4818508E-009  0.4778727E+02  0.7816164E-02  0.1312668E+00
        -11   -1    0    0    0    0  0.00000000000E+00  0.00000000000E+00  0.45593999997E+02  0.45594000000E+02  0.51100000000E-03 0.  1.
         11   -1    0    0    0    0 -0.00000000000E+00 -0.00000000000E+00 -0.45593999997E+02  0.45594000000E+02  0.51100000000E-03 0. -1.
    9900012    2    1    2    0    0  0.27909254424E+02 -0.33005298561E+02 -0.39175184405E+01  0.47787272284E+02  0.20000005650E+02 0.  0.
         12    1    1    2    0    0 -0.27909254424E+02  0.33005298561E+02  0.39175184405E+01  0.43400727716E+02  0.00000000000E+00 0. -1.
         11    1    3    3    0    0  0.47047023556E+01 -0.12474560636E+01  0.46267235644E+01  0.67154256819E+01  0.51100000000E-03 0. -1.
        -11    1    3    3    0    0  0.14085494007E+02 -0.20105620770E+02 -0.12633476840E+01  0.24581154888E+02  0.51100000000E-03 0.  1.
         12    1    3    3    0    0  0.91190580607E+01 -0.11652221727E+02 -0.72808943209E+01  0.16490691714E+02  0.00000000000E+00 0. -1.
</event>
<event>
 7    1  0.4818508E-009  0.4778727E+02  0.7816164E-02  0.1312668E+00
        -11   -1    0    0    0    0  0.00000000000E+00  0.00000000000E+00  0.45593999997E+02  0.45594000000E+02  0.51100000000E-03 0.  1.
         11   -1    0    0    0    0 -0.00000000000E+00 -0.00000000000E+00 -0.45593999997E+02  0.45594000000E+02  0.51100000000E-03 0. -1.
    9900012    2    1    2    0    0  0.64835423482E+01 -0.40589910376E+02  0.13930047412E+02  0.47787269977E+02  0.19999995131E+02 0.  0.
         12    1    1    2    0    0 -0.64835423482E+01  0.40589910376E+02 -0.13930047412E+02  0.43400730023E+02  0.00000000000E+00 0. -1.
         11    1    3    3    0    0  0.53331390957E+00 -0.22504246996E+02 -0.16705096494E+01  0.22572464627E+02  0.51100000000E-03 0. -1.
        -11    1    3    3    0    0  0.18113198783E+01 -0.95359205377E+01  0.47901402001E+01  0.10824052088E+02  0.51100000000E-03 0.  1.
         12    1    3    3    0    0  0.41389085603E+01 -0.85497428415E+01  0.10810416861E+02  0.14390753261E+02  0.00000000000E+00 0. -1.
</event>
<event>
 7    1  0.4818508E-009  0.4778727E+02  0.7816164E-02  0.1312668E+00
        -11   -1    0    0    0    0  0.00000000000E+00  0.00000000000E+00  0.45593999997E+02  0.45594000000E+02  0.51100000000E-03 0.  1.
         11   -1    0    0    0    0 -0.00000000000E+00 -0.00000000000E+00 -0.45593999997E+02  0.45594000000E+02  0.51100000000E-03 0. -1.
    9900012    2    1    2    0    0  0.17783956320E+01 -0.21205008689E+02  0.37826025271E+02  0.47787271062E+02  0.20000000081E+02 0.  0.
         12    1    1    2    0    0 -0.17783956320E+01  0.21205008689E+02 -0.37826025271E+02  0.43400728938E+02  0.00000000000E+00 0. -1.
         11    1    3    3    0    0 -0.52517904610E+01 -0.17639796423E+01  0.17453006583E+01  0.58085283742E+01  0.51100000000E-03 0. -1.
        -11    1    3    3    0    0  0.20521952269E+01 -0.13706686773E+02  0.23683311642E+02  0.27440554261E+02  0.51100000000E-03 0.  1.
         12    1    3    3    0    0  0.49779908660E+01 -0.57343422736E+01  0.12397412971E+02  0.14538188427E+02  0.00000000000E+00 0. -1.
</event>
<event>
 7    1  0.4818508E-009  0.4778727E+02  0.7816164E-02  0.1312668E+00
        -11   -1    0    0    0    0  0.00000000000E+00  0.00000000000E+00  0.45593999997E+02  0.45594000000E+02  0.51100000000E-03 0.  1.
         11   -1    0    0    0    0 -0.00000000000E+00 -0.00000000000E+00 -0.45593999997E+02  0.45594000000E+02  0.51100000000E-03 0. -1.
    9900012    2    1    2    0    0  0.25514356541E+02 -0.46280251319E+01  0.34802617449E+02  0.47787272038E+02  0.20000004530E+02 0.  0.
         12    1    1    2    0    0 -0.25514356541E+02  0.46280251319E+01 -0.34802617449E+02  0.43400727962E+02  0.00000000000E+00 0. -1.
         11    1    3    3    0    0  0.69444837282E+00 -0.58863382119E+01  0.32149235655E+01  0.67429199817E+01  0.51100000000E-03 0. -1.
        -11    1    3    3    0    0  0.19421943981E+02 -0.98370752821E+00  0.19106926593E+02  0.27262689387E+02  0.51100000000E-03 0.  1.
        -12    1    3    3    0    0  0.53979641872E+01  0.22420206082E+01  0.12480767291E+02  0.13781662669E+02  0.00000000000E+00 0.  1.
</event>
<event>
 7    1  0.4818508E-009  0.4778727E+02  0.7816164E-02  0.1312668E+00
        -11   -1    0    0    0    0  0.00000000000E+00  0.00000000000E+00  0.45593999997E+02  0.45594000000E+02  0.51100000000E-03 0.  1.
         11   -1    0    0    0    0 -0.00000000000E+00 -0.00000000000E+00 -0.45593999997E+02  0.45594000000E+02  0.51100000000E-03 0. -1.
    9900012    2    1    2    0    0 -0.38518899085E+02 -0.14220877333E+02  0.14060023431E+02  0.47787271922E+02  0.20000003999E+02 0.  0.
         12    1    1    2    0    0  0.38518899085E+02  0.14220877333E+02 -0.14060023431E+02  0.43400728078E+02  0.00000000000E+00 0. -1.
         11    1    3    3    0    0 -0.18045346147E+02 -0.12661145798E+02  0.63938291690E+01  0.22952563739E+02  0.51100000000E-03 0. -1.
        -11    1    3    3    0    0 -0.36700865907E+01 -0.50705538988E+01  0.34944094795E+01  0.71687481679E+01  0.51100000000E-03 0.  1.
         12    1    3    3    0    0 -0.16803466348E+02  0.35108223641E+01  0.41717847824E+01  0.17665960015E+02  0.00000000000E+00 0. -1.
</event>
<event>
 7    1  0.4818508E-009  0.4778727E+02  0.7816164E-02  0.1312668E+00
        -11   -1    0    0    0    0  0.00000000000E+00  0.00000000000E+00  0.45593999997E+02  0.45594000000E+02  0.51100000000E-03 0.  1.
         11   -1    0    0    0    0 -0.00000000000E+00 -0.00000000000E+00 -0.45593999997E+02  0.45594000000E+02  0.51100000000E-03 0. -1.
    9900012    2    1    2    0    0 -0.39503784585E+02  0.14548038655E+02  0.10555989624E+02  0.47787270257E+02  0.19999996410E+02 0.  0.
         12    1    1    2    0    0  0.39503784585E+02 -0.14548038655E+02 -0.10555989624E+02  0.43400729743E+02  0.00000000000E+00 0. -1.
         11    1    3    3    0    0 -0.23208738865E+01  0.35124238673E+01  0.28310679182E+01  0.50733147783E+01  0.51100000000E-03 0. -1.
        -11    1    3    3    0    0 -0.16777113529E+02  0.91221151772E+01 -0.33953110829E+01  0.19396202238E+02  0.51100000000E-03 0.  1.
        -12    1    3    3    0    0 -0.20405797170E+02  0.19134996104E+01  0.11120232788E+02  0.23317753240E+02  0.00000000000E+00 0.  1.
</event>
<event>
 7    1  0.4818508E-009  0.4778727E+02  0.7816164E-02  0.1312668E+00
        -11   -1    0    0    0    0  0.00000000000E+00  0.00000000000E+00  0.45593999997E+02  0.45594000000E+02  0.51100000000E-03 0.  1.
         11   -1    0    0    0    0 -0.00000000000E+00 -0.00000000000E+00 -0.45593999997E+02  0.45594000000E+02  0.51100000000E-03 0. -1.
    9900012    2    1    2    0    0 -0.10319180451E+02 -0.12149162674E+01  0.42138598877E+02  0.47787273946E+02  0.20000013229E+02 0.  0.
         12    1    1    2    0    0  0.10319180451E+02  0.12149162674E+01 -0.42138598877E+02  0.43400726054E+02  0.00000000000E+00 0. -1.
         11    1    3    3    0    0 -0.42707361303E+01  0.58560988114E+01  0.10749296332E+02  0.12964584539E+02  0.51100000000E-03 0. -1.
        -11    1    3    3    0    0 -0.17524807784E+01 -0.68197795692E+01  0.29116980914E+02  0.29956287488E+02  0.51100000000E-03 0.  1.
         12    1    3    3    0    0 -0.42959635423E+01 -0.25123550967E+00  0.22723216306E+01  0.48664019184E+01  0.00000000000E+00 0. -1.
</event>
<event>
 7    1  0.4818508E-009  0.4778727E+02  0.7816164E-02  0.1312668E+00
        -11   -1    0    0    0    0  0.00000000000E+00  0.00000000000E+00  0.45593999997E+02  0.45594000000E+02  0.51100000000E-03 0.  1.
         11   -1    0    0    0    0 -0.00000000000E+00 -0.00000000000E+00 -0.45593999997E+02  0.45594000000E+02  0.51100000000E-03 0. -1.
    9900012    2    1    2    0    0 -0.19609324840E+02 -0.25212206502E+02  0.29384389577E+02  0.47787270418E+02  0.19999997146E+02 0.  0.
         12    1    1    2    0    0  0.19609324840E+02  0.25212206502E+02 -0.29384389577E+02  0.43400729582E+02  0.00000000000E+00 0. -1.
         11    1    3    3    0    0 -0.15588264861E+02 -0.24662107475E+02  0.23894628284E+02  0.37711626955E+02  0.51100000000E-03 0.  1.
        -11    1    3    3    0    0 -0.32330006551E+01 -0.31754620250E+01  0.57512942525E+01  0.73221061279E+01  0.51100000000E-03 0. -1.
         12    1    3    3    0    0 -0.78805932343E+00  0.26253629981E+01 -0.26153295930E+00  0.27535373355E+01  0.00000000000E+00 0. -1.
</event>
<event>
 7    1  0.5458479E-009  0.4778727E+02  0.7816164E-02  0.1312668E+00
        -11   -1    0    0    0    0  0.00000000000E+00  0.00000000000E+00  0.45593999997E+02  0.45594000000E+02  0.51100000000E-03 0. -1.
         11   -1    0    0    0    0 -0.00000000000E+00 -0.00000000000E+00 -0.45593999997E+02  0.45594000000E+02  0.51100000000E-03 0.  1.
    9900012    2    1    2    0    0  0.25037474532E+02 -0.12649581356E+02 -0.33117005511E+02  0.47787273123E+02  0.20000009478E+02 0.  0.
         12    1    1    2    0    0 -0.25037474532E+02  0.12649581356E+02  0.33117005511E+02  0.43400726877E+02  0.00000000000E+00 0. -1.
         11    1    3    3    0    0 -0.15879572899E+01 -0.16190870995E+01 -0.76284185801E+00  0.23926929080E+01  0.51100000000E-03 0. -1.
        -11    1    3    3    0    0  0.22136908796E+02 -0.26049955598E+01 -0.22272352540E+02  0.31510100299E+02  0.51100000000E-03 0.  1.
        -12    1    3    3    0    0  0.44885230262E+01 -0.84254986966E+01 -0.10081811112E+02  0.13884479916E+02  0.00000000000E+00 0.  1.
</event>
<event>
 7    1  0.4818508E-009  0.4778727E+02  0.7816164E-02  0.1312668E+00
        -11   -1    0    0    0    0  0.00000000000E+00  0.00000000000E+00  0.45593999997E+02  0.45594000000E+02  0.51100000000E-03 0.  1.
         11   -1    0    0    0    0 -0.00000000000E+00 -0.00000000000E+00 -0.45593999997E+02  0.45594000000E+02  0.51100000000E-03 0. -1.
    9900012    2    1    2    0    0  0.89152969582E+01  0.75919969940E+01  0.41791172811E+02  0.47787273472E+02  0.20000011069E+02 0.  0.
         12    1    1    2    0    0 -0.89152969582E+01 -0.75919969940E+01 -0.41791172811E+02  0.43400726528E+02  0.00000000000E+00 0. -1.
         11    1    3    3    0    0 -0.28350200568E+01 -0.23442698193E+01  0.31044073766E+01  0.48135522360E+01  0.51100000000E-03 0. -1.
        -11    1    3    3    0    0  0.13758364416E+02  0.92038217431E+01  0.33601035900E+02  0.37457075966E+02  0.51100000000E-03 0.  1.
        -12    1    3    3    0    0 -0.20080474008E+01  0.73244507015E+00  0.50857295345E+01  0.55166452707E+01  0.00000000000E+00 0.  1.
</event>
<event>
 7    1  0.4818508E-009  0.4778727E+02  0.7816164E-02  0.1312668E+00
        -11   -1    0    0    0    0  0.00000000000E+00  0.00000000000E+00  0.45593999997E+02  0.45594000000E+02  0.51100000000E-03 0.  1.
         11   -1    0    0    0    0 -0.00000000000E+00 -0.00000000000E+00 -0.45593999997E+02  0.45594000000E+02  0.51100000000E-03 0. -1.
    9900012    2    1    2    0    0  0.13879100645E+02  0.18586917360E+01  0.41079669095E+02  0.47787269791E+02  0.19999994286E+02 0.  0.
         12    1    1    2    0    0 -0.13879100645E+02 -0.18586917360E+01 -0.41079669095E+02  0.43400730209E+02  0.00000000000E+00 0. -1.
         11    1    3    3    0    0  0.93062731524E-01 -0.10230192247E+01 -0.11814140345E+01  0.15655568940E+01  0.51100000000E-03 0. -1.
        -11    1    3    3    0    0  0.85699738149E+01  0.34617620022E+01  0.38914985116E+02  0.39997553853E+02  0.51100000000E-03 0.  1.
        -12    1    3    3    0    0  0.52160640990E+01 -0.58005104146E+00  0.33460980133E+01  0.62241590445E+01  0.00000000000E+00 0.  1.
</event>
<event>
 7    1  0.4818508E-009  0.4778727E+02  0.7816164E-02  0.1312668E+00
        -11   -1    0    0    0    0  0.00000000000E+00  0.00000000000E+00  0.45593999997E+02  0.45594000000E+02  0.51100000000E-03 0.  1.
         11   -1    0    0    0    0 -0.00000000000E+00 -0.00000000000E+00 -0.45593999997E+02  0.45594000000E+02  0.51100000000E-03 0. -1.
    9900012    2    1    2    0    0 -0.49737137978E+01  0.15757757240E+02  0.40132017230E+02  0.47787267874E+02  0.19999985543E+02 0.  0.
         12    1    1    2    0    0  0.49737137978E+01 -0.15757757240E+02 -0.40132017230E+02  0.43400732126E+02  0.00000000000E+00 0. -1.
         11    1    3    3    0    0  0.20614687341E+01  0.45629448239E+01  0.17470369894E+02  0.18173715727E+02  0.51100000000E-03 0. -1.
        -11    1    3    3    0    0 -0.48412127616E+01  0.12415075397E+02  0.98826841969E+01  0.16590325051E+02  0.51100000000E-03 0.  1.
        -12    1    3    3    0    0 -0.21939697702E+01 -0.12202629807E+01  0.12778963139E+02  0.13023227096E+02  0.00000000000E+00 0.  1.
</event>
<event>
 7    1  0.4818508E-009  0.4778727E+02  0.7816164E-02  0.1312668E+00
        -11   -1    0    0    0    0  0.00000000000E+00  0.00000000000E+00  0.45593999997E+02  0.45594000000E+02  0.51100000000E-03 0.  1.
         11   -1    0    0    0    0 -0.00000000000E+00 -0.00000000000E+00 -0.45593999997E+02  0.45594000000E+02  0.51100000000E-03 0. -1.
    9900012    2    1    2    0    0 -0.26502200789E+02  0.22955752837E+02  0.25579091159E+02  0.47787272593E+02  0.20000007059E+02 0.  0.
         12    1    1    2    0    0  0.26502200789E+02 -0.22955752837E+02 -0.25579091159E+02  0.43400727407E+02  0.00000000000E+00 0. -1.
         11    1    3    3    0    0 -0.33295665237E+01  0.40929283595E+01  0.24778324317E+01  0.58290419120E+01  0.51100000000E-03 0. -1.
        -11    1    3    3    0    0 -0.24820170979E+02  0.18963445298E+02  0.24576143190E+02  0.39744684668E+02  0.51100000000E-03 0.  1.
        -12    1    3    3    0    0  0.16475367135E+01 -0.10062082062E+00 -0.14748844630E+01  0.22135460129E+01  0.00000000000E+00 0.  1.
</event>
<event>
 7    1  0.5375571E-009  0.4778727E+02  0.7816164E-02  0.1312668E+00
        -11   -1    0    0    0    0  0.00000000000E+00  0.00000000000E+00  0.45593999997E+02  0.45594000000E+02  0.51100000000E-03 0. -1.
         11   -1    0    0    0    0 -0.00000000000E+00 -0.00000000000E+00 -0.45593999997E+02  0.45594000000E+02  0.51100000000E-03 0.  1.
    9900012    2    1    2    0    0  0.92230470218E+01  0.35297338611E+02  0.23508646030E+02  0.47787272500E+02  0.20000006635E+02 0.  0.
         12    1    1    2    0    0 -0.92230470218E+01 -0.35297338611E+02 -0.23508646030E+02  0.43400727500E+02  0.00000000000E+00 0. -1.
         11    1    3    3    0    0  0.53040116199E+01  0.12458130372E+02 -0.15704490889E+00  0.13541130492E+02  0.51100000000E-03 0. -1.
        -11    1    3    3    0    0  0.65313720153E+01  0.13729760505E+02  0.13286797532E+02  0.20191684745E+02  0.51100000000E-03 0.  1.
         12    1    3    3    0    0 -0.26123366134E+01  0.91094477342E+01  0.10378893406E+02  0.14054457262E+02  0.00000000000E+00 0. -1.
</event>
<event>
 7    1  0.4818508E-009  0.4778727E+02  0.7816164E-02  0.1312668E+00
        -11   -1    0    0    0    0  0.00000000000E+00  0.00000000000E+00  0.45593999997E+02  0.45594000000E+02  0.51100000000E-03 0.  1.
         11   -1    0    0    0    0 -0.00000000000E+00 -0.00000000000E+00 -0.45593999997E+02  0.45594000000E+02  0.51100000000E-03 0. -1.
    9900012    2    1    2    0    0  0.74567238240E+01  0.40063829954E+02  0.14930173710E+02  0.47787270884E+02  0.19999999267E+02 0.  0.
         12    1    1    2    0    0 -0.74567238240E+01 -0.40063829954E+02 -0.14930173710E+02  0.43400729116E+02  0.00000000000E+00 0. -1.
         11    1    3    3    0    0 -0.44578014807E+01  0.23822643688E+01 -0.17986617262E+00  0.50576209492E+01  0.51100000000E-03 0. -1.
        -11    1    3    3    0    0  0.65190553949E+01  0.19937085700E+02  0.11187349197E+02  0.23772720748E+02  0.51100000000E-03 0.  1.
        -12    1    3    3    0    0  0.53954699098E+01  0.17744479886E+02  0.39226906852E+01  0.18956929186E+02  0.00000000000E+00 0.  1.
</event>
<event>
 7    1  0.4818508E-009  0.4778727E+02  0.7816164E-02  0.1312668E+00
        -11   -1    0    0    0    0  0.00000000000E+00  0.00000000000E+00  0.45593999997E+02  0.45594000000E+02  0.51100000000E-03 0.  1.
         11   -1    0    0    0    0 -0.00000000000E+00 -0.00000000000E+00 -0.45593999997E+02  0.45594000000E+02  0.51100000000E-03 0. -1.
    9900012    2    1    2    0    0 -0.87159848205E+01 -0.41910412271E+02 -0.71534658823E+01  0.47787272791E+02  0.20000007964E+02 0.  0.
         12    1    1    2    0    0  0.87159848205E+01  0.41910412271E+02  0.71534658823E+01  0.43400727209E+02  0.00000000000E+00 0. -1.
         11    1    3    3    0    0 -0.48298676882E+01 -0.28745613522E+02 -0.12510894471E+02  0.31720031516E+02  0.51100000000E-03 0. -1.
        -11    1    3    3    0    0 -0.13681101760E+01 -0.40520380484E+01  0.50367747774E+01  0.66075591725E+01  0.51100000000E-03 0.  1.
         12    1    3    3    0    0 -0.25180069563E+01 -0.91127607003E+01  0.32065381087E+00  0.94596821025E+01  0.00000000000E+00 0. -1.
</event>
<event>
 7    1  0.4818508E-009  0.4778727E+02  0.7816164E-02  0.1312668E+00
        -11   -1    0    0    0    0  0.00000000000E+00  0.00000000000E+00  0.45593999997E+02  0.45594000000E+02  0.51100000000E-03 0.  1.
         11   -1    0    0    0    0 -0.00000000000E+00 -0.00000000000E+00 -0.45593999997E+02  0.45594000000E+02  0.51100000000E-03 0. -1.
    9900012    2    1    2    0    0 -0.33935012825E+02 -0.26233451492E+02  0.66214997611E+01  0.47787270379E+02  0.19999996964E+02 0.  0.
         12    1    1    2    0    0  0.33935012825E+02  0.26233451492E+02 -0.66214997611E+01  0.43400729621E+02  0.00000000000E+00 0. -1.
         11    1    3    3    0    0 -0.64743270992E+01 -0.22588842839E+00  0.54479201217E+01  0.84645006281E+01  0.51100000000E-03 0. -1.
        -11    1    3    3    0    0 -0.75867769597E+01 -0.10946088764E+02 -0.38958417939E+01  0.13876369388E+02  0.51100000000E-03 0.  1.
         12    1    3    3    0    0 -0.19873908766E+02 -0.15061474300E+02  0.50694214333E+01  0.25446400362E+02  0.00000000000E+00 0. -1.
</event>
<event>
 7    1  0.4818508E-009  0.4778730E+02  0.7816164E-02  0.1312668E+00
        -11   -1    0    0    0    0  0.00000000000E+00  0.00000000000E+00  0.45593999997E+02  0.45594000000E+02  0.51100000000E-03 0.  1.
         11   -1    0    0    0    0 -0.00000000000E+00 -0.00000000000E+00 -0.45593999997E+02  0.45594000000E+02  0.51100000000E-03 0. -1.
    9900012    2    1    2    0    0 -0.17843884178E+02  0.27655894682E+02  0.28290776508E+02  0.47787300137E+02  0.20000132644E+02 0.  0.
         12    1    1    2    0    0  0.17843884178E+02 -0.27655894682E+02 -0.28290776508E+02  0.43400699863E+02  0.00000000000E+00 0. -1.
         11    1    3    3    0    0 -0.43968316453E+01  0.11692340681E+02  0.54543429309E+01  0.13630583853E+02  0.51100000000E-03 0. -1.
        -11    1    3    3    0    0 -0.44617298098E+01 -0.12074141858E+01  0.60107472064E+00  0.46611343032E+01  0.51100000000E-03 0.  1.
        -12    1    3    3    0    0 -0.89853227226E+01  0.17170968187E+02  0.22235358856E+02  0.29495581981E+02  0.00000000000E+00 0.  1.
</event>
<event>
 7    1  0.4818508E-009  0.4778727E+02  0.7816164E-02  0.1312668E+00
        -11   -1    0    0    0    0  0.00000000000E+00  0.00000000000E+00  0.45593999997E+02  0.45594000000E+02  0.51100000000E-03 0.  1.
         11   -1    0    0    0    0 -0.00000000000E+00 -0.00000000000E+00 -0.45593999997E+02  0.45594000000E+02  0.51100000000E-03 0. -1.
    9900012    2    1    2    0    0 -0.34302354268E+02  0.14818894918E+02  0.22076510373E+02  0.47787268841E+02  0.19999989951E+02 0.  0.
         12    1    1    2    0    0  0.34302354268E+02 -0.14818894918E+02 -0.22076510373E+02  0.43400731159E+02  0.00000000000E+00 0. -1.
         11    1    3    3    0    0 -0.28880666701E+01  0.44568522358E+01  0.71257817771E+01  0.88871382986E+01  0.51100000000E-03 0. -1.
        -11    1    3    3    0    0 -0.71504706609E+01 -0.65762333735E+00 -0.18271282757E+01  0.74094599751E+01  0.51100000000E-03 0.  1.
        -12    1    3    3    0    0 -0.24263816937E+02  0.11019666020E+02  0.16777856871E+02  0.31490670567E+02  0.00000000000E+00 0.  1.
</event>
<event>
 7    1  0.4818508E-009  0.4778727E+02  0.7816164E-02  0.1312668E+00
        -11   -1    0    0    0    0  0.00000000000E+00  0.00000000000E+00  0.45593999997E+02  0.45594000000E+02  0.51100000000E-03 0.  1.
         11   -1    0    0    0    0 -0.00000000000E+00 -0.00000000000E+00 -0.45593999997E+02  0.45594000000E+02  0.51100000000E-03 0. -1.
    9900012    2    1    2    0    0  0.50386800046E+01  0.42733662932E+02  0.56629473284E+01  0.47787271709E+02  0.20000003029E+02 0.  0.
         12    1    1    2    0    0 -0.50386800046E+01 -0.42733662932E+02 -0.56629473284E+01  0.43400728291E+02  0.00000000000E+00 0. -1.
         11    1    3    3    0    0 -0.53790443853E+01  0.48695492937E+01  0.11007438765E+00  0.72566345819E+01  0.51100000000E-03 0. -1.
        -11    1    3    3    0    0  0.45614176564E+01  0.25025136166E+02  0.68951492661E+01  0.26355398969E+02  0.51100000000E-03 0.  1.
        -12    1    3    3    0    0  0.58563067336E+01  0.12838977473E+02 -0.13422763254E+01  0.14175238158E+02  0.00000000000E+00 0.  1.
</event>
<event>
 7    1  0.4818508E-009  0.4778727E+02  0.7816164E-02  0.1312668E+00
        -11   -1    0    0    0    0  0.00000000000E+00  0.00000000000E+00  0.45593999997E+02  0.45594000000E+02  0.51100000000E-03 0.  1.
         11   -1    0    0    0    0 -0.00000000000E+00 -0.00000000000E+00 -0.45593999997E+02  0.45594000000E+02  0.51100000000E-03 0. -1.
    9900012    2    1    2    0    0 -0.30104610551E+02 -0.19440058664E+01  0.31201871518E+02  0.47787268192E+02  0.19999986995E+02 0.  0.
         12    1    1    2    0    0  0.30104610551E+02  0.19440058664E+01 -0.31201871518E+02  0.43400731808E+02  0.00000000000E+00 0. -1.
         11    1    3    3    0    0 -0.41626794705E+01 -0.29756718162E-01 -0.12867317418E+00  0.41647740495E+01  0.51100000000E-03 0. -1.
        -11    1    3    3    0    0 -0.21318737586E+02  0.79079960766E+00  0.31748005316E+02  0.38249833700E+02  0.51100000000E-03 0.  1.
        -12    1    3    3    0    0 -0.46231934941E+01 -0.27050487559E+01 -0.41746062360E+00  0.53726604423E+01  0.00000000000E+00 0.  1.
</event>
<event>
 7    1  0.4818508E-009  0.4778727E+02  0.7816164E-02  0.1312668E+00
        -11   -1    0    0    0    0  0.00000000000E+00  0.00000000000E+00  0.45593999997E+02  0.45594000000E+02  0.51100000000E-03 0.  1.
         11   -1    0    0    0    0 -0.00000000000E+00 -0.00000000000E+00 -0.45593999997E+02  0.45594000000E+02  0.51100000000E-03 0. -1.
    9900012    2    1    2    0    0  0.24659336768E+02  0.31909505394E+02  0.16041311787E+02  0.47787272954E+02  0.20000008704E+02 0.  0.
         12    1    1    2    0    0 -0.24659336768E+02 -0.31909505394E+02 -0.16041311787E+02  0.43400727046E+02  0.00000000000E+00 0. -1.
         11    1    3    3    0    0  0.15971506735E+02  0.74737528815E+01  0.24646295132E+01  0.17805066931E+02  0.51100000000E-03 0. -1.
        -11    1    3    3    0    0  0.70227367230E+01  0.16129500989E+02  0.59146004183E+01  0.18559691043E+02  0.51100000000E-03 0.  1.
         12    1    3    3    0    0  0.16650933100E+01  0.83062515229E+01  0.76620818555E+01  0.11422514979E+02  0.00000000000E+00 0. -1.
</event>
<event>
 7    1  0.4818508E-009  0.4778727E+02  0.7816164E-02  0.1312668E+00
        -11   -1    0    0    0    0  0.00000000000E+00  0.00000000000E+00  0.45593999997E+02  0.45594000000E+02  0.51100000000E-03 0.  1.
         11   -1    0    0    0    0 -0.00000000000E+00 -0.00000000000E+00 -0.45593999997E+02  0.45594000000E+02  0.51100000000E-03 0. -1.
    9900012    2    1    2    0    0 -0.65039170466E+01 -0.42222584619E+02 -0.76534647298E+01  0.47787272918E+02  0.20000008542E+02 0.  0.
         12    1    1    2    0    0  0.65039170466E+01  0.42222584619E+02  0.76534647298E+01  0.43400727082E+02  0.00000000000E+00 0. -1.
         11    1    3    3    0    0  0.71266230030E+00 -0.11980053614E+01 -0.41948723618E+01  0.44204138713E+01  0.51100000000E-03 0. -1.
        -11    1    3    3    0    0 -0.34231418799E+01 -0.37224136521E+02 -0.83504376483E+00  0.37390527388E+02  0.51100000000E-03 0.  1.
        -12    1    3    3    0    0 -0.37934374670E+01 -0.38004427373E+01 -0.26235486032E+01  0.59763316582E+01  0.00000000000E+00 0.  1.
</event>
<event>
 7    1  0.4818508E-009  0.4778728E+02  0.7816164E-02  0.1312668E+00
        -11   -1    0    0    0    0  0.00000000000E+00  0.00000000000E+00  0.45593999997E+02  0.45594000000E+02  0.51100000000E-03 0. -1.
         11   -1    0    0    0    0 -0.00000000000E+00 -0.00000000000E+00 -0.45593999997E+02  0.45594000000E+02  0.51100000000E-03 0.  1.
    9900012    2    1    2    0    0  0.43390138557E+02  0.18663445709E+00 -0.93975327719E+00  0.47787284653E+02  0.20000062048E+02 0.  0.
         12    1    1    2    0    0 -0.43390138557E+02 -0.18663445709E+00  0.93975327719E+00  0.43400715347E+02  0.00000000000E+00 0. -1.
         11    1    3    3    0    0  0.10117570775E+02  0.73745723416E+01 -0.24391934388E+01  0.12755360462E+02  0.51100000000E-03 0. -1.
        -11    1    3    3    0    0  0.27382474104E+02 -0.65542071540E+01 -0.18676285548E+01  0.28217823377E+02  0.51100000000E-03 0.  1.
         12    1    3    3    0    0  0.58900936777E+01 -0.63373073046E+00  0.33670687165E+01  0.68141008147E+01  0.00000000000E+00 0. -1.
</event>
<event>
 7    1  0.4818508E-009  0.4778727E+02  0.7816164E-02  0.1312668E+00
        -11   -1    0    0    0    0  0.00000000000E+00  0.00000000000E+00  0.45593999997E+02  0.45594000000E+02  0.51100000000E-03 0. -1.
         11   -1    0    0    0    0 -0.00000000000E+00 -0.00000000000E+00 -0.45593999997E+02  0.45594000000E+02  0.51100000000E-03 0.  1.
    9900012    2    1    2    0    0 -0.24548804843E+02 -0.32076197870E+02 -0.15877561299E+02  0.47787271414E+02  0.20000001683E+02 0.  0.
         12    1    1    2    0    0  0.24548804843E+02  0.32076197870E+02  0.15877561299E+02  0.43400728586E+02  0.00000000000E+00 0. -1.
         11    1    3    3    0    0 -0.67388700665E+01  0.47622672980E+00 -0.47843097029E+01  0.82782112358E+01  0.51100000000E-03 0. -1.
        -11    1    3    3    0    0 -0.13854152810E+02 -0.28549735697E+02 -0.11758922931E+02  0.33842240281E+02  0.51100000000E-03 0.  1.
         12    1    3    3    0    0 -0.39557819665E+01 -0.40026889028E+01  0.66567133473E+00  0.56668198970E+01  0.00000000000E+00 0. -1.
</event>
<event>
 7    1  0.4818508E-009  0.4778727E+02  0.7816164E-02  0.1312668E+00
        -11   -1    0    0    0    0  0.00000000000E+00  0.00000000000E+00  0.45593999997E+02  0.45594000000E+02  0.51100000000E-03 0.  1.
         11   -1    0    0    0    0 -0.00000000000E+00 -0.00000000000E+00 -0.45593999997E+02  0.45594000000E+02  0.51100000000E-03 0. -1.
    9900012    2    1    2    0    0  0.71362034475E+01 -0.27183206243E+02  0.33072214260E+02  0.47787268930E+02  0.19999990361E+02 0.  0.
         12    1    1    2    0    0 -0.71362034475E+01  0.27183206243E+02 -0.33072214260E+02  0.43400731070E+02  0.00000000000E+00 0. -1.
         11    1    3    3    0    0  0.68372274185E+01 -0.35244874686E+01  0.53960231941E+01  0.93961033020E+01  0.51100000000E-03 0. -1.
        -11    1    3    3    0    0 -0.49566209570E+01 -0.16886086209E+02  0.15202145756E+02  0.23255391517E+02  0.51100000000E-03 0.  1.
        -12    1    3    3    0    0  0.52555969860E+01 -0.67726325660E+01  0.12474045310E+02  0.15135774112E+02  0.00000000000E+00 0.  1.
</event>
<event>
 7    1  0.4818508E-009  0.4778727E+02  0.7816164E-02  0.1312668E+00
        -11   -1    0    0    0    0  0.00000000000E+00  0.00000000000E+00  0.45593999997E+02  0.45594000000E+02  0.51100000000E-03 0.  1.
         11   -1    0    0    0    0 -0.00000000000E+00 -0.00000000000E+00 -0.45593999997E+02  0.45594000000E+02  0.51100000000E-03 0. -1.
    9900012    2    1    2    0    0  0.22259007580E+02 -0.35895411317E+02  0.99839665211E+01  0.47787267753E+02  0.19999984994E+02 0.  0.
         12    1    1    2    0    0 -0.22259007580E+02  0.35895411317E+02 -0.99839665211E+01  0.43400732247E+02  0.00000000000E+00 0. -1.
         11    1    3    3    0    0  0.19757914325E+02 -0.15203487998E+02  0.53269237453E+01  0.25493084212E+02  0.51100000000E-03 0. -1.
        -11    1    3    3    0    0  0.36515296221E+01 -0.17679445505E+02  0.56567153585E+01  0.18918110129E+02  0.51100000000E-03 0.  1.
        -12    1    3    3    0    0 -0.11504363668E+01 -0.30124778139E+01 -0.99967258266E+00  0.33760734124E+01  0.00000000000E+00 0.  1.
</event>
<event>
 7    1  0.4818508E-009  0.4778727E+02  0.7816164E-02  0.1312668E+00
        -11   -1    0    0    0    0  0.00000000000E+00  0.00000000000E+00  0.45593999997E+02  0.45594000000E+02  0.51100000000E-03 0.  1.
         11   -1    0    0    0    0 -0.00000000000E+00 -0.00000000000E+00 -0.45593999997E+02  0.45594000000E+02  0.51100000000E-03 0. -1.
    9900012    2    1    2    0    0 -0.13684621657E+02 -0.40476540893E+02  0.76160526277E+01  0.47787268553E+02  0.19999988639E+02 0.  0.
         12    1    1    2    0    0  0.13684621657E+02  0.40476540893E+02 -0.76160526277E+01  0.43400731447E+02  0.00000000000E+00 0. -1.
         11    1    3    3    0    0  0.14438451193E+01 -0.39738467538E+01  0.50327700685E+01  0.65730450762E+01  0.51100000000E-03 0. -1.
        -11    1    3    3    0    0 -0.13745751485E+02 -0.35321981909E+02 -0.18430825834E+00  0.37902797518E+02  0.51100000000E-03 0.  1.
         12    1    3    3    0    0 -0.13827152909E+01 -0.11807122301E+01  0.27675908176E+01  0.33114259586E+01  0.00000000000E+00 0. -1.
</event>
<event>
 7    1  0.4818508E-009  0.4778726E+02  0.7816164E-02  0.1312668E+00
        -11   -1    0    0    0    0  0.00000000000E+00  0.00000000000E+00  0.45593999997E+02  0.45594000000E+02  0.51100000000E-03 0.  1.
         11   -1    0    0    0    0 -0.00000000000E+00 -0.00000000000E+00 -0.45593999997E+02  0.45594000000E+02  0.51100000000E-03 0. -1.
    9900012    2    1    2    0    0  0.11462857753E+02  0.11166235186E+02  0.40342809375E+02  0.47787260555E+02  0.19999952174E+02 0.  0.
         12    1    1    2    0    0 -0.11462857753E+02 -0.11166235186E+02 -0.40342809375E+02  0.43400739445E+02  0.00000000000E+00 0. -1.
         11    1    3    3    0    0  0.11971807333E+02  0.24298814172E+01  0.22144813975E+02  0.25290735078E+02  0.51100000000E-03 0. -1.
        -11    1    3    3    0    0  0.42143095780E+01  0.65584362102E+01  0.88092359398E+01  0.11763338338E+02  0.51100000000E-03 0.  1.
         12    1    3    3    0    0 -0.47232591580E+01  0.21779175583E+01  0.93887594601E+01  0.10733187139E+02  0.00000000000E+00 0. -1.
</event>
<event>
 7    1  0.6553302E-009  0.4778727E+02  0.7816164E-02  0.1312668E+00
        -11   -1    0    0    0    0  0.00000000000E+00  0.00000000000E+00  0.45593999997E+02  0.45594000000E+02  0.51100000000E-03 0. -1.
         11   -1    0    0    0    0 -0.00000000000E+00 -0.00000000000E+00 -0.45593999997E+02  0.45594000000E+02  0.51100000000E-03 0.  1.
    9900012    2    1    2    0    0 -0.26073987368E+02 -0.17661022323E+02 -0.29864005555E+02  0.47787270115E+02  0.19999995763E+02 0.  0.
         12    1    1    2    0    0  0.26073987368E+02  0.17661022323E+02  0.29864005555E+02  0.43400729885E+02  0.00000000000E+00 0. -1.
         11    1    3    3    0    0  0.10573334207E+01 -0.10580524940E+01 -0.95021450287E+00  0.17720995754E+01  0.51100000000E-03 0. -1.
        -11    1    3    3    0    0  0.16584860016E+01  0.88665074987E-01  0.35309100762E+00  0.16979725657E+01  0.51100000000E-03 0.  1.
        -12    1    3    3    0    0 -0.28789806790E+02 -0.16691634904E+02 -0.29266882060E+02  0.44317197974E+02  0.00000000000E+00 0.  1.
</event>
<event>
 7    1  0.4818508E-009  0.4778727E+02  0.7816164E-02  0.1312668E+00
        -11   -1    0    0    0    0  0.00000000000E+00  0.00000000000E+00  0.45593999997E+02  0.45594000000E+02  0.51100000000E-03 0.  1.
         11   -1    0    0    0    0 -0.00000000000E+00 -0.00000000000E+00 -0.45593999997E+02  0.45594000000E+02  0.51100000000E-03 0. -1.
    9900012    2    1    2    0    0  0.52554792120E+01  0.36023986965E+02  0.23627862128E+02  0.47787267664E+02  0.19999984585E+02 0.  0.
         12    1    1    2    0    0 -0.52554792120E+01 -0.36023986965E+02 -0.23627862128E+02  0.43400732336E+02  0.00000000000E+00 0. -1.
         11    1    3    3    0    0 -0.57983815977E+01  0.75298550987E+01  0.61935300772E+01  0.11343710241E+02  0.51100000000E-03 0. -1.
        -11    1    3    3    0    0  0.68614749559E+01  0.91217720059E+01  0.10310037089E+02  0.15381268743E+02  0.51100000000E-03 0.  1.
         12    1    3    3    0    0  0.41923858538E+01  0.19372359861E+02  0.71242949611E+01  0.21062288679E+02  0.00000000000E+00 0. -1.
</event>
<event>
 7    1  0.4818508E-009  0.4778727E+02  0.7816164E-02  0.1312668E+00
        -11   -1    0    0    0    0  0.00000000000E+00  0.00000000000E+00  0.45593999997E+02  0.45594000000E+02  0.51100000000E-03 0.  1.
         11   -1    0    0    0    0 -0.00000000000E+00 -0.00000000000E+00 -0.45593999997E+02  0.45594000000E+02  0.51100000000E-03 0. -1.
    9900012    2    1    2    0    0  0.35556515580E+01  0.32491904028E+02  0.28552700303E+02  0.47787272126E+02  0.20000004933E+02 0.  0.
         12    1    1    2    0    0 -0.35556515580E+01 -0.32491904028E+02 -0.28552700303E+02  0.43400727874E+02  0.00000000000E+00 0. -1.
         11    1    3    3    0    0  0.29218511451E+01  0.18389206630E+02  0.79875944122E+01  0.20260843994E+02  0.51100000000E-03 0. -1.
        -11    1    3    3    0    0  0.38391239152E+01  0.40972263270E+01  0.14133063903E+02  0.15207551794E+02  0.51100000000E-03 0.  1.
        -12    1    3    3    0    0 -0.32053235023E+01  0.10005471071E+02  0.64320419873E+01  0.12318876338E+02  0.00000000000E+00 0.  1.
</event>
<event>
 7    1  0.4818508E-009  0.4778727E+02  0.7816164E-02  0.1312668E+00
        -11   -1    0    0    0    0  0.00000000000E+00  0.00000000000E+00  0.45593999997E+02  0.45594000000E+02  0.51100000000E-03 0.  1.
         11   -1    0    0    0    0 -0.00000000000E+00 -0.00000000000E+00 -0.45593999997E+02  0.45594000000E+02  0.51100000000E-03 0. -1.
    9900012    2    1    2    0    0  0.11469100178E+02  0.32241598851E+02  0.26693857350E+02  0.47787274481E+02  0.20000015668E+02 0.  0.
         12    1    1    2    0    0 -0.11469100178E+02 -0.32241598851E+02 -0.26693857350E+02  0.43400725519E+02  0.00000000000E+00 0. -1.
         11    1    3    3    0    0  0.99456690073E+01  0.58024441012E+01  0.87473147644E+01  0.14460297556E+02  0.51100000000E-03 0. -1.
        -11    1    3    3    0    0  0.48710308419E+01  0.14016668849E+02  0.12312082681E+02  0.19281631863E+02  0.51100000000E-03 0.  1.
         12    1    3    3    0    0 -0.33475996709E+01  0.12422485901E+02  0.56344599045E+01  0.14045345063E+02  0.00000000000E+00 0. -1.
</event>
<event>
 7    1  0.4818508E-009  0.4778727E+02  0.7816164E-02  0.1312668E+00
        -11   -1    0    0    0    0  0.00000000000E+00  0.00000000000E+00  0.45593999997E+02  0.45594000000E+02  0.51100000000E-03 0. -1.
         11   -1    0    0    0    0 -0.00000000000E+00 -0.00000000000E+00 -0.45593999997E+02  0.45594000000E+02  0.51100000000E-03 0.  1.
    9900012    2    1    2    0    0  0.88144106082E+01  0.40982681516E+02  0.11240506024E+02  0.47787274265E+02  0.20000014686E+02 0.  0.
         12    1    1    2    0    0 -0.88144106082E+01 -0.40982681516E+02 -0.11240506024E+02  0.43400725735E+02  0.00000000000E+00 0. -1.
         11    1    3    3    0    0  0.72082185049E+01  0.59084173733E+01  0.57910739111E+01  0.10972891468E+02  0.51100000000E-03 0. -1.
        -11    1    3    3    0    0 -0.72773242636E+00  0.12147379181E+02 -0.25249018562E+01  0.12428336377E+02  0.51100000000E-03 0.  1.
        -12    1    3    3    0    0  0.23339245297E+01  0.22926884962E+02  0.79743339689E+01  0.24386046420E+02  0.00000000000E+00 0.  1.
</event>
<event>
 7    1  0.4818508E-009  0.4778727E+02  0.7816164E-02  0.1312668E+00
        -11   -1    0    0    0    0  0.00000000000E+00  0.00000000000E+00  0.45593999997E+02  0.45594000000E+02  0.51100000000E-03 0.  1.
         11   -1    0    0    0    0 -0.00000000000E+00 -0.00000000000E+00 -0.45593999997E+02  0.45594000000E+02  0.51100000000E-03 0. -1.
    9900012    2    1    2    0    0 -0.37486571077E+02 -0.26717440574E+01  0.21708113259E+02  0.47787269491E+02  0.19999992918E+02 0.  0.
         12    1    1    2    0    0  0.37486571077E+02  0.26717440574E+01 -0.21708113259E+02  0.43400730509E+02  0.00000000000E+00 0. -1.
         11    1    3    3    0    0 -0.23471334266E+02  0.35152301197E+01  0.82474307449E+01  0.25125295802E+02  0.51100000000E-03 0. -1.
        -11    1    3    3    0    0 -0.14137062824E+02 -0.81020274668E+01  0.11721644880E+02  0.20072278229E+02  0.51100000000E-03 0.  1.
        -12    1    3    3    0    0  0.12182601239E+00  0.19150532897E+01  0.17390376339E+01  0.25896954593E+01  0.00000000000E+00 0.  1.
</event>
<event>
 7    1  0.4818508E-009  0.4778728E+02  0.7816164E-02  0.1312668E+00
        -11   -1    0    0    0    0  0.00000000000E+00  0.00000000000E+00  0.45593999997E+02  0.45594000000E+02  0.51100000000E-03 0. -1.
         11   -1    0    0    0    0 -0.00000000000E+00 -0.00000000000E+00 -0.45593999997E+02  0.45594000000E+02  0.51100000000E-03 0.  1.
    9900012    2    1    2    0    0 -0.36639634039E+02  0.14024772958E+02 -0.18559791292E+02  0.47787275445E+02  0.20000020066E+02 0.  0.
         12    1    1    2    0    0  0.36639634039E+02 -0.14024772958E+02  0.18559791292E+02  0.43400724555E+02  0.00000000000E+00 0. -1.
         11    1    3    3    0    0 -0.61742218867E+00  0.56468798576E+00 -0.96698361207E+00  0.12787260252E+01  0.51100000000E-03 0. -1.
        -11    1    3    3    0    0 -0.26483239876E+02  0.17447660881E+02 -0.87374451779E+01  0.32895680766E+02  0.51100000000E-03 0.  1.
        -12    1    3    3    0    0 -0.95389719744E+01 -0.39875759090E+01 -0.88553625021E+01  0.13612868654E+02  0.00000000000E+00 0.  1.
</event>
<event>
 7    1  0.4818508E-009  0.4778728E+02  0.7816164E-02  0.1312668E+00
        -11   -1    0    0    0    0  0.00000000000E+00  0.00000000000E+00  0.45593999997E+02  0.45594000000E+02  0.51100000000E-03 0. -1.
         11   -1    0    0    0    0 -0.00000000000E+00 -0.00000000000E+00 -0.45593999997E+02  0.45594000000E+02  0.51100000000E-03 0.  1.
    9900012    2    1    2    0    0  0.38243286069E+02  0.18320701484E+02  0.92426082038E+01  0.47787276059E+02  0.20000022863E+02 0.  0.
         12    1    1    2    0    0 -0.38243286069E+02 -0.18320701484E+02 -0.92426082038E+01  0.43400723941E+02  0.00000000000E+00 0. -1.
         11    1    3    3    0    0  0.49073845397E+01  0.23396106086E+01  0.58638758126E+01  0.79963266959E+01  0.51100000000E-03 0. -1.
        -11    1    3    3    0    0  0.14979412172E+02  0.85356776280E+01 -0.54810281507E+01  0.18090943907E+02  0.51100000000E-03 0.  1.
        -12    1    3    3    0    0  0.18356489357E+02  0.74454132473E+01  0.88597605419E+01  0.21700005456E+02  0.00000000000E+00 0.  1.
</event>
<event>
 7    1  0.4818508E-009  0.4778727E+02  0.7816164E-02  0.1312668E+00
        -11   -1    0    0    0    0  0.00000000000E+00  0.00000000000E+00  0.45593999997E+02  0.45594000000E+02  0.51100000000E-03 0.  1.
         11   -1    0    0    0    0 -0.00000000000E+00 -0.00000000000E+00 -0.45593999997E+02  0.45594000000E+02  0.51100000000E-03 0. -1.
    9900012    2    1    2    0    0  0.30226675509E+02  0.19685663109E+02  0.24133915950E+02  0.47787272547E+02  0.20000006852E+02 0.  0.
         12    1    1    2    0    0 -0.30226675509E+02 -0.19685663109E+02 -0.24133915950E+02  0.43400727453E+02  0.00000000000E+00 0. -1.
         11    1    3    3    0    0  0.18186759363E+02  0.17724158789E+02  0.64144483543E+01  0.26192540328E+02  0.51100000000E-03 0. -1.
        -11    1    3    3    0    0  0.90814007237E+01  0.67258157772E+00  0.12698801878E+02  0.15626380722E+02  0.51100000000E-03 0.  1.
         12    1    3    3    0    0  0.29585154227E+01  0.12889227422E+01  0.50206657174E+01  0.59683514967E+01  0.00000000000E+00 0. -1.
</event>
<event>
 7    1  0.4917659E-009  0.4778732E+02  0.7816164E-02  0.1312668E+00
        -11   -1    0    0    0    0  0.00000000000E+00  0.00000000000E+00  0.45593999997E+02  0.45594000000E+02  0.51100000000E-03 0. -1.
         11   -1    0    0    0    0 -0.00000000000E+00 -0.00000000000E+00 -0.45593999997E+02  0.45594000000E+02  0.51100000000E-03 0.  1.
    9900012    2    1    2    0    0  0.37435219680E+02  0.21736485746E+02 -0.31222677769E+01  0.47787319808E+02  0.20000222331E+02 0.  0.
         12    1    1    2    0    0 -0.37435219680E+02 -0.21736485746E+02  0.31222677769E+01  0.43400680192E+02  0.00000000000E+00 0. -1.
         11    1    3    3    0    0  0.72416103301E+01 -0.82542153196E+00  0.29916291076E+01  0.78785840008E+01  0.51100000000E-03 0. -1.
        -11    1    3    3    0    0  0.24310542125E+02  0.20435707596E+02 -0.91024034179E+00  0.31771829363E+02  0.51100000000E-03 0.  1.
         12    1    3    3    0    0  0.58830672251E+01  0.21261996815E+01 -0.52036565428E+01  0.81369064438E+01  0.00000000000E+00 0. -1.
</event>
<event>
 7    1  0.4818508E-009  0.4778727E+02  0.7816164E-02  0.1312668E+00
        -11   -1    0    0    0    0  0.00000000000E+00  0.00000000000E+00  0.45593999997E+02  0.45594000000E+02  0.51100000000E-03 0.  1.
         11   -1    0    0    0    0 -0.00000000000E+00 -0.00000000000E+00 -0.45593999997E+02  0.45594000000E+02  0.51100000000E-03 0. -1.
    9900012    2    1    2    0    0 -0.33075167773E+01  0.10523604171E+02  0.41975441306E+02  0.47787267463E+02  0.19999983669E+02 0.  0.
         12    1    1    2    0    0  0.33075167773E+01 -0.10523604171E+02 -0.41975441306E+02  0.43400732537E+02  0.00000000000E+00 0. -1.
         11    1    3    3    0    0  0.24627071202E+01  0.15174332382E+01  0.68358815229E+01  0.74227223071E+01  0.51100000000E-03 0. -1.
        -11    1    3    3    0    0 -0.13690603285E+00  0.12268403259E+02  0.16094783389E+02  0.20237947386E+02  0.51100000000E-03 0.  1.
        -12    1    3    3    0    0 -0.56333178647E+01 -0.32622323258E+01  0.19044776393E+02  0.20126597770E+02  0.00000000000E+00 0.  1.
</event>
<event>
 7    1  0.4818508E-009  0.4778727E+02  0.7816164E-02  0.1312668E+00
        -11   -1    0    0    0    0  0.00000000000E+00  0.00000000000E+00  0.45593999997E+02  0.45594000000E+02  0.51100000000E-03 0. -1.
         11   -1    0    0    0    0 -0.00000000000E+00 -0.00000000000E+00 -0.45593999997E+02  0.45594000000E+02  0.51100000000E-03 0.  1.
    9900012    2    1    2    0    0  0.21302052914E+02 -0.27902316409E+02 -0.25520710834E+02  0.47787269582E+02  0.19999993332E+02 0.  0.
         12    1    1    2    0    0 -0.21302052914E+02  0.27902316409E+02  0.25520710834E+02  0.43400730418E+02  0.00000000000E+00 0. -1.
         11    1    3    3    0    0  0.33282465323E+01 -0.16978171732E+02 -0.68434951901E+01  0.18605616545E+02  0.51100000000E-03 0. -1.
        -11    1    3    3    0    0  0.83613793628E+01 -0.14969432203E+01 -0.10190118348E+02  0.13266198252E+02  0.51100000000E-03 0.  1.
        -12    1    3    3    0    0  0.96124270192E+01 -0.94272014566E+01 -0.84870972962E+01  0.15915454785E+02  0.00000000000E+00 0.  1.
</event>
<event>
 7    1  0.4818508E-009  0.4778727E+02  0.7816164E-02  0.1312668E+00
        -11   -1    0    0    0    0  0.00000000000E+00  0.00000000000E+00  0.45593999997E+02  0.45594000000E+02  0.51100000000E-03 0. -1.
         11   -1    0    0    0    0 -0.00000000000E+00 -0.00000000000E+00 -0.45593999997E+02  0.45594000000E+02  0.51100000000E-03 0.  1.
    9900012    2    1    2    0    0  0.33721548949E+02 -0.26589654196E+02 -0.62826017178E+01  0.47787266618E+02  0.19999979817E+02 0.  0.
         12    1    1    2    0    0 -0.33721548949E+02  0.26589654196E+02  0.62826017178E+01  0.43400733382E+02  0.00000000000E+00 0. -1.
         11    1    3    3    0    0  0.29210348298E+01 -0.10664275765E+01  0.46627880986E+01  0.56045789642E+01  0.51100000000E-03 0. -1.
        -11    1    3    3    0    0  0.19894586360E+02 -0.13185839468E+02 -0.93696827394E+01  0.25640824554E+02  0.51100000000E-03 0.  1.
         12    1    3    3    0    0  0.10905927759E+02 -0.12337387151E+02 -0.15757070770E+01  0.16541863099E+02  0.00000000000E+00 0. -1.
</event>
<event>
 7    1  0.4818508E-009  0.4778729E+02  0.7816164E-02  0.1312668E+00
        -11   -1    0    0    0    0  0.00000000000E+00  0.00000000000E+00  0.45593999997E+02  0.45594000000E+02  0.51100000000E-03 0.  1.
         11   -1    0    0    0    0 -0.00000000000E+00 -0.00000000000E+00 -0.45593999997E+02  0.45594000000E+02  0.51100000000E-03 0. -1.
    9900012    2    1    2    0    0 -0.27578450092E+02  0.20675226885E+02  0.26373965339E+02  0.47787286136E+02  0.20000068807E+02 0.  0.
         12    1    1    2    0    0  0.27578450092E+02 -0.20675226885E+02 -0.26373965339E+02  0.43400713864E+02  0.00000000000E+00 0. -1.
         11    1    3    3    0    0 -0.21106514035E+01  0.34645136667E+01  0.92007143596E+00  0.41598360547E+01  0.51100000000E-03 0. -1.
        -11    1    3    3    0    0 -0.32573258623E+01  0.11749680065E+02  0.11919020870E+02  0.17050754005E+02  0.51100000000E-03 0.  1.
        -12    1    3    3    0    0 -0.22210472826E+02  0.54610331538E+01  0.13534873033E+02  0.26576696076E+02  0.00000000000E+00 0.  1.
</event>
<event>
 7    1  0.4818508E-009  0.4778727E+02  0.7816164E-02  0.1312668E+00
        -11   -1    0    0    0    0  0.00000000000E+00  0.00000000000E+00  0.45593999997E+02  0.45594000000E+02  0.51100000000E-03 0. -1.
         11   -1    0    0    0    0 -0.00000000000E+00 -0.00000000000E+00 -0.45593999997E+02  0.45594000000E+02  0.51100000000E-03 0.  1.
    9900012    2    1    2    0    0 -0.30235095039E+02 -0.23233134954E+02 -0.20728818805E+02  0.47787268890E+02  0.19999990178E+02 0.  0.
         12    1    1    2    0    0  0.30235095039E+02  0.23233134954E+02  0.20728818805E+02  0.43400731110E+02  0.00000000000E+00 0. -1.
         11    1    3    3    0    0 -0.17205315318E+02 -0.35489547255E+01 -0.41253418055E+01  0.18045398309E+02  0.51100000000E-03 0. -1.
        -11    1    3    3    0    0 -0.86451635456E+01 -0.13481909014E+02 -0.69504479818E+01  0.17458792936E+02  0.51100000000E-03 0.  1.
         12    1    3    3    0    0 -0.43846161753E+01 -0.62022712150E+01 -0.96530290175E+01  0.12283077645E+02  0.00000000000E+00 0. -1.
</event>
<event>
 7    1  0.4818508E-009  0.4778727E+02  0.7816164E-02  0.1312668E+00
        -11   -1    0    0    0    0  0.00000000000E+00  0.00000000000E+00  0.45593999997E+02  0.45594000000E+02  0.51100000000E-03 0.  1.
         11   -1    0    0    0    0 -0.00000000000E+00 -0.00000000000E+00 -0.45593999997E+02  0.45594000000E+02  0.51100000000E-03 0. -1.
    9900012    2    1    2    0    0 -0.22822211888E+02  0.71191518994E+01  0.36222750242E+02  0.47787270578E+02  0.19999997874E+02 0.  0.
         12    1    1    2    0    0  0.22822211888E+02 -0.71191518994E+01 -0.36222750242E+02  0.43400729422E+02  0.00000000000E+00 0. -1.
         11    1    3    3    0    0 -0.11686564504E+02  0.35711915210E+01  0.52035667422E+01  0.13281803563E+02  0.51100000000E-03 0. -1.
        -11    1    3    3    0    0 -0.74000577835E+00  0.28466924271E+01  0.15735986371E+02  0.16008514412E+02  0.51100000000E-03 0.  1.
        -12    1    3    3    0    0 -0.10395641606E+02  0.70126795134E+00  0.15283197129E+02  0.18496952603E+02  0.00000000000E+00 0.  1.
</event>
<event>
 7    1  0.4818508E-009  0.4778727E+02  0.7816164E-02  0.1312668E+00
        -11   -1    0    0    0    0  0.00000000000E+00  0.00000000000E+00  0.45593999997E+02  0.45594000000E+02  0.51100000000E-03 0.  1.
         11   -1    0    0    0    0 -0.00000000000E+00 -0.00000000000E+00 -0.45593999997E+02  0.45594000000E+02  0.51100000000E-03 0. -1.
    9900012    2    1    2    0    0 -0.24571629140E+02  0.11114606389E+01  0.35757837554E+02  0.47787271320E+02  0.20000001258E+02 0.  0.
         12    1    1    2    0    0  0.24571629140E+02 -0.11114606389E+01 -0.35757837554E+02  0.43400728680E+02  0.00000000000E+00 0. -1.
         11    1    3    3    0    0 -0.42278164061E+01  0.50037576909E+01  0.66637986488E+01  0.93444226834E+01  0.51100000000E-03 0. -1.
        -11    1    3    3    0    0 -0.22198282734E+02 -0.51203055361E+01  0.25301825514E+02  0.34046492620E+02  0.51100000000E-03 0.  1.
        -12    1    3    3    0    0  0.18544700001E+01  0.12280084842E+01  0.37922133914E+01  0.43963560165E+01  0.00000000000E+00 0.  1.
</event>
<event>
 7    1  0.4818508E-009  0.4778727E+02  0.7816164E-02  0.1312668E+00
        -11   -1    0    0    0    0  0.00000000000E+00  0.00000000000E+00  0.45593999997E+02  0.45594000000E+02  0.51100000000E-03 0.  1.
         11   -1    0    0    0    0 -0.00000000000E+00 -0.00000000000E+00 -0.45593999997E+02  0.45594000000E+02  0.51100000000E-03 0. -1.
    9900012    2    1    2    0    0  0.38325472057E+02  0.11143460591E+02  0.17047135274E+02  0.47787270244E+02  0.19999996349E+02 0.  0.
         12    1    1    2    0    0 -0.38325472057E+02 -0.11143460591E+02 -0.17047135274E+02  0.43400729756E+02  0.00000000000E+00 0. -1.
         11    1    3    3    0    0  0.10769187811E+01 -0.14857815092E+01  0.57359146414E+00  0.19225785245E+01  0.51100000000E-03 0. -1.
        -11    1    3    3    0    0  0.15132922443E+02 -0.33316557917E+01  0.68653838866E+01  0.16948119900E+02  0.51100000000E-03 0.  1.
        -12    1    3    3    0    0  0.22115630833E+02  0.15960897892E+02  0.96081599231E+01  0.28916571819E+02  0.00000000000E+00 0.  1.
</event>
<event>
 7    1  0.4818508E-009  0.4778728E+02  0.7816164E-02  0.1312668E+00
        -11   -1    0    0    0    0  0.00000000000E+00  0.00000000000E+00  0.45593999997E+02  0.45594000000E+02  0.51100000000E-03 0.  1.
         11   -1    0    0    0    0 -0.00000000000E+00 -0.00000000000E+00 -0.45593999997E+02  0.45594000000E+02  0.51100000000E-03 0. -1.
    9900012    2    1    2    0    0 -0.31354895115E+02  0.13611434996E+02  0.26743640104E+02  0.47787275394E+02  0.20000019831E+02 0.  0.
         12    1    1    2    0    0  0.31354895115E+02 -0.13611434996E+02 -0.26743640104E+02  0.43400724606E+02  0.00000000000E+00 0. -1.
         11    1    3    3    0    0 -0.21868538673E+02  0.15315889045E+02  0.12571158973E+02  0.29510057254E+02  0.51100000000E-03 0. -1.
        -11    1    3    3    0    0 -0.10106489542E+02 -0.26114482330E+01  0.12678136207E+02  0.16422421584E+02  0.51100000000E-03 0.  1.
        -12    1    3    3    0    0  0.62013310054E+00  0.90699418395E+00  0.14943449238E+01  0.18547965558E+01  0.00000000000E+00 0.  1.
</event>
<event>
 7    1  0.4818508E-009  0.4778727E+02  0.7816164E-02  0.1312668E+00
        -11   -1    0    0    0    0  0.00000000000E+00  0.00000000000E+00  0.45593999997E+02  0.45594000000E+02  0.51100000000E-03 0.  1.
         11   -1    0    0    0    0 -0.00000000000E+00 -0.00000000000E+00 -0.45593999997E+02  0.45594000000E+02  0.51100000000E-03 0. -1.
    9900012    2    1    2    0    0 -0.30801327592E+02 -0.89773497739E+01  0.29228560787E+02  0.47787270098E+02  0.19999995685E+02 0.  0.
         12    1    1    2    0    0  0.30801327592E+02  0.89773497739E+01 -0.29228560787E+02  0.43400729902E+02  0.00000000000E+00 0. -1.
         11    1    3    3    0    0 -0.16551775751E+02  0.64431176438E+00  0.60822407534E+01  0.17645681370E+02  0.51100000000E-03 0. -1.
        -11    1    3    3    0    0 -0.14966141142E+02 -0.98223942648E+01  0.19712033583E+02  0.26627599930E+02  0.51100000000E-03 0.  1.
         12    1    3    3    0    0  0.71658930132E+00  0.20073272658E+00  0.34342864501E+01  0.35139887985E+01  0.00000000000E+00 0. -1.
</event>
<event>
 7    1  0.4818508E-009  0.4778729E+02  0.7816164E-02  0.1312668E+00
        -11   -1    0    0    0    0  0.00000000000E+00  0.00000000000E+00  0.45593999997E+02  0.45594000000E+02  0.51100000000E-03 0.  1.
         11   -1    0    0    0    0 -0.00000000000E+00 -0.00000000000E+00 -0.45593999997E+02  0.45594000000E+02  0.51100000000E-03 0. -1.
    9900012    2    1    2    0    0 -0.13164826393E+01  0.25550054108E+02  0.35058280908E+02  0.47787292037E+02  0.20000095714E+02 0.  0.
         12    1    1    2    0    0  0.13164826393E+01 -0.25550054108E+02 -0.35058280908E+02  0.43400707963E+02  0.00000000000E+00 0. -1.
         11    1    3    3    0    0  0.30836793881E+00 -0.27078060998E+01  0.20369971056E+01  0.34024494308E+01  0.51100000000E-03 0. -1.
        -11    1    3    3    0    0 -0.48685043247E+01  0.14332982593E+02  0.19691371891E+02  0.24837207000E+02  0.51100000000E-03 0.  1.
         12    1    3    3    0    0  0.32436537466E+01  0.13924877615E+02  0.13329911911E+02  0.19547635606E+02  0.00000000000E+00 0. -1.
</event>
<event>
 7    1  0.4818508E-009  0.4778727E+02  0.7816164E-02  0.1312668E+00
        -11   -1    0    0    0    0  0.00000000000E+00  0.00000000000E+00  0.45593999997E+02  0.45594000000E+02  0.51100000000E-03 0.  1.
         11   -1    0    0    0    0 -0.00000000000E+00 -0.00000000000E+00 -0.45593999997E+02  0.45594000000E+02  0.51100000000E-03 0. -1.
    9900012    2    1    2    0    0  0.32433861290E+02 -0.15563879965E+02  0.24278256668E+02  0.47787268848E+02  0.19999989984E+02 0.  0.
         12    1    1    2    0    0 -0.32433861290E+02  0.15563879965E+02 -0.24278256668E+02  0.43400731152E+02  0.00000000000E+00 0. -1.
         11    1    3    3    0    0  0.15544379185E+02 -0.14393775925E+02  0.19046812256E+02  0.28488411100E+02  0.51100000000E-03 0. -1.
        -11    1    3    3    0    0  0.53022056690E+01 -0.14366491621E+01  0.54058890973E+01  0.77072033167E+01  0.51100000000E-03 0.  1.
         12    1    3    3    0    0  0.11587276435E+02  0.26654512234E+00 -0.17444468547E+00  0.11591654431E+02  0.00000000000E+00 0. -1.
</event>
<event>
 7    1  0.4818508E-009  0.4778727E+02  0.7816164E-02  0.1312668E+00
        -11   -1    0    0    0    0  0.00000000000E+00  0.00000000000E+00  0.45593999997E+02  0.45594000000E+02  0.51100000000E-03 0. -1.
         11   -1    0    0    0    0 -0.00000000000E+00 -0.00000000000E+00 -0.45593999997E+02  0.45594000000E+02  0.51100000000E-03 0.  1.
    9900012    2    1    2    0    0 -0.16357863460E+02 -0.35259981405E+02 -0.19307438211E+02  0.47787272404E+02  0.20000006198E+02 0.  0.
         12    1    1    2    0    0  0.16357863460E+02  0.35259981405E+02  0.19307438211E+02  0.43400727596E+02  0.00000000000E+00 0. -1.
         11    1    3    3    0    0  0.16692225776E+01 -0.26328384739E+01  0.14603097157E+00  0.31208120336E+01  0.51100000000E-03 0. -1.
        -11    1    3    3    0    0 -0.80384451555E+01 -0.18799259433E+02 -0.24685049815E+01  0.20594229115E+02  0.51100000000E-03 0.  1.
        -12    1    3    3    0    0 -0.99886408819E+01 -0.13827883498E+02 -0.16984964201E+02  0.24072231255E+02  0.00000000000E+00 0.  1.
</event>
<event>
 7    1  0.4818508E-009  0.4778727E+02  0.7816164E-02  0.1312668E+00
        -11   -1    0    0    0    0  0.00000000000E+00  0.00000000000E+00  0.45593999997E+02  0.45594000000E+02  0.51100000000E-03 0.  1.
         11   -1    0    0    0    0 -0.00000000000E+00 -0.00000000000E+00 -0.45593999997E+02  0.45594000000E+02  0.51100000000E-03 0. -1.
    9900012    2    1    2    0    0  0.27754369094E+02  0.12539563922E+02  0.30920505388E+02  0.47787270506E+02  0.19999997547E+02 0.  0.
         12    1    1    2    0    0 -0.27754369094E+02 -0.12539563922E+02 -0.30920505388E+02  0.43400729494E+02  0.00000000000E+00 0. -1.
         11    1    3    3    0    0  0.20803892664E+02  0.31954539426E+01  0.18255967112E+02  0.27862038894E+02  0.51100000000E-03 0. -1.
        -11    1    3    3    0    0  0.64338836825E+01  0.63225817544E+00  0.69588627969E+01  0.94984409946E+01  0.51100000000E-03 0.  1.
         12    1    3    3    0    0  0.51659274695E+00  0.87118518036E+01  0.57056754787E+01  0.10426790618E+02  0.00000000000E+00 0. -1.
</event>
<event>
 7    1  0.4818508E-009  0.4778727E+02  0.7816164E-02  0.1312668E+00
        -11   -1    0    0    0    0  0.00000000000E+00  0.00000000000E+00  0.45593999997E+02  0.45594000000E+02  0.51100000000E-03 0.  1.
         11   -1    0    0    0    0 -0.00000000000E+00 -0.00000000000E+00 -0.45593999997E+02  0.45594000000E+02  0.51100000000E-03 0. -1.
    9900012    2    1    2    0    0  0.39167358142E+02  0.18675098291E+02 -0.88428187153E+00  0.47787271959E+02  0.20000004172E+02 0.  0.
         12    1    1    2    0    0 -0.39167358142E+02 -0.18675098291E+02  0.88428187153E+00  0.43400728041E+02  0.00000000000E+00 0. -1.
         11    1    3    3    0    0  0.59733835461E+01 -0.37020084709E+01  0.17120019205E+01  0.72330580355E+01  0.51100000000E-03 0. -1.
        -11    1    3    3    0    0  0.25483446664E+02  0.14403386294E+02 -0.56457537015E+00  0.29277676414E+02  0.51100000000E-03 0.  1.
         12    1    3    3    0    0  0.77105279318E+01  0.79737204683E+01 -0.20317084219E+01  0.11276537510E+02  0.00000000000E+00 0. -1.
</event>
<event>
 7    1  0.4818508E-009  0.4778727E+02  0.7816164E-02  0.1312668E+00
        -11   -1    0    0    0    0  0.00000000000E+00  0.00000000000E+00  0.45593999997E+02  0.45594000000E+02  0.51100000000E-03 0. -1.
         11   -1    0    0    0    0 -0.00000000000E+00 -0.00000000000E+00 -0.45593999997E+02  0.45594000000E+02  0.51100000000E-03 0.  1.
    9900012    2    1    2    0    0  0.12900092297E+02 -0.41405260001E+02  0.16779046529E+01  0.47787270731E+02  0.19999998573E+02 0.  0.
         12    1    1    2    0    0 -0.12900092297E+02  0.41405260001E+02 -0.16779046529E+01  0.43400729269E+02  0.00000000000E+00 0. -1.
         11    1    3    3    0    0  0.75776510360E+01 -0.80809079401E+01  0.76674283357E+01  0.13472613922E+02  0.51100000000E-03 0. -1.
        -11    1    3    3    0    0  0.38899851376E+01 -0.20275717084E+02 -0.31565304155E+01  0.20885410510E+02  0.51100000000E-03 0.  1.
         12    1    3    3    0    0  0.14324561233E+01 -0.13048634977E+02 -0.28329932673E+01  0.13429246299E+02  0.00000000000E+00 0. -1.
</event>
<event>
 7    1  0.4818508E-009  0.4778727E+02  0.7816164E-02  0.1312668E+00
        -11   -1    0    0    0    0  0.00000000000E+00  0.00000000000E+00  0.45593999997E+02  0.45594000000E+02  0.51100000000E-03 0.  1.
         11   -1    0    0    0    0 -0.00000000000E+00 -0.00000000000E+00 -0.45593999997E+02  0.45594000000E+02  0.51100000000E-03 0. -1.
    9900012    2    1    2    0    0 -0.13889560193E+00 -0.41853614508E+02 -0.11483859952E+02  0.47787269836E+02  0.19999994492E+02 0.  0.
         12    1    1    2    0    0  0.13889560193E+00  0.41853614508E+02  0.11483859952E+02  0.43400730164E+02  0.00000000000E+00 0. -1.
         11    1    3    3    0    0 -0.59562131161E+01 -0.68138772733E+01  0.24205646988E+00  0.90533965878E+01  0.51100000000E-03 0. -1.
        -11    1    3    3    0    0  0.31667963847E+00 -0.27892817368E+02 -0.90762979490E+01  0.29334088216E+02  0.51100000000E-03 0.  1.
         12    1    3    3    0    0  0.55006378757E+01 -0.71469198663E+01 -0.26496184727E+01  0.93997850329E+01  0.00000000000E+00 0. -1.
</event>
<event>
 7    1  0.4818508E-009  0.4778727E+02  0.7816164E-02  0.1312668E+00
        -11   -1    0    0    0    0  0.00000000000E+00  0.00000000000E+00  0.45593999997E+02  0.45594000000E+02  0.51100000000E-03 0. -1.
         11   -1    0    0    0    0 -0.00000000000E+00 -0.00000000000E+00 -0.45593999997E+02  0.45594000000E+02  0.51100000000E-03 0.  1.
    9900012    2    1    2    0    0  0.29674453169E+02  0.26471720723E+02 -0.17386730311E+02  0.47787267750E+02  0.19999984980E+02 0.  0.
         12    1    1    2    0    0 -0.29674453169E+02 -0.26471720723E+02  0.17386730311E+02  0.43400732250E+02  0.00000000000E+00 0. -1.
         11    1    3    3    0    0  0.20731648933E+02  0.26363834474E+02 -0.13313913051E+02  0.36084807283E+02  0.51100000000E-03 0. -1.
        -11    1    3    3    0    0  0.23359304258E+01  0.24819669671E+01 -0.31142518071E+01  0.46168490943E+01  0.51100000000E-03 0.  1.
         12    1    3    3    0    0  0.66068738100E+01 -0.23740807182E+01 -0.95856545320E+00  0.70856113728E+01  0.00000000000E+00 0. -1.
</event>
<event>
 7    1  0.4818508E-009  0.4778728E+02  0.7816164E-02  0.1312668E+00
        -11   -1    0    0    0    0  0.00000000000E+00  0.00000000000E+00  0.45593999997E+02  0.45594000000E+02  0.51100000000E-03 0.  1.
         11   -1    0    0    0    0 -0.00000000000E+00 -0.00000000000E+00 -0.45593999997E+02  0.45594000000E+02  0.51100000000E-03 0. -1.
    9900012    2    1    2    0    0 -0.35996331900E+02 -0.21482256320E+02  0.11242759514E+02  0.47787275486E+02  0.20000020251E+02 0.  0.
         12    1    1    2    0    0  0.35996331900E+02  0.21482256320E+02 -0.11242759514E+02  0.43400724514E+02  0.00000000000E+00 0. -1.
         11    1    3    3    0    0 -0.58063182142E+01  0.89571114596E+00  0.44975013705E+01  0.73988612976E+01  0.51100000000E-03 0. -1.
        -11    1    3    3    0    0 -0.28447756475E+02 -0.18678850417E+02  0.96489663797E+01  0.35373391890E+02  0.51100000000E-03 0.  1.
        -12    1    3    3    0    0 -0.17422572105E+01 -0.36991170490E+01 -0.29037082362E+01  0.50150222982E+01  0.00000000000E+00 0.  1.
</event>
<event>
 7    1  0.4818508E-009  0.4778727E+02  0.7816164E-02  0.1312668E+00
        -11   -1    0    0    0    0  0.00000000000E+00  0.00000000000E+00  0.45593999997E+02  0.45594000000E+02  0.51100000000E-03 0.  1.
         11   -1    0    0    0    0 -0.00000000000E+00 -0.00000000000E+00 -0.45593999997E+02  0.45594000000E+02  0.51100000000E-03 0. -1.
    9900012    2    1    2    0    0 -0.36413600743E+02 -0.84167046674E+01  0.22064264661E+02  0.47787274066E+02  0.20000013776E+02 0.  0.
         12    1    1    2    0    0  0.36413600743E+02  0.84167046674E+01 -0.22064264661E+02  0.43400725934E+02  0.00000000000E+00 0. -1.
         11    1    3    3    0    0  0.59768529789E+00 -0.19258466921E+00  0.24300159132E+00  0.67332503639E+00  0.51100000000E-03 0. -1.
        -11    1    3    3    0    0 -0.17548591849E+02 -0.12848515820E+02  0.11594409572E+02  0.24646861225E+02  0.51100000000E-03 0.  1.
        -12    1    3    3    0    0 -0.19462694193E+02  0.46243958220E+01  0.10226853498E+02  0.22467087805E+02  0.00000000000E+00 0.  1.
</event>
<event>
 7    1  0.4818508E-009  0.4778727E+02  0.7816164E-02  0.1312668E+00
        -11   -1    0    0    0    0  0.00000000000E+00  0.00000000000E+00  0.45593999997E+02  0.45594000000E+02  0.51100000000E-03 0. -1.
         11   -1    0    0    0    0 -0.00000000000E+00 -0.00000000000E+00 -0.45593999997E+02  0.45594000000E+02  0.51100000000E-03 0.  1.
    9900012    2    1    2    0    0  0.33489071428E+02 -0.91778454586E+01 -0.26035983081E+02  0.47787272271E+02  0.20000005594E+02 0.  0.
         12    1    1    2    0    0 -0.33489071428E+02  0.91778454586E+01  0.26035983081E+02  0.43400727729E+02  0.00000000000E+00 0. -1.
         11    1    3    3    0    0  0.10785499343E+02  0.43154695657E+00 -0.94389474659E+01  0.14339001304E+02  0.51100000000E-03 0. -1.
        -11    1    3    3    0    0  0.72568781548E+01 -0.10502774599E+01  0.22016045799E+01  0.76558752788E+01  0.51100000000E-03 0.  1.
        -12    1    3    3    0    0  0.15446693930E+02 -0.85591149553E+01 -0.18798640195E+02  0.25792395689E+02  0.00000000000E+00 0.  1.
</event>
<event>
 7    1  0.4818508E-009  0.4778727E+02  0.7816164E-02  0.1312668E+00
        -11   -1    0    0    0    0  0.00000000000E+00  0.00000000000E+00  0.45593999997E+02  0.45594000000E+02  0.51100000000E-03 0.  1.
         11   -1    0    0    0    0 -0.00000000000E+00 -0.00000000000E+00 -0.45593999997E+02  0.45594000000E+02  0.51100000000E-03 0. -1.
    9900012    2    1    2    0    0 -0.19238267106E+02  0.16000062348E+02  0.35461396002E+02  0.47787268177E+02  0.19999986925E+02 0.  0.
         12    1    1    2    0    0  0.19238267106E+02 -0.16000062348E+02 -0.35461396002E+02  0.43400731823E+02  0.00000000000E+00 0. -1.
         11    1    3    3    0    0 -0.18203523561E+01  0.13015946633E+02  0.16756880633E+02  0.21296046541E+02  0.51100000000E-03 0. -1.
        -11    1    3    3    0    0 -0.15976024763E+02  0.43256194976E+01  0.17855044490E+02  0.24346395323E+02  0.51100000000E-03 0.  1.
        -12    1    3    3    0    0 -0.14418899876E+01 -0.13415037828E+01  0.84947087944E+00  0.21448263125E+01  0.00000000000E+00 0.  1.
</event>
<event>
 7    1  0.4818508E-009  0.4778726E+02  0.7816164E-02  0.1312668E+00
        -11   -1    0    0    0    0  0.00000000000E+00  0.00000000000E+00  0.45593999997E+02  0.45594000000E+02  0.51100000000E-03 0. -1.
         11   -1    0    0    0    0 -0.00000000000E+00 -0.00000000000E+00 -0.45593999997E+02  0.45594000000E+02  0.51100000000E-03 0.  1.
    9900012    2    1    2    0    0 -0.35532896280E+02 -0.21249605446E+02 -0.13018890875E+02  0.47787263034E+02  0.19999963476E+02 0.  0.
         12    1    1    2    0    0  0.35532896280E+02  0.21249605446E+02  0.13018890875E+02  0.43400736966E+02  0.00000000000E+00 0. -1.
         11    1    3    3    0    0 -0.22633907525E+02 -0.15833675820E+02 -0.13683586082E+02  0.30825956403E+02  0.51100000000E-03 0. -1.
        -11    1    3    3    0    0 -0.11842483930E+02 -0.69654409529E+01 -0.18083696352E+01  0.13857560907E+02  0.51100000000E-03 0.  1.
         12    1    3    3    0    0 -0.10565048247E+01  0.15495113277E+01  0.24730648428E+01  0.31037457234E+01  0.00000000000E+00 0. -1.
</event>
<event>
 7    1  0.4818508E-009  0.4778727E+02  0.7816164E-02  0.1312668E+00
        -11   -1    0    0    0    0  0.00000000000E+00  0.00000000000E+00  0.45593999997E+02  0.45594000000E+02  0.51100000000E-03 0. -1.
         11   -1    0    0    0    0 -0.00000000000E+00 -0.00000000000E+00 -0.45593999997E+02  0.45594000000E+02  0.51100000000E-03 0.  1.
    9900012    2    1    2    0    0 -0.31427577717E+02  0.14793148295E+02 -0.26021017885E+02  0.47787271327E+02  0.20000001286E+02 0.  0.
         12    1    1    2    0    0  0.31427577717E+02 -0.14793148295E+02  0.26021017885E+02  0.43400728673E+02  0.00000000000E+00 0. -1.
         11    1    3    3    0    0 -0.14876143783E+02  0.19244537883E+01 -0.63921374183E+01  0.16305293535E+02  0.51100000000E-03 0. -1.
        -11    1    3    3    0    0 -0.16419847166E+02  0.14738235450E+02 -0.19738441915E+02  0.29604612050E+02  0.51100000000E-03 0.  1.
        -12    1    3    3    0    0 -0.13158676758E+00 -0.18695409432E+01  0.10956144849E+00  0.18773657413E+01  0.00000000000E+00 0.  1.
</event>
<event>
 7    1  0.4818508E-009  0.4778727E+02  0.7816164E-02  0.1312668E+00
        -11   -1    0    0    0    0  0.00000000000E+00  0.00000000000E+00  0.45593999997E+02  0.45594000000E+02  0.51100000000E-03 0. -1.
         11   -1    0    0    0    0 -0.00000000000E+00 -0.00000000000E+00 -0.45593999997E+02  0.45594000000E+02  0.51100000000E-03 0.  1.
    9900012    2    1    2    0    0  0.22570406065E+02  0.34763119881E+02  0.12873438330E+02  0.47787272492E+02  0.20000006600E+02 0.  0.
         12    1    1    2    0    0 -0.22570406065E+02 -0.34763119881E+02 -0.12873438330E+02  0.43400727508E+02  0.00000000000E+00 0. -1.
         11    1    3    3    0    0  0.89949557229E+01  0.17104812716E+02  0.11463463809E+02  0.22469865359E+02  0.51100000000E-03 0.  1.
        -11    1    3    3    0    0  0.21426452570E+01 -0.15441112586E+01 -0.10333940781E+01  0.28360380565E+01  0.51100000000E-03 0. -1.
        -12    1    3    3    0    0  0.11432805085E+02  0.19202418424E+02  0.24433685996E+01  0.22481369076E+02  0.00000000000E+00 0.  1.
</event>
<event>
 7    1  0.4818508E-009  0.4778728E+02  0.7816164E-02  0.1312668E+00
        -11   -1    0    0    0    0  0.00000000000E+00  0.00000000000E+00  0.45593999997E+02  0.45594000000E+02  0.51100000000E-03 0.  1.
         11   -1    0    0    0    0 -0.00000000000E+00 -0.00000000000E+00 -0.45593999997E+02  0.45594000000E+02  0.51100000000E-03 0. -1.
    9900012    2    1    2    0    0  0.22395193219E+02  0.26658734090E+02  0.25911196556E+02  0.47787275472E+02  0.20000020189E+02 0.  0.
         12    1    1    2    0    0 -0.22395193219E+02 -0.26658734090E+02 -0.25911196556E+02  0.43400724528E+02  0.00000000000E+00 0. -1.
         11    1    3    3    0    0  0.96188453073E+00  0.13929637588E+02  0.97762346545E+01  0.17045081093E+02  0.51100000000E-03 0. -1.
        -11    1    3    3    0    0  0.10971764088E+02  0.11006579640E+02  0.10237464845E+02  0.18609945977E+02  0.51100000000E-03 0.  1.
         12    1    3    3    0    0  0.10461544600E+02  0.17225168619E+01  0.58974970566E+01  0.12132248402E+02  0.00000000000E+00 0. -1.
</event>
<event>
 7    1  0.4818508E-009  0.4778727E+02  0.7816164E-02  0.1312668E+00
        -11   -1    0    0    0    0  0.00000000000E+00  0.00000000000E+00  0.45593999997E+02  0.45594000000E+02  0.51100000000E-03 0.  1.
         11   -1    0    0    0    0 -0.00000000000E+00 -0.00000000000E+00 -0.45593999997E+02  0.45594000000E+02  0.51100000000E-03 0. -1.
    9900012    2    1    2    0    0 -0.22587579258E+02  0.31369081760E+02  0.19733354171E+02  0.47787270812E+02  0.19999998940E+02 0.  0.
         12    1    1    2    0    0  0.22587579258E+02 -0.31369081760E+02 -0.19733354171E+02  0.43400729188E+02  0.00000000000E+00 0. -1.
         11    1    3    3    0    0 -0.12890843893E+01  0.94051298473E+01 -0.85459937957E+00  0.95314503811E+01  0.51100000000E-03 0. -1.
        -11    1    3    3    0    0 -0.18718859143E+02  0.20995938668E+02  0.14661998047E+02  0.31720644936E+02  0.51100000000E-03 0.  1.
         12    1    3    3    0    0 -0.25796357256E+01  0.96801324501E+00  0.59259555036E+01  0.65351754949E+01  0.00000000000E+00 0. -1.
</event>
<event>
 7    1  0.4818508E-009  0.4778731E+02  0.7816164E-02  0.1312668E+00
        -11   -1    0    0    0    0  0.00000000000E+00  0.00000000000E+00  0.45593999997E+02  0.45594000000E+02  0.51100000000E-03 0.  1.
         11   -1    0    0    0    0 -0.00000000000E+00 -0.00000000000E+00 -0.45593999997E+02  0.45594000000E+02  0.51100000000E-03 0. -1.
    9900012    2    1    2    0    0 -0.24127926962E+02  0.22515711294E+02  0.28186980709E+02  0.47787308807E+02  0.20000172173E+02 0.  0.
         12    1    1    2    0    0  0.24127926962E+02 -0.22515711294E+02 -0.28186980709E+02  0.43400691193E+02  0.00000000000E+00 0. -1.
         11    1    3    3    0    0  0.40287303576E+00  0.81602082649E+01  0.13164236038E+02  0.15493495937E+02  0.51100000000E-03 0. -1.
        -11    1    3    3    0    0 -0.17094391620E+02  0.10171661038E+02  0.89012174593E+01  0.21792489202E+02  0.51100000000E-03 0.  1.
         12    1    3    3    0    0 -0.74364083779E+01  0.41838419914E+01  0.61215272115E+01  0.10501323668E+02  0.00000000000E+00 0. -1.
</event>
<event>
 7    1  0.4818508E-009  0.4778727E+02  0.7816164E-02  0.1312668E+00
        -11   -1    0    0    0    0  0.00000000000E+00  0.00000000000E+00  0.45593999997E+02  0.45594000000E+02  0.51100000000E-03 0.  1.
         11   -1    0    0    0    0 -0.00000000000E+00 -0.00000000000E+00 -0.45593999997E+02  0.45594000000E+02  0.51100000000E-03 0. -1.
    9900012    2    1    2    0    0 -0.32822971481E+02  0.36967854740E+00  0.28392595954E+02  0.47787267010E+02  0.19999981604E+02 0.  0.
         12    1    1    2    0    0  0.32822971481E+02 -0.36967854740E+00 -0.28392595954E+02  0.43400732990E+02  0.00000000000E+00 0. -1.
         11    1    3    3    0    0 -0.37032797995E+01  0.61009153754E+01  0.77841154701E+01  0.10560677232E+02  0.51100000000E-03 0. -1.
        -11    1    3    3    0    0 -0.20272011670E+02 -0.11165567148E+01  0.98948426016E+01  0.22585594223E+02  0.51100000000E-03 0.  1.
         12    1    3    3    0    0 -0.88476800118E+01 -0.46146801132E+01  0.10713637883E+02  0.14640995554E+02  0.00000000000E+00 0. -1.
</event>
<event>
 7    1  0.4818508E-009  0.4778727E+02  0.7816164E-02  0.1312668E+00
        -11   -1    0    0    0    0  0.00000000000E+00  0.00000000000E+00  0.45593999997E+02  0.45594000000E+02  0.51100000000E-03 0. -1.
         11   -1    0    0    0    0 -0.00000000000E+00 -0.00000000000E+00 -0.45593999997E+02  0.45594000000E+02  0.51100000000E-03 0.  1.
    9900012    2    1    2    0    0 -0.20481097480E+02  0.25306851478E+02 -0.28700367040E+02  0.47787272426E+02  0.20000006300E+02 0.  0.
         12    1    1    2    0    0  0.20481097480E+02 -0.25306851478E+02  0.28700367040E+02  0.43400727574E+02  0.00000000000E+00 0. -1.
         11    1    3    3    0    0 -0.69144082653E+01  0.45232725530E+01 -0.38510157540E+00  0.82714774818E+01  0.51100000000E-03 0. -1.
        -11    1    3    3    0    0 -0.34457849183E+01  0.10595135560E+02 -0.20072897627E+02  0.22957603330E+02  0.51100000000E-03 0.  1.
        -12    1    3    3    0    0 -0.10120904296E+02  0.10188443365E+02 -0.82423678377E+01  0.16558191615E+02  0.00000000000E+00 0.  1.
</event>
<event>
 7    1  0.4818508E-009  0.4778727E+02  0.7816164E-02  0.1312668E+00
        -11   -1    0    0    0    0  0.00000000000E+00  0.00000000000E+00  0.45593999997E+02  0.45594000000E+02  0.51100000000E-03 0.  1.
         11   -1    0    0    0    0 -0.00000000000E+00 -0.00000000000E+00 -0.45593999997E+02  0.45594000000E+02  0.51100000000E-03 0. -1.
    9900012    2    1    2    0    0 -0.12879477999E+02  0.37385433495E+01  0.41276694063E+02  0.47787272671E+02  0.20000007418E+02 0.  0.
         12    1    1    2    0    0  0.12879477999E+02 -0.37385433495E+01 -0.41276694063E+02  0.43400727329E+02  0.00000000000E+00 0. -1.
         11    1    3    3    0    0 -0.38080190782E+01 -0.23249969789E+01  0.56329805559E+01  0.71858952439E+01  0.51100000000E-03 0. -1.
        -11    1    3    3    0    0 -0.13498416094E+00  0.10740789688E+01 -0.16251350577E+01  0.19526726740E+01  0.51100000000E-03 0.  1.
        -12    1    3    3    0    0 -0.89364747602E+01  0.49894613597E+01  0.37268848564E+02  0.38648704753E+02  0.00000000000E+00 0.  1.
</event>
<event>
 7    1  0.4818508E-009  0.4778727E+02  0.7816164E-02  0.1312668E+00
        -11   -1    0    0    0    0  0.00000000000E+00  0.00000000000E+00  0.45593999997E+02  0.45594000000E+02  0.51100000000E-03 0.  1.
         11   -1    0    0    0    0 -0.00000000000E+00 -0.00000000000E+00 -0.45593999997E+02  0.45594000000E+02  0.51100000000E-03 0. -1.
    9900012    2    1    2    0    0 -0.30131332544E+02 -0.30463269339E+02  0.69076290513E+01  0.47787270527E+02  0.19999997642E+02 0.  0.
         12    1    1    2    0    0  0.30131332544E+02  0.30463269339E+02 -0.69076290513E+01  0.43400729473E+02  0.00000000000E+00 0. -1.
         11    1    3    3    0    0 -0.14027178911E+02 -0.11728074162E+02  0.11195039811E+02  0.21439178818E+02  0.51100000000E-03 0. -1.
        -11    1    3    3    0    0 -0.11242169042E+02 -0.10695925016E+02  0.10318341381E+01  0.15551651316E+02  0.51100000000E-03 0.  1.
         12    1    3    3    0    0 -0.48619845910E+01 -0.80392701606E+01 -0.53192448979E+01  0.10796440393E+02  0.00000000000E+00 0. -1.
</event>
<event>
 7    1  0.4818508E-009  0.4778727E+02  0.7816164E-02  0.1312668E+00
        -11   -1    0    0    0    0  0.00000000000E+00  0.00000000000E+00  0.45593999997E+02  0.45594000000E+02  0.51100000000E-03 0.  1.
         11   -1    0    0    0    0 -0.00000000000E+00 -0.00000000000E+00 -0.45593999997E+02  0.45594000000E+02  0.51100000000E-03 0. -1.
    9900012    2    1    2    0    0 -0.16677061441E+02 -0.36013719958E+02 -0.17564476071E+02  0.47787271629E+02  0.20000002663E+02 0.  0.
         12    1    1    2    0    0  0.16677061441E+02  0.36013719958E+02  0.17564476071E+02  0.43400728371E+02  0.00000000000E+00 0. -1.
         11    1    3    3    0    0 -0.90349395230E+01 -0.19865073479E+02 -0.17889357423E+02  0.28218440527E+02  0.51100000000E-03 0. -1.
        -11    1    3    3    0    0 -0.59954701393E+01 -0.10924927368E+02 -0.34334455486E+01  0.12926261980E+02  0.51100000000E-03 0.  1.
         12    1    3    3    0    0 -0.16466517789E+01 -0.52237191111E+01  0.37583269011E+01  0.66425691210E+01  0.00000000000E+00 0. -1.
</event>
<event>
 7    1  0.4818508E-009  0.4778728E+02  0.7816164E-02  0.1312668E+00
        -11   -1    0    0    0    0  0.00000000000E+00  0.00000000000E+00  0.45593999997E+02  0.45594000000E+02  0.51100000000E-03 0.  1.
         11   -1    0    0    0    0 -0.00000000000E+00 -0.00000000000E+00 -0.45593999997E+02  0.45594000000E+02  0.51100000000E-03 0. -1.
    9900012    2    1    2    0    0  0.13121801994E+02 -0.36823873022E+01  0.41205354364E+02  0.47787275443E+02  0.20000020055E+02 0.  0.
         12    1    1    2    0    0 -0.13121801994E+02  0.36823873022E+01 -0.41205354364E+02  0.43400724557E+02  0.00000000000E+00 0. -1.
         11    1    3    3    0    0 -0.30024955340E+01  0.28704475973E+01  0.16625744009E+01  0.44742153212E+01  0.51100000000E-03 0. -1.
        -11    1    3    3    0    0  0.10535370850E+02 -0.45524764913E+01  0.22353102674E+02  0.25127281599E+02  0.51100000000E-03 0.  1.
         12    1    3    3    0    0  0.55889266781E+01 -0.20003584082E+01  0.17189677289E+02  0.18185778523E+02  0.00000000000E+00 0. -1.
</event>
<event>
 7    1  0.4818508E-009  0.4778728E+02  0.7816164E-02  0.1312668E+00
        -11   -1    0    0    0    0  0.00000000000E+00  0.00000000000E+00  0.45593999997E+02  0.45594000000E+02  0.51100000000E-03 0. -1.
         11   -1    0    0    0    0 -0.00000000000E+00 -0.00000000000E+00 -0.45593999997E+02  0.45594000000E+02  0.51100000000E-03 0.  1.
    9900012    2    1    2    0    0 -0.29590802784E+02  0.86383174554E+01 -0.30551377019E+02  0.47787276785E+02  0.20000026171E+02 0.  0.
         12    1    1    2    0    0  0.29590802784E+02 -0.86383174554E+01  0.30551377019E+02  0.43400723215E+02  0.00000000000E+00 0. -1.
         11    1    3    3    0    0 -0.15454629949E+02 -0.51273931688E+01 -0.16020378294E+02  0.22842685230E+02  0.51100000000E-03 0. -1.
        -11    1    3    3    0    0 -0.17636342919E+01  0.77536339766E+00 -0.31720179130E+01  0.37112386363E+01  0.51100000000E-03 0.  1.
         12    1    3    3    0    0 -0.12372538543E+02  0.12990347227E+02 -0.11358980812E+02  0.21233352919E+02  0.00000000000E+00 0. -1.
</event>
<event>
 7    1  0.4818508E-009  0.4778727E+02  0.7816164E-02  0.1312668E+00
        -11   -1    0    0    0    0  0.00000000000E+00  0.00000000000E+00  0.45593999997E+02  0.45594000000E+02  0.51100000000E-03 0.  1.
         11   -1    0    0    0    0 -0.00000000000E+00 -0.00000000000E+00 -0.45593999997E+02  0.45594000000E+02  0.51100000000E-03 0. -1.
    9900012    2    1    2    0    0  0.13678670273E+02 -0.26428021125E+01  0.41103930201E+02  0.47787268423E+02  0.19999988048E+02 0.  0.
         12    1    1    2    0    0 -0.13678670273E+02  0.26428021125E+01 -0.41103930201E+02  0.43400731577E+02  0.00000000000E+00 0. -1.
         11    1    3    3    0    0  0.15952023690E+01 -0.75069940338E+01  0.12893148939E+02  0.15004430007E+02  0.51100000000E-03 0. -1.
        -11    1    3    3    0    0  0.10245900608E+02  0.21451043524E+01  0.27499970097E+02  0.29424960621E+02  0.51100000000E-03 0.  1.
         12    1    3    3    0    0  0.18375672963E+01  0.27190875688E+01  0.71081116577E+00  0.33578777954E+01  0.00000000000E+00 0. -1.
</event>
<event>
 7    1  0.4818508E-009  0.4778728E+02  0.7816164E-02  0.1312668E+00
        -11   -1    0    0    0    0  0.00000000000E+00  0.00000000000E+00  0.45593999997E+02  0.45594000000E+02  0.51100000000E-03 0.  1.
         11   -1    0    0    0    0 -0.00000000000E+00 -0.00000000000E+00 -0.45593999997E+02  0.45594000000E+02  0.51100000000E-03 0. -1.
    9900012    2    1    2    0    0  0.20077601729E+02 -0.21121555315E+02  0.32161963861E+02  0.47787284459E+02  0.20000061160E+02 0.  0.
         12    1    1    2    0    0 -0.20077601729E+02  0.21121555315E+02 -0.32161963861E+02  0.43400715541E+02  0.00000000000E+00 0. -1.
         11    1    3    3    0    0 -0.26844730745E+01  0.13059326894E+01  0.43594172325E+01  0.52835948695E+01  0.51100000000E-03 0. -1.
        -11    1    3    3    0    0  0.18820783474E+02 -0.19761135146E+02  0.22410832472E+02  0.35312459064E+02  0.51100000000E-03 0.  1.
        -12    1    3    3    0    0  0.39412913299E+01 -0.26663528582E+01  0.53917141566E+01  0.71912305246E+01  0.00000000000E+00 0.  1.
</event>
<event>
 7    1  0.4818508E-009  0.4778727E+02  0.7816164E-02  0.1312668E+00
        -11   -1    0    0    0    0  0.00000000000E+00  0.00000000000E+00  0.45593999997E+02  0.45594000000E+02  0.51100000000E-03 0.  1.
         11   -1    0    0    0    0 -0.00000000000E+00 -0.00000000000E+00 -0.45593999997E+02  0.45594000000E+02  0.51100000000E-03 0. -1.
    9900012    2    1    2    0    0  0.24415523089E+02  0.85999705343E+01  0.34835986566E+02  0.47787271654E+02  0.20000002781E+02 0.  0.
         12    1    1    2    0    0 -0.24415523089E+02 -0.85999705343E+01 -0.34835986566E+02  0.43400728346E+02  0.00000000000E+00 0. -1.
         11    1    3    3    0    0  0.59818577765E+01 -0.12452392580E+01  0.17462360956E+02  0.18500467391E+02  0.51100000000E-03 0. -1.
        -11    1    3    3    0    0  0.17014327206E+02  0.67530986838E+01  0.93146894109E+01  0.20539111743E+02  0.51100000000E-03 0.  1.
        -12    1    3    3    0    0  0.14193381062E+01  0.30921111085E+01  0.80589361989E+01  0.87476925200E+01  0.00000000000E+00 0.  1.
</event>
<event>
 7    1  0.4818508E-009  0.4778728E+02  0.7816164E-02  0.1312668E+00
        -11   -1    0    0    0    0  0.00000000000E+00  0.00000000000E+00  0.45593999997E+02  0.45594000000E+02  0.51100000000E-03 0.  1.
         11   -1    0    0    0    0 -0.00000000000E+00 -0.00000000000E+00 -0.45593999997E+02  0.45594000000E+02  0.51100000000E-03 0. -1.
    9900012    2    1    2    0    0 -0.41558065155E+02 -0.11381716029E+02  0.51967422326E+01  0.47787281468E+02  0.20000047526E+02 0.  0.
         12    1    1    2    0    0  0.41558065155E+02  0.11381716029E+02 -0.51967422326E+01  0.43400718532E+02  0.00000000000E+00 0. -1.
         11    1    3    3    0    0 -0.36286069221E+02 -0.13518015896E+02  0.80777476524E+01  0.39555853937E+02  0.51100000000E-03 0. -1.
        -11    1    3    3    0    0 -0.15163557877E+00 -0.58935302452E+00  0.10574828324E+01  0.12200821850E+01  0.51100000000E-03 0.  1.
         12    1    3    3    0    0 -0.51203603557E+01  0.27256528910E+01 -0.39384882522E+01  0.70113453464E+01  0.00000000000E+00 0. -1.
</event>
<event>
 7    1  0.4818508E-009  0.4778727E+02  0.7816164E-02  0.1312668E+00
        -11   -1    0    0    0    0  0.00000000000E+00  0.00000000000E+00  0.45593999997E+02  0.45594000000E+02  0.51100000000E-03 0.  1.
         11   -1    0    0    0    0 -0.00000000000E+00 -0.00000000000E+00 -0.45593999997E+02  0.45594000000E+02  0.51100000000E-03 0. -1.
    9900012    2    1    2    0    0  0.22897267354E+01 -0.42065437090E+02 -0.10434526740E+02  0.47787271960E+02  0.20000004174E+02 0.  0.
         12    1    1    2    0    0 -0.22897267354E+01  0.42065437090E+02  0.10434526740E+02  0.43400728040E+02  0.00000000000E+00 0. -1.
         11    1    3    3    0    0 -0.53554906663E+01 -0.45455388295E+01 -0.11970679563E+01  0.71257403462E+01  0.51100000000E-03 0. -1.
        -11    1    3    3    0    0  0.66853122770E+01 -0.25788164692E+02 -0.17225414019E+01  0.26696254186E+02  0.51100000000E-03 0.  1.
        -12    1    3    3    0    0  0.95990512466E+00 -0.11731733569E+02 -0.75149173822E+01  0.13965277428E+02  0.00000000000E+00 0.  1.
</event>
<event>
 7    1  0.4818508E-009  0.4778727E+02  0.7816164E-02  0.1312668E+00
        -11   -1    0    0    0    0  0.00000000000E+00  0.00000000000E+00  0.45593999997E+02  0.45594000000E+02  0.51100000000E-03 0.  1.
         11   -1    0    0    0    0 -0.00000000000E+00 -0.00000000000E+00 -0.45593999997E+02  0.45594000000E+02  0.51100000000E-03 0. -1.
    9900012    2    1    2    0    0 -0.31078433836E+02  0.36661763472E+01  0.30071801946E+02  0.47787272230E+02  0.20000005405E+02 0.  0.
         12    1    1    2    0    0  0.31078433836E+02 -0.36661763472E+01 -0.30071801946E+02  0.43400727770E+02  0.00000000000E+00 0. -1.
         11    1    3    3    0    0 -0.84880940729E+01  0.67159451612E+01  0.33853601848E+01  0.11340737376E+02  0.51100000000E-03 0. -1.
        -11    1    3    3    0    0 -0.83542656774E+01  0.35084686244E+01  0.83241867126E+01  0.12304275346E+02  0.51100000000E-03 0.  1.
         12    1    3    3    0    0 -0.14236074086E+02 -0.65582374384E+01  0.18362255048E+02  0.24142259508E+02  0.00000000000E+00 0. -1.
</event>
<event>
 7    1  0.4818508E-009  0.4778727E+02  0.7816164E-02  0.1312668E+00
        -11   -1    0    0    0    0  0.00000000000E+00  0.00000000000E+00  0.45593999997E+02  0.45594000000E+02  0.51100000000E-03 0. -1.
         11   -1    0    0    0    0 -0.00000000000E+00 -0.00000000000E+00 -0.45593999997E+02  0.45594000000E+02  0.51100000000E-03 0.  1.
    9900012    2    1    2    0    0  0.66806001729E+01  0.42743871470E+02 -0.34574898027E+01  0.47787271865E+02  0.20000003741E+02 0.  0.
         12    1    1    2    0    0 -0.66806001729E+01 -0.42743871470E+02  0.34574898027E+01  0.43400728135E+02  0.00000000000E+00 0. -1.
         11    1    3    3    0    0  0.73797999331E+00  0.49518250542E+00  0.38655555968E+01  0.39664014569E+01  0.51100000000E-03 0. -1.
        -11    1    3    3    0    0  0.54354520758E+01  0.38652036786E+02 -0.46442777375E+01  0.39307676132E+02  0.51100000000E-03 0.  1.
         12    1    3    3    0    0  0.50716810386E+00  0.35966521789E+01 -0.26787676621E+01  0.45131942756E+01  0.00000000000E+00 0. -1.
</event>
<event>
 7    1  0.4818508E-009  0.4778727E+02  0.7816164E-02  0.1312668E+00
        -11   -1    0    0    0    0  0.00000000000E+00  0.00000000000E+00  0.45593999997E+02  0.45594000000E+02  0.51100000000E-03 0. -1.
         11   -1    0    0    0    0 -0.00000000000E+00 -0.00000000000E+00 -0.45593999997E+02  0.45594000000E+02  0.51100000000E-03 0.  1.
    9900012    2    1    2    0    0 -0.11771302181E+02 -0.28613441252E+02 -0.30435683080E+02  0.47787269824E+02  0.19999994434E+02 0.  0.
         12    1    1    2    0    0  0.11771302181E+02  0.28613441252E+02  0.30435683080E+02  0.43400730176E+02  0.00000000000E+00 0. -1.
         11    1    3    3    0    0 -0.99133343241E+01 -0.52382756855E+01 -0.91539556083E+01  0.14474413049E+02  0.51100000000E-03 0. -1.
        -11    1    3    3    0    0  0.37958032230E+01 -0.15155645388E+02 -0.13752697536E+02  0.20814379621E+02  0.51100000000E-03 0.  1.
        -12    1    3    3    0    0 -0.56537710799E+01 -0.82195201780E+01 -0.75290299353E+01  0.12498477153E+02  0.00000000000E+00 0.  1.
</event>
<event>
 7    1  0.4818508E-009  0.4778727E+02  0.7816164E-02  0.1312668E+00
        -11   -1    0    0    0    0  0.00000000000E+00  0.00000000000E+00  0.45593999997E+02  0.45594000000E+02  0.51100000000E-03 0. -1.
         11   -1    0    0    0    0 -0.00000000000E+00 -0.00000000000E+00 -0.45593999997E+02  0.45594000000E+02  0.51100000000E-03 0.  1.
    9900012    2    1    2    0    0 -0.36952070484E+02 -0.67252999713E+01 -0.21747142033E+02  0.47787270059E+02  0.19999995509E+02 0.  0.
         12    1    1    2    0    0  0.36952070484E+02  0.67252999713E+01  0.21747142033E+02  0.43400729941E+02  0.00000000000E+00 0. -1.
         11    1    3    3    0    0 -0.69173258227E+01  0.54854169648E+01 -0.72812940073E+01  0.11443619991E+02  0.51100000000E-03 0. -1.
        -11    1    3    3    0    0 -0.20252041214E+02 -0.54957009364E+01 -0.61946263691E+01  0.21879700597E+02  0.51100000000E-03 0.  1.
        -12    1    3    3    0    0 -0.97827034481E+01 -0.67150159998E+01 -0.82712216562E+01  0.14463949472E+02  0.00000000000E+00 0.  1.
</event>
<event>
 7    1  0.4818508E-009  0.4778727E+02  0.7816164E-02  0.1312668E+00
        -11   -1    0    0    0    0  0.00000000000E+00  0.00000000000E+00  0.45593999997E+02  0.45594000000E+02  0.51100000000E-03 0. -1.
         11   -1    0    0    0    0 -0.00000000000E+00 -0.00000000000E+00 -0.45593999997E+02  0.45594000000E+02  0.51100000000E-03 0.  1.
    9900012    2    1    2    0    0  0.28682825193E+02 -0.28812563861E+02  0.15190616059E+02  0.47787272892E+02  0.20000008423E+02 0.  0.
         12    1    1    2    0    0 -0.28682825193E+02  0.28812563861E+02 -0.15190616059E+02  0.43400727108E+02  0.00000000000E+00 0. -1.
         11    1    3    3    0    0  0.98698159551E+01 -0.12405647683E+02  0.11708178399E+02  0.19707734601E+02  0.51100000000E-03 0. -1.
        -11    1    3    3    0    0  0.98584075358E+01 -0.13962097106E+02 -0.21430505487E+01  0.17225592026E+02  0.51100000000E-03 0.  1.
        -12    1    3    3    0    0  0.89546017017E+01 -0.24448190718E+01  0.56254882088E+01  0.10853946265E+02  0.00000000000E+00 0.  1.
</event>
<event>
 7    1  0.4818508E-009  0.4778727E+02  0.7816164E-02  0.1312668E+00
        -11   -1    0    0    0    0  0.00000000000E+00  0.00000000000E+00  0.45593999997E+02  0.45594000000E+02  0.51100000000E-03 0.  1.
         11   -1    0    0    0    0 -0.00000000000E+00 -0.00000000000E+00 -0.45593999997E+02  0.45594000000E+02  0.51100000000E-03 0. -1.
    9900012    2    1    2    0    0  0.13214518109E+01  0.18476452086E+02  0.39249176871E+02  0.47787269573E+02  0.19999993291E+02 0.  0.
         12    1    1    2    0    0 -0.13214518109E+01 -0.18476452086E+02 -0.39249176871E+02  0.43400730427E+02  0.00000000000E+00 0. -1.
         11    1    3    3    0    0  0.25580588385E+01  0.30639079289E+00  0.51841538068E+01  0.57890406194E+01  0.51100000000E-03 0. -1.
        -11    1    3    3    0    0  0.26851727474E+00  0.47064744237E+01 -0.62624539358E+00  0.47555427221E+01  0.51100000000E-03 0.  1.
        -12    1    3    3    0    0 -0.15051243024E+01  0.13463586869E+02  0.34691268458E+02  0.37242686232E+02  0.00000000000E+00 0.  1.
</event>
<event>
 7    1  0.4818508E-009  0.4778727E+02  0.7816164E-02  0.1312668E+00
        -11   -1    0    0    0    0  0.00000000000E+00  0.00000000000E+00  0.45593999997E+02  0.45594000000E+02  0.51100000000E-03 0.  1.
         11   -1    0    0    0    0 -0.00000000000E+00 -0.00000000000E+00 -0.45593999997E+02  0.45594000000E+02  0.51100000000E-03 0. -1.
    9900012    2    1    2    0    0 -0.18391969146E+02  0.34862132534E+02  0.18165645814E+02  0.47787268419E+02  0.19999988030E+02 0.  0.
         12    1    1    2    0    0  0.18391969146E+02 -0.34862132534E+02 -0.18165645814E+02  0.43400731581E+02  0.00000000000E+00 0. -1.
         11    1    3    3    0    0 -0.15104648715E+02  0.12580537398E+02  0.95468170267E+01  0.21853193122E+02  0.51100000000E-03 0.  1.
        -11    1    3    3    0    0 -0.50221267658E+01  0.22129836690E+02  0.76880115017E+01  0.23959485602E+02  0.51100000000E-03 0. -1.
        -12    1    3    3    0    0  0.17348063347E+01  0.15175844620E+00  0.93081728604E+00  0.19745896953E+01  0.00000000000E+00 0.  1.
</event>
<event>
 7    1  0.4818508E-009  0.4778727E+02  0.7816164E-02  0.1312668E+00
        -11   -1    0    0    0    0  0.00000000000E+00  0.00000000000E+00  0.45593999997E+02  0.45594000000E+02  0.51100000000E-03 0.  1.
         11   -1    0    0    0    0 -0.00000000000E+00 -0.00000000000E+00 -0.45593999997E+02  0.45594000000E+02  0.51100000000E-03 0. -1.
    9900012    2    1    2    0    0 -0.34306721124E+02 -0.17744460035E+02  0.19794110096E+02  0.47787265321E+02  0.19999973903E+02 0.  0.
         12    1    1    2    0    0  0.34306721124E+02  0.17744460035E+02 -0.19794110096E+02  0.43400734679E+02  0.00000000000E+00 0. -1.
         11    1    3    3    0    0 -0.16482618432E+01  0.21129370462E+01  0.26027193002E+01  0.37356951269E+01  0.51100000000E-03 0. -1.
        -11    1    3    3    0    0 -0.26418749586E+02 -0.15747500586E+02  0.72211330888E+01  0.31592386231E+02  0.51100000000E-03 0.  1.
        -12    1    3    3    0    0 -0.62397096943E+01 -0.41098964951E+01  0.99702577074E+01  0.12459183963E+02  0.00000000000E+00 0.  1.
</event>
<event>
 7    1 -0.4818508E-009  0.4778727E+02  0.7816164E-02  0.1312668E+00
        -11   -1    0    0    0    0  0.00000000000E+00  0.00000000000E+00  0.45593999997E+02  0.45594000000E+02  0.51100000000E-03 0. -1.
         11   -1    0    0    0    0 -0.00000000000E+00 -0.00000000000E+00 -0.45593999997E+02  0.45594000000E+02  0.51100000000E-03 0.  1.
    9900012    2    1    2    0    0  0.33306614985E+02 -0.14639599794E+02 -0.23663782925E+02  0.47787272976E+02  0.20000008807E+02 0.  0.
         12    1    1    2    0    0 -0.33306614985E+02  0.14639599794E+02  0.23663782925E+02  0.43400727024E+02  0.00000000000E+00 0. -1.
         11    1    3    3    0    0  0.59976985877E+01 -0.72193181625E+01 -0.19389932603E+01  0.95838738621E+01  0.51100000000E-03 0. -1.
        -11    1    3    3    0    0  0.17164470133E+02 -0.18890196367E+01 -0.51893280951E+01  0.18030988782E+02  0.51100000000E-03 0.  1.
        -12    1    3    3    0    0  0.10144446264E+02 -0.55312619948E+01 -0.16535461570E+02  0.20172410332E+02  0.00000000000E+00 0.  1.
</event>
<event>
 7    1  0.4818508E-009  0.4778727E+02  0.7816164E-02  0.1312668E+00
        -11   -1    0    0    0    0  0.00000000000E+00  0.00000000000E+00  0.45593999997E+02  0.45594000000E+02  0.51100000000E-03 0.  1.
         11   -1    0    0    0    0 -0.00000000000E+00 -0.00000000000E+00 -0.45593999997E+02  0.45594000000E+02  0.51100000000E-03 0. -1.
    9900012    2    1    2    0    0  0.17912717224E+02 -0.97769072079E+01  0.38303658203E+02  0.47787267464E+02  0.19999983675E+02 0.  0.
         12    1    1    2    0    0 -0.17912717224E+02  0.97769072079E+01 -0.38303658203E+02  0.43400732536E+02  0.00000000000E+00 0. -1.
         11    1    3    3    0    0  0.12426553568E+02 -0.88702863284E+01  0.33113203546E+02  0.36463481217E+02  0.51100000000E-03 0. -1.
        -11    1    3    3    0    0  0.45159519731E+01 -0.37801688575E+01  0.57600795804E+01  0.82378404846E+01  0.51100000000E-03 0.  1.
         12    1    3    3    0    0  0.97021168335E+00  0.28735479780E+01 -0.56962492360E+00  0.30859457620E+01  0.00000000000E+00 0. -1.
</event>
<event>
 7    1  0.4818508E-009  0.4778728E+02  0.7816164E-02  0.1312668E+00
        -11   -1    0    0    0    0  0.00000000000E+00  0.00000000000E+00  0.45593999997E+02  0.45594000000E+02  0.51100000000E-03 0. -1.
         11   -1    0    0    0    0 -0.00000000000E+00 -0.00000000000E+00 -0.45593999997E+02  0.45594000000E+02  0.51100000000E-03 0.  1.
    9900012    2    1    2    0    0 -0.11186508899E+02  0.29503565621E+02 -0.29799737022E+02  0.47787277744E+02  0.20000030548E+02 0.  0.
         12    1    1    2    0    0  0.11186508899E+02 -0.29503565621E+02  0.29799737022E+02  0.43400722256E+02  0.00000000000E+00 0. -1.
         11    1    3    3    0    0 -0.70357471206E+01  0.89193182513E+01 -0.89323334436E+01  0.14451385976E+02  0.51100000000E-03 0. -1.
        -11    1    3    3    0    0 -0.98688171552E+01  0.14333029120E+02 -0.12480768576E+02  0.21414921441E+02  0.51100000000E-03 0.  1.
         12    1    3    3    0    0  0.57180553768E+01  0.62512182500E+01 -0.83866350019E+01  0.11920970328E+02  0.00000000000E+00 0. -1.
</event>
<event>
 7    1  0.4818508E-009  0.4778727E+02  0.7816164E-02  0.1312668E+00
        -11   -1    0    0    0    0  0.00000000000E+00  0.00000000000E+00  0.45593999997E+02  0.45594000000E+02  0.51100000000E-03 0. -1.
         11   -1    0    0    0    0 -0.00000000000E+00 -0.00000000000E+00 -0.45593999997E+02  0.45594000000E+02  0.51100000000E-03 0.  1.
    9900012    2    1    2    0    0  0.41238993923E+01  0.96504402830E+01 -0.42112771715E+02  0.47787273216E+02  0.20000009903E+02 0.  0.
         12    1    1    2    0    0 -0.41238993923E+01 -0.96504402830E+01  0.42112771715E+02  0.43400726784E+02  0.00000000000E+00 0. -1.
         11    1    3    3    0    0 -0.54744762570E+01  0.44283126735E+01 -0.78093162116E+01  0.10515001825E+02  0.51100000000E-03 0. -1.
        -11    1    3    3    0    0  0.12180786319E+01  0.50932967862E+00 -0.19965511949E+02  0.20009117920E+02  0.51100000000E-03 0.  1.
         12    1    3    3    0    0  0.83802970174E+01  0.47127979309E+01 -0.14337943554E+02  0.17263153472E+02  0.00000000000E+00 0. -1.
</event>
<event>
 7    1  0.4818508E-009  0.4778727E+02  0.7816164E-02  0.1312668E+00
        -11   -1    0    0    0    0  0.00000000000E+00  0.00000000000E+00  0.45593999997E+02  0.45594000000E+02  0.51100000000E-03 0.  1.
         11   -1    0    0    0    0 -0.00000000000E+00 -0.00000000000E+00 -0.45593999997E+02  0.45594000000E+02  0.51100000000E-03 0. -1.
    9900012    2    1    2    0    0  0.98049438177E+01 -0.18503665611E+02  0.38014481399E+02  0.47787270048E+02  0.19999995459E+02 0.  0.
         12    1    1    2    0    0 -0.98049438177E+01  0.18503665611E+02 -0.38014481399E+02  0.43400729952E+02  0.00000000000E+00 0. -1.
         11    1    3    3    0    0  0.10405012949E+02 -0.17963056669E+02  0.32292423608E+02  0.38389273529E+02  0.51100000000E-03 0. -1.
        -11    1    3    3    0    0 -0.83673900742E+00  0.17258734194E+01  0.66622580532E+01  0.69328532261E+01  0.51100000000E-03 0.  1.
         12    1    3    3    0    0  0.23666987598E+00 -0.22664823611E+01 -0.94020026208E+00  0.24651432932E+01  0.00000000000E+00 0. -1.
</event>
<event>
 7    1  0.4818508E-009  0.4778726E+02  0.7816164E-02  0.1312668E+00
        -11   -1    0    0    0    0  0.00000000000E+00  0.00000000000E+00  0.45593999997E+02  0.45594000000E+02  0.51100000000E-03 0. -1.
         11   -1    0    0    0    0 -0.00000000000E+00 -0.00000000000E+00 -0.45593999997E+02  0.45594000000E+02  0.51100000000E-03 0.  1.
    9900012    2    1    2    0    0  0.23691651209E+02 -0.35731029085E+02 -0.67544820319E+01  0.47787264937E+02  0.19999972155E+02 0.  0.
         12    1    1    2    0    0 -0.23691651209E+02  0.35731029085E+02  0.67544820319E+01  0.43400735063E+02  0.00000000000E+00 0. -1.
         11    1    3    3    0    0  0.75795364463E+01 -0.24260269059E+02  0.51813112378E+00  0.25422007939E+02  0.51100000000E-03 0. -1.
        -11    1    3    3    0    0  0.14959478907E+02 -0.12281306321E+02 -0.55405590335E+01  0.20132418851E+02  0.51100000000E-03 0.  1.
         12    1    3    3    0    0  0.11526358553E+01  0.81054629434E+00 -0.17320541221E+01  0.22328381473E+01  0.00000000000E+00 0. -1.
</event>
<event>
 7    1  0.4818508E-009  0.4778727E+02  0.7816164E-02  0.1312668E+00
        -11   -1    0    0    0    0  0.00000000000E+00  0.00000000000E+00  0.45593999997E+02  0.45594000000E+02  0.51100000000E-03 0.  1.
         11   -1    0    0    0    0 -0.00000000000E+00 -0.00000000000E+00 -0.45593999997E+02  0.45594000000E+02  0.51100000000E-03 0. -1.
    9900012    2    1    2    0    0  0.87075384704E+01 -0.18297044525E+02  0.38379947163E+02  0.47787269490E+02  0.19999992913E+02 0.  0.
         12    1    1    2    0    0 -0.87075384704E+01  0.18297044525E+02 -0.38379947163E+02  0.43400730510E+02  0.00000000000E+00 0. -1.
         11    1    3    3    0    0  0.74307658509E+00 -0.94190705761E+01  0.22866020686E+01  0.97210906081E+01  0.51100000000E-03 0. -1.
        -11    1    3    3    0    0  0.24139378875E+01 -0.39649377757E+01  0.15452972423E+02  0.16135122703E+02  0.51100000000E-03 0.  1.
         12    1    3    3    0    0  0.55505239978E+01 -0.49130361733E+01  0.20640372671E+02  0.21931056179E+02  0.00000000000E+00 0. -1.
</event>
<event>
 7    1  0.4818508E-009  0.4778727E+02  0.7816164E-02  0.1312668E+00
        -11   -1    0    0    0    0  0.00000000000E+00  0.00000000000E+00  0.45593999997E+02  0.45594000000E+02  0.51100000000E-03 0. -1.
         11   -1    0    0    0    0 -0.00000000000E+00 -0.00000000000E+00 -0.45593999997E+02  0.45594000000E+02  0.51100000000E-03 0.  1.
    9900012    2    1    2    0    0  0.41826549714E+02  0.11132795698E+02 -0.31975025828E+01  0.47787269317E+02  0.19999992126E+02 0.  0.
         12    1    1    2    0    0 -0.41826549714E+02 -0.11132795698E+02  0.31975025828E+01  0.43400730683E+02  0.00000000000E+00 0. -1.
         11    1    3    3    0    0  0.70548241692E+01  0.99279765656E+01 -0.38065000214E+00  0.12185243429E+02  0.51100000000E-03 0. -1.
        -11    1    3    3    0    0  0.28421108063E+02  0.50239098792E+00  0.44328423244E+00  0.28429004228E+02  0.51100000000E-03 0.  1.
         12    1    3    3    0    0  0.63506174817E+01  0.70242814470E+00 -0.32601368131E+01  0.71730216601E+01  0.00000000000E+00 0. -1.
</event>
<event>
 7    1  0.4818508E-009  0.4778727E+02  0.7816164E-02  0.1312668E+00
        -11   -1    0    0    0    0  0.00000000000E+00  0.00000000000E+00  0.45593999997E+02  0.45594000000E+02  0.51100000000E-03 0.  1.
         11   -1    0    0    0    0 -0.00000000000E+00 -0.00000000000E+00 -0.45593999997E+02  0.45594000000E+02  0.51100000000E-03 0. -1.
    9900012    2    1    2    0    0  0.21387614893E+02 -0.30834999339E+02  0.21803570286E+02  0.47787274980E+02  0.20000017944E+02 0.  0.
         12    1    1    2    0    0 -0.21387614893E+02  0.30834999339E+02 -0.21803570286E+02  0.43400725020E+02  0.00000000000E+00 0. -1.
         11    1    3    3    0    0  0.69268320198E+01 -0.59105066014E+01  0.12177162832E+02  0.15205209141E+02  0.51100000000E-03 0.  1.
        -11    1    3    3    0    0  0.21362517232E+01 -0.11963035459E+02 -0.24195151296E+00  0.12154683444E+02  0.51100000000E-03 0. -1.
        -12    1    3    3    0    0  0.12324531150E+02 -0.12961457278E+02  0.98683589669E+01  0.20427382396E+02  0.00000000000E+00 0.  1.
</event>
<event>
 7    1  0.4818508E-009  0.4778726E+02  0.7816164E-02  0.1312668E+00
        -11   -1    0    0    0    0  0.00000000000E+00  0.00000000000E+00  0.45593999997E+02  0.45594000000E+02  0.51100000000E-03 0.  1.
         11   -1    0    0    0    0 -0.00000000000E+00 -0.00000000000E+00 -0.45593999997E+02  0.45594000000E+02  0.51100000000E-03 0. -1.
    9900012    2    1    2    0    0 -0.38870306400E+02  0.20676401645E+01  0.19195011181E+02  0.47787259111E+02  0.19999945591E+02 0.  0.
         12    1    1    2    0    0  0.38870306400E+02 -0.20676401645E+01 -0.19195011181E+02  0.43400740889E+02  0.00000000000E+00 0. -1.
         11    1    3    3    0    0 -0.25220802309E+02  0.13568754761E+01  0.75454608033E+01  0.26360272365E+02  0.51100000000E-03 0. -1.
        -11    1    3    3    0    0 -0.73821184666E+01 -0.75837797060E+00  0.12887841593E+02  0.14871693629E+02  0.51100000000E-03 0.  1.
        -12    1    3    3    0    0 -0.62673856244E+01  0.14691426590E+01 -0.12382912157E+01  0.65552931171E+01  0.00000000000E+00 0.  1.
</event>
<event>
 7    1  0.4818508E-009  0.4778727E+02  0.7816164E-02  0.1312668E+00
        -11   -1    0    0    0    0  0.00000000000E+00  0.00000000000E+00  0.45593999997E+02  0.45594000000E+02  0.51100000000E-03 0.  1.
         11   -1    0    0    0    0 -0.00000000000E+00 -0.00000000000E+00 -0.45593999997E+02  0.45594000000E+02  0.51100000000E-03 0. -1.
    9900012    2    1    2    0    0 -0.12134960837E+02  0.12609917781E+02  0.39715945503E+02  0.47787266963E+02  0.19999981390E+02 0.  0.
         12    1    1    2    0    0  0.12134960837E+02 -0.12609917781E+02 -0.39715945503E+02  0.43400733037E+02  0.00000000000E+00 0. -1.
         11    1    3    3    0    0 -0.10125039319E+02  0.91320451507E+01  0.34818315373E+02  0.37392857012E+02  0.51100000000E-03 0.  1.
        -11    1    3    3    0    0 -0.30870878965E+01 -0.15521445632E+01  0.37971226905E+01  0.51339463781E+01  0.51100000000E-03 0. -1.
         12    1    3    3    0    0  0.10771663786E+01  0.50300171932E+01  0.11005074397E+01  0.52604635723E+01  0.00000000000E+00 0. -1.
</event>
<event>
 7    1  0.4818508E-009  0.4778727E+02  0.7816164E-02  0.1312668E+00
        -11   -1    0    0    0    0  0.00000000000E+00  0.00000000000E+00  0.45593999997E+02  0.45594000000E+02  0.51100000000E-03 0.  1.
         11   -1    0    0    0    0 -0.00000000000E+00 -0.00000000000E+00 -0.45593999997E+02  0.45594000000E+02  0.51100000000E-03 0. -1.
    9900012    2    1    2    0    0 -0.89737584932E+01  0.13669555727E+02  0.40202463663E+02  0.47787272127E+02  0.20000004937E+02 0.  0.
         12    1    1    2    0    0  0.89737584932E+01 -0.13669555727E+02 -0.40202463663E+02  0.43400727873E+02  0.00000000000E+00 0. -1.
         11    1    3    3    0    0 -0.12150412144E+02  0.52787960236E+01  0.27562165785E+02  0.30580568761E+02  0.51100000000E-03 0. -1.
        -11    1    3    3    0    0  0.23845864415E+01  0.13085711364E+01  0.27821434545E-01  0.27201810986E+01  0.51100000000E-03 0.  1.
        -12    1    3    3    0    0  0.79206720930E+00  0.70821885672E+01  0.12612476444E+02  0.14486522267E+02  0.00000000000E+00 0.  1.
</event>
<event>
 7    1  0.4818508E-009  0.4778727E+02  0.7816164E-02  0.1312668E+00
        -11   -1    0    0    0    0  0.00000000000E+00  0.00000000000E+00  0.45593999997E+02  0.45594000000E+02  0.51100000000E-03 0. -1.
         11   -1    0    0    0    0 -0.00000000000E+00 -0.00000000000E+00 -0.45593999997E+02  0.45594000000E+02  0.51100000000E-03 0.  1.
    9900012    2    1    2    0    0  0.18104922387E+02 -0.22125667468E+02 -0.32654092526E+02  0.47787272653E+02  0.20000007335E+02 0.  0.
         12    1    1    2    0    0 -0.18104922387E+02  0.22125667468E+02  0.32654092526E+02  0.43400727347E+02  0.00000000000E+00 0. -1.
         11    1    3    3    0    0 -0.22958765915E+01 -0.22516377760E+01 -0.36814295546E+01  0.48881331635E+01  0.51100000000E-03 0. -1.
        -11    1    3    3    0    0  0.20368986098E+02 -0.12033551108E+02 -0.19959191161E+02  0.30952726197E+02  0.51100000000E-03 0.  1.
        -12    1    3    3    0    0  0.31812880125E-01 -0.78404785845E+01 -0.90134718102E+01  0.11946413293E+02  0.00000000000E+00 0.  1.
</event>
<event>
 7    1  0.4818508E-009  0.4778727E+02  0.7816164E-02  0.1312668E+00
        -11   -1    0    0    0    0  0.00000000000E+00  0.00000000000E+00  0.45593999997E+02  0.45594000000E+02  0.51100000000E-03 0. -1.
         11   -1    0    0    0    0 -0.00000000000E+00 -0.00000000000E+00 -0.45593999997E+02  0.45594000000E+02  0.51100000000E-03 0.  1.
    9900012    2    1    2    0    0  0.16013793317E+02 -0.36476209010E+02  0.17224056526E+02  0.47787268170E+02  0.19999986894E+02 0.  0.
         12    1    1    2    0    0 -0.16013793317E+02  0.36476209010E+02 -0.17224056526E+02  0.43400731830E+02  0.00000000000E+00 0. -1.
         11    1    3    3    0    0  0.18054586396E+02 -0.21137081246E+02  0.93311889120E+01  0.29322608688E+02  0.51100000000E-03 0. -1.
        -11    1    3    3    0    0 -0.28853922775E+01 -0.80169426114E+01  0.13853102571E+01  0.86322617081E+01  0.51100000000E-03 0.  1.
         12    1    3    3    0    0  0.84459919861E+00 -0.73221851531E+01  0.65075573568E+01  0.98323977734E+01  0.00000000000E+00 0. -1.
</event>
<event>
 7    1  0.4818508E-009  0.4778727E+02  0.7816164E-02  0.1312668E+00
        -11   -1    0    0    0    0  0.00000000000E+00  0.00000000000E+00  0.45593999997E+02  0.45594000000E+02  0.51100000000E-03 0.  1.
         11   -1    0    0    0    0 -0.00000000000E+00 -0.00000000000E+00 -0.45593999997E+02  0.45594000000E+02  0.51100000000E-03 0. -1.
    9900012    2    1    2    0    0  0.29462166087E+02  0.41772552209E+01  0.31593592153E+02  0.47787265480E+02  0.19999974631E+02 0.  0.
         12    1    1    2    0    0 -0.29462166087E+02 -0.41772552209E+01 -0.31593592153E+02  0.43400734520E+02  0.00000000000E+00 0. -1.
         11    1    3    3    0    0  0.16191600919E+02 -0.12955970800E+01  0.45891431746E+01  0.16879180888E+02  0.51100000000E-03 0. -1.
        -11    1    3    3    0    0  0.13301911478E+02  0.49745760024E+01  0.24198448168E+02  0.28058013995E+02  0.51100000000E-03 0.  1.
         12    1    3    3    0    0 -0.31346309548E-01  0.49827629853E+00  0.28060008106E+01  0.28500705974E+01  0.00000000000E+00 0. -1.
</event>
<event>
 7    1  0.4818508E-009  0.4778727E+02  0.7816164E-02  0.1312668E+00
        -11   -1    0    0    0    0  0.00000000000E+00  0.00000000000E+00  0.45593999997E+02  0.45594000000E+02  0.51100000000E-03 0. -1.
         11   -1    0    0    0    0 -0.00000000000E+00 -0.00000000000E+00 -0.45593999997E+02  0.45594000000E+02  0.51100000000E-03 0.  1.
    9900012    2    1    2    0    0  0.10395224370E+02  0.39266003550E+02  0.15288681817E+02  0.47787268252E+02  0.19999987269E+02 0.  0.
         12    1    1    2    0    0 -0.10395224370E+02 -0.39266003550E+02 -0.15288681817E+02  0.43400731748E+02  0.00000000000E+00 0. -1.
         11    1    3    3    0    0  0.83357892235E+01  0.32823776564E+02  0.14370974220E+02  0.36788729119E+02  0.51100000000E-03 0. -1.
        -11    1    3    3    0    0  0.46376716762E+01  0.33102219552E+01 -0.19591913300E+01  0.60252799850E+01  0.51100000000E-03 0.  1.
        -12    1    3    3    0    0 -0.25782365294E+01  0.31320050310E+01  0.28768989270E+01  0.49732591478E+01  0.00000000000E+00 0.  1.
</event>
<event>
 7    1  0.4818508E-009  0.4778727E+02  0.7816164E-02  0.1312668E+00
        -11   -1    0    0    0    0  0.00000000000E+00  0.00000000000E+00  0.45593999997E+02  0.45594000000E+02  0.51100000000E-03 0.  1.
         11   -1    0    0    0    0 -0.00000000000E+00 -0.00000000000E+00 -0.45593999997E+02  0.45594000000E+02  0.51100000000E-03 0. -1.
    9900012    2    1    2    0    0  0.41357149695E+02  0.11776074086E+02 -0.58764996857E+01  0.47787274196E+02  0.20000014371E+02 0.  0.
         12    1    1    2    0    0 -0.41357149695E+02 -0.11776074086E+02  0.58764996857E+01  0.43400725804E+02  0.00000000000E+00 0. -1.
         11    1    3    3    0    0  0.35209735089E+01 -0.27485070213E+01 -0.52195196610E+01  0.68698566979E+01  0.51100000000E-03 0. -1.
        -11    1    3    3    0    0  0.20561154073E+02  0.10589625399E+02 -0.15293467618E+01  0.23178440946E+02  0.51100000000E-03 0.  1.
         12    1    3    3    0    0  0.17275022112E+02  0.39349557082E+01  0.87236673707E+00  0.17738976553E+02  0.00000000000E+00 0. -1.
</event>
<event>
 7    1  0.4818508E-009  0.4778727E+02  0.7816164E-02  0.1312668E+00
        -11   -1    0    0    0    0  0.00000000000E+00  0.00000000000E+00  0.45593999997E+02  0.45594000000E+02  0.51100000000E-03 0.  1.
         11   -1    0    0    0    0 -0.00000000000E+00 -0.00000000000E+00 -0.45593999997E+02  0.45594000000E+02  0.51100000000E-03 0. -1.
    9900012    2    1    2    0    0 -0.15514085915E+02  0.34578448298E+02  0.21148697852E+02  0.47787269945E+02  0.19999994987E+02 0.  0.
         12    1    1    2    0    0  0.15514085915E+02 -0.34578448298E+02 -0.21148697852E+02  0.43400730055E+02  0.00000000000E+00 0. -1.
         11    1    3    3    0    0  0.75140797608E+00  0.16185711355E+01  0.54465020865E+01  0.57313847984E+01  0.51100000000E-03 0. -1.
        -11    1    3    3    0    0 -0.17319411964E+02  0.26993199617E+02  0.16284091744E+02  0.35968965797E+02  0.51100000000E-03 0.  1.
        -12    1    3    3    0    0  0.10539180726E+01  0.59666775458E+01 -0.58189597862E+00  0.60869193496E+01  0.00000000000E+00 0.  1.
</event>
<event>
 7    1  0.4818508E-009  0.4778727E+02  0.7816164E-02  0.1312668E+00
        -11   -1    0    0    0    0  0.00000000000E+00  0.00000000000E+00  0.45593999997E+02  0.45594000000E+02  0.51100000000E-03 0.  1.
         11   -1    0    0    0    0 -0.00000000000E+00 -0.00000000000E+00 -0.45593999997E+02  0.45594000000E+02  0.51100000000E-03 0. -1.
    9900012    2    1    2    0    0  0.32357946194E+02  0.44730993318E+01  0.28575827982E+02  0.47787271384E+02  0.20000001547E+02 0.  0.
         12    1    1    2    0    0 -0.32357946194E+02 -0.44730993318E+01 -0.28575827982E+02  0.43400728616E+02  0.00000000000E+00 0. -1.
         11    1    3    3    0    0  0.12368284310E+02  0.63711921537E+01  0.18579208470E+02  0.23211064902E+02  0.51100000000E-03 0. -1.
        -11    1    3    3    0    0  0.89093825785E+01  0.29340554046E+01  0.79919005381E+01  0.12322996937E+02  0.51100000000E-03 0.  1.
         12    1    3    3    0    0  0.11080279306E+02 -0.48321482265E+01  0.20047189740E+01  0.12253209545E+02  0.00000000000E+00 0. -1.
</event>
<event>
 7    1  0.4818508E-009  0.4778727E+02  0.7816164E-02  0.1312668E+00
        -11   -1    0    0    0    0  0.00000000000E+00  0.00000000000E+00  0.45593999997E+02  0.45594000000E+02  0.51100000000E-03 0. -1.
         11   -1    0    0    0    0 -0.00000000000E+00 -0.00000000000E+00 -0.45593999997E+02  0.45594000000E+02  0.51100000000E-03 0.  1.
    9900012    2    1    2    0    0 -0.43245562982E+02 -0.13796788969E+01  0.33972024267E+01  0.47787271713E+02  0.20000003048E+02 0.  0.
         12    1    1    2    0    0  0.43245562982E+02  0.13796788969E+01 -0.33972024267E+01  0.43400728287E+02  0.00000000000E+00 0. -1.
         11    1    3    3    0    0 -0.17718114204E+02  0.78692888767E+01 -0.36343782788E+00  0.19390445216E+02  0.51100000000E-03 0. -1.
        -11    1    3    3    0    0 -0.15648892673E+02 -0.76564597560E+01  0.54393059324E+01  0.18250897709E+02  0.51100000000E-03 0.  1.
        -12    1    3    3    0    0 -0.98785561054E+01 -0.15925080175E+01 -0.16786656778E+01  0.10145928788E+02  0.00000000000E+00 0.  1.
</event>
<event>
 7    1  0.4818508E-009  0.4778727E+02  0.7816164E-02  0.1312668E+00
        -11   -1    0    0    0    0  0.00000000000E+00  0.00000000000E+00  0.45593999997E+02  0.45594000000E+02  0.51100000000E-03 0.  1.
         11   -1    0    0    0    0 -0.00000000000E+00 -0.00000000000E+00 -0.45593999997E+02  0.45594000000E+02  0.51100000000E-03 0. -1.
    9900012    2    1    2    0    0 -0.41971454757E+02 -0.99477459043E+00  0.11001397742E+02  0.47787270246E+02  0.19999996359E+02 0.  0.
         12    1    1    2    0    0  0.41971454757E+02  0.99477459043E+00 -0.11001397742E+02  0.43400729754E+02  0.00000000000E+00 0. -1.
         11    1    3    3    0    0 -0.11275285778E+02 -0.82980594522E+01  0.61901755215E+00  0.14013316632E+02  0.51100000000E-03 0. -1.
        -11    1    3    3    0    0 -0.25493482036E+02  0.37265723884E+01  0.75019978929E+01  0.26834398461E+02  0.51100000000E-03 0.  1.
        -12    1    3    3    0    0 -0.52026869431E+01  0.35767124733E+01  0.28803822968E+01  0.69395551529E+01  0.00000000000E+00 0.  1.
</event>
<event>
 7    1  0.4818508E-009  0.4778727E+02  0.7816164E-02  0.1312668E+00
        -11   -1    0    0    0    0  0.00000000000E+00  0.00000000000E+00  0.45593999997E+02  0.45594000000E+02  0.51100000000E-03 0.  1.
         11   -1    0    0    0    0 -0.00000000000E+00 -0.00000000000E+00 -0.45593999997E+02  0.45594000000E+02  0.51100000000E-03 0. -1.
    9900012    2    1    2    0    0  0.29866370754E+02  0.28288629395E+02  0.13833903118E+02  0.47787268087E+02  0.19999986518E+02 0.  0.
         12    1    1    2    0    0 -0.29866370754E+02 -0.28288629395E+02 -0.13833903118E+02  0.43400731913E+02  0.00000000000E+00 0. -1.
         11    1    3    3    0    0  0.33340814727E+01  0.72142262539E+01  0.10056244197E+02  0.12817535150E+02  0.51100000000E-03 0. -1.
        -11    1    3    3    0    0  0.15799841514E+02  0.88622748017E+01  0.46016111823E+01  0.18690899718E+02  0.51100000000E-03 0.  1.
         12    1    3    3    0    0  0.10732447767E+02  0.12212128340E+02 -0.82395226178E+00  0.16278833220E+02  0.00000000000E+00 0. -1.
</event>
<event>
 7    1  0.4818508E-009  0.4778727E+02  0.7816164E-02  0.1312668E+00
        -11   -1    0    0    0    0  0.00000000000E+00  0.00000000000E+00  0.45593999997E+02  0.45594000000E+02  0.51100000000E-03 0.  1.
         11   -1    0    0    0    0 -0.00000000000E+00 -0.00000000000E+00 -0.45593999997E+02  0.45594000000E+02  0.51100000000E-03 0. -1.
    9900012    2    1    2    0    0  0.17926381786E+02 -0.31383223388E+02  0.24028343512E+02  0.47787272286E+02  0.20000005660E+02 0.  0.
         12    1    1    2    0    0 -0.17926381786E+02  0.31383223388E+02 -0.24028343512E+02  0.43400727714E+02  0.00000000000E+00 0. -1.
         11    1    3    3    0    0  0.51569940263E+01 -0.19966315981E+02  0.37987239029E+01  0.20968516037E+02  0.51100000000E-03 0. -1.
        -11    1    3    3    0    0  0.54228598367E+01 -0.32305117801E+01  0.98249392222E+01  0.11677887059E+02  0.51100000000E-03 0.  1.
         12    1    3    3    0    0  0.73465279226E+01 -0.81863956277E+01  0.10404680387E+02  0.15140869191E+02  0.00000000000E+00 0. -1.
</event>
<event>
 7    1  0.4818508E-009  0.4778727E+02  0.7816164E-02  0.1312668E+00
        -11   -1    0    0    0    0  0.00000000000E+00  0.00000000000E+00  0.45593999997E+02  0.45594000000E+02  0.51100000000E-03 0.  1.
         11   -1    0    0    0    0 -0.00000000000E+00 -0.00000000000E+00 -0.45593999997E+02  0.45594000000E+02  0.51100000000E-03 0. -1.
    9900012    2    1    2    0    0  0.29368557344E+02 -0.24596422782E+00  0.31953882973E+02  0.47787270790E+02  0.19999998841E+02 0.  0.
         12    1    1    2    0    0 -0.29368557344E+02  0.24596422782E+00 -0.31953882973E+02  0.43400729210E+02  0.00000000000E+00 0. -1.
         11    1    3    3    0    0  0.32800265326E+01 -0.69213372804E+00 -0.17564350283E+01  0.37845326557E+01  0.51100000000E-03 0. -1.
        -11    1    3    3    0    0  0.89597712112E+01 -0.33298763777E+01  0.18338514854E+02  0.20680104065E+02  0.51100000000E-03 0.  1.
         12    1    3    3    0    0  0.17128759600E+02  0.37760458779E+01  0.15371803148E+02  0.23322634069E+02  0.00000000000E+00 0. -1.
</event>
<event>
 7    1  0.4818508E-009  0.4778727E+02  0.7816164E-02  0.1312668E+00
        -11   -1    0    0    0    0  0.00000000000E+00  0.00000000000E+00  0.45593999997E+02  0.45594000000E+02  0.51100000000E-03 0.  1.
         11   -1    0    0    0    0 -0.00000000000E+00 -0.00000000000E+00 -0.45593999997E+02  0.45594000000E+02  0.51100000000E-03 0. -1.
    9900012    2    1    2    0    0 -0.25048442657E+02 -0.98492517344E+01  0.34046895251E+02  0.47787270565E+02  0.19999997813E+02 0.  0.
         12    1    1    2    0    0  0.25048442657E+02  0.98492517344E+01 -0.34046895251E+02  0.43400729435E+02  0.00000000000E+00 0. -1.
         11    1    3    3    0    0 -0.20238851935E+01  0.19116455254E+01 -0.14239493465E+01  0.31270004627E+01  0.51100000000E-03 0. -1.
        -11    1    3    3    0    0 -0.48941475185E+01 -0.49305450928E+01  0.14683928761E+02  0.16244405774E+02  0.51100000000E-03 0.  1.
         12    1    3    3    0    0 -0.18130409945E+02 -0.68303521669E+01  0.20786915837E+02  0.28415864328E+02  0.00000000000E+00 0. -1.
</event>
<event>
 7    1  0.4818508E-009  0.4778727E+02  0.7816164E-02  0.1312668E+00
        -11   -1    0    0    0    0  0.00000000000E+00  0.00000000000E+00  0.45593999997E+02  0.45594000000E+02  0.51100000000E-03 0.  1.
         11   -1    0    0    0    0 -0.00000000000E+00 -0.00000000000E+00 -0.45593999997E+02  0.45594000000E+02  0.51100000000E-03 0. -1.
    9900012    2    1    2    0    0  0.27433246669E+02  0.40004069038E+01  0.33392177239E+02  0.47787265226E+02  0.19999973470E+02 0.  0.
         12    1    1    2    0    0 -0.27433246669E+02 -0.40004069038E+01 -0.33392177239E+02  0.43400734774E+02  0.00000000000E+00 0. -1.
         11    1    3    3    0    0  0.71799133858E+01 -0.50004124326E+01  0.51302607935E+01  0.10142724328E+02  0.51100000000E-03 0. -1.
        -11    1    3    3    0    0  0.12993949275E+02  0.11216468574E+02  0.21192828164E+02  0.27272474235E+02  0.51100000000E-03 0.  1.
        -12    1    3    3    0    0  0.72593840084E+01 -0.22156492379E+01  0.70690882817E+01  0.10372066663E+02  0.00000000000E+00 0.  1.
</event>
<event>
 7    1  0.4818508E-009  0.4778728E+02  0.7816164E-02  0.1312668E+00
        -11   -1    0    0    0    0  0.00000000000E+00  0.00000000000E+00  0.45593999997E+02  0.45594000000E+02  0.51100000000E-03 0.  1.
         11   -1    0    0    0    0 -0.00000000000E+00 -0.00000000000E+00 -0.45593999997E+02  0.45594000000E+02  0.51100000000E-03 0. -1.
    9900012    2    1    2    0    0 -0.28088956872E+02  0.30176838319E+02  0.13564355944E+02  0.47787276259E+02  0.20000023776E+02 0.  0.
         12    1    1    2    0    0  0.28088956872E+02 -0.30176838319E+02 -0.13564355944E+02  0.43400723741E+02  0.00000000000E+00 0. -1.
         11    1    3    3    0    0 -0.28581169551E+00  0.27148760455E+01 -0.21608466917E+01  0.34815943120E+01  0.51100000000E-03 0. -1.
        -11    1    3    3    0    0 -0.26759441042E+02  0.28761996461E+02  0.16313692794E+02  0.42537709132E+02  0.51100000000E-03 0.  1.
        -12    1    3    3    0    0 -0.10437041339E+01 -0.13000341883E+01 -0.58849015811E+00  0.17679728154E+01  0.00000000000E+00 0.  1.
</event>
<event>
 7    1  0.4818508E-009  0.4778726E+02  0.7816164E-02  0.1312668E+00
        -11   -1    0    0    0    0  0.00000000000E+00  0.00000000000E+00  0.45593999997E+02  0.45594000000E+02  0.51100000000E-03 0.  1.
         11   -1    0    0    0    0 -0.00000000000E+00 -0.00000000000E+00 -0.45593999997E+02  0.45594000000E+02  0.51100000000E-03 0. -1.
    9900012    2    1    2    0    0 -0.17856044597E+02 -0.35429892238E+02  0.17592846943E+02  0.47787264336E+02  0.19999969413E+02 0.  0.
         12    1    1    2    0    0  0.17856044597E+02  0.35429892238E+02 -0.17592846943E+02  0.43400735664E+02  0.00000000000E+00 0. -1.
         11    1    3    3    0    0 -0.21158545015E+01  0.13904337391E+01  0.30845945234E+01  0.39905976857E+01  0.51100000000E-03 0. -1.
        -11    1    3    3    0    0 -0.11266786164E+02 -0.13670747486E+02  0.53896827389E+01  0.18516978359E+02  0.51100000000E-03 0.  1.
         12    1    3    3    0    0 -0.44734039319E+01 -0.23149578491E+02  0.91185696805E+01  0.25279688291E+02  0.00000000000E+00 0. -1.
</event>
<event>
 7    1  0.4818508E-009  0.4778727E+02  0.7816164E-02  0.1312668E+00
        -11   -1    0    0    0    0  0.00000000000E+00  0.00000000000E+00  0.45593999997E+02  0.45594000000E+02  0.51100000000E-03 0.  1.
         11   -1    0    0    0    0 -0.00000000000E+00 -0.00000000000E+00 -0.45593999997E+02  0.45594000000E+02  0.51100000000E-03 0. -1.
    9900012    2    1    2    0    0 -0.12068044606E+02 -0.38305251971E+02 -0.16452762492E+02  0.47787269329E+02  0.19999992178E+02 0.  0.
         12    1    1    2    0    0  0.12068044606E+02  0.38305251971E+02  0.16452762492E+02  0.43400730671E+02  0.00000000000E+00 0. -1.
         11    1    3    3    0    0 -0.56268087301E+01 -0.20217383922E+02 -0.15466957292E+01  0.21042715059E+02  0.51100000000E-03 0. -1.
        -11    1    3    3    0    0 -0.84648304444E+01 -0.16575844607E+02 -0.15416081037E+02  0.24167489189E+02  0.51100000000E-03 0.  1.
         12    1    3    3    0    0  0.20235945687E+01 -0.15120234427E+01  0.51001427510E+00  0.25770650807E+01  0.00000000000E+00 0. -1.
</event>
<event>
 7    1  0.4818508E-009  0.4778728E+02  0.7816164E-02  0.1312668E+00
        -11   -1    0    0    0    0  0.00000000000E+00  0.00000000000E+00  0.45593999997E+02  0.45594000000E+02  0.51100000000E-03 0.  1.
         11   -1    0    0    0    0 -0.00000000000E+00 -0.00000000000E+00 -0.45593999997E+02  0.45594000000E+02  0.51100000000E-03 0. -1.
    9900012    2    1    2    0    0 -0.21156639805E+02 -0.24928999123E+02  0.28540575957E+02  0.47787275570E+02  0.20000020634E+02 0.  0.
         12    1    1    2    0    0  0.21156639805E+02  0.24928999123E+02 -0.28540575957E+02  0.43400724430E+02  0.00000000000E+00 0. -1.
         11    1    3    3    0    0 -0.13400650814E+02 -0.10340923135E+02  0.51672666222E+01  0.17697818457E+02  0.51100000000E-03 0. -1.
        -11    1    3    3    0    0 -0.62891419666E+01 -0.92342991154E+01  0.79909298707E+01  0.13736103788E+02  0.51100000000E-03 0.  1.
         12    1    3    3    0    0 -0.14668470239E+01 -0.53537768726E+01  0.15382379464E+02  0.16353353325E+02  0.00000000000E+00 0. -1.
</event>
<event>
 7    1  0.4818508E-009  0.4778727E+02  0.7816164E-02  0.1312668E+00
        -11   -1    0    0    0    0  0.00000000000E+00  0.00000000000E+00  0.45593999997E+02  0.45594000000E+02  0.51100000000E-03 0. -1.
         11   -1    0    0    0    0 -0.00000000000E+00 -0.00000000000E+00 -0.45593999997E+02  0.45594000000E+02  0.51100000000E-03 0.  1.
    9900012    2    1    2    0    0 -0.81427224744E+01  0.24370972554E+02 -0.34976777389E+02  0.47787272022E+02  0.20000004457E+02 0.  0.
         12    1    1    2    0    0  0.81427224744E+01 -0.24370972554E+02  0.34976777389E+02  0.43400727978E+02  0.00000000000E+00 0. -1.
         11    1    3    3    0    0 -0.13068279861E+02  0.10002262559E+02 -0.17983176965E+02  0.24376625050E+02  0.51100000000E-03 0. -1.
        -11    1    3    3    0    0  0.41164384988E+01  0.13577358635E+02 -0.12941437635E+02  0.19203399224E+02  0.51100000000E-03 0.  1.
        -12    1    3    3    0    0  0.80911888775E+00  0.79135135976E+00 -0.40521627880E+01  0.42072477476E+01  0.00000000000E+00 0.  1.
</event>
<event>
 7    1  0.4818508E-009  0.4778728E+02  0.7816164E-02  0.1312668E+00
        -11   -1    0    0    0    0  0.00000000000E+00  0.00000000000E+00  0.45593999997E+02  0.45594000000E+02  0.51100000000E-03 0.  1.
         11   -1    0    0    0    0 -0.00000000000E+00 -0.00000000000E+00 -0.45593999997E+02  0.45594000000E+02  0.51100000000E-03 0. -1.
    9900012    2    1    2    0    0 -0.18434025174E+02 -0.21890537447E+02  0.32628414926E+02  0.47787281406E+02  0.20000047244E+02 0.  0.
         12    1    1    2    0    0  0.18434025174E+02  0.21890537447E+02 -0.32628414926E+02  0.43400718594E+02  0.00000000000E+00 0. -1.
         11    1    3    3    0    0 -0.80651148806E-01 -0.61815866647E+01  0.23676308457E+01  0.66199844700E+01  0.51100000000E-03 0. -1.
        -11    1    3    3    0    0 -0.82520714101E+01 -0.19290167746E+01  0.18720469831E+02  0.20549301185E+02  0.51100000000E-03 0.  1.
        -12    1    3    3    0    0 -0.10101302615E+02 -0.13779934008E+02  0.11540314250E+02  0.20617995751E+02  0.00000000000E+00 0.  1.
</event>
<event>
 7    1  0.4818508E-009  0.4778727E+02  0.7816164E-02  0.1312668E+00
        -11   -1    0    0    0    0  0.00000000000E+00  0.00000000000E+00  0.45593999997E+02  0.45594000000E+02  0.51100000000E-03 0. -1.
         11   -1    0    0    0    0 -0.00000000000E+00 -0.00000000000E+00 -0.45593999997E+02  0.45594000000E+02  0.51100000000E-03 0.  1.
    9900012    2    1    2    0    0  0.67104346000E+01 -0.18057022406E+02 -0.38891356452E+02  0.47787267318E+02  0.19999983009E+02 0.  0.
         12    1    1    2    0    0 -0.67104346000E+01  0.18057022406E+02  0.38891356452E+02  0.43400732682E+02  0.00000000000E+00 0. -1.
         11    1    3    3    0    0  0.22371835662E+01 -0.66875019232E+01 -0.26537078368E+02  0.27458044374E+02  0.51100000000E-03 0. -1.
        -11    1    3    3    0    0  0.11989968146E+01 -0.12576689037E+02 -0.92417951462E+01  0.15653161926E+02  0.51100000000E-03 0.  1.
         12    1    3    3    0    0  0.32742542192E+01  0.12071685538E+01 -0.31124829374E+01  0.46760610181E+01  0.00000000000E+00 0. -1.
</event>
<event>
 7    1  0.4818508E-009  0.4778726E+02  0.7816164E-02  0.1312668E+00
        -11   -1    0    0    0    0  0.00000000000E+00  0.00000000000E+00  0.45593999997E+02  0.45594000000E+02  0.51100000000E-03 0.  1.
         11   -1    0    0    0    0 -0.00000000000E+00 -0.00000000000E+00 -0.45593999997E+02  0.45594000000E+02  0.51100000000E-03 0. -1.
    9900012    2    1    2    0    0  0.19779355083E+02  0.17683126132E+02  0.34346885583E+02  0.47787258226E+02  0.19999941556E+02 0.  0.
         12    1    1    2    0    0 -0.19779355083E+02 -0.17683126132E+02 -0.34346885583E+02  0.43400741774E+02  0.00000000000E+00 0. -1.
         11    1    3    3    0    0  0.12126191967E+02  0.15822644628E+02  0.26316042938E+02  0.33014159550E+02  0.51100000000E-03 0. -1.
        -11    1    3    3    0    0  0.34034343725E+01  0.55306640500E+01  0.27079848275E+01  0.70359642160E+01  0.51100000000E-03 0.  1.
         12    1    3    3    0    0  0.42497287434E+01 -0.36701825455E+01  0.53228578171E+01  0.77371344599E+01  0.00000000000E+00 0. -1.
</event>
<event>
 7    1  0.4818508E-009  0.4778727E+02  0.7816164E-02  0.1312668E+00
        -11   -1    0    0    0    0  0.00000000000E+00  0.00000000000E+00  0.45593999997E+02  0.45594000000E+02  0.51100000000E-03 0. -1.
         11   -1    0    0    0    0 -0.00000000000E+00 -0.00000000000E+00 -0.45593999997E+02  0.45594000000E+02  0.51100000000E-03 0.  1.
    9900012    2    1    2    0    0 -0.31743879211E+02  0.21366583490E+02 -0.20479707336E+02  0.47787272241E+02  0.20000005458E+02 0.  0.
         12    1    1    2    0    0  0.31743879211E+02 -0.21366583490E+02  0.20479707336E+02  0.43400727759E+02  0.00000000000E+00 0. -1.
         11    1    3    3    0    0 -0.10391129780E+02  0.10704294594E+02 -0.14418898047E+02  0.20747581113E+02  0.51100000000E-03 0. -1.
        -11    1    3    3    0    0 -0.18218252497E+02  0.76906174736E+01 -0.22111864214E+00  0.19776228531E+02  0.51100000000E-03 0.  1.
        -12    1    3    3    0    0 -0.31344969337E+01  0.29716714225E+01 -0.58396906464E+01  0.72634625983E+01  0.00000000000E+00 0.  1.
</event>
<event>
 7    1  0.4818508E-009  0.4778727E+02  0.7816164E-02  0.1312668E+00
        -11   -1    0    0    0    0  0.00000000000E+00  0.00000000000E+00  0.45593999997E+02  0.45594000000E+02  0.51100000000E-03 0. -1.
         11   -1    0    0    0    0 -0.00000000000E+00 -0.00000000000E+00 -0.45593999997E+02  0.45594000000E+02  0.51100000000E-03 0.  1.
    9900012    2    1    2    0    0  0.11211517048E+02 -0.37878681944E+02 -0.17975834873E+02  0.47787270746E+02  0.19999998640E+02 0.  0.
         12    1    1    2    0    0 -0.11211517048E+02  0.37878681944E+02  0.17975834873E+02  0.43400729254E+02  0.00000000000E+00 0. -1.
         11    1    3    3    0    0  0.38830434724E+01 -0.14573348312E+02 -0.15626716045E+02  0.21717614101E+02  0.51100000000E-03 0. -1.
        -11    1    3    3    0    0  0.41192119825E+01 -0.17966655649E+02 -0.52962674291E+01  0.19178609738E+02  0.51100000000E-03 0.  1.
         12    1    3    3    0    0  0.32092615934E+01 -0.53386779837E+01  0.29471486012E+01  0.68910469064E+01  0.00000000000E+00 0. -1.
</event>
<event>
 7    1  0.5142963E-009  0.4778727E+02  0.7816164E-02  0.1312668E+00
        -11   -1    0    0    0    0  0.00000000000E+00  0.00000000000E+00  0.45593999997E+02  0.45594000000E+02  0.51100000000E-03 0.  1.
         11   -1    0    0    0    0 -0.00000000000E+00 -0.00000000000E+00 -0.45593999997E+02  0.45594000000E+02  0.51100000000E-03 0. -1.
    9900012    2    1    2    0    0 -0.13613887475E+02  0.38465085511E+02  0.14789268327E+02  0.47787271974E+02  0.20000004237E+02 0.  0.
         12    1    1    2    0    0  0.13613887475E+02 -0.38465085511E+02 -0.14789268327E+02  0.43400728026E+02  0.00000000000E+00 0. -1.
         11    1    3    3    0    0  0.48489896603E-01 -0.12617147096E+01 -0.11261582396E-01  0.12626964650E+01  0.51100000000E-03 0. -1.
        -11    1    3    3    0    0 -0.50384126619E+01  0.30456833725E+02  0.70036295405E+01  0.31655254693E+02  0.51100000000E-03 0.  1.
        -12    1    3    3    0    0 -0.86239647094E+01  0.92699664963E+01  0.77969003692E+01  0.14869320816E+02  0.00000000000E+00 0.  1.
</event>
<event>
 7    1  0.4818508E-009  0.4778727E+02  0.7816164E-02  0.1312668E+00
        -11   -1    0    0    0    0  0.00000000000E+00  0.00000000000E+00  0.45593999997E+02  0.45594000000E+02  0.51100000000E-03 0.  1.
         11   -1    0    0    0    0 -0.00000000000E+00 -0.00000000000E+00 -0.45593999997E+02  0.45594000000E+02  0.51100000000E-03 0. -1.
    9900012    2    1    2    0    0 -0.13739888971E+02 -0.52039469622E+01  0.40838189952E+02  0.47787269920E+02  0.19999994874E+02 0.  0.
         12    1    1    2    0    0  0.13739888971E+02  0.52039469622E+01 -0.40838189952E+02  0.43400730080E+02  0.00000000000E+00 0. -1.
         11    1    3    3    0    0 -0.70007877504E+01 -0.55988861464E+01  0.58101682672E+01  0.10682537655E+02  0.51100000000E-03 0. -1.
        -11    1    3    3    0    0 -0.31527988229E+01  0.36466933561E+01  0.28879874426E+02  0.29279440910E+02  0.51100000000E-03 0.  1.
        -12    1    3    3    0    0 -0.35863023973E+01 -0.32517541719E+01  0.61481472583E+01  0.78252913548E+01  0.00000000000E+00 0.  1.
</event>
<event>
 7    1  0.4818508E-009  0.4778726E+02  0.7816164E-02  0.1312668E+00
        -11   -1    0    0    0    0  0.00000000000E+00  0.00000000000E+00  0.45593999997E+02  0.45594000000E+02  0.51100000000E-03 0. -1.
         11   -1    0    0    0    0 -0.00000000000E+00 -0.00000000000E+00 -0.45593999997E+02  0.45594000000E+02  0.51100000000E-03 0.  1.
    9900012    2    1    2    0    0 -0.60214154411E+01 -0.11612555196E+02 -0.41382544215E+02  0.47787264432E+02  0.19999969852E+02 0.  0.
         12    1    1    2    0    0  0.60214154411E+01  0.11612555196E+02  0.41382544215E+02  0.43400735568E+02  0.00000000000E+00 0. -1.
         11    1    3    3    0    0 -0.16753821092E+01 -0.11094437302E+02 -0.82798248354E+01  0.13944495108E+02  0.51100000000E-03 0. -1.
        -11    1    3    3    0    0 -0.45542543004E+00  0.22237644259E+01 -0.11506908383E+02  0.11728660680E+02  0.51100000000E-03 0.  1.
         12    1    3    3    0    0 -0.38906079019E+01 -0.27418823199E+01 -0.21595810997E+02  0.22114108644E+02  0.00000000000E+00 0. -1.
</event>
<event>
 7    1  0.4818508E-009  0.4778727E+02  0.7816164E-02  0.1312668E+00
        -11   -1    0    0    0    0  0.00000000000E+00  0.00000000000E+00  0.45593999997E+02  0.45594000000E+02  0.51100000000E-03 0. -1.
         11   -1    0    0    0    0 -0.00000000000E+00 -0.00000000000E+00 -0.45593999997E+02  0.45594000000E+02  0.51100000000E-03 0.  1.
    9900012    2    1    2    0    0  0.26329232581E+02  0.30752643749E+02 -0.15641922899E+02  0.47787270307E+02  0.19999996639E+02 0.  0.
         12    1    1    2    0    0 -0.26329232581E+02 -0.30752643749E+02  0.15641922899E+02  0.43400729693E+02  0.00000000000E+00 0. -1.
         11    1    3    3    0    0  0.18897304495E+02  0.11674449760E+02 -0.13135440232E+02  0.25805826566E+02  0.51100000000E-03 0. -1.
        -11    1    3    3    0    0  0.67425765513E+01  0.17606723869E+02 -0.45260936128E+01  0.19389290539E+02  0.51100000000E-03 0.  1.
        -12    1    3    3    0    0  0.68935153472E+00  0.14714701196E+01  0.20196109460E+01  0.25921532024E+01  0.00000000000E+00 0.  1.
</event>
<event>
 7    1  0.4818508E-009  0.4778727E+02  0.7816164E-02  0.1312668E+00
        -11   -1    0    0    0    0  0.00000000000E+00  0.00000000000E+00  0.45593999997E+02  0.45594000000E+02  0.51100000000E-03 0.  1.
         11   -1    0    0    0    0 -0.00000000000E+00 -0.00000000000E+00 -0.45593999997E+02  0.45594000000E+02  0.51100000000E-03 0. -1.
    9900012    2    1    2    0    0  0.42782708501E+02  0.41268036722E+01 -0.60193586880E+01  0.47787270349E+02  0.19999996829E+02 0.  0.
         12    1    1    2    0    0 -0.42782708501E+02 -0.41268036722E+01  0.60193586880E+01  0.43400729651E+02  0.00000000000E+00 0. -1.
         11    1    3    3    0    0  0.33923347306E+01  0.35830571890E+01 -0.14345733832E+01  0.51385051130E+01  0.51100000000E-03 0. -1.
        -11    1    3    3    0    0  0.32760599472E+02  0.65643009801E+01 -0.29126184426E+01  0.33538489405E+02  0.51100000000E-03 0.  1.
        -12    1    3    3    0    0  0.66297742984E+01 -0.60205544969E+01 -0.16721668622E+01  0.91102758308E+01  0.00000000000E+00 0.  1.
</event>
<event>
 7    1  0.4818508E-009  0.4778730E+02  0.7816164E-02  0.1312668E+00
        -11   -1    0    0    0    0  0.00000000000E+00  0.00000000000E+00  0.45593999997E+02  0.45594000000E+02  0.51100000000E-03 0.  1.
         11   -1    0    0    0    0 -0.00000000000E+00 -0.00000000000E+00 -0.45593999997E+02  0.45594000000E+02  0.51100000000E-03 0. -1.
    9900012    2    1    2    0    0 -0.17312709934E+02  0.25809325723E+02  0.30294707781E+02  0.47787302551E+02  0.20000143651E+02 0.  0.
         12    1    1    2    0    0  0.17312709934E+02 -0.25809325723E+02 -0.30294707781E+02  0.43400697449E+02  0.00000000000E+00 0. -1.
         11    1    3    3    0    0 -0.99032220179E+00  0.96749463834E+01  0.17769775116E+01  0.98865046868E+01  0.51100000000E-03 0. -1.
        -11    1    3    3    0    0 -0.14924099882E+02  0.17127221773E+02  0.23895426247E+02  0.32970621449E+02  0.51100000000E-03 0.  1.
        -12    1    3    3    0    0 -0.13982878499E+01 -0.99284243377E+00  0.46223040220E+01  0.49301764149E+01  0.00000000000E+00 0.  1.
</event>
<event>
 7    1  0.4818508E-009  0.4778727E+02  0.7816164E-02  0.1312668E+00
        -11   -1    0    0    0    0  0.00000000000E+00  0.00000000000E+00  0.45593999997E+02  0.45594000000E+02  0.51100000000E-03 0.  1.
         11   -1    0    0    0    0 -0.00000000000E+00 -0.00000000000E+00 -0.45593999997E+02  0.45594000000E+02  0.51100000000E-03 0. -1.
    9900012    2    1    2    0    0  0.25325631336E+02 -0.21287261877E+02  0.28090711933E+02  0.47787271691E+02  0.20000002949E+02 0.  0.
         12    1    1    2    0    0 -0.25325631336E+02  0.21287261877E+02 -0.28090711933E+02  0.43400728309E+02  0.00000000000E+00 0. -1.
         11    1    3    3    0    0  0.21611961834E+01 -0.58805427899E+01  0.94721330240E+00  0.63363053705E+01  0.51100000000E-03 0. -1.
        -11    1    3    3    0    0  0.20283304884E+02 -0.95273495584E+01  0.13103284393E+02  0.25959177737E+02  0.51100000000E-03 0.  1.
        -12    1    3    3    0    0  0.28811302688E+01 -0.58793695291E+01  0.14040214238E+02  0.15491788584E+02  0.00000000000E+00 0.  1.
</event>
<event>
 7    1  0.4818508E-009  0.4778727E+02  0.7816164E-02  0.1312668E+00
        -11   -1    0    0    0    0  0.00000000000E+00  0.00000000000E+00  0.45593999997E+02  0.45594000000E+02  0.51100000000E-03 0.  1.
         11   -1    0    0    0    0 -0.00000000000E+00 -0.00000000000E+00 -0.45593999997E+02  0.45594000000E+02  0.51100000000E-03 0. -1.
    9900012    2    1    2    0    0  0.46946456477E+01  0.43095487138E+02 -0.20886271201E+01  0.47787273362E+02  0.20000010569E+02 0.  0.
         12    1    1    2    0    0 -0.46946456477E+01 -0.43095487138E+02  0.20886271201E+01  0.43400726638E+02  0.00000000000E+00 0. -1.
         11    1    3    3    0    0 -0.16607916083E+01  0.89859294240E+00  0.20694973652E+01  0.28015205957E+01  0.51100000000E-03 0.  1.
        -11    1    3    3    0    0  0.72165133873E+01  0.21569267514E+02 -0.77528990082E+01  0.24029540359E+02  0.51100000000E-03 0. -1.
        -12    1    3    3    0    0 -0.86107613130E+00  0.20627626682E+02  0.35947745229E+01  0.20956212408E+02  0.00000000000E+00 0.  1.
</event>
<event>
 7    1  0.4818508E-009  0.4778728E+02  0.7816164E-02  0.1312668E+00
        -11   -1    0    0    0    0  0.00000000000E+00  0.00000000000E+00  0.45593999997E+02  0.45594000000E+02  0.51100000000E-03 0.  1.
         11   -1    0    0    0    0 -0.00000000000E+00 -0.00000000000E+00 -0.45593999997E+02  0.45594000000E+02  0.51100000000E-03 0. -1.
    9900012    2    1    2    0    0  0.52039320545E+01  0.23037333892E+02  0.36411847385E+02  0.47787282360E+02  0.20000051592E+02 0.  0.
         12    1    1    2    0    0 -0.52039320545E+01 -0.23037333892E+02 -0.36411847385E+02  0.43400717640E+02  0.00000000000E+00 0. -1.
         11    1    3    3    0    0 -0.17369826214E+01  0.55075992849E+00  0.14181398741E+02  0.14297989916E+02  0.51100000000E-03 0. -1.
        -11    1    3    3    0    0  0.29801431313E+01  0.12353141671E+02  0.62620706220E+01  0.14166682426E+02  0.51100000000E-03 0.  1.
         12    1    3    3    0    0  0.39607715446E+01  0.10133432293E+02  0.15968378022E+02  0.19322610018E+02  0.00000000000E+00 0. -1.
</event>
<event>
 7    1  0.4818508E-009  0.4778727E+02  0.7816164E-02  0.1312668E+00
        -11   -1    0    0    0    0  0.00000000000E+00  0.00000000000E+00  0.45593999997E+02  0.45594000000E+02  0.51100000000E-03 0.  1.
         11   -1    0    0    0    0 -0.00000000000E+00 -0.00000000000E+00 -0.45593999997E+02  0.45594000000E+02  0.51100000000E-03 0. -1.
    9900012    2    1    2    0    0 -0.19553052140E+02 -0.30957715683E+02  0.23300667690E+02  0.47787272781E+02  0.20000007919E+02 0.  0.
         12    1    1    2    0    0  0.19553052140E+02  0.30957715683E+02 -0.23300667690E+02  0.43400727219E+02  0.00000000000E+00 0. -1.
         11    1    3    3    0    0 -0.17029093505E+02 -0.16279304880E+02  0.74481337471E+01  0.24707903383E+02  0.51100000000E-03 0. -1.
        -11    1    3    3    0    0 -0.26550344670E+01 -0.14836786852E+02  0.16530778589E+02  0.22370652497E+02  0.51100000000E-03 0.  1.
        -12    1    3    3    0    0  0.13107583215E+00  0.15837604962E+00 -0.67824464595E+00  0.70871690161E+00  0.00000000000E+00 0.  1.
</event>
<event>
 7    1  0.4818508E-009  0.4778730E+02  0.7816164E-02  0.1312668E+00
        -11   -1    0    0    0    0  0.00000000000E+00  0.00000000000E+00  0.45593999997E+02  0.45594000000E+02  0.51100000000E-03 0.  1.
         11   -1    0    0    0    0 -0.00000000000E+00 -0.00000000000E+00 -0.45593999997E+02  0.45594000000E+02  0.51100000000E-03 0. -1.
    9900012    2    1    2    0    0  0.37384912899E+02  0.17240039024E+02  0.13739366541E+02  0.47787298958E+02  0.20000127267E+02 0.  0.
         12    1    1    2    0    0 -0.37384912899E+02 -0.17240039024E+02 -0.13739366541E+02  0.43400701042E+02  0.00000000000E+00 0. -1.
         11    1    3    3    0    0  0.22380089781E+02  0.19474302478E+02  0.53004068978E+01  0.30136542422E+02  0.51100000000E-03 0. -1.
        -11    1    3    3    0    0  0.32485978434E+01 -0.16151720797E+01  0.28781573063E+01  0.46309781404E+01  0.51100000000E-03 0.  1.
         12    1    3    3    0    0  0.11756225274E+02 -0.61909137429E+00  0.55608023373E+01  0.13019778395E+02  0.00000000000E+00 0. -1.
</event>
<event>
 7    1  0.4818508E-009  0.4778727E+02  0.7816164E-02  0.1312668E+00
        -11   -1    0    0    0    0  0.00000000000E+00  0.00000000000E+00  0.45593999997E+02  0.45594000000E+02  0.51100000000E-03 0.  1.
         11   -1    0    0    0    0 -0.00000000000E+00 -0.00000000000E+00 -0.45593999997E+02  0.45594000000E+02  0.51100000000E-03 0. -1.
    9900012    2    1    2    0    0 -0.18291818337E+02  0.41332493805E+01  0.39140121892E+02  0.47787268321E+02  0.19999987583E+02 0.  0.
         12    1    1    2    0    0  0.18291818337E+02 -0.41332493805E+01 -0.39140121892E+02  0.43400731679E+02  0.00000000000E+00 0. -1.
         11    1    3    3    0    0 -0.94776606962E+01 -0.25400079017E+01  0.26009505328E+02  0.27798778032E+02  0.51100000000E-03 0. -1.
        -11    1    3    3    0    0 -0.53898439266E+01 -0.18898272615E+01  0.63562620226E+01  0.85454041328E+01  0.51100000000E-03 0.  1.
         12    1    3    3    0    0 -0.34243137146E+01  0.85630845436E+01  0.67743545415E+01  0.11443086156E+02  0.00000000000E+00 0. -1.
</event>
<event>
 7    1  0.4818508E-009  0.4778727E+02  0.7816164E-02  0.1312668E+00
        -11   -1    0    0    0    0  0.00000000000E+00  0.00000000000E+00  0.45593999997E+02  0.45594000000E+02  0.51100000000E-03 0.  1.
         11   -1    0    0    0    0 -0.00000000000E+00 -0.00000000000E+00 -0.45593999997E+02  0.45594000000E+02  0.51100000000E-03 0. -1.
    9900012    2    1    2    0    0 -0.34862177392E+02 -0.22203777495E+02  0.13237968761E+02  0.47787274609E+02  0.20000016250E+02 0.  0.
         12    1    1    2    0    0  0.34862177392E+02  0.22203777495E+02 -0.13237968761E+02  0.43400725391E+02  0.00000000000E+00 0. -1.
         11    1    3    3    0    0 -0.26820175455E+01 -0.37328692277E+01 -0.17351152696E+01  0.49130597437E+01  0.51100000000E-03 0. -1.
        -11    1    3    3    0    0 -0.13925601955E+02 -0.39262063078E+00  0.87115318020E+01  0.16430682499E+02  0.51100000000E-03 0.  1.
        -12    1    3    3    0    0 -0.18254557892E+02 -0.18078287636E+02  0.62615522291E+01  0.26443532366E+02  0.00000000000E+00 0.  1.
</event>
<event>
 7    1  0.4818508E-009  0.4778727E+02  0.7816164E-02  0.1312668E+00
        -11   -1    0    0    0    0  0.00000000000E+00  0.00000000000E+00  0.45593999997E+02  0.45594000000E+02  0.51100000000E-03 0.  1.
         11   -1    0    0    0    0 -0.00000000000E+00 -0.00000000000E+00 -0.45593999997E+02  0.45594000000E+02  0.51100000000E-03 0. -1.
    9900012    2    1    2    0    0 -0.35271568893E+02  0.17560716087E+02  0.18197824709E+02  0.47787272520E+02  0.20000006727E+02 0.  0.
         12    1    1    2    0    0  0.35271568893E+02 -0.17560716087E+02 -0.18197824709E+02  0.43400727480E+02  0.00000000000E+00 0. -1.
         11    1    3    3    0    0 -0.26192036942E+01  0.37362379617E+01  0.35937119608E+01  0.58081380852E+01  0.51100000000E-03 0. -1.
        -11    1    3    3    0    0 -0.28922097904E+02  0.17705622619E+02  0.13401046991E+02  0.36463198985E+02  0.51100000000E-03 0.  1.
        -12    1    3    3    0    0 -0.37302672949E+01 -0.38811444935E+01  0.12030657576E+01  0.55159354500E+01  0.00000000000E+00 0.  1.
</event>
<event>
 7    1  0.4818508E-009  0.4778727E+02  0.7816164E-02  0.1312668E+00
        -11   -1    0    0    0    0  0.00000000000E+00  0.00000000000E+00  0.45593999997E+02  0.45594000000E+02  0.51100000000E-03 0. -1.
         11   -1    0    0    0    0 -0.00000000000E+00 -0.00000000000E+00 -0.45593999997E+02  0.45594000000E+02  0.51100000000E-03 0.  1.
    9900012    2    1    2    0    0  0.33004622220E+02  0.28165099302E+02  0.10223832453E+01  0.47787272194E+02  0.20000005241E+02 0.  0.
         12    1    1    2    0    0 -0.33004622220E+02 -0.28165099302E+02 -0.10223832453E+01  0.43400727806E+02  0.00000000000E+00 0. -1.
         11    1    3    3    0    0  0.45747350007E+01 -0.15453708716E+01  0.32111104660E+01  0.57989311207E+01  0.51100000000E-03 0. -1.
        -11    1    3    3    0    0  0.21794530287E+02  0.17901804058E+02 -0.33052514448E+01  0.28397197508E+02  0.51100000000E-03 0.  1.
         12    1    3    3    0    0  0.66353569325E+01  0.11808666116E+02  0.11165242241E+01  0.13591143565E+02  0.00000000000E+00 0. -1.
</event>
<event>
 7    1  0.4818508E-009  0.4778727E+02  0.7816164E-02  0.1312668E+00
        -11   -1    0    0    0    0  0.00000000000E+00  0.00000000000E+00  0.45593999997E+02  0.45594000000E+02  0.51100000000E-03 0.  1.
         11   -1    0    0    0    0 -0.00000000000E+00 -0.00000000000E+00 -0.45593999997E+02  0.45594000000E+02  0.51100000000E-03 0. -1.
    9900012    2    1    2    0    0 -0.14554199194E+02  0.32127114809E+02  0.25291238735E+02  0.47787274466E+02  0.20000015600E+02 0.  0.
         12    1    1    2    0    0  0.14554199194E+02 -0.32127114809E+02 -0.25291238735E+02  0.43400725534E+02  0.00000000000E+00 0. -1.
         11    1    3    3    0    0 -0.62724757742E+01  0.11794494532E+02  0.13290895216E+01  0.13424624122E+02  0.51100000000E-03 0. -1.
        -11    1    3    3    0    0 -0.82252565673E+01  0.21232761112E+02  0.24387753123E+02  0.33365363667E+02  0.51100000000E-03 0.  1.
        -12    1    3    3    0    0 -0.56466852827E-01 -0.90014083460E+00 -0.42560390912E+00  0.99728667645E+00  0.00000000000E+00 0.  1.
</event>
<event>
 7    1  0.4818508E-009  0.4778729E+02  0.7816164E-02  0.1312668E+00
        -11   -1    0    0    0    0  0.00000000000E+00  0.00000000000E+00  0.45593999997E+02  0.45594000000E+02  0.51100000000E-03 0. -1.
         11   -1    0    0    0    0 -0.00000000000E+00 -0.00000000000E+00 -0.45593999997E+02  0.45594000000E+02  0.51100000000E-03 0.  1.
    9900012    2    1    2    0    0 -0.34775849346E+02 -0.19139617819E+02 -0.17548137912E+02  0.47787287884E+02  0.20000076779E+02 0.  0.
         12    1    1    2    0    0  0.34775849346E+02  0.19139617819E+02  0.17548137912E+02  0.43400712116E+02  0.00000000000E+00 0. -1.
         11    1    3    3    0    0 -0.84202168015E+01 -0.96599558894E+01 -0.75815323233E+01  0.14889406684E+02  0.51100000000E-03 0.  1.
        -11    1    3    3    0    0 -0.60833232086E+01  0.21219547251E+01 -0.67310372054E+01  0.93175305332E+01  0.51100000000E-03 0. -1.
        -12    1    3    3    0    0 -0.20272309336E+02 -0.11601616655E+02 -0.32355683831E+01  0.23580350667E+02  0.00000000000E+00 0.  1.
</event>
<event>
 7    1  0.4818508E-009  0.4778727E+02  0.7816164E-02  0.1312668E+00
        -11   -1    0    0    0    0  0.00000000000E+00  0.00000000000E+00  0.45593999997E+02  0.45594000000E+02  0.51100000000E-03 0.  1.
         11   -1    0    0    0    0 -0.00000000000E+00 -0.00000000000E+00 -0.45593999997E+02  0.45594000000E+02  0.51100000000E-03 0. -1.
    9900012    2    1    2    0    0 -0.41293187358E+02  0.13033277542E+02  0.29376283093E+01  0.47787270677E+02  0.19999998324E+02 0.  0.
         12    1    1    2    0    0  0.41293187358E+02 -0.13033277542E+02 -0.29376283093E+01  0.43400729323E+02  0.00000000000E+00 0. -1.
         11    1    3    3    0    0 -0.15553761703E+02  0.99873589825E+01 -0.64371968930E+01  0.19573051542E+02  0.51100000000E-03 0. -1.
        -11    1    3    3    0    0 -0.25685303143E+02  0.30594028323E+01  0.83403335079E+01  0.27178224860E+02  0.51100000000E-03 0.  1.
         12    1    3    3    0    0 -0.54122512129E-01 -0.13484273087E-01  0.10344916944E+01  0.10359942749E+01  0.00000000000E+00 0. -1.
</event>
<event>
 7    1  0.4818508E-009  0.4778727E+02  0.7816164E-02  0.1312668E+00
        -11   -1    0    0    0    0  0.00000000000E+00  0.00000000000E+00  0.45593999997E+02  0.45594000000E+02  0.51100000000E-03 0.  1.
         11   -1    0    0    0    0 -0.00000000000E+00 -0.00000000000E+00 -0.45593999997E+02  0.45594000000E+02  0.51100000000E-03 0. -1.
    9900012    2    1    2    0    0  0.10317460386E+01 -0.39344598128E+02  0.18291015049E+02  0.47787272665E+02  0.20000007387E+02 0.  0.
         12    1    1    2    0    0 -0.10317460386E+01  0.39344598128E+02 -0.18291015049E+02  0.43400727335E+02  0.00000000000E+00 0. -1.
         11    1    3    3    0    0  0.92186138349E+01 -0.24370857156E+02  0.92495729437E+01  0.27649161279E+02  0.51100000000E-03 0. -1.
        -11    1    3    3    0    0 -0.57271092189E+01 -0.14349850043E+02  0.75799255672E+01  0.17209684719E+02  0.51100000000E-03 0.  1.
         12    1    3    3    0    0 -0.24597585773E+01 -0.62389092902E+00  0.14615165380E+01  0.29284266664E+01  0.00000000000E+00 0. -1.
</event>
<event>
 7    1  0.4818508E-009  0.4778727E+02  0.7816164E-02  0.1312668E+00
        -11   -1    0    0    0    0  0.00000000000E+00  0.00000000000E+00  0.45593999997E+02  0.45594000000E+02  0.51100000000E-03 0.  1.
         11   -1    0    0    0    0 -0.00000000000E+00 -0.00000000000E+00 -0.45593999997E+02  0.45594000000E+02  0.51100000000E-03 0. -1.
    9900012    2    1    2    0    0  0.73940458089E+01 -0.29566961597E+02  0.30898966050E+02  0.47787271499E+02  0.20000002072E+02 0.  0.
         12    1    1    2    0    0 -0.73940458089E+01  0.29566961597E+02 -0.30898966050E+02  0.43400728501E+02  0.00000000000E+00 0. -1.
         11    1    3    3    0    0 -0.14541279982E+01 -0.52495292634E+01 -0.17315119893E+01  0.57157833892E+01  0.51100000000E-03 0. -1.
        -11    1    3    3    0    0  0.56672821889E+01 -0.11623802763E+02  0.12006258018E+02  0.17645994161E+02  0.51100000000E-03 0.  1.
         12    1    3    3    0    0  0.31808916182E+01 -0.12693629571E+02  0.20624220021E+02  0.24425493948E+02  0.00000000000E+00 0. -1.
</event>
<event>
 7    1  0.4818508E-009  0.4778727E+02  0.7816164E-02  0.1312668E+00
        -11   -1    0    0    0    0  0.00000000000E+00  0.00000000000E+00  0.45593999997E+02  0.45594000000E+02  0.51100000000E-03 0.  1.
         11   -1    0    0    0    0 -0.00000000000E+00 -0.00000000000E+00 -0.45593999997E+02  0.45594000000E+02  0.51100000000E-03 0. -1.
    9900012    2    1    2    0    0  0.87633742302E+01 -0.99366570493E+01  0.41329042974E+02  0.47787266430E+02  0.19999978962E+02 0.  0.
         12    1    1    2    0    0 -0.87633742302E+01  0.99366570493E+01 -0.41329042974E+02  0.43400733570E+02  0.00000000000E+00 0. -1.
         11    1    3    3    0    0  0.98811677514E+01 -0.36796243506E+01  0.12953452458E+02  0.16702366369E+02  0.51100000000E-03 0. -1.
        -11    1    3    3    0    0 -0.40480695955E+01 -0.60444072736E+01  0.26761684195E+02  0.27732822936E+02  0.51100000000E-03 0.  1.
        -12    1    3    3    0    0  0.29302760742E+01 -0.21262542512E+00  0.16139063213E+01  0.33520771257E+01  0.00000000000E+00 0.  1.
</event>
<event>
 7    1  0.4818508E-009  0.4778727E+02  0.7816164E-02  0.1312668E+00
        -11   -1    0    0    0    0  0.00000000000E+00  0.00000000000E+00  0.45593999997E+02  0.45594000000E+02  0.51100000000E-03 0.  1.
         11   -1    0    0    0    0 -0.00000000000E+00 -0.00000000000E+00 -0.45593999997E+02  0.45594000000E+02  0.51100000000E-03 0. -1.
    9900012    2    1    2    0    0 -0.16612690452E+02 -0.39763052217E+02  0.51518486491E+01  0.47787270166E+02  0.19999995994E+02 0.  0.
         12    1    1    2    0    0  0.16612690452E+02  0.39763052217E+02 -0.51518486491E+01  0.43400729834E+02  0.00000000000E+00 0. -1.
         11    1    3    3    0    0 -0.35214087181E+01 -0.92082348115E+01 -0.57278880329E+01  0.11401780970E+02  0.51100000000E-03 0. -1.
        -11    1    3    3    0    0 -0.94815429590E+01 -0.28729581558E+02  0.76411500826E+01  0.31203776826E+02  0.51100000000E-03 0.  1.
        -12    1    3    3    0    0 -0.36097387751E+01 -0.18252358475E+01  0.32385865994E+01  0.51817123700E+01  0.00000000000E+00 0.  1.
</event>
<event>
 7    1  0.4818508E-009  0.4778727E+02  0.7816164E-02  0.1312668E+00
        -11   -1    0    0    0    0  0.00000000000E+00  0.00000000000E+00  0.45593999997E+02  0.45594000000E+02  0.51100000000E-03 0.  1.
         11   -1    0    0    0    0 -0.00000000000E+00 -0.00000000000E+00 -0.45593999997E+02  0.45594000000E+02  0.51100000000E-03 0. -1.
    9900012    2    1    2    0    0 -0.34602474963E+02  0.17244462383E+01 -0.26140361442E+02  0.47787268616E+02  0.19999988926E+02 0.  0.
         12    1    1    2    0    0  0.34602474963E+02 -0.17244462383E+01  0.26140361442E+02  0.43400731384E+02  0.00000000000E+00 0. -1.
         11    1    3    3    0    0 -0.11542598719E+02 -0.38170317713E+01 -0.14515496710E+02  0.18934121626E+02  0.51100000000E-03 0. -1.
        -11    1    3    3    0    0 -0.77259496226E+01  0.11649916817E+01  0.17888169831E+01  0.80154456925E+01  0.51100000000E-03 0.  1.
        -12    1    3    3    0    0 -0.15333926622E+02  0.43764863279E+01 -0.13413681715E+02  0.20837701298E+02  0.00000000000E+00 0.  1.
</event>
<event>
 7    1  0.4818508E-009  0.4778727E+02  0.7816164E-02  0.1312668E+00
        -11   -1    0    0    0    0  0.00000000000E+00  0.00000000000E+00  0.45593999997E+02  0.45594000000E+02  0.51100000000E-03 0.  1.
         11   -1    0    0    0    0 -0.00000000000E+00 -0.00000000000E+00 -0.45593999997E+02  0.45594000000E+02  0.51100000000E-03 0. -1.
    9900012    2    1    2    0    0 -0.38783194077E+02 -0.17617635658E+02  0.83129896938E+01  0.47787273893E+02  0.20000012987E+02 0.  0.
         12    1    1    2    0    0  0.38783194077E+02  0.17617635658E+02 -0.83129896938E+01  0.43400726107E+02  0.00000000000E+00 0. -1.
         11    1    3    3    0    0 -0.23342383526E+01 -0.32582998658E+01  0.73331531013E+01  0.83570521938E+01  0.51100000000E-03 0. -1.
        -11    1    3    3    0    0 -0.23599376584E+02 -0.74388701635E+01  0.18238498355E+01  0.24811162669E+02  0.51100000000E-03 0.  1.
         12    1    3    3    0    0 -0.12849579140E+02 -0.69204656285E+01 -0.84401324298E+00  0.14619059031E+02  0.00000000000E+00 0. -1.
</event>
<event>
 7    1  0.4818508E-009  0.4778727E+02  0.7816164E-02  0.1312668E+00
        -11   -1    0    0    0    0  0.00000000000E+00  0.00000000000E+00  0.45593999997E+02  0.45594000000E+02  0.51100000000E-03 0. -1.
         11   -1    0    0    0    0 -0.00000000000E+00 -0.00000000000E+00 -0.45593999997E+02  0.45594000000E+02  0.51100000000E-03 0.  1.
    9900012    2    1    2    0    0  0.25489027728E+02  0.34519416816E+02  0.65071183119E+01  0.47787271198E+02  0.20000000699E+02 0.  0.
         12    1    1    2    0    0 -0.25489027728E+02 -0.34519416816E+02 -0.65071183119E+01  0.43400728802E+02  0.00000000000E+00 0. -1.
         11    1    3    3    0    0  0.16849373802E+01  0.13776886251E+02 -0.56416134145E+00  0.13891000217E+02  0.51100000000E-03 0. -1.
        -11    1    3    3    0    0  0.16396097363E+02  0.12616769133E+02 -0.24312973301E+00  0.20689948874E+02  0.51100000000E-03 0.  1.
        -12    1    3    3    0    0  0.74079929853E+01  0.81257614324E+01  0.73144093863E+01  0.13206322107E+02  0.00000000000E+00 0.  1.
</event>
<event>
 7    1  0.4818508E-009  0.4778725E+02  0.7816164E-02  0.1312668E+00
        -11   -1    0    0    0    0  0.00000000000E+00  0.00000000000E+00  0.45593999997E+02  0.45594000000E+02  0.51100000000E-03 0.  1.
         11   -1    0    0    0    0 -0.00000000000E+00 -0.00000000000E+00 -0.45593999997E+02  0.45594000000E+02  0.51100000000E-03 0. -1.
    9900012    2    1    2    0    0 -0.11695063821E+02  0.25591789231E+02  0.33044080737E+02  0.47787245795E+02  0.19999884877E+02 0.  0.
         12    1    1    2    0    0  0.11695063821E+02 -0.25591789231E+02 -0.33044080737E+02  0.43400754205E+02  0.00000000000E+00 0. -1.
         11    1    3    3    0    0 -0.61355589443E+00  0.12100069915E+02  0.56382043755E+01  0.13363288953E+02  0.51100000000E-03 0. -1.
        -11    1    3    3    0    0 -0.66262641257E+01  0.33659552838E+00  0.62413587353E+01  0.91090741537E+01  0.51100000000E-03 0.  1.
         12    1    3    3    0    0 -0.44552438013E+01  0.13155123787E+02  0.21164517626E+02  0.25314882689E+02  0.00000000000E+00 0. -1.
</event>
<event>
 7    1  0.4818508E-009  0.4778727E+02  0.7816164E-02  0.1312668E+00
        -11   -1    0    0    0    0  0.00000000000E+00  0.00000000000E+00  0.45593999997E+02  0.45594000000E+02  0.51100000000E-03 0.  1.
         11   -1    0    0    0    0 -0.00000000000E+00 -0.00000000000E+00 -0.45593999997E+02  0.45594000000E+02  0.51100000000E-03 0. -1.
    9900012    2    1    2    0    0 -0.24639452556E+01  0.21119892266E+02  0.37835198928E+02  0.47787272432E+02  0.20000006326E+02 0.  0.
         12    1    1    2    0    0  0.24639452556E+01 -0.21119892266E+02 -0.37835198928E+02  0.43400727568E+02  0.00000000000E+00 0. -1.
         11    1    3    3    0    0  0.44952752099E+01  0.14000722322E+02  0.21915031371E+02  0.26391216815E+02  0.51100000000E-03 0. -1.
        -11    1    3    3    0    0 -0.88677950585E+01  0.82163226542E+01  0.13651824344E+02  0.18235077607E+02  0.51100000000E-03 0.  1.
         12    1    3    3    0    0  0.19085745930E+01 -0.10971527099E+01  0.22683432131E+01  0.31609780098E+01  0.00000000000E+00 0. -1.
</event>
<event>
 7    1  0.4818508E-009  0.4778727E+02  0.7816164E-02  0.1312668E+00
        -11   -1    0    0    0    0  0.00000000000E+00  0.00000000000E+00  0.45593999997E+02  0.45594000000E+02  0.51100000000E-03 0.  1.
         11   -1    0    0    0    0 -0.00000000000E+00 -0.00000000000E+00 -0.45593999997E+02  0.45594000000E+02  0.51100000000E-03 0. -1.
    9900012    2    1    2    0    0 -0.87517653976E+01 -0.34925436752E+02 -0.24233109253E+02  0.47787272887E+02  0.20000008400E+02 0.  0.
         12    1    1    2    0    0  0.87517653976E+01  0.34925436752E+02  0.24233109253E+02  0.43400727113E+02  0.00000000000E+00 0. -1.
         11    1    3    3    0    0 -0.73955304518E+01 -0.13862300164E+02 -0.20722530619E+02  0.26005393902E+02  0.51100000000E-03 0. -1.
        -11    1    3    3    0    0  0.81145893250E-01 -0.10567753689E+02  0.16392575521E+00  0.10569336526E+02  0.51100000000E-03 0.  1.
         12    1    3    3    0    0 -0.14373808390E+01 -0.10495382899E+02 -0.36745043889E+01  0.11212542458E+02  0.00000000000E+00 0. -1.
</event>
<event>
 7    1  0.4818508E-009  0.4778727E+02  0.7816164E-02  0.1312668E+00
        -11   -1    0    0    0    0  0.00000000000E+00  0.00000000000E+00  0.45593999997E+02  0.45594000000E+02  0.51100000000E-03 0.  1.
         11   -1    0    0    0    0 -0.00000000000E+00 -0.00000000000E+00 -0.45593999997E+02  0.45594000000E+02  0.51100000000E-03 0. -1.
    9900012    2    1    2    0    0 -0.40622576772E+02  0.10964290189E+02 -0.10640204472E+02  0.47787270120E+02  0.19999995785E+02 0.  0.
         12    1    1    2    0    0  0.40622576772E+02 -0.10964290189E+02  0.10640204472E+02  0.43400729880E+02  0.00000000000E+00 0. -1.
         11    1    3    3    0    0 -0.36903982074E+01 -0.46667005551E+01 -0.80356093860E+00  0.60035692253E+01  0.51100000000E-03 0. -1.
        -11    1    3    3    0    0 -0.14334905272E+02  0.67254200724E+01 -0.70596947044E+01  0.17336668477E+02  0.51100000000E-03 0.  1.
         12    1    3    3    0    0 -0.22597273292E+02  0.89055706713E+01 -0.27769488289E+01  0.24447032417E+02  0.00000000000E+00 0. -1.
</event>
<event>
 7    1  0.4818508E-009  0.4778727E+02  0.7816164E-02  0.1312668E+00
        -11   -1    0    0    0    0  0.00000000000E+00  0.00000000000E+00  0.45593999997E+02  0.45594000000E+02  0.51100000000E-03 0.  1.
         11   -1    0    0    0    0 -0.00000000000E+00 -0.00000000000E+00 -0.45593999997E+02  0.45594000000E+02  0.51100000000E-03 0. -1.
    9900012    2    1    2    0    0 -0.37635149691E+01 -0.37569069836E+02  0.21401497753E+02  0.47787272364E+02  0.20000006018E+02 0.  0.
         12    1    1    2    0    0  0.37635149691E+01  0.37569069836E+02 -0.21401497753E+02  0.43400727636E+02  0.00000000000E+00 0. -1.
         11    1    3    3    0    0  0.51450630639E+01 -0.35227432066E+01  0.78283931542E+01  0.10008253258E+02  0.51100000000E-03 0. -1.
        -11    1    3    3    0    0 -0.81233621044E+01 -0.28031682054E+02  0.10975646949E+02  0.31180587500E+02  0.51100000000E-03 0.  1.
         12    1    3    3    0    0 -0.78521592863E+00 -0.60146445755E+01  0.25974576497E+01  0.65984316066E+01  0.00000000000E+00 0. -1.
</event>
<event>
 7    1  0.4818508E-009  0.4778729E+02  0.7816164E-02  0.1312668E+00
        -11   -1    0    0    0    0  0.00000000000E+00  0.00000000000E+00  0.45593999997E+02  0.45594000000E+02  0.51100000000E-03 0.  1.
         11   -1    0    0    0    0 -0.00000000000E+00 -0.00000000000E+00 -0.45593999997E+02  0.45594000000E+02  0.51100000000E-03 0. -1.
    9900012    2    1    2    0    0  0.41772447357E+02  0.46186298569E+01  0.10832922458E+02  0.47787293682E+02  0.20000103214E+02 0.  0.
         12    1    1    2    0    0 -0.41772447357E+02 -0.46186298569E+01 -0.10832922458E+02  0.43400706318E+02  0.00000000000E+00 0. -1.
         11    1    3    3    0    0  0.26755053134E+02  0.88180042479E+01  0.48479467919E+01  0.28584832613E+02  0.51100000000E-03 0. -1.
        -11    1    3    3    0    0  0.16025302214E+02 -0.51581343321E+01  0.52840263625E+01  0.17644761140E+02  0.51100000000E-03 0.  1.
         12    1    3    3    0    0 -0.10079079914E+01  0.95875994104E+00  0.70094930326E+00  0.15576999292E+01  0.00000000000E+00 0. -1.
</event>
<event>
 7    1  0.4818508E-009  0.4778727E+02  0.7816164E-02  0.1312668E+00
        -11   -1    0    0    0    0  0.00000000000E+00  0.00000000000E+00  0.45593999997E+02  0.45594000000E+02  0.51100000000E-03 0. -1.
         11   -1    0    0    0    0 -0.00000000000E+00 -0.00000000000E+00 -0.45593999997E+02  0.45594000000E+02  0.51100000000E-03 0.  1.
    9900012    2    1    2    0    0 -0.42336095944E+02  0.22203375656E+01  0.92923823666E+01  0.47787270873E+02  0.19999999219E+02 0.  0.
         12    1    1    2    0    0  0.42336095944E+02 -0.22203375656E+01 -0.92923823666E+01  0.43400729127E+02  0.00000000000E+00 0. -1.
         11    1    3    3    0    0 -0.74220843663E+00 -0.39234825314E+01 -0.11670040806E+01  0.41601066480E+01  0.51100000000E-03 0. -1.
        -11    1    3    3    0    0 -0.25955534354E+01 -0.77415331969E+00  0.11379671741E+01  0.29378870892E+01  0.51100000000E-03 0.  1.
         12    1    3    3    0    0 -0.38998334072E+02  0.69179734167E+01  0.93214192731E+01  0.40689277136E+02  0.00000000000E+00 0. -1.
</event>
<event>
 7    1  0.4818508E-009  0.4778727E+02  0.7816164E-02  0.1312668E+00
        -11   -1    0    0    0    0  0.00000000000E+00  0.00000000000E+00  0.45593999997E+02  0.45594000000E+02  0.51100000000E-03 0. -1.
         11   -1    0    0    0    0 -0.00000000000E+00 -0.00000000000E+00 -0.45593999997E+02  0.45594000000E+02  0.51100000000E-03 0.  1.
    9900012    2    1    2    0    0  0.48204796395E+01  0.14326592192E+02 -0.40683347235E+02  0.47787274084E+02  0.20000013857E+02 0.  0.
         12    1    1    2    0    0 -0.48204796395E+01 -0.14326592192E+02  0.40683347235E+02  0.43400725916E+02  0.00000000000E+00 0. -1.
         11    1    3    3    0    0  0.69859092271E+01 -0.10606371827E+01 -0.15119515399E+02  0.16689146927E+02  0.51100000000E-03 0. -1.
        -11    1    3    3    0    0 -0.30347131758E+01  0.99618483899E+01 -0.22533036031E+02  0.24823086440E+02  0.51100000000E-03 0.  1.
         12    1    3    3    0    0  0.86928358818E+00  0.54253809846E+01 -0.30307958052E+01  0.62750407168E+01  0.00000000000E+00 0. -1.
</event>
<event>
 7    1  0.4818508E-009  0.4778727E+02  0.7816164E-02  0.1312668E+00
        -11   -1    0    0    0    0  0.00000000000E+00  0.00000000000E+00  0.45593999997E+02  0.45594000000E+02  0.51100000000E-03 0.  1.
         11   -1    0    0    0    0 -0.00000000000E+00 -0.00000000000E+00 -0.45593999997E+02  0.45594000000E+02  0.51100000000E-03 0. -1.
    9900012    2    1    2    0    0  0.10597968428E+02  0.23830112378E+02  0.34690516953E+02  0.47787272389E+02  0.20000006130E+02 0.  0.
         12    1    1    2    0    0 -0.10597968428E+02 -0.23830112378E+02 -0.34690516953E+02  0.43400727611E+02  0.00000000000E+00 0. -1.
         11    1    3    3    0    0 -0.58116245581E+01  0.77866829889E+01  0.11282980537E+02  0.14890032305E+02  0.51100000000E-03 0. -1.
        -11    1    3    3    0    0  0.10398675724E+02  0.83912139900E+01  0.14256309880E+02  0.19539378207E+02  0.51100000000E-03 0.  1.
         12    1    3    3    0    0  0.60109172617E+01  0.76522153989E+01  0.91512265352E+01  0.13357861877E+02  0.00000000000E+00 0. -1.
</event>
<event>
 7    1  0.4818508E-009  0.4778728E+02  0.7816164E-02  0.1312668E+00
        -11   -1    0    0    0    0  0.00000000000E+00  0.00000000000E+00  0.45593999997E+02  0.45594000000E+02  0.51100000000E-03 0.  1.
         11   -1    0    0    0    0 -0.00000000000E+00 -0.00000000000E+00 -0.45593999997E+02  0.45594000000E+02  0.51100000000E-03 0. -1.
    9900012    2    1    2    0    0 -0.83632316040E+01  0.27789307703E+02  0.32271250630E+02  0.47787275551E+02  0.20000020547E+02 0.  0.
         12    1    1    2    0    0  0.83632316040E+01 -0.27789307703E+02 -0.32271250630E+02  0.43400724449E+02  0.00000000000E+00 0. -1.
         11    1    3    3    0    0  0.26909812614E+01  0.22421434643E+01  0.12052670327E+01  0.37042214222E+01  0.51100000000E-03 0. -1.
        -11    1    3    3    0    0 -0.46117242833E+01  0.85579728237E+01  0.21394633198E+02  0.23499728289E+02  0.51100000000E-03 0.  1.
        -12    1    3    3    0    0 -0.64424885821E+01  0.16989191415E+02  0.96713503992E+01  0.20583325839E+02  0.00000000000E+00 0.  1.
</event>
<event>
 7    1  0.4890092E-009  0.4778727E+02  0.7816164E-02  0.1312668E+00
        -11   -1    0    0    0    0  0.00000000000E+00  0.00000000000E+00  0.45593999997E+02  0.45594000000E+02  0.51100000000E-03 0. -1.
         11   -1    0    0    0    0 -0.00000000000E+00 -0.00000000000E+00 -0.45593999997E+02  0.45594000000E+02  0.51100000000E-03 0.  1.
    9900012    2    1    2    0    0 -0.35995818695E+01  0.33600610174E+02 -0.27233537999E+02  0.47787267453E+02  0.19999983623E+02 0.  0.
         12    1    1    2    0    0  0.35995818695E+01 -0.33600610174E+02  0.27233537999E+02  0.43400732547E+02  0.00000000000E+00 0. -1.
         11    1    3    3    0    0  0.52966946565E+01  0.61260524466E+01 -0.50519178318E+01  0.95449131428E+01  0.51100000000E-03 0. -1.
        -11    1    3    3    0    0 -0.85796826017E+01  0.21586984216E+02 -0.11223590521E+02  0.25798795040E+02  0.51100000000E-03 0.  1.
        -12    1    3    3    0    0 -0.31659392429E+00  0.58875735118E+01 -0.10958029647E+02  0.12443559270E+02  0.00000000000E+00 0.  1.
</event>
<event>
 7    1  0.4818508E-009  0.4778727E+02  0.7816164E-02  0.1312668E+00
        -11   -1    0    0    0    0  0.00000000000E+00  0.00000000000E+00  0.45593999997E+02  0.45594000000E+02  0.51100000000E-03 0. -1.
         11   -1    0    0    0    0 -0.00000000000E+00 -0.00000000000E+00 -0.45593999997E+02  0.45594000000E+02  0.51100000000E-03 0.  1.
    9900012    2    1    2    0    0  0.18036373885E+01  0.40404683143E+02  0.15742664558E+02  0.47787274025E+02  0.20000013590E+02 0.  0.
         12    1    1    2    0    0 -0.18036373885E+01 -0.40404683143E+02 -0.15742664558E+02  0.43400725975E+02  0.00000000000E+00 0. -1.
         11    1    3    3    0    0 -0.43323768555E+01  0.26531764950E+02  0.86456255541E+01  0.28239172828E+02  0.51100000000E-03 0. -1.
        -11    1    3    3    0    0  0.63690189652E+01  0.26732155755E+01  0.16987452247E+01  0.71131019739E+01  0.51100000000E-03 0.  1.
         12    1    3    3    0    0 -0.23300472117E+00  0.11199702618E+02  0.53982937794E+01  0.12434999223E+02  0.00000000000E+00 0. -1.
</event>
<event>
 7    1  0.4818508E-009  0.4778727E+02  0.7816164E-02  0.1312668E+00
        -11   -1    0    0    0    0  0.00000000000E+00  0.00000000000E+00  0.45593999997E+02  0.45594000000E+02  0.51100000000E-03 0.  1.
         11   -1    0    0    0    0 -0.00000000000E+00 -0.00000000000E+00 -0.45593999997E+02  0.45594000000E+02  0.51100000000E-03 0. -1.
    9900012    2    1    2    0    0  0.25970423303E+02  0.32247205975E+02 -0.13010690845E+02  0.47787271250E+02  0.20000000938E+02 0.  0.
         12    1    1    2    0    0 -0.25970423303E+02 -0.32247205975E+02  0.13010690845E+02  0.43400728750E+02  0.00000000000E+00 0. -1.
         11    1    3    3    0    0  0.55883606942E+00  0.67651423578E+00 -0.13869009637E+01  0.16411775675E+01  0.51100000000E-03 0. -1.
        -11    1    3    3    0    0  0.12146784587E+02  0.43315042133E+01 -0.90192841323E+01  0.15737019765E+02  0.51100000000E-03 0.  1.
        -12    1    3    3    0    0  0.13264802646E+02  0.27239187526E+02 -0.26045057494E+01  0.30409073918E+02  0.00000000000E+00 0.  1.
</event>
<event>
 7    1  0.4818508E-009  0.4778728E+02  0.7816164E-02  0.1312668E+00
        -11   -1    0    0    0    0  0.00000000000E+00  0.00000000000E+00  0.45593999997E+02  0.45594000000E+02  0.51100000000E-03 0.  1.
         11   -1    0    0    0    0 -0.00000000000E+00 -0.00000000000E+00 -0.45593999997E+02  0.45594000000E+02  0.51100000000E-03 0. -1.
    9900012    2    1    2    0    0 -0.21887045786E+02 -0.10094449968E+02  0.36092685145E+02  0.47787278643E+02  0.20000034643E+02 0.  0.
         12    1    1    2    0    0  0.21887045786E+02  0.10094449968E+02 -0.36092685145E+02  0.43400721357E+02  0.00000000000E+00 0. -1.
         11    1    3    3    0    0 -0.15242778909E+02 -0.90368615292E+01  0.13371910825E+02  0.22199440860E+02  0.51100000000E-03 0. -1.
        -11    1    3    3    0    0 -0.63989630670E+01 -0.11606477374E+01  0.59487668176E+01  0.88137198965E+01  0.51100000000E-03 0.  1.
         12    1    3    3    0    0 -0.24530381020E+00  0.10305929857E+00  0.16772007502E+02  0.16774117886E+02  0.00000000000E+00 0. -1.
</event>
<event>
 7    1  0.4818508E-009  0.4778727E+02  0.7816164E-02  0.1312668E+00
        -11   -1    0    0    0    0  0.00000000000E+00  0.00000000000E+00  0.45593999997E+02  0.45594000000E+02  0.51100000000E-03 0.  1.
         11   -1    0    0    0    0 -0.00000000000E+00 -0.00000000000E+00 -0.45593999997E+02  0.45594000000E+02  0.51100000000E-03 0. -1.
    9900012    2    1    2    0    0 -0.31077528375E+02  0.10273095162E+02  0.28500415684E+02  0.47787274796E+02  0.20000017103E+02 0.  0.
         12    1    1    2    0    0  0.31077528375E+02 -0.10273095162E+02 -0.28500415684E+02  0.43400725204E+02  0.00000000000E+00 0. -1.
         11    1    3    3    0    0 -0.12416024415E+01  0.77353530303E+01  0.80247292685E+01  0.11214880437E+02  0.51100000000E-03 0. -1.
        -11    1    3    3    0    0 -0.18354026591E+02  0.28479277453E+01  0.10363846616E+02  0.21269468763E+02  0.51100000000E-03 0.  1.
         12    1    3    3    0    0 -0.11481899343E+02 -0.31018561410E+00  0.10111839800E+02  0.15302925595E+02  0.00000000000E+00 0. -1.
</event>
<event>
 7    1  0.4818508E-009  0.4778728E+02  0.7816164E-02  0.1312668E+00
        -11   -1    0    0    0    0  0.00000000000E+00  0.00000000000E+00  0.45593999997E+02  0.45594000000E+02  0.51100000000E-03 0. -1.
         11   -1    0    0    0    0 -0.00000000000E+00 -0.00000000000E+00 -0.45593999997E+02  0.45594000000E+02  0.51100000000E-03 0.  1.
    9900012    2    1    2    0    0  0.34956999182E+02  0.11177520978E+02 -0.23166659471E+02  0.47787275604E+02  0.20000020789E+02 0.  0.
         12    1    1    2    0    0 -0.34956999182E+02 -0.11177520978E+02  0.23166659471E+02  0.43400724396E+02  0.00000000000E+00 0. -1.
         11    1    3    3    0    0  0.23675538934E+01  0.68410266323E+01 -0.37696961414E+01  0.81618359504E+01  0.51100000000E-03 0. -1.
        -11    1    3    3    0    0  0.25435006246E+02  0.26207514022E+01 -0.94649549530E+01  0.27265238916E+02  0.51100000000E-03 0.  1.
        -12    1    3    3    0    0  0.71544390434E+01  0.17157429432E+01 -0.99320083768E+01  0.12360200737E+02  0.00000000000E+00 0.  1.
</event>
<event>
 7    1  0.4818508E-009  0.4778727E+02  0.7816164E-02  0.1312668E+00
        -11   -1    0    0    0    0  0.00000000000E+00  0.00000000000E+00  0.45593999997E+02  0.45594000000E+02  0.51100000000E-03 0. -1.
         11   -1    0    0    0    0 -0.00000000000E+00 -0.00000000000E+00 -0.45593999997E+02  0.45594000000E+02  0.51100000000E-03 0.  1.
    9900012    2    1    2    0    0 -0.31247768970E+02 -0.48493912855E+01 -0.29726816658E+02  0.47787270858E+02  0.19999999149E+02 0.  0.
         12    1    1    2    0    0  0.31247768970E+02  0.48493912855E+01  0.29726816658E+02  0.43400729142E+02  0.00000000000E+00 0. -1.
         11    1    3    3    0    0 -0.84393381329E+01 -0.53975788201E+01 -0.22542167771E+01  0.10268289964E+02  0.51100000000E-03 0. -1.
        -11    1    3    3    0    0 -0.61308854701E+01  0.34863958043E+01 -0.14711524358E+02  0.16314768204E+02  0.51100000000E-03 0.  1.
        -12    1    3    3    0    0 -0.16677545367E+02 -0.29382082697E+01 -0.12761075523E+02  0.21204212690E+02  0.00000000000E+00 0.  1.
</event>
<event>
 7    1  0.4818508E-009  0.4778727E+02  0.7816164E-02  0.1312668E+00
        -11   -1    0    0    0    0  0.00000000000E+00  0.00000000000E+00  0.45593999997E+02  0.45594000000E+02  0.51100000000E-03 0.  1.
         11   -1    0    0    0    0 -0.00000000000E+00 -0.00000000000E+00 -0.45593999997E+02  0.45594000000E+02  0.51100000000E-03 0. -1.
    9900012    2    1    2    0    0 -0.40204686472E+02  0.63368943398E+01  0.15068188844E+02  0.47787270061E+02  0.19999995516E+02 0.  0.
         12    1    1    2    0    0  0.40204686472E+02 -0.63368943398E+01 -0.15068188844E+02  0.43400729939E+02  0.00000000000E+00 0. -1.
         11    1    3    3    0    0 -0.40212221289E+00 -0.26177244271E+01  0.28711598449E+01  0.39061160462E+01  0.51100000000E-03 0. -1.
        -11    1    3    3    0    0 -0.16802282706E+02  0.90554705184E+01  0.43266352485E+01  0.19571357216E+02  0.51100000000E-03 0.  1.
         12    1    3    3    0    0 -0.23000281553E+02 -0.10085175137E+00  0.78703937503E+01  0.24309796799E+02  0.00000000000E+00 0. -1.
</event>
<event>
 7    1  0.4818508E-009  0.4778727E+02  0.7816164E-02  0.1312668E+00
        -11   -1    0    0    0    0  0.00000000000E+00  0.00000000000E+00  0.45593999997E+02  0.45594000000E+02  0.51100000000E-03 0.  1.
         11   -1    0    0    0    0 -0.00000000000E+00 -0.00000000000E+00 -0.45593999997E+02  0.45594000000E+02  0.51100000000E-03 0. -1.
    9900012    2    1    2    0    0 -0.36877884460E+02  0.53984887507E+01 -0.22237383560E+02  0.47787271082E+02  0.20000000171E+02 0.  0.
         12    1    1    2    0    0  0.36877884460E+02 -0.53984887507E+01  0.22237383560E+02  0.43400728918E+02  0.00000000000E+00 0. -1.
         11    1    3    3    0    0 -0.61614448639E+01 -0.34030819729E+01 -0.17332901071E+01  0.72490457704E+01  0.51100000000E-03 0.  1.
        -11    1    3    3    0    0 -0.12583614897E+02 -0.20306365758E+01 -0.12775525951E+02  0.18046742431E+02  0.51100000000E-03 0. -1.
        -12    1    3    3    0    0 -0.18132824699E+02  0.10832207299E+02 -0.77285675016E+01  0.22491482881E+02  0.00000000000E+00 0.  1.
</event>
<event>
 7    1 -0.7300503E-009  0.4778727E+02  0.7816164E-02  0.1312668E+00
        -11   -1    0    0    0    0  0.00000000000E+00  0.00000000000E+00  0.45593999997E+02  0.45594000000E+02  0.51100000000E-03 0.  1.
         11   -1    0    0    0    0 -0.00000000000E+00 -0.00000000000E+00 -0.45593999997E+02  0.45594000000E+02  0.51100000000E-03 0. -1.
    9900012    2    1    2    0    0 -0.35914472276E+01 -0.11620315960E+02  0.41661649771E+02  0.47787270768E+02  0.19999998741E+02 0.  0.
         12    1    1    2    0    0  0.35914472276E+01  0.11620315960E+02 -0.41661649771E+02  0.43400729232E+02  0.00000000000E+00 0. -1.
         11    1    3    3    0    0  0.34638878185E+00 -0.12667461567E+02  0.30324019088E+02  0.32865341952E+02  0.51100000000E-03 0. -1.
        -11    1    3    3    0    0 -0.43846301939E+01 -0.31864732539E+01  0.58225448909E+01  0.79549118790E+01  0.51100000000E-03 0.  1.
         12    1    3    3    0    0  0.44679418446E+00  0.42336188612E+01  0.55150857923E+01  0.69670169370E+01  0.00000000000E+00 0. -1.
</event>
<event>
 7    1  0.4818508E-009  0.4778729E+02  0.7816164E-02  0.1312668E+00
        -11   -1    0    0    0    0  0.00000000000E+00  0.00000000000E+00  0.45593999997E+02  0.45594000000E+02  0.51100000000E-03 0.  1.
         11   -1    0    0    0    0 -0.00000000000E+00 -0.00000000000E+00 -0.45593999997E+02  0.45594000000E+02  0.51100000000E-03 0. -1.
    9900012    2    1    2    0    0 -0.63720548718E+01  0.23787602252E+02  0.35737490118E+02  0.47787293737E+02  0.20000103463E+02 0.  0.
         12    1    1    2    0    0  0.63720548718E+01 -0.23787602252E+02 -0.35737490118E+02  0.43400706263E+02  0.00000000000E+00 0. -1.
         11    1    3    3    0    0  0.60880900067E+00 -0.92772863296E+00  0.81474911090E+00  0.13766427244E+01  0.51100000000E-03 0. -1.
        -11    1    3    3    0    0  0.31144369936E+01  0.13200628291E+02  0.89188578024E+01  0.16232754844E+02  0.51100000000E-03 0.  1.
        -12    1    3    3    0    0 -0.10095300866E+02  0.11514702593E+02  0.26003883205E+02  0.30177896168E+02  0.00000000000E+00 0.  1.
</event>
<event>
 7    1  0.6083805E-009  0.4778727E+02  0.7816164E-02  0.1312668E+00
        -11   -1    0    0    0    0  0.00000000000E+00  0.00000000000E+00  0.45593999997E+02  0.45594000000E+02  0.51100000000E-03 0. -1.
         11   -1    0    0    0    0 -0.00000000000E+00 -0.00000000000E+00 -0.45593999997E+02  0.45594000000E+02  0.51100000000E-03 0.  1.
    9900012    2    1    2    0    0  0.30214273400E+01  0.31367737124E+02 -0.29842239450E+02  0.47787271770E+02  0.20000003309E+02 0.  0.
         12    1    1    2    0    0 -0.30214273400E+01 -0.31367737124E+02  0.29842239450E+02  0.43400728230E+02  0.00000000000E+00 0. -1.
         11    1    3    3    0    0  0.30543015518E+01 -0.72360994095E+00 -0.13698650758E+01  0.34247481517E+01  0.51100000000E-03 0. -1.
        -11    1    3    3    0    0  0.48837995015E+00  0.22800973273E+02 -0.12845152520E+02  0.26174813097E+02  0.51100000000E-03 0.  1.
        -12    1    3    3    0    0 -0.52125416193E+00  0.92903737922E+01 -0.15627221855E+02  0.18187710521E+02  0.00000000000E+00 0.  1.
</event>
<event>
 7    1  0.4818508E-009  0.4778727E+02  0.7816164E-02  0.1312668E+00
        -11   -1    0    0    0    0  0.00000000000E+00  0.00000000000E+00  0.45593999997E+02  0.45594000000E+02  0.51100000000E-03 0.  1.
         11   -1    0    0    0    0 -0.00000000000E+00 -0.00000000000E+00 -0.45593999997E+02  0.45594000000E+02  0.51100000000E-03 0. -1.
    9900012    2    1    2    0    0 -0.18475124515E+02  0.26755824379E+02  0.28747505340E+02  0.47787269276E+02  0.19999991938E+02 0.  0.
         12    1    1    2    0    0  0.18475124515E+02 -0.26755824379E+02 -0.28747505340E+02  0.43400730724E+02  0.00000000000E+00 0. -1.
         11    1    3    3    0    0  0.34848770587E+01  0.32992191382E+01  0.85201682114E+01  0.97786748411E+01  0.51100000000E-03 0. -1.
        -11    1    3    3    0    0 -0.11418097144E+02  0.11532813479E+02  0.93298217377E+01  0.18719623476E+02  0.51100000000E-03 0.  1.
         12    1    3    3    0    0 -0.10541904429E+02  0.11923791762E+02  0.10897515391E+02  0.19288970960E+02  0.00000000000E+00 0. -1.
</event>
<event>
 7    1  0.4818508E-009  0.4778728E+02  0.7816164E-02  0.1312668E+00
        -11   -1    0    0    0    0  0.00000000000E+00  0.00000000000E+00  0.45593999997E+02  0.45594000000E+02  0.51100000000E-03 0.  1.
         11   -1    0    0    0    0 -0.00000000000E+00 -0.00000000000E+00 -0.45593999997E+02  0.45594000000E+02  0.51100000000E-03 0. -1.
    9900012    2    1    2    0    0  0.43000693098E+02  0.21180052635E+01  0.54842835120E+01  0.47787275135E+02  0.20000018649E+02 0.  0.
         12    1    1    2    0    0 -0.43000693098E+02 -0.21180052635E+01 -0.54842835120E+01  0.43400724865E+02  0.00000000000E+00 0. -1.
         11    1    3    3    0    0  0.27919297359E+02  0.72336423978E+01 -0.36287822181E+01  0.29068553594E+02  0.51100000000E-03 0. -1.
        -11    1    3    3    0    0  0.10700525452E+02 -0.21238521478E+01  0.72385046786E+01  0.13092285635E+02  0.51100000000E-03 0.  1.
         12    1    3    3    0    0  0.43808702864E+01 -0.29917849866E+01  0.18745610514E+01  0.56264359063E+01  0.00000000000E+00 0. -1.
</event>
<event>
 7    1  0.4818508E-009  0.4778727E+02  0.7816164E-02  0.1312668E+00
        -11   -1    0    0    0    0  0.00000000000E+00  0.00000000000E+00  0.45593999997E+02  0.45594000000E+02  0.51100000000E-03 0. -1.
         11   -1    0    0    0    0 -0.00000000000E+00 -0.00000000000E+00 -0.45593999997E+02  0.45594000000E+02  0.51100000000E-03 0.  1.
    9900012    2    1    2    0    0  0.19802156545E+02  0.79261349995E+01 -0.37797810192E+02  0.47787268725E+02  0.19999989426E+02 0.  0.
         12    1    1    2    0    0 -0.19802156545E+02 -0.79261349995E+01  0.37797810192E+02  0.43400731275E+02  0.00000000000E+00 0. -1.
         11    1    3    3    0    0  0.11257958119E+02  0.38977809412E+01 -0.30047233011E+02  0.32322910283E+02  0.51100000000E-03 0. -1.
        -11    1    3    3    0    0 -0.12448190782E+01 -0.71666412472E-01  0.10865391324E+01  0.16538676366E+01  0.51100000000E-03 0.  1.
        -12    1    3    3    0    0  0.97890175043E+01  0.41000204708E+01 -0.88371163133E+01  0.13810490806E+02  0.00000000000E+00 0.  1.
</event>
<event>
 7    1  0.4818508E-009  0.4778728E+02  0.7816164E-02  0.1312668E+00
        -11   -1    0    0    0    0  0.00000000000E+00  0.00000000000E+00  0.45593999997E+02  0.45594000000E+02  0.51100000000E-03 0.  1.
         11   -1    0    0    0    0 -0.00000000000E+00 -0.00000000000E+00 -0.45593999997E+02  0.45594000000E+02  0.51100000000E-03 0. -1.
    9900012    2    1    2    0    0  0.31238171085E+02 -0.26229767449E+02 -0.14825601754E+02  0.47787279954E+02  0.20000040621E+02 0.  0.
         12    1    1    2    0    0 -0.31238171085E+02  0.26229767449E+02  0.14825601754E+02  0.43400720046E+02  0.00000000000E+00 0. -1.
         11    1    3    3    0    0 -0.61606470448E+00 -0.54683654472E+01 -0.13260430236E+01  0.56604723077E+01  0.51100000000E-03 0. -1.
        -11    1    3    3    0    0  0.17715172932E+02 -0.43542964874E+01 -0.58769396392E+01  0.19165742086E+02  0.51100000000E-03 0.  1.
        -12    1    3    3    0    0  0.14139062857E+02 -0.16407105515E+02 -0.76226190913E+01  0.22961065560E+02  0.00000000000E+00 0.  1.
</event>
<event>
 7    1  0.4818508E-009  0.4778727E+02  0.7816164E-02  0.1312668E+00
        -11   -1    0    0    0    0  0.00000000000E+00  0.00000000000E+00  0.45593999997E+02  0.45594000000E+02  0.51100000000E-03 0.  1.
         11   -1    0    0    0    0 -0.00000000000E+00 -0.00000000000E+00 -0.45593999997E+02  0.45594000000E+02  0.51100000000E-03 0. -1.
    9900012    2    1    2    0    0 -0.24631097023E+02  0.12710396726E+02  0.33397275383E+02  0.47787272719E+02  0.20000007636E+02 0.  0.
         12    1    1    2    0    0  0.24631097023E+02 -0.12710396726E+02 -0.33397275383E+02  0.43400727281E+02  0.00000000000E+00 0. -1.
         11    1    3    3    0    0 -0.29864510528E+01 -0.35252555435E+01  0.59188835322E+01  0.75086283080E+01  0.51100000000E-03 0. -1.
        -11    1    3    3    0    0 -0.16810769796E+02  0.87468555059E+01  0.12038831614E+02  0.22450900411E+02  0.51100000000E-03 0.  1.
        -12    1    3    3    0    0 -0.48338761747E+01  0.74887967635E+01  0.15439560236E+02  0.17827744000E+02  0.00000000000E+00 0.  1.
</event>
<event>
 7    1  0.4818508E-009  0.4778727E+02  0.7816164E-02  0.1312668E+00
        -11   -1    0    0    0    0  0.00000000000E+00  0.00000000000E+00  0.45593999997E+02  0.45594000000E+02  0.51100000000E-03 0.  1.
         11   -1    0    0    0    0 -0.00000000000E+00 -0.00000000000E+00 -0.45593999997E+02  0.45594000000E+02  0.51100000000E-03 0. -1.
    9900012    2    1    2    0    0  0.86990248039E+01 -0.25518363121E+02  0.34011225057E+02  0.47787270527E+02  0.19999997640E+02 0.  0.
         12    1    1    2    0    0 -0.86990248039E+01  0.25518363121E+02 -0.34011225057E+02  0.43400729473E+02  0.00000000000E+00 0. -1.
         11    1    3    3    0    0  0.25408065626E+01 -0.22673039539E+01  0.13267260526E+01  0.36546637995E+01  0.51100000000E-03 0. -1.
        -11    1    3    3    0    0  0.11326243105E+02 -0.91515695218E+01  0.14506712153E+02  0.20554311113E+02  0.51100000000E-03 0.  1.
        -12    1    3    3    0    0 -0.51680248635E+01 -0.14099489646E+02  0.18177786851E+02  0.23578295614E+02  0.00000000000E+00 0.  1.
</event>
<event>
 7    1  0.4818508E-009  0.4778727E+02  0.7816164E-02  0.1312668E+00
        -11   -1    0    0    0    0  0.00000000000E+00  0.00000000000E+00  0.45593999997E+02  0.45594000000E+02  0.51100000000E-03 0.  1.
         11   -1    0    0    0    0 -0.00000000000E+00 -0.00000000000E+00 -0.45593999997E+02  0.45594000000E+02  0.51100000000E-03 0. -1.
    9900012    2    1    2    0    0 -0.71966112381E+00 -0.38734210443E+02  0.19564415862E+02  0.47787270297E+02  0.19999996592E+02 0.  0.
         12    1    1    2    0    0  0.71966112381E+00  0.38734210443E+02 -0.19564415862E+02  0.43400729703E+02  0.00000000000E+00 0. -1.
         11    1    3    3    0    0 -0.82033737560E+01 -0.14865181467E+02  0.88528008323E+01  0.19147873090E+02  0.51100000000E-03 0. -1.
        -11    1    3    3    0    0  0.54854094530E+01 -0.10003491503E+02  0.71804347058E+00  0.11431323012E+02  0.51100000000E-03 0.  1.
        -12    1    3    3    0    0  0.19983031792E+01 -0.13865537473E+02  0.99935715588E+01  0.17208074195E+02  0.00000000000E+00 0.  1.
</event>
<event>
 7    1  0.4818508E-009  0.4778727E+02  0.7816164E-02  0.1312668E+00
        -11   -1    0    0    0    0  0.00000000000E+00  0.00000000000E+00  0.45593999997E+02  0.45594000000E+02  0.51100000000E-03 0. -1.
         11   -1    0    0    0    0 -0.00000000000E+00 -0.00000000000E+00 -0.45593999997E+02  0.45594000000E+02  0.51100000000E-03 0.  1.
    9900012    2    1    2    0    0 -0.36734834267E+02 -0.22733593022E+02  0.41664028897E+01  0.47787271741E+02  0.20000003178E+02 0.  0.
         12    1    1    2    0    0  0.36734834267E+02  0.22733593022E+02 -0.41664028897E+01  0.43400728259E+02  0.00000000000E+00 0. -1.
         11    1    3    3    0    0  0.10644735303E+01 -0.52425673709E+01  0.13495306732E+01  0.55171414549E+01  0.51100000000E-03 0. -1.
        -11    1    3    3    0    0 -0.28889776057E+02 -0.15029603524E+02  0.44998884335E+01  0.32874870933E+02  0.51100000000E-03 0.  1.
         12    1    3    3    0    0 -0.89095317411E+01 -0.24614221266E+01 -0.16830162170E+01  0.93952593534E+01  0.00000000000E+00 0. -1.
</event>
<event>
 7    1  0.4818508E-009  0.4778727E+02  0.7816164E-02  0.1312668E+00
        -11   -1    0    0    0    0  0.00000000000E+00  0.00000000000E+00  0.45593999997E+02  0.45594000000E+02  0.51100000000E-03 0. -1.
         11   -1    0    0    0    0 -0.00000000000E+00 -0.00000000000E+00 -0.45593999997E+02  0.45594000000E+02  0.51100000000E-03 0.  1.
    9900012    2    1    2    0    0 -0.40583838003E+02  0.23513131570E+01 -0.15200226256E+02  0.47787268914E+02  0.19999990285E+02 0.  0.
         12    1    1    2    0    0  0.40583838003E+02 -0.23513131570E+01  0.15200226256E+02  0.43400731086E+02  0.00000000000E+00 0. -1.
         11    1    3    3    0    0 -0.27592133178E+01  0.93933567497E+00  0.14371342419E+01  0.32497637967E+01  0.51100000000E-03 0.  1.
        -11    1    3    3    0    0 -0.27989966992E+02 -0.36433985934E+01 -0.53357435262E+01  0.28725994583E+02  0.51100000000E-03 0. -1.
        -12    1    3    3    0    0 -0.98346576928E+01  0.50553760754E+01 -0.11301616972E+02  0.15811510534E+02  0.00000000000E+00 0.  1.
</event>
<event>
 7    1  0.4818508E-009  0.4778728E+02  0.7816164E-02  0.1312668E+00
        -11   -1    0    0    0    0  0.00000000000E+00  0.00000000000E+00  0.45593999997E+02  0.45594000000E+02  0.51100000000E-03 0.  1.
         11   -1    0    0    0    0 -0.00000000000E+00 -0.00000000000E+00 -0.45593999997E+02  0.45594000000E+02  0.51100000000E-03 0. -1.
    9900012    2    1    2    0    0 -0.18431945328E+02  0.38097336306E+02  0.96165935898E+01  0.47787279793E+02  0.20000039890E+02 0.  0.
         12    1    1    2    0    0  0.18431945328E+02 -0.38097336306E+02 -0.96165935898E+01  0.43400720207E+02  0.00000000000E+00 0. -1.
         11    1    3    3    0    0 -0.33139722271E+01  0.22319167215E+02  0.45929372604E+01  0.23026565311E+02  0.51100000000E-03 0. -1.
        -11    1    3    3    0    0 -0.14151484091E+02  0.13286575831E+02  0.77883976207E+01  0.20915466456E+02  0.51100000000E-03 0.  1.
         12    1    3    3    0    0 -0.96648900962E+00  0.24915932604E+01 -0.27647412912E+01  0.38452480269E+01  0.00000000000E+00 0. -1.
</event>
<event>
 7    1  0.4818508E-009  0.4778727E+02  0.7816164E-02  0.1312668E+00
        -11   -1    0    0    0    0  0.00000000000E+00  0.00000000000E+00  0.45593999997E+02  0.45594000000E+02  0.51100000000E-03 0. -1.
         11   -1    0    0    0    0 -0.00000000000E+00 -0.00000000000E+00 -0.45593999997E+02  0.45594000000E+02  0.51100000000E-03 0.  1.
    9900012    2    1    2    0    0 -0.43256809744E+01 -0.42388374380E+02  0.82545452134E+01  0.47787270569E+02  0.19999997834E+02 0.  0.
         12    1    1    2    0    0  0.43256809744E+01  0.42388374380E+02 -0.82545452134E+01  0.43400729431E+02  0.00000000000E+00 0. -1.
         11    1    3    3    0    0 -0.13313128422E+01  0.96506684221E+00  0.13680169300E+01  0.21389760344E+01  0.51100000000E-03 0. -1.
        -11    1    3    3    0    0 -0.21079709741E+01 -0.43561717285E+02  0.54561027206E+01  0.43952654204E+02  0.51100000000E-03 0.  1.
        -12    1    3    3    0    0 -0.88639715808E+00  0.20827606309E+00  0.14304255628E+01  0.16956403307E+01  0.00000000000E+00 0.  1.
</event>
<event>
 7    1  0.4818508E-009  0.4778727E+02  0.7816164E-02  0.1312668E+00
        -11   -1    0    0    0    0  0.00000000000E+00  0.00000000000E+00  0.45593999997E+02  0.45594000000E+02  0.51100000000E-03 0.  1.
         11   -1    0    0    0    0 -0.00000000000E+00 -0.00000000000E+00 -0.45593999997E+02  0.45594000000E+02  0.51100000000E-03 0. -1.
    9900012    2    1    2    0    0 -0.21066539135E+02  0.26209118742E+01  0.37854398968E+02  0.47787265312E+02  0.19999973865E+02 0.  0.
         12    1    1    2    0    0  0.21066539135E+02 -0.26209118742E+01 -0.37854398968E+02  0.43400734688E+02  0.00000000000E+00 0. -1.
         11    1    3    3    0    0 -0.30902697024E+01  0.69013878953E+01  0.18768633837E+02  0.20234637088E+02  0.51100000000E-03 0. -1.
        -11    1    3    3    0    0 -0.15380820300E+01 -0.25011260875E+01  0.51530153694E+01  0.59308427474E+01  0.51100000000E-03 0.  1.
         12    1    3    3    0    0 -0.16438187403E+02 -0.17793499337E+01  0.13932749762E+02  0.21621785477E+02  0.00000000000E+00 0. -1.
</event>
<event>
 7    1  0.4818508E-009  0.4778727E+02  0.7816164E-02  0.1312668E+00
        -11   -1    0    0    0    0  0.00000000000E+00  0.00000000000E+00  0.45593999997E+02  0.45594000000E+02  0.51100000000E-03 0. -1.
         11   -1    0    0    0    0 -0.00000000000E+00 -0.00000000000E+00 -0.45593999997E+02  0.45594000000E+02  0.51100000000E-03 0.  1.
    9900012    2    1    2    0    0 -0.17126650195E+02  0.39805673566E+02 -0.24102971525E+01  0.47787270429E+02  0.19999997195E+02 0.  0.
         12    1    1    2    0    0  0.17126650195E+02 -0.39805673566E+02  0.24102971525E+01  0.43400729571E+02  0.00000000000E+00 0. -1.
         11    1    3    3    0    0  0.53397728989E+00  0.96117946356E+01  0.59907246271E+01  0.11338452702E+02  0.51100000000E-03 0. -1.
        -11    1    3    3    0    0 -0.14215558786E+02  0.23519143195E+02 -0.89895583737E+01  0.28914431833E+02  0.51100000000E-03 0.  1.
         12    1    3    3    0    0 -0.34450686988E+01  0.66747357348E+01  0.58853659413E+00  0.75343858934E+01  0.00000000000E+00 0. -1.
</event>
<event>
 7    1  0.4818508E-009  0.4778727E+02  0.7816164E-02  0.1312668E+00
        -11   -1    0    0    0    0  0.00000000000E+00  0.00000000000E+00  0.45593999997E+02  0.45594000000E+02  0.51100000000E-03 0. -1.
         11   -1    0    0    0    0 -0.00000000000E+00 -0.00000000000E+00 -0.45593999997E+02  0.45594000000E+02  0.51100000000E-03 0.  1.
    9900012    2    1    2    0    0 -0.35713827373E+02  0.19663379468E+02  0.14882784046E+02  0.47787271680E+02  0.20000002897E+02 0.  0.
         12    1    1    2    0    0  0.35713827373E+02 -0.19663379468E+02 -0.14882784046E+02  0.43400728320E+02  0.00000000000E+00 0. -1.
         11    1    3    3    0    0  0.50684379334E+00 -0.55178058065E+00 -0.22314419233E+01  0.23538661300E+01  0.51100000000E-03 0. -1.
        -11    1    3    3    0    0 -0.34319487290E+02  0.19295011627E+02  0.14242385082E+02  0.41868487131E+02  0.51100000000E-03 0.  1.
        -12    1    3    3    0    0 -0.19011838767E+01  0.92014842144E+00  0.28718408873E+01  0.35649184188E+01  0.00000000000E+00 0.  1.
</event>
<event>
 7    1  0.4818508E-009  0.4778727E+02  0.7816164E-02  0.1312668E+00
        -11   -1    0    0    0    0  0.00000000000E+00  0.00000000000E+00  0.45593999997E+02  0.45594000000E+02  0.51100000000E-03 0. -1.
         11   -1    0    0    0    0 -0.00000000000E+00 -0.00000000000E+00 -0.45593999997E+02  0.45594000000E+02  0.51100000000E-03 0.  1.
    9900012    2    1    2    0    0 -0.27614846713E+01  0.30394970376E+02  0.30856818736E+02  0.47787270925E+02  0.19999999454E+02 0.  0.
         12    1    1    2    0    0  0.27614846713E+01 -0.30394970376E+02 -0.30856818736E+02  0.43400729075E+02  0.00000000000E+00 0. -1.
         11    1    3    3    0    0  0.68378094702E+01  0.71315149659E+01  0.72598100707E+01  0.12260464371E+02  0.51100000000E-03 0.  1.
        -11    1    3    3    0    0 -0.62567154195E+01  0.88878014695E+01  0.55220235504E+01  0.12191482566E+02  0.51100000000E-03 0. -1.
        -12    1    3    3    0    0 -0.33425787221E+01  0.14375653941E+02  0.18074985115E+02  0.23335323988E+02  0.00000000000E+00 0.  1.
</event>
<event>
 7    1  0.4818508E-009  0.4778726E+02  0.7816164E-02  0.1312668E+00
        -11   -1    0    0    0    0  0.00000000000E+00  0.00000000000E+00  0.45593999997E+02  0.45594000000E+02  0.51100000000E-03 0.  1.
         11   -1    0    0    0    0 -0.00000000000E+00 -0.00000000000E+00 -0.45593999997E+02  0.45594000000E+02  0.51100000000E-03 0. -1.
    9900012    2    1    2    0    0 -0.21435076833E+02 -0.45969519492E+01  0.37457035517E+02  0.47787262727E+02  0.19999962079E+02 0.  0.
         12    1    1    2    0    0  0.21435076833E+02  0.45969519492E+01 -0.37457035517E+02  0.43400737273E+02  0.00000000000E+00 0. -1.
         11    1    3    3    0    0 -0.39881765286E+01 -0.17263356688E+01 -0.17103217430E+01  0.46702235054E+01  0.51100000000E-03 0. -1.
        -11    1    3    3    0    0 -0.12674471590E+02 -0.34246353187E+01  0.26627019881E+02  0.29687851811E+02  0.51100000000E-03 0.  1.
         12    1    3    3    0    0 -0.47724287151E+01  0.55401903823E+00  0.12540337379E+02  0.13429187411E+02  0.00000000000E+00 0. -1.
</event>
<event>
 7    1  0.4818508E-009  0.4778729E+02  0.7816164E-02  0.1312668E+00
        -11   -1    0    0    0    0  0.00000000000E+00  0.00000000000E+00  0.45593999997E+02  0.45594000000E+02  0.51100000000E-03 0. -1.
         11   -1    0    0    0    0 -0.00000000000E+00 -0.00000000000E+00 -0.45593999997E+02  0.45594000000E+02  0.51100000000E-03 0.  1.
    9900012    2    1    2    0    0 -0.26178400410E+02  0.33054878239E+02 -0.10280479079E+02  0.47787287177E+02  0.20000073556E+02 0.  0.
         12    1    1    2    0    0  0.26178400410E+02 -0.33054878239E+02  0.10280479079E+02  0.43400712823E+02  0.00000000000E+00 0. -1.
         11    1    3    3    0    0  0.14601670811E+01  0.72011449248E+01 -0.14409258878E+00  0.73491046439E+01  0.51100000000E-03 0. -1.
        -11    1    3    3    0    0 -0.19094677516E+02  0.23440006359E+02 -0.71062069626E+01  0.31057024732E+02  0.51100000000E-03 0.  1.
         12    1    3    3    0    0 -0.85438899756E+01  0.24137269551E+01 -0.30301795272E+01  0.93811578015E+01  0.00000000000E+00 0. -1.
</event>
<event>
 7    1  0.4818508E-009  0.4778727E+02  0.7816164E-02  0.1312668E+00
        -11   -1    0    0    0    0  0.00000000000E+00  0.00000000000E+00  0.45593999997E+02  0.45594000000E+02  0.51100000000E-03 0.  1.
         11   -1    0    0    0    0 -0.00000000000E+00 -0.00000000000E+00 -0.45593999997E+02  0.45594000000E+02  0.51100000000E-03 0. -1.
    9900012    2    1    2    0    0 -0.15119129171E+02 -0.47495921874E+01  0.40403914787E+02  0.47787273935E+02  0.20000013179E+02 0.  0.
         12    1    1    2    0    0  0.15119129171E+02  0.47495921874E+01 -0.40403914787E+02  0.43400726065E+02  0.00000000000E+00 0. -1.
         11    1    3    3    0    0 -0.77725806594E+01  0.51011284816E+01  0.11993204526E+02  0.15174698579E+02  0.51100000000E-03 0. -1.
        -11    1    3    3    0    0 -0.40924520648E+01 -0.85624099171E+01  0.96737327878E+01  0.13551536216E+02  0.51100000000E-03 0.  1.
        -12    1    3    3    0    0 -0.32540964473E+01 -0.12883107519E+01  0.18736977474E+02  0.19061039141E+02  0.00000000000E+00 0.  1.
</event>
<event>
 7    1  0.4818508E-009  0.4778727E+02  0.7816164E-02  0.1312668E+00
        -11   -1    0    0    0    0  0.00000000000E+00  0.00000000000E+00  0.45593999997E+02  0.45594000000E+02  0.51100000000E-03 0. -1.
         11   -1    0    0    0    0 -0.00000000000E+00 -0.00000000000E+00 -0.45593999997E+02  0.45594000000E+02  0.51100000000E-03 0.  1.
    9900012    2    1    2    0    0 -0.91261876891E+01  0.18086620339E+02 -0.38382419102E+02  0.47787271513E+02  0.20000002139E+02 0.  0.
         12    1    1    2    0    0  0.91261876891E+01 -0.18086620339E+02  0.38382419102E+02  0.43400728487E+02  0.00000000000E+00 0. -1.
         11    1    3    3    0    0  0.22911705411E+01  0.63246373977E+01 -0.74139902519E+01  0.10010881698E+02  0.51100000000E-03 0. -1.
        -11    1    3    3    0    0 -0.67539284043E+01 -0.19633098519E+01 -0.84309176616E+01  0.10979549505E+02  0.51100000000E-03 0.  1.
        -12    1    3    3    0    0 -0.46634298260E+01  0.13725292794E+02 -0.22537511188E+02  0.26796840310E+02  0.00000000000E+00 0.  1.
</event>
<event>
 7    1  0.4818508E-009  0.4778727E+02  0.7816164E-02  0.1312668E+00
        -11   -1    0    0    0    0  0.00000000000E+00  0.00000000000E+00  0.45593999997E+02  0.45594000000E+02  0.51100000000E-03 0. -1.
         11   -1    0    0    0    0 -0.00000000000E+00 -0.00000000000E+00 -0.45593999997E+02  0.45594000000E+02  0.51100000000E-03 0.  1.
    9900012    2    1    2    0    0  0.15036163801E+02  0.26553349365E+02 -0.30861897226E+02  0.47787270919E+02  0.19999999429E+02 0.  0.
         12    1    1    2    0    0 -0.15036163801E+02 -0.26553349365E+02  0.30861897226E+02  0.43400729081E+02  0.00000000000E+00 0. -1.
         11    1    3    3    0    0  0.61634038292E+01  0.11422620472E+02 -0.25381112178E+01  0.13225196181E+02  0.51100000000E-03 0. -1.
        -11    1    3    3    0    0  0.71325099343E+01  0.15675131108E+02 -0.27733466797E+02  0.32645483823E+02  0.51100000000E-03 0.  1.
        -12    1    3    3    0    0  0.17402500370E+01 -0.54440221496E+00 -0.59031921165E+00  0.19165909148E+01  0.00000000000E+00 0.  1.
</event>
<event>
 7    1  0.4818508E-009  0.4778727E+02  0.7816164E-02  0.1312668E+00
        -11   -1    0    0    0    0  0.00000000000E+00  0.00000000000E+00  0.45593999997E+02  0.45594000000E+02  0.51100000000E-03 0.  1.
         11   -1    0    0    0    0 -0.00000000000E+00 -0.00000000000E+00 -0.45593999997E+02  0.45594000000E+02  0.51100000000E-03 0. -1.
    9900012    2    1    2    0    0 -0.21566398905E+02  0.10233554196E+02  0.36246213769E+02  0.47787271828E+02  0.20000003574E+02 0.  0.
         12    1    1    2    0    0  0.21566398905E+02 -0.10233554196E+02 -0.36246213769E+02  0.43400728172E+02  0.00000000000E+00 0. -1.
         11    1    3    3    0    0 -0.12454436333E+02  0.98417121047E+01  0.13468904744E+02  0.20817869170E+02  0.51100000000E-03 0. -1.
        -11    1    3    3    0    0 -0.68416098622E+01  0.52552847114E+01  0.10637746816E+02  0.13696251330E+02  0.51100000000E-03 0.  1.
         12    1    3    3    0    0 -0.22703527103E+01 -0.48634426204E+01  0.12139562209E+02  0.13273151328E+02  0.00000000000E+00 0. -1.
</event>
<event>
 7    1  0.4818508E-009  0.4778727E+02  0.7816164E-02  0.1312668E+00
        -11   -1    0    0    0    0  0.00000000000E+00  0.00000000000E+00  0.45593999997E+02  0.45594000000E+02  0.51100000000E-03 0.  1.
         11   -1    0    0    0    0 -0.00000000000E+00 -0.00000000000E+00 -0.45593999997E+02  0.45594000000E+02  0.51100000000E-03 0. -1.
    9900012    2    1    2    0    0  0.33628956747E+02 -0.27415797703E+02 -0.10442694353E+01  0.47787271963E+02  0.20000004186E+02 0.  0.
         12    1    1    2    0    0 -0.33628956747E+02  0.27415797703E+02  0.10442694353E+01  0.43400728037E+02  0.00000000000E+00 0. -1.
         11    1    3    3    0    0  0.12137551619E+01 -0.70201493554E+01 -0.87358702753E+00  0.71776634862E+01  0.51100000000E-03 0. -1.
        -11    1    3    3    0    0  0.30922618806E+02 -0.19133791939E+02 -0.37244572960E+01  0.36553822375E+02  0.51100000000E-03 0.  1.
        -12    1    3    3    0    0  0.14925827786E+01 -0.12618564079E+01  0.35537748882E+01  0.40557861015E+01  0.00000000000E+00 0.  1.
</event>
<event>
 7    1  0.4818508E-009  0.4778727E+02  0.7816164E-02  0.1312668E+00
        -11   -1    0    0    0    0  0.00000000000E+00  0.00000000000E+00  0.45593999997E+02  0.45594000000E+02  0.51100000000E-03 0.  1.
         11   -1    0    0    0    0 -0.00000000000E+00 -0.00000000000E+00 -0.45593999997E+02  0.45594000000E+02  0.51100000000E-03 0. -1.
    9900012    2    1    2    0    0  0.13261882166E+02 -0.15579589769E+02  0.38275608229E+02  0.47787270498E+02  0.19999997510E+02 0.  0.
         12    1    1    2    0    0 -0.13261882166E+02  0.15579589769E+02 -0.38275608229E+02  0.43400729502E+02  0.00000000000E+00 0. -1.
         11    1    3    3    0    0  0.25962311159E+00 -0.51960316276E+01 -0.81527793319E+00  0.52660067607E+01  0.51100000000E-03 0. -1.
        -11    1    3    3    0    0  0.79590384534E+01 -0.55768114970E+01  0.21185732309E+02  0.23308418507E+02  0.51100000000E-03 0.  1.
         12    1    3    3    0    0  0.50432206011E+01 -0.48067466443E+01  0.17905153853E+02  0.19212845230E+02  0.00000000000E+00 0. -1.
</event>
<event>
 7    1  0.4818508E-009  0.4778727E+02  0.7816164E-02  0.1312668E+00
        -11   -1    0    0    0    0  0.00000000000E+00  0.00000000000E+00  0.45593999997E+02  0.45594000000E+02  0.51100000000E-03 0. -1.
         11   -1    0    0    0    0 -0.00000000000E+00 -0.00000000000E+00 -0.45593999997E+02  0.45594000000E+02  0.51100000000E-03 0.  1.
    9900012    2    1    2    0    0 -0.33684525359E+02 -0.40494334136E+01 -0.27066176794E+02  0.47787273210E+02  0.20000009876E+02 0.  0.
         12    1    1    2    0    0  0.33684525359E+02  0.40494334136E+01  0.27066176794E+02  0.43400726790E+02  0.00000000000E+00 0. -1.
         11    1    3    3    0    0 -0.31630712234E+02 -0.67354987667E+01 -0.15883143604E+02  0.36029753692E+02  0.51100000000E-03 0. -1.
        -11    1    3    3    0    0 -0.99102846687E+00  0.22912810246E+01 -0.76432250846E+01  0.80405843140E+01  0.51100000000E-03 0.  1.
         12    1    3    3    0    0 -0.10627846578E+01  0.39478432850E+00 -0.35398081050E+01  0.37169352046E+01  0.00000000000E+00 0. -1.
</event>
<event>
 7    1  0.4818508E-009  0.4778727E+02  0.7816164E-02  0.1312668E+00
        -11   -1    0    0    0    0  0.00000000000E+00  0.00000000000E+00  0.45593999997E+02  0.45594000000E+02  0.51100000000E-03 0.  1.
         11   -1    0    0    0    0 -0.00000000000E+00 -0.00000000000E+00 -0.45593999997E+02  0.45594000000E+02  0.51100000000E-03 0. -1.
    9900012    2    1    2    0    0  0.12615263756E+02  0.98126983612E+01  0.40350828074E+02  0.47787271262E+02  0.20000000990E+02 0.  0.
         12    1    1    2    0    0 -0.12615263756E+02 -0.98126983612E+01 -0.40350828074E+02  0.43400728738E+02  0.00000000000E+00 0. -1.
         11    1    3    3    0    0 -0.82500123311E-01  0.98351096956E+00  0.41647712036E+00  0.10712392592E+01  0.51100000000E-03 0. -1.
        -11    1    3    3    0    0  0.84260265918E+01  0.75627376713E+01  0.66415724643E+01  0.13126439360E+02  0.51100000000E-03 0.  1.
        -12    1    3    3    0    0  0.42717372873E+01  0.12664497204E+01  0.33292778489E+02  0.33589592643E+02  0.00000000000E+00 0.  1.
</event>
<event>
 7    1  0.4818508E-009  0.4778728E+02  0.7816164E-02  0.1312668E+00
        -11   -1    0    0    0    0  0.00000000000E+00  0.00000000000E+00  0.45593999997E+02  0.45594000000E+02  0.51100000000E-03 0.  1.
         11   -1    0    0    0    0 -0.00000000000E+00 -0.00000000000E+00 -0.45593999997E+02  0.45594000000E+02  0.51100000000E-03 0. -1.
    9900012    2    1    2    0    0  0.43428196883E+01 -0.25955671693E+02  0.34511815957E+02  0.47787280921E+02  0.20000045032E+02 0.  0.
         12    1    1    2    0    0 -0.43428196883E+01  0.25955671693E+02 -0.34511815957E+02  0.43400719079E+02  0.00000000000E+00 0. -1.
         11    1    3    3    0    0 -0.40060764931E+00 -0.19591978638E+02  0.29220133322E+02  0.35182698945E+02  0.51100000000E-03 0. -1.
        -11    1    3    3    0    0 -0.11762740812E+00 -0.18165619170E+01  0.56526234407E+01  0.59385086873E+01  0.51100000000E-03 0.  1.
         12    1    3    3    0    0  0.48610547458E+01 -0.45471311378E+01 -0.36094080550E+00  0.66660732888E+01  0.00000000000E+00 0. -1.
</event>
<event>
 7    1  0.4818508E-009  0.4778727E+02  0.7816164E-02  0.1312668E+00
        -11   -1    0    0    0    0  0.00000000000E+00  0.00000000000E+00  0.45593999997E+02  0.45594000000E+02  0.51100000000E-03 0.  1.
         11   -1    0    0    0    0 -0.00000000000E+00 -0.00000000000E+00 -0.45593999997E+02  0.45594000000E+02  0.51100000000E-03 0. -1.
    9900012    2    1    2    0    0  0.21057387461E+02 -0.13964523057E+02  0.35287418148E+02  0.47787270162E+02  0.19999995976E+02 0.  0.
         12    1    1    2    0    0 -0.21057387461E+02  0.13964523057E+02 -0.35287418148E+02  0.43400729838E+02  0.00000000000E+00 0. -1.
         11    1    3    3    0    0  0.16521672100E+02 -0.51097694648E+01  0.17780774575E+02  0.24803857315E+02  0.51100000000E-03 0.  1.
        -11    1    3    3    0    0  0.81067596866E+01 -0.64461568009E+01  0.14080939114E+02  0.17479855169E+02  0.51100000000E-03 0. -1.
         12    1    3    3    0    0 -0.35710443252E+01 -0.24085967913E+01  0.34257044589E+01  0.55035576780E+01  0.00000000000E+00 0. -1.
</event>
<event>
 7    1  0.4818508E-009  0.4778727E+02  0.7816164E-02  0.1312668E+00
        -11   -1    0    0    0    0  0.00000000000E+00  0.00000000000E+00  0.45593999997E+02  0.45594000000E+02  0.51100000000E-03 0.  1.
         11   -1    0    0    0    0 -0.00000000000E+00 -0.00000000000E+00 -0.45593999997E+02  0.45594000000E+02  0.51100000000E-03 0. -1.
    9900012    2    1    2    0    0  0.26971415960E+02  0.20963095905E+02  0.26771524405E+02  0.47787272036E+02  0.20000004523E+02 0.  0.
         12    1    1    2    0    0 -0.26971415960E+02 -0.20963095905E+02 -0.26771524405E+02  0.43400727964E+02  0.00000000000E+00 0. -1.
         11    1    3    3    0    0  0.32940714327E-01  0.61927772351E+01  0.48820037159E+01  0.78857805902E+01  0.51100000000E-03 0. -1.
        -11    1    3    3    0    0  0.20707958848E+02  0.53226904485E+01  0.10407113723E+02  0.23779373616E+02  0.51100000000E-03 0.  1.
         12    1    3    3    0    0  0.62305163971E+01  0.94476282214E+01  0.11482406966E+02  0.16122117830E+02  0.00000000000E+00 0. -1.
</event>
<event>
 7    1  0.4818508E-009  0.4778727E+02  0.7816164E-02  0.1312668E+00
        -11   -1    0    0    0    0  0.00000000000E+00  0.00000000000E+00  0.45593999997E+02  0.45594000000E+02  0.51100000000E-03 0.  1.
         11   -1    0    0    0    0 -0.00000000000E+00 -0.00000000000E+00 -0.45593999997E+02  0.45594000000E+02  0.51100000000E-03 0. -1.
    9900012    2    1    2    0    0 -0.30056525723E+01 -0.38919818151E+02  0.18969371421E+02  0.47787271385E+02  0.20000001551E+02 0.  0.
         12    1    1    2    0    0  0.30056525723E+01  0.38919818151E+02 -0.18969371421E+02  0.43400728615E+02  0.00000000000E+00 0. -1.
         11    1    3    3    0    0  0.39478390075E+01 -0.36778988336E+01 -0.16050301450E+01  0.56292534751E+01  0.51100000000E-03 0. -1.
        -11    1    3    3    0    0 -0.34192883825E+01 -0.14899344046E+02  0.13312842901E+02  0.20271008174E+02  0.51100000000E-03 0.  1.
         12    1    3    3    0    0 -0.35342031973E+01 -0.20342575271E+02  0.72615586646E+01  0.21887009735E+02  0.00000000000E+00 0. -1.
</event>
<event>
 7    1  0.4818508E-009  0.4778727E+02  0.7816164E-02  0.1312668E+00
        -11   -1    0    0    0    0  0.00000000000E+00  0.00000000000E+00  0.45593999997E+02  0.45594000000E+02  0.51100000000E-03 0.  1.
         11   -1    0    0    0    0 -0.00000000000E+00 -0.00000000000E+00 -0.45593999997E+02  0.45594000000E+02  0.51100000000E-03 0. -1.
    9900012    2    1    2    0    0  0.31051523134E+02  0.30233428802E+02  0.23164566226E+01  0.47787271004E+02  0.19999999818E+02 0.  0.
         12    1    1    2    0    0 -0.31051523134E+02 -0.30233428802E+02 -0.23164566226E+01  0.43400728996E+02  0.00000000000E+00 0. -1.
         11    1    3    3    0    0  0.20075563149E+02  0.15554265927E+02 -0.67394641197E+01  0.26275155588E+02  0.51100000000E-03 0. -1.
        -11    1    3    3    0    0  0.75913147450E+01  0.48485740990E+01  0.53375956226E+01  0.10470274955E+02  0.51100000000E-03 0.  1.
         12    1    3    3    0    0  0.33846452403E+01  0.98305887753E+01  0.37183251197E+01  0.11041840461E+02  0.00000000000E+00 0. -1.
</event>
<event>
 7    1  0.4818508E-009  0.4778727E+02  0.7816164E-02  0.1312668E+00
        -11   -1    0    0    0    0  0.00000000000E+00  0.00000000000E+00  0.45593999997E+02  0.45594000000E+02  0.51100000000E-03 0.  1.
         11   -1    0    0    0    0 -0.00000000000E+00 -0.00000000000E+00 -0.45593999997E+02  0.45594000000E+02  0.51100000000E-03 0. -1.
    9900012    2    1    2    0    0  0.24125342719E+02 -0.32884315449E+02  0.14839579917E+02  0.47787268485E+02  0.19999988331E+02 0.  0.
         12    1    1    2    0    0 -0.24125342719E+02  0.32884315449E+02 -0.14839579917E+02  0.43400731515E+02  0.00000000000E+00 0. -1.
         11    1    3    3    0    0  0.21374624755E+02 -0.18095179629E+02  0.13291155489E+02  0.30999434248E+02  0.51100000000E-03 0. -1.
        -11    1    3    3    0    0  0.17673740953E+01 -0.51259638225E+01 -0.28497653814E+01  0.61253799304E+01  0.51100000000E-03 0.  1.
         12    1    3    3    0    0  0.98334386905E+00 -0.96631719984E+01  0.43981898099E+01  0.10662454307E+02  0.00000000000E+00 0. -1.
</event>
<event>
 7    1  0.4818508E-009  0.4778727E+02  0.7816164E-02  0.1312668E+00
        -11   -1    0    0    0    0  0.00000000000E+00  0.00000000000E+00  0.45593999997E+02  0.45594000000E+02  0.51100000000E-03 0.  1.
         11   -1    0    0    0    0 -0.00000000000E+00 -0.00000000000E+00 -0.45593999997E+02  0.45594000000E+02  0.51100000000E-03 0. -1.
    9900012    2    1    2    0    0  0.41672747984E+02 -0.93319275284E+01  0.77408245061E+01  0.47787272356E+02  0.20000005981E+02 0.  0.
         12    1    1    2    0    0 -0.41672747984E+02  0.93319275284E+01 -0.77408245061E+01  0.43400727644E+02  0.00000000000E+00 0. -1.
         11    1    3    3    0    0  0.28613276510E+02 -0.10477059582E+02 -0.38452669693E+00  0.30473533290E+02  0.51100000000E-03 0. -1.
        -11    1    3    3    0    0  0.12093610480E+02 -0.14634211412E+01  0.79081847018E+01  0.14523649727E+02  0.51100000000E-03 0.  1.
         12    1    3    3    0    0  0.96586099495E+00  0.26085531946E+01  0.21716650121E+00  0.27900893391E+01  0.00000000000E+00 0. -1.
</event>
<event>
 7    1  0.4818508E-009  0.4778727E+02  0.7816164E-02  0.1312668E+00
        -11   -1    0    0    0    0  0.00000000000E+00  0.00000000000E+00  0.45593999997E+02  0.45594000000E+02  0.51100000000E-03 0.  1.
         11   -1    0    0    0    0 -0.00000000000E+00 -0.00000000000E+00 -0.45593999997E+02  0.45594000000E+02  0.51100000000E-03 0. -1.
    9900012    2    1    2    0    0  0.28133521182E+02 -0.60855445590E+01  0.32482217606E+02  0.47787270429E+02  0.19999997194E+02 0.  0.
         12    1    1    2    0    0 -0.28133521182E+02  0.60855445590E+01 -0.32482217606E+02  0.43400729571E+02  0.00000000000E+00 0. -1.
         11    1    3    3    0    0  0.57525548220E+01  0.32251613439E+01  0.17331848125E+02  0.18544177317E+02  0.51100000000E-03 0. -1.
        -11    1    3    3    0    0  0.14928295609E+02 -0.79812584621E+01  0.13086400052E+02  0.21396456786E+02  0.51100000000E-03 0.  1.
         12    1    3    3    0    0  0.74526707511E+01 -0.13294474408E+01  0.20639694293E+01  0.78466363256E+01  0.00000000000E+00 0. -1.
</event>
<event>
 7    1  0.4818508E-009  0.4778727E+02  0.7816164E-02  0.1312668E+00
        -11   -1    0    0    0    0  0.00000000000E+00  0.00000000000E+00  0.45593999997E+02  0.45594000000E+02  0.51100000000E-03 0.  1.
         11   -1    0    0    0    0 -0.00000000000E+00 -0.00000000000E+00 -0.45593999997E+02  0.45594000000E+02  0.51100000000E-03 0. -1.
    9900012    2    1    2    0    0  0.50385949341E+01  0.93303747902E+01  0.42085386354E+02  0.47787273311E+02  0.20000010332E+02 0.  0.
         12    1    1    2    0    0 -0.50385949341E+01 -0.93303747902E+01 -0.42085386354E+02  0.43400726689E+02  0.00000000000E+00 0. -1.
         11    1    3    3    0    0 -0.52008999748E+01  0.74239916250E+01  0.18682706650E+02  0.20765561399E+02  0.51100000000E-03 0.  1.
        -11    1    3    3    0    0  0.10986417091E+02  0.33426816651E+01  0.17742749127E+02  0.21134806080E+02  0.51100000000E-03 0. -1.
        -12    1    3    3    0    0 -0.74692218245E+00 -0.14362984999E+01  0.56599305772E+01  0.58869058312E+01  0.00000000000E+00 0.  1.
</event>
<event>
 7    1  0.4818508E-009  0.4778727E+02  0.7816164E-02  0.1312668E+00
        -11   -1    0    0    0    0  0.00000000000E+00  0.00000000000E+00  0.45593999997E+02  0.45594000000E+02  0.51100000000E-03 0. -1.
         11   -1    0    0    0    0 -0.00000000000E+00 -0.00000000000E+00 -0.45593999997E+02  0.45594000000E+02  0.51100000000E-03 0.  1.
    9900012    2    1    2    0    0 -0.37902119112E+02 -0.19833357843E+02 -0.73274072247E+01  0.47787267136E+02  0.19999982181E+02 0.  0.
         12    1    1    2    0    0  0.37902119112E+02  0.19833357843E+02  0.73274072247E+01  0.43400732864E+02  0.00000000000E+00 0. -1.
         11    1    3    3    0    0 -0.38008663176E+01  0.73969036991E+00 -0.11541726159E+01  0.40405248788E+01  0.51100000000E-03 0. -1.
        -11    1    3    3    0    0 -0.28826275548E+02 -0.97145621894E+01 -0.82018843518E+01  0.31505519955E+02  0.51100000000E-03 0.  1.
        -12    1    3    3    0    0 -0.52749772464E+01 -0.10858486023E+02  0.20286497430E+01  0.12241222302E+02  0.00000000000E+00 0.  1.
</event>
<event>
 7    1  0.4818508E-009  0.4778727E+02  0.7816164E-02  0.1312668E+00
        -11   -1    0    0    0    0  0.00000000000E+00  0.00000000000E+00  0.45593999997E+02  0.45594000000E+02  0.51100000000E-03 0.  1.
         11   -1    0    0    0    0 -0.00000000000E+00 -0.00000000000E+00 -0.45593999997E+02  0.45594000000E+02  0.51100000000E-03 0. -1.
    9900012    2    1    2    0    0 -0.32592192308E+02 -0.25925688982E+02  0.12216017138E+02  0.47787269322E+02  0.19999992149E+02 0.  0.
         12    1    1    2    0    0  0.32592192308E+02  0.25925688982E+02 -0.12216017138E+02  0.43400730678E+02  0.00000000000E+00 0. -1.
         11    1    3    3    0    0 -0.13554912988E+02 -0.22326978303E+02  0.38564105601E+01  0.26402680336E+02  0.51100000000E-03 0. -1.
        -11    1    3    3    0    0 -0.79954033224E+01 -0.74432233240E+00  0.51394299233E+01  0.95338465595E+01  0.51100000000E-03 0.  1.
         12    1    3    3    0    0 -0.11041875998E+02 -0.28543883463E+01  0.32201766542E+01  0.11850742427E+02  0.00000000000E+00 0. -1.
</event>
<event>
 7    1  0.4818508E-009  0.4778727E+02  0.7816164E-02  0.1312668E+00
        -11   -1    0    0    0    0  0.00000000000E+00  0.00000000000E+00  0.45593999997E+02  0.45594000000E+02  0.51100000000E-03 0. -1.
         11   -1    0    0    0    0 -0.00000000000E+00 -0.00000000000E+00 -0.45593999997E+02  0.45594000000E+02  0.51100000000E-03 0.  1.
    9900012    2    1    2    0    0 -0.32910582834E+02 -0.19612867946E+02 -0.20392453942E+02  0.47787271558E+02  0.20000002341E+02 0.  0.
         12    1    1    2    0    0  0.32910582834E+02  0.19612867946E+02  0.20392453942E+02  0.43400728442E+02  0.00000000000E+00 0. -1.
         11    1    3    3    0    0 -0.90291229058E+01 -0.80975620631E+01  0.10272196887E+01  0.12171719368E+02  0.51100000000E-03 0. -1.
        -11    1    3    3    0    0 -0.20616559638E+02 -0.11974508509E+02 -0.14381681414E+02  0.27843565610E+02  0.51100000000E-03 0.  1.
         12    1    3    3    0    0 -0.32649002907E+01  0.45920262674E+00 -0.70379922167E+01  0.77719865802E+01  0.00000000000E+00 0. -1.
</event>
<event>
 7    1  0.4818508E-009  0.4778728E+02  0.7816164E-02  0.1312668E+00
        -11   -1    0    0    0    0  0.00000000000E+00  0.00000000000E+00  0.45593999997E+02  0.45594000000E+02  0.51100000000E-03 0.  1.
         11   -1    0    0    0    0 -0.00000000000E+00 -0.00000000000E+00 -0.45593999997E+02  0.45594000000E+02  0.51100000000E-03 0. -1.
    9900012    2    1    2    0    0  0.24830021425E+01  0.27500552447E+02  0.33483978708E+02  0.47787279792E+02  0.20000039882E+02 0.  0.
         12    1    1    2    0    0 -0.24830021425E+01 -0.27500552447E+02 -0.33483978708E+02  0.43400720208E+02  0.00000000000E+00 0. -1.
         11    1    3    3    0    0 -0.12018086458E+01  0.34273944240E+01 -0.77661670573E+00  0.37140961657E+01  0.51100000000E-03 0. -1.
        -11    1    3    3    0    0  0.61786425101E+01  0.23016967270E+02  0.25496867407E+02  0.34900525117E+02  0.51100000000E-03 0.  1.
         12    1    3    3    0    0 -0.24938317219E+01  0.10561907527E+01  0.87637280061E+01  0.91726585093E+01  0.00000000000E+00 0. -1.
</event>
<event>
 7    1  0.4818508E-009  0.4778727E+02  0.7816164E-02  0.1312668E+00
        -11   -1    0    0    0    0  0.00000000000E+00  0.00000000000E+00  0.45593999997E+02  0.45594000000E+02  0.51100000000E-03 0.  1.
         11   -1    0    0    0    0 -0.00000000000E+00 -0.00000000000E+00 -0.45593999997E+02  0.45594000000E+02  0.51100000000E-03 0. -1.
    9900012    2    1    2    0    0 -0.21663913829E+02  0.49942203867E+01  0.37274068852E+02  0.47787267190E+02  0.19999982427E+02 0.  0.
         12    1    1    2    0    0  0.21663913829E+02 -0.49942203867E+01 -0.37274068852E+02  0.43400732810E+02  0.00000000000E+00 0. -1.
         11    1    3    3    0    0  0.32042865361E+00  0.13480164694E+01  0.94574334245E+00  0.16775737405E+01  0.51100000000E-03 0. -1.
        -11    1    3    3    0    0 -0.80865775353E+01 -0.70175561381E+01  0.16293377493E+02  0.19496486370E+02  0.51100000000E-03 0.  1.
        -12    1    3    3    0    0 -0.13897764947E+02  0.10663760055E+02  0.20034948016E+02  0.26613207079E+02  0.00000000000E+00 0.  1.
</event>
<event>
 7    1  0.4818508E-009  0.4778728E+02  0.7816164E-02  0.1312668E+00
        -11   -1    0    0    0    0  0.00000000000E+00  0.00000000000E+00  0.45593999997E+02  0.45594000000E+02  0.51100000000E-03 0.  1.
         11   -1    0    0    0    0 -0.00000000000E+00 -0.00000000000E+00 -0.45593999997E+02  0.45594000000E+02  0.51100000000E-03 0. -1.
    9900012    2    1    2    0    0  0.28352071498E+02 -0.25153520003E+01  0.32763637209E+02  0.47787275616E+02  0.20000020842E+02 0.  0.
         12    1    1    2    0    0 -0.28352071498E+02  0.25153520003E+01 -0.32763637209E+02  0.43400724384E+02  0.00000000000E+00 0. -1.
         11    1    3    3    0    0  0.96506928206E+01  0.18040921012E+00  0.22664679049E+02  0.24634449376E+02  0.51100000000E-03 0. -1.
        -11    1    3    3    0    0  0.74136950913E+01  0.26918936494E+01  0.62593810398E+01  0.10069211369E+02  0.51100000000E-03 0.  1.
         12    1    3    3    0    0  0.11287683586E+02 -0.53876548597E+01  0.38395771205E+01  0.13083614871E+02  0.00000000000E+00 0. -1.
</event>
<event>
 7    1  0.4818508E-009  0.4778728E+02  0.7816164E-02  0.1312668E+00
        -11   -1    0    0    0    0  0.00000000000E+00  0.00000000000E+00  0.45593999997E+02  0.45594000000E+02  0.51100000000E-03 0.  1.
         11   -1    0    0    0    0 -0.00000000000E+00 -0.00000000000E+00 -0.45593999997E+02  0.45594000000E+02  0.51100000000E-03 0. -1.
    9900012    2    1    2    0    0  0.35070982310E+02  0.21886196318E+02  0.13215259433E+02  0.47787280290E+02  0.20000042154E+02 0.  0.
         12    1    1    2    0    0 -0.35070982310E+02 -0.21886196318E+02 -0.13215259433E+02  0.43400719710E+02  0.00000000000E+00 0. -1.
         11    1    3    3    0    0  0.96767033949E+01  0.13416265759E+02 -0.48786029253E+00  0.16549102194E+02  0.51100000000E-03 0. -1.
        -11    1    3    3    0    0  0.92879982704E+01  0.49770148918E+01  0.95992411833E+01  0.14254228168E+02  0.51100000000E-03 0.  1.
         12    1    3    3    0    0  0.16106280645E+02  0.34929156671E+01  0.41038785418E+01  0.16983949928E+02  0.00000000000E+00 0. -1.
</event>
<event>
 7    1  0.4818508E-009  0.4778727E+02  0.7816164E-02  0.1312668E+00
        -11   -1    0    0    0    0  0.00000000000E+00  0.00000000000E+00  0.45593999997E+02  0.45594000000E+02  0.51100000000E-03 0.  1.
         11   -1    0    0    0    0 -0.00000000000E+00 -0.00000000000E+00 -0.45593999997E+02  0.45594000000E+02  0.51100000000E-03 0. -1.
    9900012    2    1    2    0    0 -0.22714796506E+02 -0.36981890572E+02  0.35239402369E-01  0.47787268988E+02  0.19999990623E+02 0.  0.
         12    1    1    2    0    0  0.22714796506E+02  0.36981890572E+02 -0.35239402369E-01  0.43400731012E+02  0.00000000000E+00 0. -1.
         11    1    3    3    0    0 -0.43684497811E+01 -0.18368723990E+02 -0.43988648173E+01  0.19386680645E+02  0.51100000000E-03 0. -1.
        -11    1    3    3    0    0 -0.14841582147E+02 -0.12186807027E+02 -0.10828631489E+01  0.19234433160E+02  0.51100000000E-03 0.  1.
         12    1    3    3    0    0 -0.35047645778E+01 -0.64263595558E+01  0.55169673686E+01  0.91661551826E+01  0.00000000000E+00 0. -1.
</event>
<event>
 7    1  0.4818508E-009  0.4778727E+02  0.7816164E-02  0.1312668E+00
        -11   -1    0    0    0    0  0.00000000000E+00  0.00000000000E+00  0.45593999997E+02  0.45594000000E+02  0.51100000000E-03 0.  1.
         11   -1    0    0    0    0 -0.00000000000E+00 -0.00000000000E+00 -0.45593999997E+02  0.45594000000E+02  0.51100000000E-03 0. -1.
    9900012    2    1    2    0    0 -0.94899846695E+01  0.42902309535E+01  0.42132616374E+02  0.47787271283E+02  0.20000001086E+02 0.  0.
         12    1    1    2    0    0  0.94899846695E+01 -0.42902309535E+01 -0.42132616374E+02  0.43400728717E+02  0.00000000000E+00 0. -1.
         11    1    3    3    0    0 -0.39465333960E+01  0.88326624928E+01  0.30529568442E+02  0.32025702210E+02  0.51100000000E-03 0. -1.
        -11    1    3    3    0    0 -0.19894889958E+01  0.10428447063E+01  0.78212150199E+01  0.81373826378E+01  0.51100000000E-03 0.  1.
         12    1    3    3    0    0 -0.35539622778E+01 -0.55852762456E+01  0.37818329122E+01  0.76241864344E+01  0.00000000000E+00 0. -1.
</event>
<event>
 7    1  0.4818508E-009  0.4778726E+02  0.7816164E-02  0.1312668E+00
        -11   -1    0    0    0    0  0.00000000000E+00  0.00000000000E+00  0.45593999997E+02  0.45594000000E+02  0.51100000000E-03 0.  1.
         11   -1    0    0    0    0 -0.00000000000E+00 -0.00000000000E+00 -0.45593999997E+02  0.45594000000E+02  0.51100000000E-03 0. -1.
    9900012    2    1    2    0    0 -0.21465366749E+02  0.40403901996E+01  0.37503827536E+02  0.47787264955E+02  0.19999972235E+02 0.  0.
         12    1    1    2    0    0  0.21465366749E+02 -0.40403901996E+01 -0.37503827536E+02  0.43400735045E+02  0.00000000000E+00 0. -1.
         11    1    3    3    0    0 -0.13012939370E+02  0.28992462572E+01  0.20226550808E+02  0.24225102224E+02  0.51100000000E-03 0.  1.
        -11    1    3    3    0    0  0.23010866986E+01  0.40773836311E+01  0.68576199449E+01  0.83034335573E+01  0.51100000000E-03 0. -1.
        -12    1    3    3    0    0 -0.10753514078E+02 -0.29362396886E+01  0.10419656783E+02  0.15258729174E+02  0.00000000000E+00 0.  1.
</event>
<event>
 7    1  0.4818508E-009  0.4778727E+02  0.7816164E-02  0.1312668E+00
        -11   -1    0    0    0    0  0.00000000000E+00  0.00000000000E+00  0.45593999997E+02  0.45594000000E+02  0.51100000000E-03 0.  1.
         11   -1    0    0    0    0 -0.00000000000E+00 -0.00000000000E+00 -0.45593999997E+02  0.45594000000E+02  0.51100000000E-03 0. -1.
    9900012    2    1    2    0    0 -0.34635716483E+02 -0.24294923502E+02  0.96823198503E+01  0.47787268647E+02  0.19999989070E+02 0.  0.
         12    1    1    2    0    0  0.34635716483E+02  0.24294923502E+02 -0.96823198503E+01  0.43400731353E+02  0.00000000000E+00 0. -1.
         11    1    3    3    0    0  0.38141436746E+00 -0.38854304719E+01 -0.13671534017E+01  0.41365632542E+01  0.51100000000E-03 0. -1.
        -11    1    3    3    0    0 -0.21363309361E+02 -0.65030989884E+01  0.89165516952E+01  0.24045502235E+02  0.51100000000E-03 0.  1.
         12    1    3    3    0    0 -0.13653821489E+02 -0.13906394042E+02  0.21329215568E+01  0.19605203158E+02  0.00000000000E+00 0. -1.
</event>
<event>
 7    1  0.4818508E-009  0.4778727E+02  0.7816164E-02  0.1312668E+00
        -11   -1    0    0    0    0  0.00000000000E+00  0.00000000000E+00  0.45593999997E+02  0.45594000000E+02  0.51100000000E-03 0.  1.
         11   -1    0    0    0    0 -0.00000000000E+00 -0.00000000000E+00 -0.45593999997E+02  0.45594000000E+02  0.51100000000E-03 0. -1.
    9900012    2    1    2    0    0 -0.16918238733E+02  0.24230261953E+02  0.31785068790E+02  0.47787274267E+02  0.20000014694E+02 0.  0.
         12    1    1    2    0    0  0.16918238733E+02 -0.24230261953E+02 -0.31785068790E+02  0.43400725733E+02  0.00000000000E+00 0. -1.
         11    1    3    3    0    0 -0.12354133919E+02  0.76387115092E+01  0.11416581976E+02  0.18474655144E+02  0.51100000000E-03 0. -1.
        -11    1    3    3    0    0  0.31930736120E+00  0.12150975384E+02  0.61185716022E+01  0.13608272436E+02  0.51100000000E-03 0.  1.
        -12    1    3    3    0    0 -0.48834121746E+01  0.44405750599E+01  0.14249915212E+02  0.15704346687E+02  0.00000000000E+00 0.  1.
</event>
<event>
 7    1  0.4818508E-009  0.4778727E+02  0.7816164E-02  0.1312668E+00
        -11   -1    0    0    0    0  0.00000000000E+00  0.00000000000E+00  0.45593999997E+02  0.45594000000E+02  0.51100000000E-03 0. -1.
         11   -1    0    0    0    0 -0.00000000000E+00 -0.00000000000E+00 -0.45593999997E+02  0.45594000000E+02  0.51100000000E-03 0.  1.
    9900012    2    1    2    0    0 -0.71040659990E+00 -0.40426671780E+02 -0.15773483707E+02  0.47787271239E+02  0.20000000886E+02 0.  0.
         12    1    1    2    0    0  0.71040659990E+00  0.40426671780E+02  0.15773483707E+02  0.43400728761E+02  0.00000000000E+00 0. -1.
         11    1    3    3    0    0  0.59839106932E+01 -0.37722111792E+01 -0.59473283887E+01  0.92416167195E+01  0.51100000000E-03 0. -1.
        -11    1    3    3    0    0 -0.36981079759E+01 -0.22734272101E+02 -0.60328404150E+01  0.23810046079E+02  0.51100000000E-03 0.  1.
         12    1    3    3    0    0 -0.29962093172E+01 -0.13920188500E+02 -0.37933149030E+01  0.14735608440E+02  0.00000000000E+00 0. -1.
</event>
<event>
 7    1  0.4818508E-009  0.4778727E+02  0.7816164E-02  0.1312668E+00
        -11   -1    0    0    0    0  0.00000000000E+00  0.00000000000E+00  0.45593999997E+02  0.45594000000E+02  0.51100000000E-03 0.  1.
         11   -1    0    0    0    0 -0.00000000000E+00 -0.00000000000E+00 -0.45593999997E+02  0.45594000000E+02  0.51100000000E-03 0. -1.
    9900012    2    1    2    0    0 -0.31043277331E+02  0.97101196890E+01  0.28734161178E+02  0.47787268319E+02  0.19999987575E+02 0.  0.
         12    1    1    2    0    0  0.31043277331E+02 -0.97101196890E+01 -0.28734161178E+02  0.43400731681E+02  0.00000000000E+00 0. -1.
         11    1    3    3    0    0 -0.81495794900E+01 -0.43426932353E+01  0.76510500604E+01  0.11992214044E+02  0.51100000000E-03 0. -1.
        -11    1    3    3    0    0 -0.15146325686E+02  0.10503071936E+02  0.20011017938E+02  0.27206001931E+02  0.51100000000E-03 0.  1.
        -12    1    3    3    0    0 -0.77473721546E+01  0.35497409880E+01  0.10720931803E+01  0.85890523442E+01  0.00000000000E+00 0.  1.
</event>
<event>
 7    1  0.4818508E-009  0.4778727E+02  0.7816164E-02  0.1312668E+00
        -11   -1    0    0    0    0  0.00000000000E+00  0.00000000000E+00  0.45593999997E+02  0.45594000000E+02  0.51100000000E-03 0. -1.
         11   -1    0    0    0    0 -0.00000000000E+00 -0.00000000000E+00 -0.45593999997E+02  0.45594000000E+02  0.51100000000E-03 0.  1.
    9900012    2    1    2    0    0  0.28062466470E+02  0.19669819738E+02 -0.26631171254E+02  0.47787272872E+02  0.20000008332E+02 0.  0.
         12    1    1    2    0    0 -0.28062466470E+02 -0.19669819738E+02  0.26631171254E+02  0.43400727128E+02  0.00000000000E+00 0. -1.
         11    1    3    3    0    0  0.15987088295E+02  0.66141396592E+01 -0.47594123858E+01  0.17943963946E+02  0.51100000000E-03 0. -1.
        -11    1    3    3    0    0  0.43469824220E+01  0.11649667141E+02 -0.12852954491E+02  0.17883216715E+02  0.51100000000E-03 0.  1.
         12    1    3    3    0    0  0.77283957533E+01  0.14060129374E+01 -0.90188043775E+01  0.11960092211E+02  0.00000000000E+00 0. -1.
</event>
<event>
 7    1  0.4818508E-009  0.4778727E+02  0.7816164E-02  0.1312668E+00
        -11   -1    0    0    0    0  0.00000000000E+00  0.00000000000E+00  0.45593999997E+02  0.45594000000E+02  0.51100000000E-03 0.  1.
         11   -1    0    0    0    0 -0.00000000000E+00 -0.00000000000E+00 -0.45593999997E+02  0.45594000000E+02  0.51100000000E-03 0. -1.
    9900012    2    1    2    0    0  0.80545805729E+01 -0.24117270189E+02  0.35172493890E+02  0.47787270559E+02  0.19999997788E+02 0.  0.
         12    1    1    2    0    0 -0.80545805729E+01  0.24117270189E+02 -0.35172493890E+02  0.43400729441E+02  0.00000000000E+00 0. -1.
         11    1    3    3    0    0 -0.48268211816E+00  0.12829369233E+01  0.42017362562E+00  0.14336859186E+01  0.51100000000E-03 0. -1.
        -11    1    3    3    0    0 -0.38790855973E+01 -0.10938397366E+02  0.13669771058E+02  0.17932051836E+02  0.51100000000E-03 0.  1.
        -12    1    3    3    0    0  0.12416348288E+02 -0.14461809746E+02  0.21082549206E+02  0.28421532805E+02  0.00000000000E+00 0.  1.
</event>
<event>
 7    1  0.4818508E-009  0.4778727E+02  0.7816164E-02  0.1312668E+00
        -11   -1    0    0    0    0  0.00000000000E+00  0.00000000000E+00  0.45593999997E+02  0.45594000000E+02  0.51100000000E-03 0.  1.
         11   -1    0    0    0    0 -0.00000000000E+00 -0.00000000000E+00 -0.45593999997E+02  0.45594000000E+02  0.51100000000E-03 0. -1.
    9900012    2    1    2    0    0 -0.14908487097E+02  0.97496163708E+01  0.39576575626E+02  0.47787270223E+02  0.19999996254E+02 0.  0.
         12    1    1    2    0    0  0.14908487097E+02 -0.97496163708E+01 -0.39576575626E+02  0.43400729777E+02  0.00000000000E+00 0. -1.
         11    1    3    3    0    0 -0.47018483599E+01  0.67108107503E+01  0.31591211206E+02  0.32636589660E+02  0.51100000000E-03 0. -1.
        -11    1    3    3    0    0 -0.33442122298E+01  0.30044976339E+01  0.68520706133E+01  0.81952201569E+01  0.51100000000E-03 0.  1.
         12    1    3    3    0    0 -0.68624265068E+01  0.34307986608E-01  0.11332938069E+01  0.69554604055E+01  0.00000000000E+00 0. -1.
</event>
<event>
 7    1  0.4818508E-009  0.4778727E+02  0.7816164E-02  0.1312668E+00
        -11   -1    0    0    0    0  0.00000000000E+00  0.00000000000E+00  0.45593999997E+02  0.45594000000E+02  0.51100000000E-03 0.  1.
         11   -1    0    0    0    0 -0.00000000000E+00 -0.00000000000E+00 -0.45593999997E+02  0.45594000000E+02  0.51100000000E-03 0. -1.
    9900012    2    1    2    0    0 -0.12677534651E+02  0.39021969353E+02  0.14148827198E+02  0.47787270880E+02  0.19999999251E+02 0.  0.
         12    1    1    2    0    0  0.12677534651E+02 -0.39021969353E+02 -0.14148827198E+02  0.43400729120E+02  0.00000000000E+00 0. -1.
         11    1    3    3    0    0  0.32417536561E+01  0.76433213489E+01  0.54360388503E+01  0.99237012577E+01  0.51100000000E-03 0.  1.
        -11    1    3    3    0    0 -0.13861156053E+02  0.30230428420E+02  0.10533943292E+02  0.34885160328E+02  0.51100000000E-03 0. -1.
         12    1    3    3    0    0 -0.20581322548E+01  0.11482195847E+01 -0.18211549448E+01  0.29784092946E+01  0.00000000000E+00 0. -1.
</event>
<event>
 7    1  0.4818508E-009  0.4778730E+02  0.7816164E-02  0.1312668E+00
        -11   -1    0    0    0    0  0.00000000000E+00  0.00000000000E+00  0.45593999997E+02  0.45594000000E+02  0.51100000000E-03 0.  1.
         11   -1    0    0    0    0 -0.00000000000E+00 -0.00000000000E+00 -0.45593999997E+02  0.45594000000E+02  0.51100000000E-03 0. -1.
    9900012    2    1    2    0    0  0.22364704119E+02 -0.13045817373E+02  0.34831704844E+02  0.47787297199E+02  0.20000119251E+02 0.  0.
         12    1    1    2    0    0 -0.22364704119E+02  0.13045817373E+02 -0.34831704844E+02  0.43400702801E+02  0.00000000000E+00 0. -1.
         11    1    3    3    0    0  0.45035362633E+01  0.26006098087E+01  0.11331527726E+02  0.12467900029E+02  0.51100000000E-03 0. -1.
        -11    1    3    3    0    0 -0.24679251524E+00 -0.21289294635E+00  0.54371637607E+01  0.54469239001E+01  0.51100000000E-03 0.  1.
         12    1    3    3    0    0  0.18107960371E+02 -0.15433534235E+02  0.18063013357E+02  0.29872473271E+02  0.00000000000E+00 0. -1.
</event>
<event>
 7    1  0.4818508E-009  0.4778727E+02  0.7816164E-02  0.1312668E+00
        -11   -1    0    0    0    0  0.00000000000E+00  0.00000000000E+00  0.45593999997E+02  0.45594000000E+02  0.51100000000E-03 0. -1.
         11   -1    0    0    0    0 -0.00000000000E+00 -0.00000000000E+00 -0.45593999997E+02  0.45594000000E+02  0.51100000000E-03 0.  1.
    9900012    2    1    2    0    0  0.33334808399E+02 -0.10378202690E+02 -0.25781902247E+02  0.47787273906E+02  0.20000013045E+02 0.  0.
         12    1    1    2    0    0 -0.33334808399E+02  0.10378202690E+02  0.25781902247E+02  0.43400726094E+02  0.00000000000E+00 0. -1.
         11    1    3    3    0    0  0.20804568625E+02 -0.10781253366E+02 -0.15927824173E+02  0.28333038717E+02  0.51100000000E-03 0. -1.
        -11    1    3    3    0    0  0.74428152094E+01 -0.51252304216E+01 -0.37900720294E+01  0.97993944386E+01  0.51100000000E-03 0.  1.
         12    1    3    3    0    0  0.50874245649E+01  0.55282810975E+01 -0.60640060440E+01  0.96548407495E+01  0.00000000000E+00 0. -1.
</event>
<event>
 7    1  0.4818508E-009  0.4778727E+02  0.7816164E-02  0.1312668E+00
        -11   -1    0    0    0    0  0.00000000000E+00  0.00000000000E+00  0.45593999997E+02  0.45594000000E+02  0.51100000000E-03 0. -1.
         11   -1    0    0    0    0 -0.00000000000E+00 -0.00000000000E+00 -0.45593999997E+02  0.45594000000E+02  0.51100000000E-03 0.  1.
    9900012    2    1    2    0    0  0.34661935202E+02 -0.24688538771E+02  0.85234983010E+01  0.47787265883E+02  0.19999976467E+02 0.  0.
         12    1    1    2    0    0 -0.34661935202E+02  0.24688538771E+02 -0.85234983010E+01  0.43400734117E+02  0.00000000000E+00 0. -1.
         11    1    3    3    0    0  0.21262705564E+01  0.17079364138E+01 -0.27398529096E+01  0.38658592189E+01  0.51100000000E-03 0. -1.
        -11    1    3    3    0    0  0.16670644531E+02 -0.11111218728E+02  0.83284944789E+01  0.21696391203E+02  0.51100000000E-03 0.  1.
         12    1    3    3    0    0  0.15865020115E+02 -0.15285256457E+02  0.29348567317E+01  0.22225015461E+02  0.00000000000E+00 0. -1.
</event>
<event>
 7    1  0.4818508E-009  0.4778727E+02  0.7816164E-02  0.1312668E+00
        -11   -1    0    0    0    0  0.00000000000E+00  0.00000000000E+00  0.45593999997E+02  0.45594000000E+02  0.51100000000E-03 0.  1.
         11   -1    0    0    0    0 -0.00000000000E+00 -0.00000000000E+00 -0.45593999997E+02  0.45594000000E+02  0.51100000000E-03 0. -1.
    9900012    2    1    2    0    0 -0.25773661222E+02  0.11102719715E+02  0.33106963878E+02  0.47787273565E+02  0.20000011493E+02 0.  0.
         12    1    1    2    0    0  0.25773661222E+02 -0.11102719715E+02 -0.33106963878E+02  0.43400726435E+02  0.00000000000E+00 0. -1.
         11    1    3    3    0    0 -0.22821660507E+01  0.18451412645E+01  0.82233843658E+01  0.87313732515E+01  0.51100000000E-03 0.  1.
        -11    1    3    3    0    0  0.20121492519E+01  0.30857094903E+01  0.17661589944E+01  0.40852987069E+01  0.51100000000E-03 0. -1.
        -12    1    3    3    0    0 -0.25503644424E+02  0.61718689599E+01  0.23117420518E+02  0.34970601607E+02  0.00000000000E+00 0.  1.
</event>
<event>
 7    1  0.4818508E-009  0.4778728E+02  0.7816164E-02  0.1312668E+00
        -11   -1    0    0    0    0  0.00000000000E+00  0.00000000000E+00  0.45593999997E+02  0.45594000000E+02  0.51100000000E-03 0. -1.
         11   -1    0    0    0    0 -0.00000000000E+00 -0.00000000000E+00 -0.45593999997E+02  0.45594000000E+02  0.51100000000E-03 0.  1.
    9900012    2    1    2    0    0 -0.35034979928E+02  0.17176999942E+02  0.19003246338E+02  0.47787279764E+02  0.20000039757E+02 0.  0.
         12    1    1    2    0    0  0.35034979928E+02 -0.17176999942E+02 -0.19003246338E+02  0.43400720236E+02  0.00000000000E+00 0. -1.
         11    1    3    3    0    0 -0.12033037583E+00  0.17969103996E+01  0.33610925413E+01  0.38131758045E+01  0.51100000000E-03 0. -1.
        -11    1    3    3    0    0 -0.10097636335E+02 -0.15259584388E+01  0.80428037688E+01  0.12999134642E+02  0.51100000000E-03 0.  1.
        -12    1    3    3    0    0 -0.24817013218E+02  0.16906047982E+02  0.75993500279E+01  0.30974969318E+02  0.00000000000E+00 0.  1.
</event>
<event>
 7    1  0.4818508E-009  0.4778727E+02  0.7816164E-02  0.1312668E+00
        -11   -1    0    0    0    0  0.00000000000E+00  0.00000000000E+00  0.45593999997E+02  0.45594000000E+02  0.51100000000E-03 0.  1.
         11   -1    0    0    0    0 -0.00000000000E+00 -0.00000000000E+00 -0.45593999997E+02  0.45594000000E+02  0.51100000000E-03 0. -1.
    9900012    2    1    2    0    0  0.25993073882E+02 -0.11774957595E+02  0.32700671082E+02  0.47787269529E+02  0.19999993092E+02 0.  0.
         12    1    1    2    0    0 -0.25993073882E+02  0.11774957595E+02 -0.32700671082E+02  0.43400730471E+02  0.00000000000E+00 0. -1.
         11    1    3    3    0    0  0.89120572753E+01 -0.12949396392E+02  0.12595027162E+02  0.20143146260E+02  0.51100000000E-03 0. -1.
        -11    1    3    3    0    0  0.15921384377E+02 -0.15616849587E+01  0.17135821691E+02  0.23442818212E+02  0.51100000000E-03 0.  1.
         12    1    3    3    0    0  0.11596322292E+01  0.27361237561E+01  0.29698222286E+01  0.42013050574E+01  0.00000000000E+00 0. -1.
</event>
<event>
 7    1  0.4818508E-009  0.4778728E+02  0.7816164E-02  0.1312668E+00
        -11   -1    0    0    0    0  0.00000000000E+00  0.00000000000E+00  0.45593999997E+02  0.45594000000E+02  0.51100000000E-03 0.  1.
         11   -1    0    0    0    0 -0.00000000000E+00 -0.00000000000E+00 -0.45593999997E+02  0.45594000000E+02  0.51100000000E-03 0. -1.
    9900012    2    1    2    0    0 -0.38362860561E+02 -0.88259120677E+01  0.18276128510E+02  0.47787278029E+02  0.20000031846E+02 0.  0.
         12    1    1    2    0    0  0.38362860561E+02  0.88259120677E+01 -0.18276128510E+02  0.43400721971E+02  0.00000000000E+00 0. -1.
         11    1    3    3    0    0 -0.30238738982E+00  0.26745050289E+01 -0.89368147961E+00  0.28360328156E+01  0.51100000000E-03 0. -1.
        -11    1    3    3    0    0 -0.23861425775E+02 -0.53309802956E+01  0.15789999415E+02  0.29105172611E+02  0.51100000000E-03 0.  1.
        -12    1    3    3    0    0 -0.14199047397E+02 -0.61694368010E+01  0.33798105751E+01  0.15846072603E+02  0.00000000000E+00 0.  1.
</event>
<event>
 7    1  0.4818508E-009  0.4778727E+02  0.7816164E-02  0.1312668E+00
        -11   -1    0    0    0    0  0.00000000000E+00  0.00000000000E+00  0.45593999997E+02  0.45594000000E+02  0.51100000000E-03 0.  1.
         11   -1    0    0    0    0 -0.00000000000E+00 -0.00000000000E+00 -0.45593999997E+02  0.45594000000E+02  0.51100000000E-03 0. -1.
    9900012    2    1    2    0    0 -0.14516443063E+02  0.28144907464E+02  0.29677606366E+02  0.47787271262E+02  0.20000000993E+02 0.  0.
         12    1    1    2    0    0  0.14516443063E+02 -0.28144907464E+02 -0.29677606366E+02  0.43400728738E+02  0.00000000000E+00 0. -1.
         11    1    3    3    0    0 -0.10711183534E+01  0.59448639820E+01  0.86226746770E+01  0.10528020761E+02  0.51100000000E-03 0. -1.
        -11    1    3    3    0    0 -0.85631786963E+01  0.14752170091E+01  0.25665889027E+01  0.90604455445E+01  0.51100000000E-03 0.  1.
        -12    1    3    3    0    0 -0.48821460136E+01  0.20724826473E+02  0.18488342786E+02  0.28198804957E+02  0.00000000000E+00 0.  1.
</event>
<event>
 7    1  0.4818508E-009  0.4778727E+02  0.7816164E-02  0.1312668E+00
        -11   -1    0    0    0    0  0.00000000000E+00  0.00000000000E+00  0.45593999997E+02  0.45594000000E+02  0.51100000000E-03 0.  1.
         11   -1    0    0    0    0 -0.00000000000E+00 -0.00000000000E+00 -0.45593999997E+02  0.45594000000E+02  0.51100000000E-03 0. -1.
    9900012    2    1    2    0    0  0.21950426317E+02 -0.16908941315E+02  0.33404937314E+02  0.47787270181E+02  0.19999996063E+02 0.  0.
         12    1    1    2    0    0 -0.21950426317E+02  0.16908941315E+02 -0.33404937314E+02  0.43400729819E+02  0.00000000000E+00 0. -1.
         11    1    3    3    0    0 -0.19436536923E+01  0.79186669213E+00 -0.56217930048E+00  0.21727605392E+01  0.51100000000E-03 0. -1.
        -11    1    3    3    0    0  0.21889389107E+02 -0.16168739444E+02  0.27573612628E+02  0.38741161629E+02  0.51100000000E-03 0.  1.
        -12    1    3    3    0    0  0.20046909018E+01 -0.15320685634E+01  0.63935039859E+01  0.68733480134E+01  0.00000000000E+00 0.  1.
</event>
<event>
 7    1  0.4818508E-009  0.4778727E+02  0.7816164E-02  0.1312668E+00
        -11   -1    0    0    0    0  0.00000000000E+00  0.00000000000E+00  0.45593999997E+02  0.45594000000E+02  0.51100000000E-03 0.  1.
         11   -1    0    0    0    0 -0.00000000000E+00 -0.00000000000E+00 -0.45593999997E+02  0.45594000000E+02  0.51100000000E-03 0. -1.
    9900012    2    1    2    0    0 -0.42995872449E+02  0.11404597395E+01  0.58032386992E+01  0.47787271026E+02  0.19999999916E+02 0.  0.
         12    1    1    2    0    0  0.42995872449E+02 -0.11404597395E+01 -0.58032386992E+01  0.43400728974E+02  0.00000000000E+00 0. -1.
         11    1    3    3    0    0 -0.27022066409E+02  0.43081100581E+01  0.39517305042E+01  0.27647207084E+02  0.51100000000E-03 0. -1.
        -11    1    3    3    0    0 -0.17372364889E+02 -0.17163406250E+01  0.80670324981E-01  0.17457130204E+02  0.51100000000E-03 0.  1.
         12    1    3    3    0    0  0.13985588495E+01 -0.14513096936E+01  0.17708378700E+01  0.26829337383E+01  0.00000000000E+00 0. -1.
</event>
<event>
 7    1  0.4818508E-009  0.4778727E+02  0.7816164E-02  0.1312668E+00
        -11   -1    0    0    0    0  0.00000000000E+00  0.00000000000E+00  0.45593999997E+02  0.45594000000E+02  0.51100000000E-03 0.  1.
         11   -1    0    0    0    0 -0.00000000000E+00 -0.00000000000E+00 -0.45593999997E+02  0.45594000000E+02  0.51100000000E-03 0. -1.
    9900012    2    1    2    0    0 -0.16920748867E+02  0.28652222761E+02  0.27863266094E+02  0.47787271794E+02  0.20000003419E+02 0.  0.
         12    1    1    2    0    0  0.16920748867E+02 -0.28652222761E+02 -0.27863266094E+02  0.43400728206E+02  0.00000000000E+00 0. -1.
         11    1    3    3    0    0 -0.70481016704E+01  0.13540772540E+02  0.21609965894E+02  0.26457869989E+02  0.51100000000E-03 0.  1.
        -11    1    3    3    0    0 -0.27418620130E+01  0.92839136835E+01 -0.82337776297E+00  0.97152875296E+01  0.51100000000E-03 0. -1.
        -12    1    3    3    0    0 -0.71307851832E+01  0.58275365375E+01  0.70766779630E+01  0.11614114276E+02  0.00000000000E+00 0.  1.
</event>
<event>
 7    1  0.4818508E-009  0.4778727E+02  0.7816164E-02  0.1312668E+00
        -11   -1    0    0    0    0  0.00000000000E+00  0.00000000000E+00  0.45593999997E+02  0.45594000000E+02  0.51100000000E-03 0.  1.
         11   -1    0    0    0    0 -0.00000000000E+00 -0.00000000000E+00 -0.45593999997E+02  0.45594000000E+02  0.51100000000E-03 0. -1.
    9900012    2    1    2    0    0 -0.17887830255E+02  0.40354558725E+01  0.39336546728E+02  0.47787270929E+02  0.19999999475E+02 0.  0.
         12    1    1    2    0    0  0.17887830255E+02 -0.40354558725E+01 -0.39336546728E+02  0.43400729071E+02  0.00000000000E+00 0. -1.
         11    1    3    3    0    0  0.24635755280E+01  0.20960996880E+01  0.64971185495E+01  0.72577812031E+01  0.51100000000E-03 0. -1.
        -11    1    3    3    0    0 -0.18362285586E+02  0.30850593175E+01  0.19377977386E+02  0.26873725658E+02  0.51100000000E-03 0.  1.
        -12    1    3    3    0    0 -0.19891201976E+01 -0.11457031330E+01  0.13461450793E+02  0.13655764068E+02  0.00000000000E+00 0.  1.
</event>
<event>
 7    1  0.4818508E-009  0.4778727E+02  0.7816164E-02  0.1312668E+00
        -11   -1    0    0    0    0  0.00000000000E+00  0.00000000000E+00  0.45593999997E+02  0.45594000000E+02  0.51100000000E-03 0.  1.
         11   -1    0    0    0    0 -0.00000000000E+00 -0.00000000000E+00 -0.45593999997E+02  0.45594000000E+02  0.51100000000E-03 0. -1.
    9900012    2    1    2    0    0 -0.14620349816E+02 -0.22990428945E+02  0.33783262310E+02  0.47787271157E+02  0.20000000512E+02 0.  0.
         12    1    1    2    0    0  0.14620349816E+02  0.22990428945E+02 -0.33783262310E+02  0.43400728843E+02  0.00000000000E+00 0. -1.
         11    1    3    3    0    0 -0.38762834497E+01 -0.25104671990E+00 -0.13775381247E+01  0.41214329285E+01  0.51100000000E-03 0. -1.
        -11    1    3    3    0    0 -0.92713785365E+01 -0.13565314356E+02  0.19994668577E+02  0.25879779468E+02  0.51100000000E-03 0.  1.
         12    1    3    3    0    0 -0.14726878302E+01 -0.91740678690E+01  0.15166131857E+02  0.17786058760E+02  0.00000000000E+00 0. -1.
</event>
<event>
 7    1  0.4818508E-009  0.4778725E+02  0.7816164E-02  0.1312668E+00
        -11   -1    0    0    0    0  0.00000000000E+00  0.00000000000E+00  0.45593999997E+02  0.45594000000E+02  0.51100000000E-03 0.  1.
         11   -1    0    0    0    0 -0.00000000000E+00 -0.00000000000E+00 -0.45593999997E+02  0.45594000000E+02  0.51100000000E-03 0. -1.
    9900012    2    1    2    0    0 -0.84687568371E+01  0.34504481372E+02  0.24926814449E+02  0.47787249365E+02  0.19999901153E+02 0.  0.
         12    1    1    2    0    0  0.84687568371E+01 -0.34504481372E+02 -0.24926814449E+02  0.43400750635E+02  0.00000000000E+00 0. -1.
         11    1    3    3    0    0 -0.10384491467E+01  0.14942899567E+02  0.14398713567E+01  0.15047985044E+02  0.51100000000E-03 0. -1.
        -11    1    3    3    0    0 -0.53085551447E+01  0.18598914386E+02  0.16666359114E+02  0.25531703830E+02  0.51100000000E-03 0.  1.
         12    1    3    3    0    0 -0.21217525457E+01  0.96266741891E+00  0.68205839785E+01  0.72075604910E+01  0.00000000000E+00 0. -1.
</event>
<event>
 7    1  0.4818508E-009  0.4778727E+02  0.7816164E-02  0.1312668E+00
        -11   -1    0    0    0    0  0.00000000000E+00  0.00000000000E+00  0.45593999997E+02  0.45594000000E+02  0.51100000000E-03 0. -1.
         11   -1    0    0    0    0 -0.00000000000E+00 -0.00000000000E+00 -0.45593999997E+02  0.45594000000E+02  0.51100000000E-03 0.  1.
    9900012    2    1    2    0    0 -0.41638750230E+02  0.67993209479E+01  0.10178756355E+02  0.47787269971E+02  0.19999995107E+02 0.  0.
         12    1    1    2    0    0  0.41638750230E+02 -0.67993209479E+01 -0.10178756355E+02  0.43400730029E+02  0.00000000000E+00 0. -1.
         11    1    3    3    0    0 -0.17602850120E+02 -0.51511573742E+01  0.53990161034E+01  0.19119208398E+02  0.51100000000E-03 0. -1.
        -11    1    3    3    0    0 -0.22894886199E+02  0.81634707440E+01  0.39253631919E+01  0.24621668203E+02  0.51100000000E-03 0.  1.
         12    1    3    3    0    0 -0.11410139114E+01  0.37870075782E+01  0.85437705934E+00  0.40463933697E+01  0.00000000000E+00 0. -1.
</event>
<event>
 7    1  0.4818508E-009  0.4778728E+02  0.7816164E-02  0.1312668E+00
        -11   -1    0    0    0    0  0.00000000000E+00  0.00000000000E+00  0.45593999997E+02  0.45594000000E+02  0.51100000000E-03 0.  1.
         11   -1    0    0    0    0 -0.00000000000E+00 -0.00000000000E+00 -0.45593999997E+02  0.45594000000E+02  0.51100000000E-03 0. -1.
    9900012    2    1    2    0    0 -0.12687610808E+02 -0.37333342580E+02  0.18134735471E+02  0.47787279190E+02  0.20000037139E+02 0.  0.
         12    1    1    2    0    0  0.12687610808E+02  0.37333342580E+02 -0.18134735471E+02  0.43400720810E+02  0.00000000000E+00 0. -1.
         11    1    3    3    0    0 -0.73009376695E+01 -0.17604548284E+02 -0.27384204123E+00  0.19060398759E+02  0.51100000000E-03 0. -1.
        -11    1    3    3    0    0 -0.15835083767E+01 -0.16770731481E+02  0.11880774735E+02  0.20613532976E+02  0.51100000000E-03 0.  1.
         12    1    3    3    0    0 -0.38031647622E+01 -0.29580628151E+01  0.65278027769E+01  0.81133474547E+01  0.00000000000E+00 0. -1.
</event>
<event>
 7    1  0.4818508E-009  0.4778726E+02  0.7816164E-02  0.1312668E+00
        -11   -1    0    0    0    0  0.00000000000E+00  0.00000000000E+00  0.45593999997E+02  0.45594000000E+02  0.51100000000E-03 0.  1.
         11   -1    0    0    0    0 -0.00000000000E+00 -0.00000000000E+00 -0.45593999997E+02  0.45594000000E+02  0.51100000000E-03 0. -1.
    9900012    2    1    2    0    0  0.27651342115E+02 -0.20854930241E+02  0.26155286746E+02  0.47787264282E+02  0.19999969165E+02 0.  0.
         12    1    1    2    0    0 -0.27651342115E+02  0.20854930241E+02 -0.26155286746E+02  0.43400735718E+02  0.00000000000E+00 0. -1.
         11    1    3    3    0    0  0.12559173260E+02 -0.14602018337E+02  0.22474858415E+02  0.29598497150E+02  0.51100000000E-03 0. -1.
        -11    1    3    3    0    0  0.12881331342E+02 -0.50050760743E+01  0.56958804781E+01  0.14947325457E+02  0.51100000000E-03 0.  1.
         12    1    3    3    0    0  0.22108375134E+01 -0.12478358298E+01 -0.20154521473E+01  0.32414416741E+01  0.00000000000E+00 0. -1.
</event>
<event>
 7    1  0.4818508E-009  0.4778725E+02  0.7816164E-02  0.1312668E+00
        -11   -1    0    0    0    0  0.00000000000E+00  0.00000000000E+00  0.45593999997E+02  0.45594000000E+02  0.51100000000E-03 0. -1.
         11   -1    0    0    0    0 -0.00000000000E+00 -0.00000000000E+00 -0.45593999997E+02  0.45594000000E+02  0.51100000000E-03 0.  1.
    9900012    2    1    2    0    0  0.28160089708E+00  0.38434908885E+02 -0.20156966034E+02  0.47787253465E+02  0.19999919849E+02 0.  0.
         12    1    1    2    0    0 -0.28160089708E+00 -0.38434908885E+02  0.20156966034E+02  0.43400746535E+02  0.00000000000E+00 0. -1.
         11    1    3    3    0    0  0.77844463597E+01  0.11048187448E+02 -0.76661232741E+01  0.15538001716E+02  0.51100000000E-03 0. -1.
        -11    1    3    3    0    0 -0.24673956313E+01  0.18084992830E+02 -0.40001889047E+01  0.18685730342E+02  0.51100000000E-03 0.  1.
         12    1    3    3    0    0 -0.50354498313E+01  0.93017286072E+01 -0.84906538549E+01  0.13563521407E+02  0.00000000000E+00 0. -1.
</event>
<event>
 7    1  0.4818508E-009  0.4778728E+02  0.7816164E-02  0.1312668E+00
        -11   -1    0    0    0    0  0.00000000000E+00  0.00000000000E+00  0.45593999997E+02  0.45594000000E+02  0.51100000000E-03 0.  1.
         11   -1    0    0    0    0 -0.00000000000E+00 -0.00000000000E+00 -0.45593999997E+02  0.45594000000E+02  0.51100000000E-03 0. -1.
    9900012    2    1    2    0    0  0.54761564536E+01  0.12604576324E+02  0.41167453145E+02  0.47787276132E+02  0.20000023198E+02 0.  0.
         12    1    1    2    0    0 -0.54761564536E+01 -0.12604576324E+02 -0.41167453145E+02  0.43400723868E+02  0.00000000000E+00 0. -1.
         11    1    3    3    0    0  0.65712069757E+01  0.48962675968E+01  0.46370782214E+01  0.94157682740E+01  0.51100000000E-03 0. -1.
        -11    1    3    3    0    0 -0.38599809592E+01  0.71135440711E+01  0.19579009411E+02  0.21185834230E+02  0.51100000000E-03 0.  1.
        -12    1    3    3    0    0  0.27649304371E+01  0.59476465619E+00  0.16951365512E+02  0.17185673628E+02  0.00000000000E+00 0.  1.
</event>
<event>
 7    1  0.4818508E-009  0.4778727E+02  0.7816164E-02  0.1312668E+00
        -11   -1    0    0    0    0  0.00000000000E+00  0.00000000000E+00  0.45593999997E+02  0.45594000000E+02  0.51100000000E-03 0. -1.
         11   -1    0    0    0    0 -0.00000000000E+00 -0.00000000000E+00 -0.45593999997E+02  0.45594000000E+02  0.51100000000E-03 0.  1.
    9900012    2    1    2    0    0 -0.19839671523E+02  0.27873052508E+02 -0.26704005415E+02  0.47787268123E+02  0.19999986679E+02 0.  0.
         12    1    1    2    0    0  0.19839671523E+02 -0.27873052508E+02  0.26704005415E+02  0.43400731877E+02  0.00000000000E+00 0. -1.
         11    1    3    3    0    0 -0.19480695779E+02  0.18104149898E+02 -0.22530960361E+02  0.34855443285E+02  0.51100000000E-03 0. -1.
        -11    1    3    3    0    0 -0.27299990991E+01  0.81099472628E+01 -0.96480597310E+00  0.86113291955E+01  0.51100000000E-03 0.  1.
         12    1    3    3    0    0  0.23710233548E+01  0.16589553476E+01 -0.32082390807E+01  0.43204956421E+01  0.00000000000E+00 0. -1.
</event>
<event>
 7    1  0.4818508E-009  0.4778727E+02  0.7816164E-02  0.1312668E+00
        -11   -1    0    0    0    0  0.00000000000E+00  0.00000000000E+00  0.45593999997E+02  0.45594000000E+02  0.51100000000E-03 0. -1.
         11   -1    0    0    0    0 -0.00000000000E+00 -0.00000000000E+00 -0.45593999997E+02  0.45594000000E+02  0.51100000000E-03 0.  1.
    9900012    2    1    2    0    0  0.30499901992E+02 -0.32564550272E+01 -0.30704638996E+02  0.47787269859E+02  0.19999994597E+02 0.  0.
         12    1    1    2    0    0 -0.30499901992E+02  0.32564550272E+01  0.30704638996E+02  0.43400730141E+02  0.00000000000E+00 0. -1.
         11    1    3    3    0    0  0.91248331452E+01  0.26463874158E+00 -0.29927935314E+00  0.91335744363E+01  0.51100000000E-03 0. -1.
        -11    1    3    3    0    0  0.55416114557E+01  0.21975863672E+01 -0.34919358212E+01  0.69088681713E+01  0.51100000000E-03 0.  1.
         12    1    3    3    0    0  0.15833457391E+02 -0.57186801360E+01 -0.26913423821E+02  0.31744827252E+02  0.00000000000E+00 0. -1.
</event>
<event>
 7    1  0.4818508E-009  0.4778727E+02  0.7816164E-02  0.1312668E+00
        -11   -1    0    0    0    0  0.00000000000E+00  0.00000000000E+00  0.45593999997E+02  0.45594000000E+02  0.51100000000E-03 0. -1.
         11   -1    0    0    0    0 -0.00000000000E+00 -0.00000000000E+00 -0.45593999997E+02  0.45594000000E+02  0.51100000000E-03 0.  1.
    9900012    2    1    2    0    0  0.37188254245E+02  0.14725910772E+02 -0.16846501156E+02  0.47787270709E+02  0.19999998469E+02 0.  0.
         12    1    1    2    0    0 -0.37188254245E+02 -0.14725910772E+02  0.16846501156E+02  0.43400729291E+02  0.00000000000E+00 0. -1.
         11    1    3    3    0    0  0.20706062819E+02  0.69201115257E+00 -0.23363417694E+01  0.20848942660E+02  0.51100000000E-03 0. -1.
        -11    1    3    3    0    0  0.13490851250E+02  0.90394822555E+01 -0.76801742142E+01  0.17963863257E+02  0.51100000000E-03 0.  1.
         12    1    3    3    0    0  0.29913401752E+01  0.49944173638E+01 -0.68299851720E+01  0.89744647916E+01  0.00000000000E+00 0. -1.
</event>
<event>
 7    1  0.4818508E-009  0.4778727E+02  0.7816164E-02  0.1312668E+00
        -11   -1    0    0    0    0  0.00000000000E+00  0.00000000000E+00  0.45593999997E+02  0.45594000000E+02  0.51100000000E-03 0.  1.
         11   -1    0    0    0    0 -0.00000000000E+00 -0.00000000000E+00 -0.45593999997E+02  0.45594000000E+02  0.51100000000E-03 0. -1.
    9900012    2    1    2    0    0  0.25293186060E+02  0.76735906695E+01  0.34423738246E+02  0.47787274088E+02  0.20000013877E+02 0.  0.
         12    1    1    2    0    0 -0.25293186060E+02 -0.76735906695E+01 -0.34423738246E+02  0.43400725912E+02  0.00000000000E+00 0. -1.
         11    1    3    3    0    0  0.17215441530E+02  0.14306693471E+00  0.14956454831E+02  0.22805425596E+02  0.51100000000E-03 0.  1.
        -11    1    3    3    0    0  0.63392380359E+01  0.92583536545E+01  0.94525487044E+01  0.14671527819E+02  0.51100000000E-03 0. -1.
        -12    1    3    3    0    0  0.17385064937E+01 -0.17278299198E+01  0.10014734711E+02  0.10310320673E+02  0.00000000000E+00 0.  1.
</event>
<event>
 7    1  0.4818508E-009  0.4778727E+02  0.7816164E-02  0.1312668E+00
        -11   -1    0    0    0    0  0.00000000000E+00  0.00000000000E+00  0.45593999997E+02  0.45594000000E+02  0.51100000000E-03 0.  1.
         11   -1    0    0    0    0 -0.00000000000E+00 -0.00000000000E+00 -0.45593999997E+02  0.45594000000E+02  0.51100000000E-03 0. -1.
    9900012    2    1    2    0    0  0.23168843303E+02  0.31419586843E+02  0.18964103531E+02  0.47787274659E+02  0.20000016482E+02 0.  0.
         12    1    1    2    0    0 -0.23168843303E+02 -0.31419586843E+02 -0.18964103531E+02  0.43400725341E+02  0.00000000000E+00 0. -1.
         11    1    3    3    0    0 -0.84783365631E+00  0.12420130738E+01 -0.28650338640E+01  0.32357128561E+01  0.51100000000E-03 0. -1.
        -11    1    3    3    0    0  0.14948902122E+02  0.17325260529E+02  0.10559981157E+02  0.25202133428E+02  0.51100000000E-03 0.  1.
         12    1    3    3    0    0  0.90677748372E+01  0.12852313240E+02  0.11269156238E+02  0.19349428375E+02  0.00000000000E+00 0. -1.
</event>
<event>
 7    1  0.4818508E-009  0.4778728E+02  0.7816164E-02  0.1312668E+00
        -11   -1    0    0    0    0  0.00000000000E+00  0.00000000000E+00  0.45593999997E+02  0.45594000000E+02  0.51100000000E-03 0.  1.
         11   -1    0    0    0    0 -0.00000000000E+00 -0.00000000000E+00 -0.45593999997E+02  0.45594000000E+02  0.51100000000E-03 0. -1.
    9900012    2    1    2    0    0  0.10429173457E+02 -0.29297348998E+02  0.30274088309E+02  0.47787277192E+02  0.20000028031E+02 0.  0.
         12    1    1    2    0    0 -0.10429173457E+02  0.29297348998E+02 -0.30274088309E+02  0.43400722808E+02  0.00000000000E+00 0. -1.
         11    1    3    3    0    0 -0.10824465668E+01  0.15435398583E+01  0.31331595784E+01  0.36566234519E+01  0.51100000000E-03 0. -1.
        -11    1    3    3    0    0  0.13784754421E+02 -0.25765458312E+02  0.22312736725E+02  0.36765969549E+02  0.51100000000E-03 0.  1.
        -12    1    3    3    0    0 -0.22731343974E+01 -0.50754305446E+01  0.48281920054E+01  0.73646841917E+01  0.00000000000E+00 0.  1.
</event>
<event>
 7    1  0.4818508E-009  0.4778727E+02  0.7816164E-02  0.1312668E+00
        -11   -1    0    0    0    0  0.00000000000E+00  0.00000000000E+00  0.45593999997E+02  0.45594000000E+02  0.51100000000E-03 0.  1.
         11   -1    0    0    0    0 -0.00000000000E+00 -0.00000000000E+00 -0.45593999997E+02  0.45594000000E+02  0.51100000000E-03 0. -1.
    9900012    2    1    2    0    0 -0.61747958762E+01 -0.23913279038E+02  0.35688238169E+02  0.47787270028E+02  0.19999995367E+02 0.  0.
         12    1    1    2    0    0  0.61747958762E+01  0.23913279038E+02 -0.35688238169E+02  0.43400729972E+02  0.00000000000E+00 0. -1.
         11    1    3    3    0    0 -0.69831466592E+01 -0.17781528437E+02  0.12454459347E+02  0.22804838274E+02  0.51100000000E-03 0. -1.
        -11    1    3    3    0    0  0.31420110290E+01 -0.58663863786E+01  0.19124766296E+02  0.20249528601E+02  0.51100000000E-03 0.  1.
         12    1    3    3    0    0 -0.23336602460E+01 -0.26536422260E+00  0.41090125266E+01  0.47329031532E+01  0.00000000000E+00 0. -1.
</event>
<event>
 7    1  0.4818508E-009  0.4778727E+02  0.7816164E-02  0.1312668E+00
        -11   -1    0    0    0    0  0.00000000000E+00  0.00000000000E+00  0.45593999997E+02  0.45594000000E+02  0.51100000000E-03 0. -1.
         11   -1    0    0    0    0 -0.00000000000E+00 -0.00000000000E+00 -0.45593999997E+02  0.45594000000E+02  0.51100000000E-03 0.  1.
    9900012    2    1    2    0    0 -0.30915939737E+02 -0.28568067569E+02 -0.10568513797E+02  0.47787270763E+02  0.19999998715E+02 0.  0.
         12    1    1    2    0    0  0.30915939737E+02  0.28568067569E+02  0.10568513797E+02  0.43400729237E+02  0.00000000000E+00 0. -1.
         11    1    3    3    0    0 -0.10648020701E+02 -0.20670309801E+02 -0.73492677960E+01  0.24385524179E+02  0.51100000000E-03 0. -1.
        -11    1    3    3    0    0 -0.20289214190E+02 -0.59584257436E+01 -0.23493610795E+01  0.21276149734E+02  0.51100000000E-03 0.  1.
        -12    1    3    3    0    0  0.21295153679E-01 -0.19393320251E+01 -0.86988492197E+00  0.21255968491E+01  0.00000000000E+00 0.  1.
</event>
<event>
 7    1  0.4818508E-009  0.4778728E+02  0.7816164E-02  0.1312668E+00
        -11   -1    0    0    0    0  0.00000000000E+00  0.00000000000E+00  0.45593999997E+02  0.45594000000E+02  0.51100000000E-03 0.  1.
         11   -1    0    0    0    0 -0.00000000000E+00 -0.00000000000E+00 -0.45593999997E+02  0.45594000000E+02  0.51100000000E-03 0. -1.
    9900012    2    1    2    0    0  0.13512875561E+02  0.14599272541E+02  0.38573126740E+02  0.47787277988E+02  0.20000031658E+02 0.  0.
         12    1    1    2    0    0 -0.13512875561E+02 -0.14599272541E+02 -0.38573126740E+02  0.43400722012E+02  0.00000000000E+00 0. -1.
         11    1    3    3    0    0  0.18458310927E+01  0.32565445344E+01 -0.11865228644E+00  0.37451639955E+01  0.51100000000E-03 0. -1.
        -11    1    3    3    0    0  0.22768863979E+00  0.61143138817E+01  0.23680075443E+02  0.24457772785E+02  0.51100000000E-03 0.  1.
        -12    1    3    3    0    0  0.11439355829E+02  0.52284141250E+01  0.15011703584E+02  0.19584341207E+02  0.00000000000E+00 0.  1.
</event>
<event>
 7    1  0.4818508E-009  0.4778728E+02  0.7816164E-02  0.1312668E+00
        -11   -1    0    0    0    0  0.00000000000E+00  0.00000000000E+00  0.45593999997E+02  0.45594000000E+02  0.51100000000E-03 0.  1.
         11   -1    0    0    0    0 -0.00000000000E+00 -0.00000000000E+00 -0.45593999997E+02  0.45594000000E+02  0.51100000000E-03 0. -1.
    9900012    2    1    2    0    0 -0.21056470255E+02 -0.20128108367E+02  0.32173081592E+02  0.47787275753E+02  0.20000021469E+02 0.  0.
         12    1    1    2    0    0  0.21056470255E+02  0.20128108367E+02 -0.32173081592E+02  0.43400724247E+02  0.00000000000E+00 0. -1.
         11    1    3    3    0    0  0.18878442062E+01  0.49645371940E+00  0.45151108064E+01  0.49190088328E+01  0.51100000000E-03 0. -1.
        -11    1    3    3    0    0 -0.10623170086E+02 -0.16593324698E+02  0.15146966470E+02  0.24851976998E+02  0.51100000000E-03 0.  1.
         12    1    3    3    0    0 -0.12321144375E+02 -0.40312373885E+01  0.12511004315E+02  0.18016289922E+02  0.00000000000E+00 0. -1.
</event>
<event>
 7    1  0.4818508E-009  0.4778727E+02  0.7816164E-02  0.1312668E+00
        -11   -1    0    0    0    0  0.00000000000E+00  0.00000000000E+00  0.45593999997E+02  0.45594000000E+02  0.51100000000E-03 0.  1.
         11   -1    0    0    0    0 -0.00000000000E+00 -0.00000000000E+00 -0.45593999997E+02  0.45594000000E+02  0.51100000000E-03 0. -1.
    9900012    2    1    2    0    0 -0.71000750938E+01 -0.40989231483E+02  0.12373151198E+02  0.47787273802E+02  0.20000012574E+02 0.  0.
         12    1    1    2    0    0  0.71000750938E+01  0.40989231483E+02 -0.12373151198E+02  0.43400726198E+02  0.00000000000E+00 0. -1.
         11    1    3    3    0    0 -0.54918041574E+01 -0.48799077627E+01  0.68512247783E+01  0.10045531041E+02  0.51100000000E-03 0. -1.
        -11    1    3    3    0    0  0.11276153379E+00 -0.11023889792E+02  0.60824961788E+01  0.12591092936E+02  0.51100000000E-03 0.  1.
         12    1    3    3    0    0 -0.17210324703E+01 -0.25085433929E+02 -0.56056975912E+00  0.25150649825E+02  0.00000000000E+00 0. -1.
</event>
<event>
 7    1  0.4818508E-009  0.4778727E+02  0.7816164E-02  0.1312668E+00
        -11   -1    0    0    0    0  0.00000000000E+00  0.00000000000E+00  0.45593999997E+02  0.45594000000E+02  0.51100000000E-03 0.  1.
         11   -1    0    0    0    0 -0.00000000000E+00 -0.00000000000E+00 -0.45593999997E+02  0.45594000000E+02  0.51100000000E-03 0. -1.
    9900012    2    1    2    0    0  0.22334798293E+02  0.32494332469E+02  0.18135556711E+02  0.47787271036E+02  0.19999999962E+02 0.  0.
         12    1    1    2    0    0 -0.22334798293E+02 -0.32494332469E+02 -0.18135556711E+02  0.43400728964E+02  0.00000000000E+00 0. -1.
         11    1    3    3    0    0  0.43694550804E+01  0.12732501787E+02  0.35218175138E+01  0.13914450701E+02  0.51100000000E-03 0. -1.
        -11    1    3    3    0    0  0.61543113781E+01  0.63027980999E+00  0.86086040160E+01  0.10600984131E+02  0.51100000000E-03 0.  1.
        -12    1    3    3    0    0  0.11811031835E+02  0.19131550872E+02  0.60051351812E+01  0.23271836204E+02  0.00000000000E+00 0.  1.
</event>
<event>
 7    1  0.4818508E-009  0.4778727E+02  0.7816164E-02  0.1312668E+00
        -11   -1    0    0    0    0  0.00000000000E+00  0.00000000000E+00  0.45593999997E+02  0.45594000000E+02  0.51100000000E-03 0.  1.
         11   -1    0    0    0    0 -0.00000000000E+00 -0.00000000000E+00 -0.45593999997E+02  0.45594000000E+02  0.51100000000E-03 0. -1.
    9900012    2    1    2    0    0  0.26337334569E+02 -0.15875629123E+02  0.30625679924E+02  0.47787273473E+02  0.20000011072E+02 0.  0.
         12    1    1    2    0    0 -0.26337334569E+02  0.15875629123E+02 -0.30625679924E+02  0.43400726527E+02  0.00000000000E+00 0. -1.
         11    1    3    3    0    0  0.16235595011E+02 -0.12718686183E+02  0.88493026384E+01  0.22442586327E+02  0.51100000000E-03 0. -1.
        -11    1    3    3    0    0  0.37095170143E+01 -0.48236416482E+01  0.13058583664E+02  0.14406756846E+02  0.51100000000E-03 0.  1.
         12    1    3    3    0    0  0.63922225438E+01  0.16666987081E+01  0.87177936216E+01  0.10937930301E+02  0.00000000000E+00 0. -1.
</event>
<event>
 7    1  0.4818508E-009  0.4778727E+02  0.7816164E-02  0.1312668E+00
        -11   -1    0    0    0    0  0.00000000000E+00  0.00000000000E+00  0.45593999997E+02  0.45594000000E+02  0.51100000000E-03 0. -1.
         11   -1    0    0    0    0 -0.00000000000E+00 -0.00000000000E+00 -0.45593999997E+02  0.45594000000E+02  0.51100000000E-03 0.  1.
    9900012    2    1    2    0    0 -0.74803558860E+01 -0.42742074523E+02  0.88472257713E+00  0.47787269675E+02  0.19999993756E+02 0.  0.
         12    1    1    2    0    0  0.74803558860E+01  0.42742074523E+02 -0.88472257713E+00  0.43400730325E+02  0.00000000000E+00 0. -1.
         11    1    3    3    0    0  0.45355460279E+01 -0.96577033447E+01 -0.50597484118E+01  0.11808618290E+02  0.51100000000E-03 0. -1.
        -11    1    3    3    0    0 -0.12168788145E+02 -0.30848420645E+02  0.49595471405E+01  0.33530606456E+02  0.51100000000E-03 0.  1.
         12    1    3    3    0    0  0.15288623109E+00 -0.22359505330E+01  0.98492384834E+00  0.24480449286E+01  0.00000000000E+00 0. -1.
</event>
<event>
 7    1  0.4818508E-009  0.4778727E+02  0.7816164E-02  0.1312668E+00
        -11   -1    0    0    0    0  0.00000000000E+00  0.00000000000E+00  0.45593999997E+02  0.45594000000E+02  0.51100000000E-03 0. -1.
         11   -1    0    0    0    0 -0.00000000000E+00 -0.00000000000E+00 -0.45593999997E+02  0.45594000000E+02  0.51100000000E-03 0.  1.
    9900012    2    1    2    0    0 -0.21239741827E+02 -0.32521795361E+02 -0.19360513346E+02  0.47787270934E+02  0.19999999498E+02 0.  0.
         12    1    1    2    0    0  0.21239741827E+02  0.32521795361E+02  0.19360513346E+02  0.43400729066E+02  0.00000000000E+00 0. -1.
         11    1    3    3    0    0 -0.64744474981E+00 -0.99557466394E+01 -0.12751714756E+02  0.16190809286E+02  0.51100000000E-03 0. -1.
        -11    1    3    3    0    0 -0.12152400221E+02 -0.15129307561E+02 -0.60776679561E+01  0.20335063965E+02  0.51100000000E-03 0.  1.
        -12    1    3    3    0    0 -0.84398968568E+01 -0.74367411606E+01 -0.53113063410E+00  0.11261397684E+02  0.00000000000E+00 0.  1.
</event>
<event>
 7    1  0.4818508E-009  0.4778728E+02  0.7816164E-02  0.1312668E+00
        -11   -1    0    0    0    0  0.00000000000E+00  0.00000000000E+00  0.45593999997E+02  0.45594000000E+02  0.51100000000E-03 0. -1.
         11   -1    0    0    0    0 -0.00000000000E+00 -0.00000000000E+00 -0.45593999997E+02  0.45594000000E+02  0.51100000000E-03 0.  1.
    9900012    2    1    2    0    0  0.51207104873E+01 -0.35889841391E+02 -0.23860437746E+02  0.47787275578E+02  0.20000020668E+02 0.  0.
         12    1    1    2    0    0 -0.51207104873E+01  0.35889841391E+02  0.23860437746E+02  0.43400724422E+02  0.00000000000E+00 0. -1.
         11    1    3    3    0    0  0.78497617890E+01 -0.35461698483E+02 -0.19053461533E+02  0.41014451308E+02  0.51100000000E-03 0. -1.
        -11    1    3    3    0    0 -0.13678711841E+01  0.16953137266E+01 -0.16540529519E+01  0.27351511177E+01  0.51100000000E-03 0.  1.
         12    1    3    3    0    0 -0.13611801176E+01 -0.21234566347E+01 -0.31529232610E+01  0.40376731519E+01  0.00000000000E+00 0. -1.
</event>
<event>
 7    1  0.4818508E-009  0.4778727E+02  0.7816164E-02  0.1312668E+00
        -11   -1    0    0    0    0  0.00000000000E+00  0.00000000000E+00  0.45593999997E+02  0.45594000000E+02  0.51100000000E-03 0.  1.
         11   -1    0    0    0    0 -0.00000000000E+00 -0.00000000000E+00 -0.45593999997E+02  0.45594000000E+02  0.51100000000E-03 0. -1.
    9900012    2    1    2    0    0  0.30381659439E+02 -0.17734399045E+02  0.25417887491E+02  0.47787272537E+02  0.20000006807E+02 0.  0.
         12    1    1    2    0    0 -0.30381659439E+02  0.17734399045E+02 -0.25417887491E+02  0.43400727463E+02  0.00000000000E+00 0. -1.
         11    1    3    3    0    0  0.28853287119E+01 -0.58937217332E+01  0.13782224713E+02  0.15264691151E+02  0.51100000000E-03 0. -1.
        -11    1    3    3    0    0  0.16335907023E+02 -0.42730317845E+01  0.65184121228E+01  0.18100009828E+02  0.51100000000E-03 0.  1.
        -12    1    3    3    0    0  0.11160423704E+02 -0.75676455277E+01  0.51172506548E+01  0.14422571558E+02  0.00000000000E+00 0.  1.
</event>
<event>
 7    1  0.4818508E-009  0.4778727E+02  0.7816164E-02  0.1312668E+00
        -11   -1    0    0    0    0  0.00000000000E+00  0.00000000000E+00  0.45593999997E+02  0.45594000000E+02  0.51100000000E-03 0.  1.
         11   -1    0    0    0    0 -0.00000000000E+00 -0.00000000000E+00 -0.45593999997E+02  0.45594000000E+02  0.51100000000E-03 0. -1.
    9900012    2    1    2    0    0 -0.93761331774E+01  0.34031471224E+02  0.25250155545E+02  0.47787271180E+02  0.20000000619E+02 0.  0.
         12    1    1    2    0    0  0.93761331774E+01 -0.34031471224E+02 -0.25250155545E+02  0.43400728820E+02  0.00000000000E+00 0. -1.
         11    1    3    3    0    0 -0.62434866525E+01  0.52104677423E+01  0.79116460351E+01  0.11345670669E+02  0.51100000000E-03 0. -1.
        -11    1    3    3    0    0 -0.25834623095E+01  0.24093882874E+02  0.72602457299E+01  0.25296257387E+02  0.51100000000E-03 0.  1.
        -12    1    3    3    0    0 -0.54918421537E+00  0.47271206073E+01  0.10078263780E+02  0.11145343125E+02  0.00000000000E+00 0.  1.
</event>
<event>
 7    1  0.4818508E-009  0.4778729E+02  0.7816164E-02  0.1312668E+00
        -11   -1    0    0    0    0  0.00000000000E+00  0.00000000000E+00  0.45593999997E+02  0.45594000000E+02  0.51100000000E-03 0. -1.
         11   -1    0    0    0    0 -0.00000000000E+00 -0.00000000000E+00 -0.45593999997E+02  0.45594000000E+02  0.51100000000E-03 0.  1.
    9900012    2    1    2    0    0  0.27384409228E+02  0.19761522638E+02 -0.27261661677E+02  0.47787287527E+02  0.20000075152E+02 0.  0.
         12    1    1    2    0    0 -0.27384409228E+02 -0.19761522638E+02  0.27261661677E+02  0.43400712473E+02  0.00000000000E+00 0. -1.
         11    1    3    3    0    0  0.58456966633E+01  0.39484208221E+01 -0.21775858871E+01  0.73826876558E+01  0.51100000000E-03 0. -1.
        -11    1    3    3    0    0  0.22721243412E+02  0.10686290927E+02 -0.24549740127E+02  0.35116113916E+02  0.51100000000E-03 0.  1.
        -12    1    3    3    0    0 -0.11825308476E+01  0.51268108896E+01 -0.53433566293E+00  0.52884859557E+01  0.00000000000E+00 0.  1.
</event>
<event>
 7    1  0.4818508E-009  0.4778727E+02  0.7816164E-02  0.1312668E+00
        -11   -1    0    0    0    0  0.00000000000E+00  0.00000000000E+00  0.45593999997E+02  0.45594000000E+02  0.51100000000E-03 0. -1.
         11   -1    0    0    0    0 -0.00000000000E+00 -0.00000000000E+00 -0.45593999997E+02  0.45594000000E+02  0.51100000000E-03 0.  1.
    9900012    2    1    2    0    0  0.26501534964E+02 -0.88674006211E+01 -0.33206345745E+02  0.47787267898E+02  0.19999985653E+02 0.  0.
         12    1    1    2    0    0 -0.26501534964E+02  0.88674006211E+01  0.33206345745E+02  0.43400732102E+02  0.00000000000E+00 0. -1.
         11    1    3    3    0    0  0.56935949719E-01 -0.39475525194E+01 -0.10071489245E+02  0.10817638766E+02  0.51100000000E-03 0. -1.
        -11    1    3    3    0    0  0.16928889274E+02 -0.45260972709E+00 -0.84938637819E+01  0.18945655698E+02  0.51100000000E-03 0.  1.
         12    1    3    3    0    0  0.95157097405E+01 -0.44672383747E+01 -0.14640992718E+02  0.18023973433E+02  0.00000000000E+00 0. -1.
</event>
<event>
 7    1  0.4818508E-009  0.4778728E+02  0.7816164E-02  0.1312668E+00
        -11   -1    0    0    0    0  0.00000000000E+00  0.00000000000E+00  0.45593999997E+02  0.45594000000E+02  0.51100000000E-03 0.  1.
         11   -1    0    0    0    0 -0.00000000000E+00 -0.00000000000E+00 -0.45593999997E+02  0.45594000000E+02  0.51100000000E-03 0. -1.
    9900012    2    1    2    0    0  0.21527419818E+02 -0.17576568809E+02  0.33335517460E+02  0.47787282270E+02  0.20000051182E+02 0.  0.
         12    1    1    2    0    0 -0.21527419818E+02  0.17576568809E+02 -0.33335517460E+02  0.43400717730E+02  0.00000000000E+00 0. -1.
         11    1    3    3    0    0 -0.21463076939E+00  0.81706240516E+00 -0.16702307605E+01  0.18717180331E+01  0.51100000000E-03 0. -1.
        -11    1    3    3    0    0  0.21112360067E+02 -0.16978293709E+02  0.28886711993E+02  0.39603488923E+02  0.51100000000E-03 0.  1.
         12    1    3    3    0    0  0.62969052014E+00 -0.14153375059E+01  0.61190362277E+01  0.63120753134E+01  0.00000000000E+00 0. -1.
</event>
<event>
 7    1  0.4818508E-009  0.4778727E+02  0.7816164E-02  0.1312668E+00
        -11   -1    0    0    0    0  0.00000000000E+00  0.00000000000E+00  0.45593999997E+02  0.45594000000E+02  0.51100000000E-03 0. -1.
         11   -1    0    0    0    0 -0.00000000000E+00 -0.00000000000E+00 -0.45593999997E+02  0.45594000000E+02  0.51100000000E-03 0.  1.
    9900012    2    1    2    0    0  0.55700281108E+01  0.23726340678E+02 -0.35911818212E+02  0.47787272559E+02  0.20000006906E+02 0.  0.
         12    1    1    2    0    0 -0.55700281108E+01 -0.23726340678E+02  0.35911818212E+02  0.43400727441E+02  0.00000000000E+00 0. -1.
         11    1    3    3    0    0 -0.58986338404E+00  0.80763557683E+01 -0.28715638079E+01  0.85919346059E+01  0.51100000000E-03 0. -1.
        -11    1    3    3    0    0  0.41675466792E+01  0.11253973673E+02 -0.99006225355E+01  0.15557721414E+02  0.51100000000E-03 0.  1.
         12    1    3    3    0    0  0.19923448156E+01  0.43960112373E+01 -0.23139631868E+02  0.23637616539E+02  0.00000000000E+00 0. -1.
</event>
<event>
 7    1  0.4818508E-009  0.4778727E+02  0.7816164E-02  0.1312668E+00
        -11   -1    0    0    0    0  0.00000000000E+00  0.00000000000E+00  0.45593999997E+02  0.45594000000E+02  0.51100000000E-03 0. -1.
         11   -1    0    0    0    0 -0.00000000000E+00 -0.00000000000E+00 -0.45593999997E+02  0.45594000000E+02  0.51100000000E-03 0.  1.
    9900012    2    1    2    0    0  0.16355743912E+02  0.29663836663E+02  0.27132446197E+02  0.47787271882E+02  0.20000003821E+02 0.  0.
         12    1    1    2    0    0 -0.16355743912E+02 -0.29663836663E+02 -0.27132446197E+02  0.43400728118E+02  0.00000000000E+00 0. -1.
         11    1    3    3    0    0 -0.48728877719E-01  0.12791730693E+01 -0.52724280258E+00  0.13844289360E+01  0.51100000000E-03 0. -1.
        -11    1    3    3    0    0  0.11808524031E+02  0.29820835734E+02  0.21626385035E+02  0.38683640129E+02  0.51100000000E-03 0.  1.
        -12    1    3    3    0    0  0.45959487589E+01 -0.14361721404E+01  0.60333039646E+01  0.77192028177E+01  0.00000000000E+00 0.  1.
</event>
<event>
 7    1  0.4818508E-009  0.4778727E+02  0.7816164E-02  0.1312668E+00
        -11   -1    0    0    0    0  0.00000000000E+00  0.00000000000E+00  0.45593999997E+02  0.45594000000E+02  0.51100000000E-03 0. -1.
         11   -1    0    0    0    0 -0.00000000000E+00 -0.00000000000E+00 -0.45593999997E+02  0.45594000000E+02  0.51100000000E-03 0.  1.
    9900012    2    1    2    0    0  0.27478248664E+02 -0.28086889793E+02 -0.18430833678E+02  0.47787272380E+02  0.20000006087E+02 0.  0.
         12    1    1    2    0    0 -0.27478248664E+02  0.28086889793E+02  0.18430833678E+02  0.43400727620E+02  0.00000000000E+00 0. -1.
         11    1    3    3    0    0  0.84585089624E+01 -0.17618115131E+02 -0.53035939502E+01  0.20250246016E+02  0.51100000000E-03 0. -1.
        -11    1    3    3    0    0  0.15516354587E+02 -0.48371827608E+01 -0.13147135577E+02  0.20904611235E+02  0.51100000000E-03 0.  1.
        -12    1    3    3    0    0  0.35033851143E+01 -0.56315919012E+01  0.19895848534E-01  0.66324151292E+01  0.00000000000E+00 0.  1.
</event>
<event>
 7    1  0.4818508E-009  0.4778728E+02  0.7816164E-02  0.1312668E+00
        -11   -1    0    0    0    0  0.00000000000E+00  0.00000000000E+00  0.45593999997E+02  0.45594000000E+02  0.51100000000E-03 0.  1.
         11   -1    0    0    0    0 -0.00000000000E+00 -0.00000000000E+00 -0.45593999997E+02  0.45594000000E+02  0.51100000000E-03 0. -1.
    9900012    2    1    2    0    0 -0.39327910219E+02  0.41398613699E+01  0.17882950247E+02  0.47787275538E+02  0.20000020486E+02 0.  0.
         12    1    1    2    0    0  0.39327910219E+02 -0.41398613699E+01 -0.17882950247E+02  0.43400724462E+02  0.00000000000E+00 0. -1.
         11    1    3    3    0    0 -0.10115640156E+02 -0.27582487504E+01 -0.11256755679E+01  0.10545200695E+02  0.51100000000E-03 0. -1.
        -11    1    3    3    0    0 -0.11469010475E+02  0.84038629962E+01  0.85105667132E+01  0.16570843689E+02  0.51100000000E-03 0.  1.
         12    1    3    3    0    0 -0.17743259588E+02 -0.15057528759E+01  0.10498059102E+02  0.20671231154E+02  0.00000000000E+00 0. -1.
</event>
<event>
 7    1  0.4818508E-009  0.4778728E+02  0.7816164E-02  0.1312668E+00
        -11   -1    0    0    0    0  0.00000000000E+00  0.00000000000E+00  0.45593999997E+02  0.45594000000E+02  0.51100000000E-03 0.  1.
         11   -1    0    0    0    0 -0.00000000000E+00 -0.00000000000E+00 -0.45593999997E+02  0.45594000000E+02  0.51100000000E-03 0. -1.
    9900012    2    1    2    0    0  0.34487820293E+02 -0.13816936545E+02  0.22434461504E+02  0.47787279418E+02  0.20000038179E+02 0.  0.
         12    1    1    2    0    0 -0.34487820293E+02  0.13816936545E+02 -0.22434461504E+02  0.43400720582E+02  0.00000000000E+00 0. -1.
         11    1    3    3    0    0  0.31720434804E+01 -0.61156855585E+01  0.11255125906E+02  0.13196261937E+02  0.51100000000E-03 0. -1.
        -11    1    3    3    0    0  0.20655961206E+02 -0.23777546018E+01  0.77823782768E+01  0.22201077951E+02  0.51100000000E-03 0.  1.
         12    1    3    3    0    0  0.10659815607E+02 -0.53234963844E+01  0.33969573221E+01  0.12389939531E+02  0.00000000000E+00 0. -1.
</event>
<event>
 7    1  0.4818508E-009  0.4778727E+02  0.7816164E-02  0.1312668E+00
        -11   -1    0    0    0    0  0.00000000000E+00  0.00000000000E+00  0.45593999997E+02  0.45594000000E+02  0.51100000000E-03 0. -1.
         11   -1    0    0    0    0 -0.00000000000E+00 -0.00000000000E+00 -0.45593999997E+02  0.45594000000E+02  0.51100000000E-03 0.  1.
    9900012    2    1    2    0    0  0.24017538766E+02 -0.34077442358E+02 -0.12062709741E+02  0.47787271754E+02  0.20000003234E+02 0.  0.
         12    1    1    2    0    0 -0.24017538766E+02  0.34077442358E+02  0.12062709741E+02  0.43400728246E+02  0.00000000000E+00 0. -1.
         11    1    3    3    0    0 -0.89480110865E+00 -0.11246802385E+02 -0.13217932840E+01  0.11359505740E+02  0.51100000000E-03 0.  1.
        -11    1    3    3    0    0  0.17803171308E+02 -0.12634110659E+02 -0.36997825925E+01  0.22141861987E+02  0.51100000000E-03 0. -1.
         12    1    3    3    0    0  0.71091685661E+01 -0.10196529314E+02 -0.70411338643E+01  0.14285904026E+02  0.00000000000E+00 0. -1.
</event>
<event>
 7    1  0.4818508E-009  0.4778727E+02  0.7816164E-02  0.1312668E+00
        -11   -1    0    0    0    0  0.00000000000E+00  0.00000000000E+00  0.45593999997E+02  0.45594000000E+02  0.51100000000E-03 0.  1.
         11   -1    0    0    0    0 -0.00000000000E+00 -0.00000000000E+00 -0.45593999997E+02  0.45594000000E+02  0.51100000000E-03 0. -1.
    9900012    2    1    2    0    0 -0.32212188786E+01 -0.10736937519E+02  0.41928095851E+02  0.47787270743E+02  0.19999998627E+02 0.  0.
         12    1    1    2    0    0  0.32212188786E+01  0.10736937519E+02 -0.41928095851E+02  0.43400729257E+02  0.00000000000E+00 0. -1.
         11    1    3    3    0    0 -0.24965896313E+01 -0.79450105859E+01  0.40196890024E+02  0.41050531311E+02  0.51100000000E-03 0. -1.
        -11    1    3    3    0    0 -0.10042266682E+01 -0.45885414780E+00  0.35802934340E+01  0.37466678082E+01  0.51100000000E-03 0.  1.
         12    1    3    3    0    0  0.27959742095E+00 -0.23330727853E+01 -0.18490876077E+01  0.29900716246E+01  0.00000000000E+00 0. -1.
</event>
<event>
 7    1  0.4818508E-009  0.4778728E+02  0.7816164E-02  0.1312668E+00
        -11   -1    0    0    0    0  0.00000000000E+00  0.00000000000E+00  0.45593999997E+02  0.45594000000E+02  0.51100000000E-03 0.  1.
         11   -1    0    0    0    0 -0.00000000000E+00 -0.00000000000E+00 -0.45593999997E+02  0.45594000000E+02  0.51100000000E-03 0. -1.
    9900012    2    1    2    0    0 -0.31533075412E+02 -0.29342135858E+02 -0.53223235633E+01  0.47787275239E+02  0.20000019125E+02 0.  0.
         12    1    1    2    0    0  0.31533075412E+02  0.29342135858E+02  0.53223235633E+01  0.43400724761E+02  0.00000000000E+00 0. -1.
         11    1    3    3    0    0 -0.68811491009E+00  0.11567514626E+01  0.22209409159E+01  0.25969510755E+01  0.51100000000E-03 0. -1.
        -11    1    3    3    0    0 -0.26346633273E+02 -0.24124669606E+02 -0.98473342360E+01  0.37055563148E+02  0.51100000000E-03 0.  1.
        -12    1    3    3    0    0 -0.44983272295E+01 -0.63742177148E+01  0.23040697569E+01  0.81347610158E+01  0.00000000000E+00 0.  1.
</event>
<event>
 7    1  0.4818508E-009  0.4778727E+02  0.7816164E-02  0.1312668E+00
        -11   -1    0    0    0    0  0.00000000000E+00  0.00000000000E+00  0.45593999997E+02  0.45594000000E+02  0.51100000000E-03 0. -1.
         11   -1    0    0    0    0 -0.00000000000E+00 -0.00000000000E+00 -0.45593999997E+02  0.45594000000E+02  0.51100000000E-03 0.  1.
    9900012    2    1    2    0    0 -0.14924633913E+02  0.25383252647E+02 -0.31883682370E+02  0.47787269432E+02  0.19999992647E+02 0.  0.
         12    1    1    2    0    0  0.14924633913E+02 -0.25383252647E+02  0.31883682370E+02  0.43400730568E+02  0.00000000000E+00 0. -1.
         11    1    3    3    0    0 -0.17506208332E+01  0.20846789362E+01  0.16353962759E+01  0.31757016247E+01  0.51100000000E-03 0. -1.
        -11    1    3    3    0    0 -0.15542941653E+02  0.19470924600E+02 -0.29018096425E+02  0.38245912990E+02  0.51100000000E-03 0.  1.
        -12    1    3    3    0    0  0.23689285732E+01  0.38276491107E+01 -0.45009822206E+01  0.63656548171E+01  0.00000000000E+00 0.  1.
</event>
<event>
 7    1  0.4818508E-009  0.4778727E+02  0.7816164E-02  0.1312668E+00
        -11   -1    0    0    0    0  0.00000000000E+00  0.00000000000E+00  0.45593999997E+02  0.45594000000E+02  0.51100000000E-03 0.  1.
         11   -1    0    0    0    0 -0.00000000000E+00 -0.00000000000E+00 -0.45593999997E+02  0.45594000000E+02  0.51100000000E-03 0. -1.
    9900012    2    1    2    0    0  0.29947385758E+02 -0.20997448173E+02  0.23364180052E+02  0.47787266677E+02  0.19999980088E+02 0.  0.
         12    1    1    2    0    0 -0.29947385758E+02  0.20997448173E+02 -0.23364180052E+02  0.43400733323E+02  0.00000000000E+00 0. -1.
         11    1    3    3    0    0  0.13008886536E+02 -0.17620469947E+02  0.14805683990E+02  0.26437102125E+02  0.51100000000E-03 0. -1.
        -11    1    3    3    0    0  0.32659478835E+01  0.25667134875E+01  0.39839157675E+01  0.57555207244E+01  0.51100000000E-03 0.  1.
         12    1    3    3    0    0  0.13672551338E+02 -0.59436917129E+01  0.45745802945E+01  0.15594643828E+02  0.00000000000E+00 0. -1.
</event>
<event>
 7    1  0.4818508E-009  0.4778727E+02  0.7816164E-02  0.1312668E+00
        -11   -1    0    0    0    0  0.00000000000E+00  0.00000000000E+00  0.45593999997E+02  0.45594000000E+02  0.51100000000E-03 0.  1.
         11   -1    0    0    0    0 -0.00000000000E+00 -0.00000000000E+00 -0.45593999997E+02  0.45594000000E+02  0.51100000000E-03 0. -1.
    9900012    2    1    2    0    0  0.12638205483E+02  0.18528377690E+01  0.41478498900E+02  0.47787272856E+02  0.20000008261E+02 0.  0.
         12    1    1    2    0    0 -0.12638205483E+02 -0.18528377690E+01 -0.41478498900E+02  0.43400727144E+02  0.00000000000E+00 0. -1.
         11    1    3    3    0    0  0.24958765452E+01 -0.76885299323E+01  0.16462591025E+02  0.18340114388E+02  0.51100000000E-03 0. -1.
        -11    1    3    3    0    0  0.65060459497E+01  0.74786899530E+01  0.22452357182E+02  0.24543181957E+02  0.51100000000E-03 0.  1.
        -12    1    3    3    0    0  0.36362829886E+01  0.20626777484E+01  0.25635506929E+01  0.49039765112E+01  0.00000000000E+00 0.  1.
</event>
<event>
 7    1  0.4818508E-009  0.4778726E+02  0.7816164E-02  0.1312668E+00
        -11   -1    0    0    0    0  0.00000000000E+00  0.00000000000E+00  0.45593999997E+02  0.45594000000E+02  0.51100000000E-03 0.  1.
         11   -1    0    0    0    0 -0.00000000000E+00 -0.00000000000E+00 -0.45593999997E+02  0.45594000000E+02  0.51100000000E-03 0. -1.
    9900012    2    1    2    0    0  0.49304656163E+01  0.23551141104E+02  0.36120052901E+02  0.47787263139E+02  0.19999963956E+02 0.  0.
         12    1    1    2    0    0 -0.49304656163E+01 -0.23551141104E+02 -0.36120052901E+02  0.43400736861E+02  0.00000000000E+00 0. -1.
         11    1    3    3    0    0 -0.13970126845E+01 -0.71683312668E+00  0.17137223958E+01  0.23242932008E+01  0.51100000000E-03 0. -1.
        -11    1    3    3    0    0 -0.35007076195E+01  0.10101900855E+02  0.21205404369E+02  0.23748105807E+02  0.51100000000E-03 0.  1.
        -12    1    3    3    0    0  0.98281859203E+01  0.14166073376E+02  0.13200926137E+02  0.21714864131E+02  0.00000000000E+00 0.  1.
</event>
<event>
 7    1  0.4818508E-009  0.4778727E+02  0.7816164E-02  0.1312668E+00
        -11   -1    0    0    0    0  0.00000000000E+00  0.00000000000E+00  0.45593999997E+02  0.45594000000E+02  0.51100000000E-03 0. -1.
         11   -1    0    0    0    0 -0.00000000000E+00 -0.00000000000E+00 -0.45593999997E+02  0.45594000000E+02  0.51100000000E-03 0.  1.
    9900012    2    1    2    0    0 -0.27034040184E+02  0.31456325633E+02 -0.12778238642E+02  0.47787272659E+02  0.20000007360E+02 0.  0.
         12    1    1    2    0    0  0.27034040184E+02 -0.31456325633E+02  0.12778238642E+02  0.43400727341E+02  0.00000000000E+00 0. -1.
         11    1    3    3    0    0 -0.90047805832E+01  0.51261567357E+01  0.28246367392E+01  0.10739745304E+02  0.51100000000E-03 0. -1.
        -11    1    3    3    0    0 -0.13174153978E+02  0.25418322869E+02 -0.12722031465E+02  0.31328893300E+02  0.51100000000E-03 0.  1.
         12    1    3    3    0    0 -0.48551056222E+01  0.91184602747E+00 -0.28808439159E+01  0.57186340544E+01  0.00000000000E+00 0. -1.
</event>
<event>
 7    1  0.4818508E-009  0.4778727E+02  0.7816164E-02  0.1312668E+00
        -11   -1    0    0    0    0  0.00000000000E+00  0.00000000000E+00  0.45593999997E+02  0.45594000000E+02  0.51100000000E-03 0.  1.
         11   -1    0    0    0    0 -0.00000000000E+00 -0.00000000000E+00 -0.45593999997E+02  0.45594000000E+02  0.51100000000E-03 0. -1.
    9900012    2    1    2    0    0  0.27413685096E+02  0.26189612102E+02  0.21123855582E+02  0.47787272042E+02  0.20000004550E+02 0.  0.
         12    1    1    2    0    0 -0.27413685096E+02 -0.26189612102E+02 -0.21123855582E+02  0.43400727958E+02  0.00000000000E+00 0. -1.
         11    1    3    3    0    0 -0.25885052033E+00 -0.12321463333E+01 -0.36595407431E+00  0.13111486659E+01  0.51100000000E-03 0. -1.
        -11    1    3    3    0    0  0.18167091558E+02  0.88681007070E+01  0.12539049897E+02  0.23788951183E+02  0.51100000000E-03 0.  1.
        -12    1    3    3    0    0  0.95054440582E+01  0.18553657728E+02  0.89507597599E+01  0.22687172193E+02  0.00000000000E+00 0.  1.
</event>
<event>
 7    1  0.4818508E-009  0.4778727E+02  0.7816164E-02  0.1312668E+00
        -11   -1    0    0    0    0  0.00000000000E+00  0.00000000000E+00  0.45593999997E+02  0.45594000000E+02  0.51100000000E-03 0.  1.
         11   -1    0    0    0    0 -0.00000000000E+00 -0.00000000000E+00 -0.45593999997E+02  0.45594000000E+02  0.51100000000E-03 0. -1.
    9900012    2    1    2    0    0  0.31148358633E+02  0.15318013404E+02  0.26053056128E+02  0.47787268280E+02  0.19999987397E+02 0.  0.
         12    1    1    2    0    0 -0.31148358633E+02 -0.15318013404E+02 -0.26053056128E+02  0.43400731720E+02  0.00000000000E+00 0. -1.
         11    1    3    3    0    0  0.14776866346E+02  0.71657519104E+01  0.39571063874E+01  0.16892675060E+02  0.51100000000E-03 0. -1.
        -11    1    3    3    0    0  0.10348491947E+01  0.54700945121E+01  0.88375144250E+01  0.10444831655E+02  0.51100000000E-03 0.  1.
        -12    1    3    3    0    0  0.15336643093E+02  0.26821669811E+01  0.13258435316E+02  0.20449761566E+02  0.00000000000E+00 0.  1.
</event>
<event>
 7    1  0.4818508E-009  0.4778730E+02  0.7816164E-02  0.1312668E+00
        -11   -1    0    0    0    0  0.00000000000E+00  0.00000000000E+00  0.45593999997E+02  0.45594000000E+02  0.51100000000E-03 0.  1.
         11   -1    0    0    0    0 -0.00000000000E+00 -0.00000000000E+00 -0.45593999997E+02  0.45594000000E+02  0.51100000000E-03 0. -1.
    9900012    2    1    2    0    0 -0.18525146126E+02 -0.37415401063E+02  0.11854419925E+02  0.47787302454E+02  0.20000143210E+02 0.  0.
         12    1    1    2    0    0  0.18525146126E+02  0.37415401063E+02 -0.11854419925E+02  0.43400697546E+02  0.00000000000E+00 0. -1.
         11    1    3    3    0    0 -0.10678401192E+01  0.14557560140E-01 -0.24966635827E+01  0.27154785488E+01  0.51100000000E-03 0. -1.
        -11    1    3    3    0    0 -0.10747937460E+02 -0.24860368996E+02  0.14706095400E+02  0.30819236662E+02  0.51100000000E-03 0.  1.
        -12    1    3    3    0    0 -0.67093685474E+01 -0.12569589627E+02 -0.35501189184E+00  0.14252587243E+02  0.00000000000E+00 0.  1.
</event>
<event>
 7    1  0.4818508E-009  0.4778726E+02  0.7816164E-02  0.1312668E+00
        -11   -1    0    0    0    0  0.00000000000E+00  0.00000000000E+00  0.45593999997E+02  0.45594000000E+02  0.51100000000E-03 0.  1.
         11   -1    0    0    0    0 -0.00000000000E+00 -0.00000000000E+00 -0.45593999997E+02  0.45594000000E+02  0.51100000000E-03 0. -1.
    9900012    2    1    2    0    0 -0.19570941658E+00  0.81451299752E+01  0.42629134509E+02  0.47787256302E+02  0.19999932785E+02 0.  0.
         12    1    1    2    0    0  0.19570941658E+00 -0.81451299752E+01 -0.42629134509E+02  0.43400743698E+02  0.00000000000E+00 0. -1.
         11    1    3    3    0    0  0.55925914130E+01  0.21984299833E+01  0.53283866930E+01  0.80313061277E+01  0.51100000000E-03 0. -1.
        -11    1    3    3    0    0 -0.67084812892E+01  0.51960788254E+01  0.13630601874E+02  0.16056035129E+02  0.51100000000E-03 0.  1.
         12    1    3    3    0    0  0.92018045955E+00  0.75062116658E+00  0.23670145943E+02  0.23699915046E+02  0.00000000000E+00 0. -1.
</event>
<event>
 7    1  0.4818508E-009  0.4778727E+02  0.7816164E-02  0.1312668E+00
        -11   -1    0    0    0    0  0.00000000000E+00  0.00000000000E+00  0.45593999997E+02  0.45594000000E+02  0.51100000000E-03 0.  1.
         11   -1    0    0    0    0 -0.00000000000E+00 -0.00000000000E+00 -0.45593999997E+02  0.45594000000E+02  0.51100000000E-03 0. -1.
    9900012    2    1    2    0    0  0.28373470697E+01  0.42015079645E+02  0.10502659420E+02  0.47787270618E+02  0.19999998057E+02 0.  0.
         12    1    1    2    0    0 -0.28373470697E+01 -0.42015079645E+02 -0.10502659420E+02  0.43400729382E+02  0.00000000000E+00 0. -1.
         11    1    3    3    0    0 -0.69301359479E+00  0.51601581665E+00  0.42063944863E+01  0.42942164595E+01  0.51100000000E-03 0. -1.
        -11    1    3    3    0    0 -0.23623684932E+01  0.26803964939E+02  0.14987014091E+01  0.26949571936E+02  0.51100000000E-03 0.  1.
         12    1    3    3    0    0  0.58927291577E+01  0.14695098890E+02  0.47975635244E+01  0.16543482223E+02  0.00000000000E+00 0. -1.
</event>
<event>
 7    1  0.4818508E-009  0.4778727E+02  0.7816164E-02  0.1312668E+00
        -11   -1    0    0    0    0  0.00000000000E+00  0.00000000000E+00  0.45593999997E+02  0.45594000000E+02  0.51100000000E-03 0.  1.
         11   -1    0    0    0    0 -0.00000000000E+00 -0.00000000000E+00 -0.45593999997E+02  0.45594000000E+02  0.51100000000E-03 0. -1.
    9900012    2    1    2    0    0 -0.39893384080E+02 -0.16761373494E+02 -0.33462313550E+01  0.47787274210E+02  0.20000014434E+02 0.  0.
         12    1    1    2    0    0  0.39893384080E+02  0.16761373494E+02  0.33462313550E+01  0.43400725790E+02  0.00000000000E+00 0. -1.
         11    1    3    3    0    0  0.74172700505E+00 -0.62182955500E+00  0.78612638694E+00  0.12469265828E+01  0.51100000000E-03 0. -1.
        -11    1    3    3    0    0 -0.10937726794E+02  0.31787680035E+00 -0.61054697416E+01  0.12530429925E+02  0.51100000000E-03 0.  1.
        -12    1    3    3    0    0 -0.29697384291E+02 -0.16457420740E+02  0.19731119997E+01  0.34009917702E+02  0.00000000000E+00 0.  1.
</event>
<event>
 7    1  0.4818508E-009  0.4778727E+02  0.7816164E-02  0.1312668E+00
        -11   -1    0    0    0    0  0.00000000000E+00  0.00000000000E+00  0.45593999997E+02  0.45594000000E+02  0.51100000000E-03 0.  1.
         11   -1    0    0    0    0 -0.00000000000E+00 -0.00000000000E+00 -0.45593999997E+02  0.45594000000E+02  0.51100000000E-03 0. -1.
    9900012    2    1    2    0    0 -0.87653642261E+01  0.42438768916E+02  0.23963023986E+01  0.47787274403E+02  0.20000015315E+02 0.  0.
         12    1    1    2    0    0  0.87653642261E+01 -0.42438768916E+02 -0.23963023986E+01  0.43400725597E+02  0.00000000000E+00 0. -1.
         11    1    3    3    0    0  0.39393690677E+01  0.15393967559E+02 -0.13971061390E+01  0.15951325076E+02  0.51100000000E-03 0. -1.
        -11    1    3    3    0    0 -0.85182228697E+01  0.24092072123E+02  0.60149108551E+01  0.26251994456E+02  0.51100000000E-03 0.  1.
        -12    1    3    3    0    0 -0.41865104241E+01  0.29527292336E+01 -0.22215023176E+01  0.55839548713E+01  0.00000000000E+00 0.  1.
</event>
<event>
 7    1  0.4818508E-009  0.4778730E+02  0.7816164E-02  0.1312668E+00
        -11   -1    0    0    0    0  0.00000000000E+00  0.00000000000E+00  0.45593999997E+02  0.45594000000E+02  0.51100000000E-03 0.  1.
         11   -1    0    0    0    0 -0.00000000000E+00 -0.00000000000E+00 -0.45593999997E+02  0.45594000000E+02  0.51100000000E-03 0. -1.
    9900012    2    1    2    0    0 -0.33863100510E+01 -0.54461975057E+01  0.42924265491E+02  0.47787300340E+02  0.20000133568E+02 0.  0.
         12    1    1    2    0    0  0.33863100510E+01  0.54461975057E+01 -0.42924265491E+02  0.43400699660E+02  0.00000000000E+00 0. -1.
         11    1    3    3    0    0 -0.10030627159E+02  0.74978632312E+00  0.22063999749E+02  0.24248623589E+02  0.51100000000E-03 0. -1.
        -11    1    3    3    0    0  0.43718576677E+01 -0.46924449733E+01  0.19430350959E+02  0.20461444669E+02  0.51100000000E-03 0.  1.
         12    1    3    3    0    0  0.22724594406E+01 -0.15035388555E+01  0.14299147831E+01  0.30772320820E+01  0.00000000000E+00 0. -1.
</event>
<event>
 7    1  0.4818508E-009  0.4778727E+02  0.7816164E-02  0.1312668E+00
        -11   -1    0    0    0    0  0.00000000000E+00  0.00000000000E+00  0.45593999997E+02  0.45594000000E+02  0.51100000000E-03 0.  1.
         11   -1    0    0    0    0 -0.00000000000E+00 -0.00000000000E+00 -0.45593999997E+02  0.45594000000E+02  0.51100000000E-03 0. -1.
    9900012    2    1    2    0    0  0.20066634966E+02  0.28480340834E+02 -0.25880946985E+02  0.47787273397E+02  0.20000010725E+02 0.  0.
         12    1    1    2    0    0 -0.20066634966E+02 -0.28480340834E+02  0.25880946985E+02  0.43400726603E+02  0.00000000000E+00 0. -1.
         11    1    3    3    0    0  0.13607424249E+02  0.10617416011E+02 -0.59551686913E+01  0.18258027053E+02  0.51100000000E-03 0.  1.
        -11    1    3    3    0    0 -0.26252498506E+00  0.13895604908E+02 -0.11451142946E+02  0.18007926870E+02  0.51100000000E-03 0. -1.
         12    1    3    3    0    0  0.67217357017E+01  0.39673199142E+01 -0.84746353477E+01  0.11521319474E+02  0.00000000000E+00 0. -1.
</event>
<event>
 7    1  0.4818508E-009  0.4778727E+02  0.7816164E-02  0.1312668E+00
        -11   -1    0    0    0    0  0.00000000000E+00  0.00000000000E+00  0.45593999997E+02  0.45594000000E+02  0.51100000000E-03 0. -1.
         11   -1    0    0    0    0 -0.00000000000E+00 -0.00000000000E+00 -0.45593999997E+02  0.45594000000E+02  0.51100000000E-03 0.  1.
    9900012    2    1    2    0    0 -0.28178083663E+02  0.32891973884E+02  0.27815153442E+01  0.47787272212E+02  0.20000005323E+02 0.  0.
         12    1    1    2    0    0  0.28178083663E+02 -0.32891973884E+02 -0.27815153442E+01  0.43400727788E+02  0.00000000000E+00 0. -1.
         11    1    3    3    0    0 -0.19665389325E+02  0.26097058555E+02  0.97110008913E+01  0.34089405115E+02  0.51100000000E-03 0. -1.
        -11    1    3    3    0    0 -0.70969970196E+01  0.53740760172E+01 -0.31936828742E+01  0.94576778491E+01  0.51100000000E-03 0.  1.
         12    1    3    3    0    0 -0.14156973187E+01  0.14208393125E+01 -0.37358026729E+01  0.42401892483E+01  0.00000000000E+00 0. -1.
</event>
<event>
 7    1  0.4818508E-009  0.4778727E+02  0.7816164E-02  0.1312668E+00
        -11   -1    0    0    0    0  0.00000000000E+00  0.00000000000E+00  0.45593999997E+02  0.45594000000E+02  0.51100000000E-03 0. -1.
         11   -1    0    0    0    0 -0.00000000000E+00 -0.00000000000E+00 -0.45593999997E+02  0.45594000000E+02  0.51100000000E-03 0.  1.
    9900012    2    1    2    0    0 -0.52206105684E+01  0.19852246279E+02 -0.38239465236E+02  0.47787272373E+02  0.20000006057E+02 0.  0.
         12    1    1    2    0    0  0.52206105684E+01 -0.19852246279E+02  0.38239465236E+02  0.43400727627E+02  0.00000000000E+00 0. -1.
         11    1    3    3    0    0  0.27583604756E+01  0.58396797585E+00 -0.19486324958E+01  0.34273517437E+01  0.51100000000E-03 0. -1.
        -11    1    3    3    0    0 -0.83746025808E+01  0.64014735115E+01 -0.78545257478E+01  0.13145585057E+02  0.51100000000E-03 0.  1.
        -12    1    3    3    0    0  0.39563153677E+00  0.12866804792E+02 -0.28436306992E+02  0.31214335572E+02  0.00000000000E+00 0.  1.
</event>
<event>
 7    1  0.4818508E-009  0.4778727E+02  0.7816164E-02  0.1312668E+00
        -11   -1    0    0    0    0  0.00000000000E+00  0.00000000000E+00  0.45593999997E+02  0.45594000000E+02  0.51100000000E-03 0.  1.
         11   -1    0    0    0    0 -0.00000000000E+00 -0.00000000000E+00 -0.45593999997E+02  0.45594000000E+02  0.51100000000E-03 0. -1.
    9900012    2    1    2    0    0 -0.25196762949E+02 -0.94121702185E+01  0.34061083294E+02  0.47787271821E+02  0.20000003541E+02 0.  0.
         12    1    1    2    0    0  0.25196762949E+02  0.94121702185E+01 -0.34061083294E+02  0.43400728179E+02  0.00000000000E+00 0. -1.
         11    1    3    3    0    0 -0.17703191888E+02 -0.48316925037E+01  0.96405980430E+01  0.20728950440E+02  0.51100000000E-03 0. -1.
        -11    1    3    3    0    0 -0.54700812599E+01 -0.15404807581E+01  0.59405291722E+01  0.82209948949E+01  0.51100000000E-03 0.  1.
         12    1    3    3    0    0 -0.20234898014E+01 -0.30399969567E+01  0.18479956079E+02  0.18837326486E+02  0.00000000000E+00 0. -1.
</event>
<event>
 7    1  0.4818508E-009  0.4778727E+02  0.7816164E-02  0.1312668E+00
        -11   -1    0    0    0    0  0.00000000000E+00  0.00000000000E+00  0.45593999997E+02  0.45594000000E+02  0.51100000000E-03 0. -1.
         11   -1    0    0    0    0 -0.00000000000E+00 -0.00000000000E+00 -0.45593999997E+02  0.45594000000E+02  0.51100000000E-03 0.  1.
    9900012    2    1    2    0    0 -0.14288137978E+02  0.37952165643E+02 -0.15463033853E+02  0.47787272128E+02  0.20000004942E+02 0.  0.
         12    1    1    2    0    0  0.14288137978E+02 -0.37952165643E+02  0.15463033853E+02  0.43400727872E+02  0.00000000000E+00 0. -1.
         11    1    3    3    0    0  0.12295682948E+01  0.70544585296E+01  0.25710547923E+01  0.76083865795E+01  0.51100000000E-03 0. -1.
        -11    1    3    3    0    0 -0.10209771103E+02  0.98878843915E+01 -0.64689664790E+01  0.15615928127E+02  0.51100000000E-03 0.  1.
         12    1    3    3    0    0 -0.53079351701E+01  0.21009822722E+02 -0.11565122166E+02  0.24562957421E+02  0.00000000000E+00 0. -1.
</event>
<event>
 7    1  0.4818508E-009  0.4778727E+02  0.7816164E-02  0.1312668E+00
        -11   -1    0    0    0    0  0.00000000000E+00  0.00000000000E+00  0.45593999997E+02  0.45594000000E+02  0.51100000000E-03 0. -1.
         11   -1    0    0    0    0 -0.00000000000E+00 -0.00000000000E+00 -0.45593999997E+02  0.45594000000E+02  0.51100000000E-03 0.  1.
    9900012    2    1    2    0    0  0.19834834347E+02  0.29921146191E+02 -0.24391131752E+02  0.47787274764E+02  0.20000016957E+02 0.  0.
         12    1    1    2    0    0 -0.19834834347E+02 -0.29921146191E+02  0.24391131752E+02  0.43400725236E+02  0.00000000000E+00 0. -1.
         11    1    3    3    0    0  0.51963212468E+01  0.22447296415E+01  0.17737222923E+01  0.59318341762E+01  0.51100000000E-03 0. -1.
        -11    1    3    3    0    0  0.96765042631E+01  0.12361852239E+02 -0.81237215592E+01  0.17676113197E+02  0.51100000000E-03 0.  1.
         12    1    3    3    0    0  0.49620088369E+01  0.15314564310E+02 -0.18041132485E+02  0.24179327390E+02  0.00000000000E+00 0. -1.
</event>
<event>
 7    1  0.4818508E-009  0.4778727E+02  0.7816164E-02  0.1312668E+00
        -11   -1    0    0    0    0  0.00000000000E+00  0.00000000000E+00  0.45593999997E+02  0.45594000000E+02  0.51100000000E-03 0.  1.
         11   -1    0    0    0    0 -0.00000000000E+00 -0.00000000000E+00 -0.45593999997E+02  0.45594000000E+02  0.51100000000E-03 0. -1.
    9900012    2    1    2    0    0 -0.78206562416E+01 -0.10928293807E+02  0.41267821640E+02  0.47787269909E+02  0.19999994822E+02 0.  0.
         12    1    1    2    0    0  0.78206562416E+01  0.10928293807E+02 -0.41267821640E+02  0.43400730091E+02  0.00000000000E+00 0. -1.
         11    1    3    3    0    0 -0.11421207312E+02 -0.35363848545E+01  0.23141878000E+02  0.26047965601E+02  0.51100000000E-03 0. -1.
        -11    1    3    3    0    0 -0.16816428267E+01 -0.54333953703E+01  0.12710055343E+02  0.13924626205E+02  0.51100000000E-03 0.  1.
         12    1    3    3    0    0  0.52821938974E+01 -0.19585135823E+01  0.54158882959E+01  0.78146781031E+01  0.00000000000E+00 0. -1.
</event>
<event>
 7    1  0.4818508E-009  0.4778728E+02  0.7816164E-02  0.1312668E+00
        -11   -1    0    0    0    0  0.00000000000E+00  0.00000000000E+00  0.45593999997E+02  0.45594000000E+02  0.51100000000E-03 0. -1.
         11   -1    0    0    0    0 -0.00000000000E+00 -0.00000000000E+00 -0.45593999997E+02  0.45594000000E+02  0.51100000000E-03 0.  1.
    9900012    2    1    2    0    0 -0.11914574168E+02 -0.34615654668E+02  0.23311402418E+02  0.47787284471E+02  0.20000061218E+02 0.  0.
         12    1    1    2    0    0  0.11914574168E+02  0.34615654668E+02 -0.23311402418E+02  0.43400715529E+02  0.00000000000E+00 0. -1.
         11    1    3    3    0    0  0.19971945114E+01  0.81507661481E+00  0.37548088034E+01  0.43303262251E+01  0.51100000000E-03 0. -1.
        -11    1    3    3    0    0 -0.32695292710E+01 -0.15932422319E+02  0.54985479167E+01  0.17168748704E+02  0.51100000000E-03 0.  1.
         12    1    3    3    0    0 -0.10642239409E+02 -0.19498308964E+02  0.14058045698E+02  0.26288209543E+02  0.00000000000E+00 0. -1.
</event>
<event>
 7    1  0.4818508E-009  0.4778728E+02  0.7816164E-02  0.1312668E+00
        -11   -1    0    0    0    0  0.00000000000E+00  0.00000000000E+00  0.45593999997E+02  0.45594000000E+02  0.51100000000E-03 0. -1.
         11   -1    0    0    0    0 -0.00000000000E+00 -0.00000000000E+00 -0.45593999997E+02  0.45594000000E+02  0.51100000000E-03 0.  1.
    9900012    2    1    2    0    0 -0.72305620496E+01  0.20367699974E+02 -0.37636401103E+02  0.47787275147E+02  0.20000018707E+02 0.  0.
         12    1    1    2    0    0  0.72305620496E+01 -0.20367699974E+02  0.37636401103E+02  0.43400724853E+02  0.00000000000E+00 0. -1.
         11    1    3    3    0    0 -0.24346352024E+01  0.51355296103E+01 -0.28203913678E+02  0.28770850873E+02  0.51100000000E-03 0. -1.
        -11    1    3    3    0    0 -0.53482327607E+01  0.13642657200E+02 -0.92381562436E+01  0.17322506175E+02  0.51100000000E-03 0.  1.
         12    1    3    3    0    0  0.55230591354E+00  0.15895131636E+01 -0.19433118072E+00  0.16939180993E+01  0.00000000000E+00 0. -1.
</event>
<event>
 7    1  0.4818508E-009  0.4778727E+02  0.7816164E-02  0.1312668E+00
        -11   -1    0    0    0    0  0.00000000000E+00  0.00000000000E+00  0.45593999997E+02  0.45594000000E+02  0.51100000000E-03 0. -1.
         11   -1    0    0    0    0 -0.00000000000E+00 -0.00000000000E+00 -0.45593999997E+02  0.45594000000E+02  0.51100000000E-03 0.  1.
    9900012    2    1    2    0    0 -0.38375938671E+01 -0.36822102514E+02 -0.22650135465E+02  0.47787274236E+02  0.20000014553E+02 0.  0.
         12    1    1    2    0    0  0.38375938671E+01  0.36822102514E+02  0.22650135465E+02  0.43400725764E+02  0.00000000000E+00 0. -1.
         11    1    3    3    0    0 -0.97294619850E+01 -0.11572889446E+02 -0.12158916340E+02  0.19401892883E+02  0.51100000000E-03 0. -1.
        -11    1    3    3    0    0  0.51963272578E+01 -0.17037787565E+02 -0.50656852828E+01  0.18518887378E+02  0.51100000000E-03 0.  1.
         12    1    3    3    0    0  0.69554086013E+00 -0.82114255036E+01 -0.54255338423E+01  0.98664939752E+01  0.00000000000E+00 0. -1.
</event>
<event>
 7    1  0.4818508E-009  0.4778727E+02  0.7816164E-02  0.1312668E+00
        -11   -1    0    0    0    0  0.00000000000E+00  0.00000000000E+00  0.45593999997E+02  0.45594000000E+02  0.51100000000E-03 0.  1.
         11   -1    0    0    0    0 -0.00000000000E+00 -0.00000000000E+00 -0.45593999997E+02  0.45594000000E+02  0.51100000000E-03 0. -1.
    9900012    2    1    2    0    0  0.38709607497E+01  0.12448743306E+02  0.41396472803E+02  0.47787268352E+02  0.19999987725E+02 0.  0.
         12    1    1    2    0    0 -0.38709607497E+01 -0.12448743306E+02 -0.41396472803E+02  0.43400731648E+02  0.00000000000E+00 0. -1.
         11    1    3    3    0    0 -0.10739580995E+01  0.41467534674E+01  0.24117023189E+00  0.42903512281E+01  0.51100000000E-03 0. -1.
        -11    1    3    3    0    0  0.37069648968E+01  0.32095279644E+01  0.51451656882E+01  0.71074178659E+01  0.51100000000E-03 0.  1.
         12    1    3    3    0    0  0.12379539523E+01  0.50924618742E+01  0.36010136883E+02  0.36389499258E+02  0.00000000000E+00 0. -1.
</event>
<event>
 7    1  0.4818508E-009  0.4778727E+02  0.7816164E-02  0.1312668E+00
        -11   -1    0    0    0    0  0.00000000000E+00  0.00000000000E+00  0.45593999997E+02  0.45594000000E+02  0.51100000000E-03 0.  1.
         11   -1    0    0    0    0 -0.00000000000E+00 -0.00000000000E+00 -0.45593999997E+02  0.45594000000E+02  0.51100000000E-03 0. -1.
    9900012    2    1    2    0    0 -0.16172209643E+02 -0.19176142334E+02  0.35416922761E+02  0.47787271695E+02  0.20000002964E+02 0.  0.
         12    1    1    2    0    0  0.16172209643E+02  0.19176142334E+02 -0.35416922761E+02  0.43400728305E+02  0.00000000000E+00 0. -1.
         11    1    3    3    0    0 -0.60650658409E+01  0.13048127072E+01  0.99744663251E+00  0.62835069747E+01  0.51100000000E-03 0. -1.
        -11    1    3    3    0    0 -0.45138448319E+01 -0.13324455677E+02  0.22101596364E+02  0.26199169383E+02  0.51100000000E-03 0.  1.
         12    1    3    3    0    0 -0.55932989705E+01 -0.71564993638E+01  0.12317879765E+02  0.15304595337E+02  0.00000000000E+00 0. -1.
</event>
<event>
 7    1  0.4818508E-009  0.4778727E+02  0.7816164E-02  0.1312668E+00
        -11   -1    0    0    0    0  0.00000000000E+00  0.00000000000E+00  0.45593999997E+02  0.45594000000E+02  0.51100000000E-03 0. -1.
         11   -1    0    0    0    0 -0.00000000000E+00 -0.00000000000E+00 -0.45593999997E+02  0.45594000000E+02  0.51100000000E-03 0.  1.
    9900012    2    1    2    0    0 -0.18990480892E+01 -0.43261252262E+02 -0.29122480408E+01  0.47787268214E+02  0.19999987096E+02 0.  0.
         12    1    1    2    0    0  0.18990480892E+01  0.43261252262E+02  0.29122480408E+01  0.43400731786E+02  0.00000000000E+00 0. -1.
         11    1    3    3    0    0  0.24594786168E+01 -0.17321424656E+01  0.37175130199E+01  0.47821810821E+01  0.51100000000E-03 0. -1.
        -11    1    3    3    0    0 -0.33455908771E+01 -0.13554016121E+02 -0.54497615974E+01  0.14986801962E+02  0.51100000000E-03 0.  1.
         12    1    3    3    0    0 -0.10129358290E+01 -0.27975093675E+02 -0.11799994634E+01  0.28018285170E+02  0.00000000000E+00 0. -1.
</event>
<event>
 7    1  0.4818508E-009  0.4778722E+02  0.7816164E-02  0.1312668E+00
        -11   -1    0    0    0    0  0.00000000000E+00  0.00000000000E+00  0.45593999997E+02  0.45594000000E+02  0.51100000000E-03 0.  1.
         11   -1    0    0    0    0 -0.00000000000E+00 -0.00000000000E+00 -0.45593999997E+02  0.45594000000E+02  0.51100000000E-03 0. -1.
    9900012    2    1    2    0    0 -0.30790623442E+01  0.75267786616E+01  0.42632080754E+02  0.47787224300E+02  0.19999786873E+02 0.  0.
         12    1    1    2    0    0  0.30790623442E+01 -0.75267786616E+01 -0.42632080754E+02  0.43400775700E+02  0.00000000000E+00 0. -1.
         11    1    3    3    0    0  0.26675548400E+01 -0.45520211172E+01  0.93015099314E+01  0.10693681889E+02  0.51100000000E-03 0. -1.
        -11    1    3    3    0    0 -0.82067448598E+01  0.82854160564E+01  0.22126666750E+02  0.25011760477E+02  0.51100000000E-03 0.  1.
        -12    1    3    3    0    0  0.24601276756E+01  0.37933837225E+01  0.11203904072E+02  0.12081781934E+02  0.00000000000E+00 0.  1.
</event>
<event>
 7    1  0.4818508E-009  0.4778727E+02  0.7816164E-02  0.1312668E+00
        -11   -1    0    0    0    0  0.00000000000E+00  0.00000000000E+00  0.45593999997E+02  0.45594000000E+02  0.51100000000E-03 0.  1.
         11   -1    0    0    0    0 -0.00000000000E+00 -0.00000000000E+00 -0.45593999997E+02  0.45594000000E+02  0.51100000000E-03 0. -1.
    9900012    2    1    2    0    0 -0.21033338197E+02  0.17821899928E+02  0.33520174468E+02  0.47787268104E+02  0.19999986593E+02 0.  0.
         12    1    1    2    0    0  0.21033338197E+02 -0.17821899928E+02 -0.33520174468E+02  0.43400731896E+02  0.00000000000E+00 0. -1.
         11    1    3    3    0    0 -0.91869652920E+01 -0.66484989453E+00  0.32068111284E+01  0.97532555864E+01  0.51100000000E-03 0. -1.
        -11    1    3    3    0    0 -0.45830749440E+01  0.11774666270E+02  0.13228460657E+02  0.18293154822E+02  0.51100000000E-03 0.  1.
         12    1    3    3    0    0 -0.72632979610E+01  0.67120835519E+01  0.17084902683E+02  0.19740857696E+02  0.00000000000E+00 0. -1.
</event>
<event>
 7    1  0.4818508E-009  0.4778727E+02  0.7816164E-02  0.1312668E+00
        -11   -1    0    0    0    0  0.00000000000E+00  0.00000000000E+00  0.45593999997E+02  0.45594000000E+02  0.51100000000E-03 0.  1.
         11   -1    0    0    0    0 -0.00000000000E+00 -0.00000000000E+00 -0.45593999997E+02  0.45594000000E+02  0.51100000000E-03 0. -1.
    9900012    2    1    2    0    0  0.40912057433E+02 -0.48643710196E+01  0.13644217483E+02  0.47787271670E+02  0.20000002854E+02 0.  0.
         12    1    1    2    0    0 -0.40912057433E+02  0.48643710196E+01 -0.13644217483E+02  0.43400728330E+02  0.00000000000E+00 0. -1.
         11    1    3    3    0    0  0.15381140659E-01  0.22023163648E+01  0.34566463126E+01  0.40986385473E+01  0.51100000000E-03 0. -1.
        -11    1    3    3    0    0  0.28022448637E+02 -0.81819379941E+01  0.43727224419E+01  0.29518171332E+02  0.51100000000E-03 0.  1.
        -12    1    3    3    0    0  0.12874227655E+02  0.11152506097E+01  0.58148487288E+01  0.14170461791E+02  0.00000000000E+00 0.  1.
</event>
<event>
 7    1  0.4818508E-009  0.4778727E+02  0.7816164E-02  0.1312668E+00
        -11   -1    0    0    0    0  0.00000000000E+00  0.00000000000E+00  0.45593999997E+02  0.45594000000E+02  0.51100000000E-03 0.  1.
         11   -1    0    0    0    0 -0.00000000000E+00 -0.00000000000E+00 -0.45593999997E+02  0.45594000000E+02  0.51100000000E-03 0. -1.
    9900012    2    1    2    0    0  0.63552544398E+00 -0.18978890512E+02  0.39025903050E+02  0.47787270898E+02  0.19999999333E+02 0.  0.
         12    1    1    2    0    0 -0.63552544398E+00  0.18978890512E+02 -0.39025903050E+02  0.43400729102E+02  0.00000000000E+00 0. -1.
         11    1    3    3    0    0  0.59540343431E+01 -0.10083454175E+02  0.97262619924E+01  0.15222573556E+02  0.51100000000E-03 0. -1.
        -11    1    3    3    0    0 -0.35090238325E+01 -0.33638690312E+00  0.17635962918E+02  0.17984815615E+02  0.51100000000E-03 0.  1.
        -12    1    3    3    0    0 -0.18094850666E+01 -0.85590494343E+01  0.11663678140E+02  0.14579881727E+02  0.00000000000E+00 0.  1.
</event>
<event>
 7    1  0.4818508E-009  0.4778727E+02  0.7816164E-02  0.1312668E+00
        -11   -1    0    0    0    0  0.00000000000E+00  0.00000000000E+00  0.45593999997E+02  0.45594000000E+02  0.51100000000E-03 0. -1.
         11   -1    0    0    0    0 -0.00000000000E+00 -0.00000000000E+00 -0.45593999997E+02  0.45594000000E+02  0.51100000000E-03 0.  1.
    9900012    2    1    2    0    0  0.25935513479E+02 -0.31954986502E+02  0.13778666569E+02  0.47787266433E+02  0.19999978973E+02 0.  0.
         12    1    1    2    0    0 -0.25935513479E+02  0.31954986502E+02 -0.13778666569E+02  0.43400733567E+02  0.00000000000E+00 0. -1.
         11    1    3    3    0    0  0.88361655085E+00 -0.11453533765E+01  0.18467867992E+01  0.23458973355E+01  0.51100000000E-03 0. -1.
        -11    1    3    3    0    0  0.17315146174E+02 -0.31616854769E+02  0.10340022020E+02  0.37501411282E+02  0.51100000000E-03 0.  1.
        -12    1    3    3    0    0  0.77367507540E+01  0.80722164353E+00  0.15918577506E+01  0.79399578154E+01  0.00000000000E+00 0.  1.
</event>
<event>
 7    1  0.4818508E-009  0.4778728E+02  0.7816164E-02  0.1312668E+00
        -11   -1    0    0    0    0  0.00000000000E+00  0.00000000000E+00  0.45593999997E+02  0.45594000000E+02  0.51100000000E-03 0.  1.
         11   -1    0    0    0    0 -0.00000000000E+00 -0.00000000000E+00 -0.45593999997E+02  0.45594000000E+02  0.51100000000E-03 0. -1.
    9900012    2    1    2    0    0 -0.26330994554E+00 -0.32173707979E+02  0.29127407075E+02  0.47787278115E+02  0.20000032235E+02 0.  0.
         12    1    1    2    0    0  0.26330994554E+00  0.32173707979E+02 -0.29127407075E+02  0.43400721885E+02  0.00000000000E+00 0. -1.
         11    1    3    3    0    0 -0.30776514686E+01 -0.71721936656E+01  0.15744811795E+02  0.17573030452E+02  0.51100000000E-03 0. -1.
        -11    1    3    3    0    0  0.64729845991E+01 -0.18732976683E+02  0.10173791658E+02  0.22278464534E+02  0.51100000000E-03 0.  1.
        -12    1    3    3    0    0 -0.36586430761E+01 -0.62685376304E+01  0.32088036223E+01  0.79357831288E+01  0.00000000000E+00 0.  1.
</event>
<event>
 7    1  0.4818508E-009  0.4778727E+02  0.7816164E-02  0.1312668E+00
        -11   -1    0    0    0    0  0.00000000000E+00  0.00000000000E+00  0.45593999997E+02  0.45594000000E+02  0.51100000000E-03 0. -1.
         11   -1    0    0    0    0 -0.00000000000E+00 -0.00000000000E+00 -0.45593999997E+02  0.45594000000E+02  0.51100000000E-03 0.  1.
    9900012    2    1    2    0    0 -0.33646889054E+02 -0.69033131047E+01 -0.26530252741E+02  0.47787272064E+02  0.20000004649E+02 0.  0.
         12    1    1    2    0    0  0.33646889054E+02  0.69033131047E+01  0.26530252741E+02  0.43400727936E+02  0.00000000000E+00 0. -1.
         11    1    3    3    0    0 -0.17761393741E+01 -0.29204263306E+01 -0.50581322155E+00  0.34553448894E+01  0.51100000000E-03 0. -1.
        -11    1    3    3    0    0 -0.11103650066E+02 -0.74395006512E+01 -0.16474673100E+02  0.21214430672E+02  0.51100000000E-03 0.  1.
        -12    1    3    3    0    0 -0.20767099614E+02  0.34566138770E+01 -0.95497664193E+01  0.23117496502E+02  0.00000000000E+00 0.  1.
</event>
<event>
 7    1  0.4818508E-009  0.4778726E+02  0.7816164E-02  0.1312668E+00
        -11   -1    0    0    0    0  0.00000000000E+00  0.00000000000E+00  0.45593999997E+02  0.45594000000E+02  0.51100000000E-03 0.  1.
         11   -1    0    0    0    0 -0.00000000000E+00 -0.00000000000E+00 -0.45593999997E+02  0.45594000000E+02  0.51100000000E-03 0. -1.
    9900012    2    1    2    0    0 -0.19467956759E+02 -0.51193305922E+01  0.38450163059E+02  0.47787263539E+02  0.19999965782E+02 0.  0.
         12    1    1    2    0    0  0.19467956759E+02  0.51193305922E+01 -0.38450163059E+02  0.43400736461E+02  0.00000000000E+00 0. -1.
         11    1    3    3    0    0 -0.56499695766E+00  0.24070992872E+01  0.38311292315E+01  0.45597039367E+01  0.51100000000E-03 0.  1.
        -11    1    3    3    0    0 -0.13333648442E+02  0.18621671352E+01  0.11679580551E+02  0.17823199750E+02  0.51100000000E-03 0. -1.
        -12    1    3    3    0    0 -0.55693113590E+01 -0.93885970147E+01  0.22939453276E+02  0.25404359853E+02  0.00000000000E+00 0.  1.
</event>
<event>
 7    1  0.4818508E-009  0.4778727E+02  0.7816164E-02  0.1312668E+00
        -11   -1    0    0    0    0  0.00000000000E+00  0.00000000000E+00  0.45593999997E+02  0.45594000000E+02  0.51100000000E-03 0.  1.
         11   -1    0    0    0    0 -0.00000000000E+00 -0.00000000000E+00 -0.45593999997E+02  0.45594000000E+02  0.51100000000E-03 0. -1.
    9900012    2    1    2    0    0  0.35182312582E+02 -0.39291627342E+01  0.25107567873E+02  0.47787269558E+02  0.19999993224E+02 0.  0.
         12    1    1    2    0    0 -0.35182312582E+02  0.39291627342E+01 -0.25107567873E+02  0.43400730442E+02  0.00000000000E+00 0. -1.
         11    1    3    3    0    0  0.17274241369E+02  0.62320130346E+01  0.82420489930E+01  0.20128804565E+02  0.51100000000E-03 0. -1.
        -11    1    3    3    0    0  0.16891214291E+02 -0.84651422667E+01  0.11938688317E+02  0.22349586861E+02  0.51100000000E-03 0.  1.
         12    1    3    3    0    0  0.10168569207E+01 -0.16960335021E+01  0.49268305625E+01  0.53088781328E+01  0.00000000000E+00 0. -1.
</event>
<event>
 7    1  0.4818508E-009  0.4778727E+02  0.7816164E-02  0.1312668E+00
        -11   -1    0    0    0    0  0.00000000000E+00  0.00000000000E+00  0.45593999997E+02  0.45594000000E+02  0.51100000000E-03 0. -1.
         11   -1    0    0    0    0 -0.00000000000E+00 -0.00000000000E+00 -0.45593999997E+02  0.45594000000E+02  0.51100000000E-03 0.  1.
    9900012    2    1    2    0    0 -0.31866773346E+02 -0.20374991679E+02 -0.21283599369E+02  0.47787272685E+02  0.20000007478E+02 0.  0.
         12    1    1    2    0    0  0.31866773346E+02  0.20374991679E+02  0.21283599369E+02  0.43400727315E+02  0.00000000000E+00 0. -1.
         11    1    3    3    0    0  0.21517090164E+01 -0.18001380379E+01 -0.17653554954E+01  0.33146385826E+01  0.51100000000E-03 0. -1.
        -11    1    3    3    0    0 -0.16124104616E+02 -0.33558054164E+01 -0.80599167645E+01  0.18336042053E+02  0.51100000000E-03 0.  1.
        -12    1    3    3    0    0 -0.17894377747E+02 -0.15219048225E+02 -0.11458327109E+02  0.26136592049E+02  0.00000000000E+00 0.  1.
</event>
<event>
 7    1  0.4818508E-009  0.4778726E+02  0.7816164E-02  0.1312668E+00
        -11   -1    0    0    0    0  0.00000000000E+00  0.00000000000E+00  0.45593999997E+02  0.45594000000E+02  0.51100000000E-03 0.  1.
         11   -1    0    0    0    0 -0.00000000000E+00 -0.00000000000E+00 -0.45593999997E+02  0.45594000000E+02  0.51100000000E-03 0. -1.
    9900012    2    1    2    0    0  0.47554445684E+01  0.41820460286E+02  0.10585776569E+02  0.47787264786E+02  0.19999971465E+02 0.  0.
         12    1    1    2    0    0 -0.47554445684E+01 -0.41820460286E+02 -0.10585776569E+02  0.43400735214E+02  0.00000000000E+00 0. -1.
         11    1    3    3    0    0  0.82976534369E+01  0.84570619345E+01 -0.44718163313E+00  0.11856345170E+02  0.51100000000E-03 0. -1.
        -11    1    3    3    0    0 -0.31032147263E+01  0.15143665535E+02  0.19905532625E+01  0.15585982486E+02  0.51100000000E-03 0.  1.
         12    1    3    3    0    0 -0.43899414228E+00  0.18219732816E+02  0.90424049400E+01  0.20344937130E+02  0.00000000000E+00 0. -1.
</event>
<event>
 7    1  0.4818508E-009  0.4778727E+02  0.7816164E-02  0.1312668E+00
        -11   -1    0    0    0    0  0.00000000000E+00  0.00000000000E+00  0.45593999997E+02  0.45594000000E+02  0.51100000000E-03 0. -1.
         11   -1    0    0    0    0 -0.00000000000E+00 -0.00000000000E+00 -0.45593999997E+02  0.45594000000E+02  0.51100000000E-03 0.  1.
    9900012    2    1    2    0    0 -0.15789933359E+02 -0.10013816889E+02 -0.39166627360E+02  0.47787271632E+02  0.20000002677E+02 0.  0.
         12    1    1    2    0    0  0.15789933359E+02  0.10013816889E+02  0.39166627360E+02  0.43400728368E+02  0.00000000000E+00 0. -1.
         11    1    3    3    0    0 -0.12057278312E+02 -0.78908002531E+00 -0.12161985160E+02  0.17143934522E+02  0.51100000000E-03 0. -1.
        -11    1    3    3    0    0 -0.33485120432E+01  0.13610780145E+01 -0.97285714406E+01  0.10378350967E+02  0.51100000000E-03 0.  1.
         12    1    3    3    0    0 -0.38414300329E+00 -0.10585814878E+02 -0.17276070759E+02  0.20264986142E+02  0.00000000000E+00 0. -1.
</event>
<event>
 7    1  0.7378519E-009  0.4778728E+02  0.7816164E-02  0.1312668E+00
        -11   -1    0    0    0    0  0.00000000000E+00  0.00000000000E+00  0.45593999997E+02  0.45594000000E+02  0.51100000000E-03 0.  1.
         11   -1    0    0    0    0 -0.00000000000E+00 -0.00000000000E+00 -0.45593999997E+02  0.45594000000E+02  0.51100000000E-03 0. -1.
    9900012    2    1    2    0    0 -0.16289117020E+02 -0.34451508924E+02  0.20769716156E+02  0.47787275241E+02  0.20000019132E+02 0.  0.
         12    1    1    2    0    0  0.16289117020E+02  0.34451508924E+02 -0.20769716156E+02  0.43400724759E+02  0.00000000000E+00 0. -1.
         11    1    3    3    0    0  0.19831443596E+00 -0.21471732805E+01 -0.17743340243E+01  0.27924797587E+01  0.51100000000E-03 0. -1.
        -11    1    3    3    0    0 -0.31227856357E+01 -0.13718004127E+02  0.15742965209E+02  0.21113417090E+02  0.51100000000E-03 0.  1.
        -12    1    3    3    0    0 -0.13364645820E+02 -0.18586331516E+02  0.68010849713E+01  0.23881378392E+02  0.00000000000E+00 0.  1.
</event>
<event>
 7    1  0.4818508E-009  0.4778727E+02  0.7816164E-02  0.1312668E+00
        -11   -1    0    0    0    0  0.00000000000E+00  0.00000000000E+00  0.45593999997E+02  0.45594000000E+02  0.51100000000E-03 0. -1.
         11   -1    0    0    0    0 -0.00000000000E+00 -0.00000000000E+00 -0.45593999997E+02  0.45594000000E+02  0.51100000000E-03 0.  1.
    9900012    2    1    2    0    0 -0.29493308459E+02  0.31211991528E+02 -0.62912378113E+01  0.47787270372E+02  0.19999996935E+02 0.  0.
         12    1    1    2    0    0  0.29493308459E+02 -0.31211991528E+02  0.62912378113E+01  0.43400729628E+02  0.00000000000E+00 0. -1.
         11    1    3    3    0    0 -0.61973986130E+01  0.79378735687E+01  0.26696023318E+01  0.10418462614E+02  0.51100000000E-03 0. -1.
        -11    1    3    3    0    0 -0.53924340838E+01  0.93937680057E+01 -0.99296872072E+01  0.14694213520E+02  0.51100000000E-03 0.  1.
        -12    1    3    3    0    0 -0.17903475763E+02  0.13880349954E+02  0.96884706402E+00  0.22674594238E+02  0.00000000000E+00 0.  1.
</event>
<event>
 7    1  0.4818508E-009  0.4778727E+02  0.7816164E-02  0.1312668E+00
        -11   -1    0    0    0    0  0.00000000000E+00  0.00000000000E+00  0.45593999997E+02  0.45594000000E+02  0.51100000000E-03 0.  1.
         11   -1    0    0    0    0 -0.00000000000E+00 -0.00000000000E+00 -0.45593999997E+02  0.45594000000E+02  0.51100000000E-03 0. -1.
    9900012    2    1    2    0    0 -0.92971620811E+01 -0.40323698547E+02 -0.13083774179E+02  0.47787273807E+02  0.20000012598E+02 0.  0.
         12    1    1    2    0    0  0.92971620811E+01  0.40323698547E+02  0.13083774179E+02  0.43400726193E+02  0.00000000000E+00 0. -1.
         11    1    3    3    0    0 -0.17536583744E+01 -0.12965469185E+01 -0.30608081581E+01  0.37583105842E+01  0.51100000000E-03 0. -1.
        -11    1    3    3    0    0 -0.38525595710E+01 -0.19673908038E+02 -0.13297313479E+02  0.24056670982E+02  0.51100000000E-03 0.  1.
        -12    1    3    3    0    0 -0.36909441357E+01 -0.19353243590E+02  0.32743474575E+01  0.19972292241E+02  0.00000000000E+00 0.  1.
</event>
<event>
 7    1  0.4818508E-009  0.4778727E+02  0.7816164E-02  0.1312668E+00
        -11   -1    0    0    0    0  0.00000000000E+00  0.00000000000E+00  0.45593999997E+02  0.45594000000E+02  0.51100000000E-03 0. -1.
         11   -1    0    0    0    0 -0.00000000000E+00 -0.00000000000E+00 -0.45593999997E+02  0.45594000000E+02  0.51100000000E-03 0.  1.
    9900012    2    1    2    0    0 -0.29528123539E+02  0.81377163632E+01 -0.30748837380E+02  0.47787268352E+02  0.19999987724E+02 0.  0.
         12    1    1    2    0    0  0.29528123539E+02 -0.81377163632E+01  0.30748837380E+02  0.43400731648E+02  0.00000000000E+00 0. -1.
         11    1    3    3    0    0 -0.88630201465E+01 -0.20651357887E-01 -0.16789532272E+02  0.18985308708E+02  0.51100000000E-03 0. -1.
        -11    1    3    3    0    0 -0.14366968577E+02  0.10643798820E+02 -0.12658095277E+02  0.21907250301E+02  0.51100000000E-03 0.  1.
         12    1    3    3    0    0 -0.62981348150E+01 -0.24854310989E+01 -0.13012098314E+01  0.68947093428E+01  0.00000000000E+00 0. -1.
</event>
<event>
 7    1  0.4818508E-009  0.4778727E+02  0.7816164E-02  0.1312668E+00
        -11   -1    0    0    0    0  0.00000000000E+00  0.00000000000E+00  0.45593999997E+02  0.45594000000E+02  0.51100000000E-03 0.  1.
         11   -1    0    0    0    0 -0.00000000000E+00 -0.00000000000E+00 -0.45593999997E+02  0.45594000000E+02  0.51100000000E-03 0. -1.
    9900012    2    1    2    0    0  0.18418786496E+02  0.33086007961E+02  0.21205836772E+02  0.47787272679E+02  0.20000007452E+02 0.  0.
         12    1    1    2    0    0 -0.18418786496E+02 -0.33086007961E+02 -0.21205836772E+02  0.43400727321E+02  0.00000000000E+00 0. -1.
         11    1    3    3    0    0  0.27571198952E+01  0.13517528216E+02  0.78875203505E+01  0.15891452317E+02  0.51100000000E-03 0.  1.
        -11    1    3    3    0    0  0.29036591447E+01 -0.22620360535E+01  0.20539981302E+01  0.42150862525E+01  0.51100000000E-03 0. -1.
        -12    1    3    3    0    0  0.12758007456E+02  0.21830515798E+02  0.11264318292E+02  0.27680734109E+02  0.00000000000E+00 0.  1.
</event>
<event>
 7    1  0.4818508E-009  0.4778727E+02  0.7816164E-02  0.1312668E+00
        -11   -1    0    0    0    0  0.00000000000E+00  0.00000000000E+00  0.45593999997E+02  0.45594000000E+02  0.51100000000E-03 0.  1.
         11   -1    0    0    0    0 -0.00000000000E+00 -0.00000000000E+00 -0.45593999997E+02  0.45594000000E+02  0.51100000000E-03 0. -1.
    9900012    2    1    2    0    0  0.19147405567E+02 -0.53052291270E+01  0.38585678881E+02  0.47787271772E+02  0.20000003317E+02 0.  0.
         12    1    1    2    0    0 -0.19147405567E+02  0.53052291270E+01 -0.38585678881E+02  0.43400728228E+02  0.00000000000E+00 0. -1.
         11    1    3    3    0    0  0.45309217927E+01 -0.97145697970E+01  0.19849604459E+02  0.22559009643E+02  0.51100000000E-03 0. -1.
        -11    1    3    3    0    0  0.64758633711E+01  0.46730668717E+01  0.13033487290E+02  0.15285488268E+02  0.51100000000E-03 0.  1.
        -12    1    3    3    0    0  0.81406204029E+01 -0.26372620167E+00  0.57025871313E+01  0.99427738606E+01  0.00000000000E+00 0.  1.
</event>
<event>
 7    1  0.4818508E-009  0.4778727E+02  0.7816164E-02  0.1312668E+00
        -11   -1    0    0    0    0  0.00000000000E+00  0.00000000000E+00  0.45593999997E+02  0.45594000000E+02  0.51100000000E-03 0. -1.
         11   -1    0    0    0    0 -0.00000000000E+00 -0.00000000000E+00 -0.45593999997E+02  0.45594000000E+02  0.51100000000E-03 0.  1.
    9900012    2    1    2    0    0  0.35206645341E+00 -0.12637892363E+02 -0.41518466928E+02  0.47787269934E+02  0.19999994939E+02 0.  0.
         12    1    1    2    0    0 -0.35206645341E+00  0.12637892363E+02  0.41518466928E+02  0.43400730066E+02  0.00000000000E+00 0. -1.
         11    1    3    3    0    0  0.18815295468E+01 -0.27891323874E+01 -0.19892820904E+01  0.39085363509E+01  0.51100000000E-03 0. -1.
        -11    1    3    3    0    0  0.10149257452E+01 -0.14019515949E+02 -0.27210400721E+02  0.30626505014E+02  0.51100000000E-03 0.  1.
        -12    1    3    3    0    0 -0.25443888386E+01  0.41707559732E+01 -0.12318784117E+02  0.13252228570E+02  0.00000000000E+00 0.  1.
</event>
<event>
 7    1  0.4818508E-009  0.4778727E+02  0.7816164E-02  0.1312668E+00
        -11   -1    0    0    0    0  0.00000000000E+00  0.00000000000E+00  0.45593999997E+02  0.45594000000E+02  0.51100000000E-03 0.  1.
         11   -1    0    0    0    0 -0.00000000000E+00 -0.00000000000E+00 -0.45593999997E+02  0.45594000000E+02  0.51100000000E-03 0. -1.
    9900012    2    1    2    0    0  0.28454034725E+01 -0.12521975165E+02  0.41457531310E+02  0.47787273218E+02  0.20000009908E+02 0.  0.
         12    1    1    2    0    0 -0.28454034725E+01  0.12521975165E+02 -0.41457531310E+02  0.43400726782E+02  0.00000000000E+00 0. -1.
         11    1    3    3    0    0  0.10280549890E+01 -0.73307404870E+01  0.28931621477E+01  0.79477695375E+01  0.51100000000E-03 0. -1.
        -11    1    3    3    0    0 -0.79824534734E+00 -0.68469327599E+01  0.27417588936E+02  0.28270866049E+02  0.51100000000E-03 0.  1.
        -12    1    3    3    0    0  0.26155938308E+01  0.16556980817E+01  0.11146780226E+02  0.11568637631E+02  0.00000000000E+00 0.  1.
</event>
<event>
 7    1  0.4818508E-009  0.4778728E+02  0.7816164E-02  0.1312668E+00
        -11   -1    0    0    0    0  0.00000000000E+00  0.00000000000E+00  0.45593999997E+02  0.45594000000E+02  0.51100000000E-03 0. -1.
         11   -1    0    0    0    0 -0.00000000000E+00 -0.00000000000E+00 -0.45593999997E+02  0.45594000000E+02  0.51100000000E-03 0.  1.
    9900012    2    1    2    0    0  0.82539905701E+01 -0.33635918680E+02 -0.26155675545E+02  0.47787277091E+02  0.20000027568E+02 0.  0.
         12    1    1    2    0    0 -0.82539905701E+01  0.33635918680E+02  0.26155675545E+02  0.43400722909E+02  0.00000000000E+00 0. -1.
         11    1    3    3    0    0 -0.33509713730E+01 -0.12653321381E+02 -0.29999319444E+01  0.13428892100E+02  0.51100000000E-03 0. -1.
        -11    1    3    3    0    0  0.12395857450E+02 -0.19974347310E+02 -0.19694873588E+02  0.30667896541E+02  0.51100000000E-03 0.  1.
        -12    1    3    3    0    0 -0.79089550726E+00 -0.10082499900E+01 -0.34608700132E+01  0.36904884493E+01  0.00000000000E+00 0.  1.
</event>
<event>
 7    1  0.4818508E-009  0.4778727E+02  0.7816164E-02  0.1312668E+00
        -11   -1    0    0    0    0  0.00000000000E+00  0.00000000000E+00  0.45593999997E+02  0.45594000000E+02  0.51100000000E-03 0.  1.
         11   -1    0    0    0    0 -0.00000000000E+00 -0.00000000000E+00 -0.45593999997E+02  0.45594000000E+02  0.51100000000E-03 0. -1.
    9900012    2    1    2    0    0  0.13882693872E+01  0.36100453617E+02  0.24051053967E+02  0.47787271433E+02  0.20000001770E+02 0.  0.
         12    1    1    2    0    0 -0.13882693872E+01 -0.36100453617E+02 -0.24051053967E+02  0.43400728567E+02  0.00000000000E+00 0. -1.
         11    1    3    3    0    0  0.25216130755E+01  0.44439958899E+01  0.38139734668E+01  0.63760509595E+01  0.51100000000E-03 0. -1.
        -11    1    3    3    0    0  0.23902071863E+01  0.22892033565E+02  0.21956830621E+02  0.31809757973E+02  0.51100000000E-03 0.  1.
        -12    1    3    3    0    0 -0.35235508746E+01  0.87644241622E+01 -0.17197501205E+01  0.96014625000E+01  0.00000000000E+00 0.  1.
</event>
<event>
 7    1  0.4818508E-009  0.4778727E+02  0.7816164E-02  0.1312668E+00
        -11   -1    0    0    0    0  0.00000000000E+00  0.00000000000E+00  0.45593999997E+02  0.45594000000E+02  0.51100000000E-03 0. -1.
         11   -1    0    0    0    0 -0.00000000000E+00 -0.00000000000E+00 -0.45593999997E+02  0.45594000000E+02  0.51100000000E-03 0.  1.
    9900012    2    1    2    0    0  0.18979496016E+02 -0.38443907928E+02 -0.67430064777E+01  0.47787268876E+02  0.19999990112E+02 0.  0.
         12    1    1    2    0    0 -0.18979496016E+02  0.38443907928E+02  0.67430064777E+01  0.43400731124E+02  0.00000000000E+00 0. -1.
         11    1    3    3    0    0  0.61995306228E+01 -0.80817247462E+01 -0.11233986436E+01  0.10247462105E+02  0.51100000000E-03 0. -1.
        -11    1    3    3    0    0  0.11550676548E+02 -0.81107204227E+01 -0.57858707337E+01  0.15253793459E+02  0.51100000000E-03 0.  1.
        -12    1    3    3    0    0  0.12292888454E+01 -0.22251462759E+02  0.16626289971E+00  0.22286013311E+02  0.00000000000E+00 0.  1.
</event>
<event>
 7    1  0.4818508E-009  0.4778730E+02  0.7816164E-02  0.1312668E+00
        -11   -1    0    0    0    0  0.00000000000E+00  0.00000000000E+00  0.45593999997E+02  0.45594000000E+02  0.51100000000E-03 0.  1.
         11   -1    0    0    0    0 -0.00000000000E+00 -0.00000000000E+00 -0.45593999997E+02  0.45594000000E+02  0.51100000000E-03 0. -1.
    9900012    2    1    2    0    0 -0.12567111599E+02 -0.13755364664E+01  0.41518628288E+02  0.47787298514E+02  0.20000125245E+02 0.  0.
         12    1    1    2    0    0  0.12567111599E+02  0.13755364664E+01 -0.41518628288E+02  0.43400701486E+02  0.00000000000E+00 0. -1.
         11    1    3    3    0    0 -0.76238572505E+01 -0.69399148624E+01  0.10201592073E+02  0.14503727064E+02  0.51100000000E-03 0. -1.
        -11    1    3    3    0    0  0.15878040983E+01  0.26376352174E+01  0.17009597971E+02  0.17285967280E+02  0.51100000000E-03 0.  1.
         12    1    3    3    0    0 -0.65310584469E+01  0.29267431786E+01  0.14307438244E+02  0.15997604170E+02  0.00000000000E+00 0. -1.
</event>
<event>
 7    1  0.4818508E-009  0.4778727E+02  0.7816164E-02  0.1312668E+00
        -11   -1    0    0    0    0  0.00000000000E+00  0.00000000000E+00  0.45593999997E+02  0.45594000000E+02  0.51100000000E-03 0. -1.
         11   -1    0    0    0    0 -0.00000000000E+00 -0.00000000000E+00 -0.45593999997E+02  0.45594000000E+02  0.51100000000E-03 0.  1.
    9900012    2    1    2    0    0 -0.26883316159E+02  0.11290892697E+02 -0.32146950383E+02  0.47787270000E+02  0.19999995237E+02 0.  0.
         12    1    1    2    0    0  0.26883316159E+02 -0.11290892697E+02  0.32146950383E+02  0.43400730000E+02  0.00000000000E+00 0. -1.
         11    1    3    3    0    0 -0.20412731275E+02  0.11734616016E+01 -0.18550688526E+02  0.27607691959E+02  0.51100000000E-03 0. -1.
        -11    1    3    3    0    0  0.72581549540E+00  0.30231948605E+01  0.15690897461E+00  0.31130589434E+01  0.51100000000E-03 0.  1.
        -12    1    3    3    0    0 -0.71964003792E+01  0.70942362354E+01 -0.13753170832E+02  0.17066519098E+02  0.00000000000E+00 0.  1.
</event>
<event>
 7    1  0.4818508E-009  0.4778727E+02  0.7816164E-02  0.1312668E+00
        -11   -1    0    0    0    0  0.00000000000E+00  0.00000000000E+00  0.45593999997E+02  0.45594000000E+02  0.51100000000E-03 0. -1.
         11   -1    0    0    0    0 -0.00000000000E+00 -0.00000000000E+00 -0.45593999997E+02  0.45594000000E+02  0.51100000000E-03 0.  1.
    9900012    2    1    2    0    0  0.22467517830E+02  0.18489805791E+02 -0.32201878088E+02  0.47787271572E+02  0.20000002406E+02 0.  0.
         12    1    1    2    0    0 -0.22467517830E+02 -0.18489805791E+02  0.32201878088E+02  0.43400728428E+02  0.00000000000E+00 0. -1.
         11    1    3    3    0    0  0.19263978042E+02  0.90270376700E+01 -0.24138035424E+02  0.32175037117E+02  0.51100000000E-03 0. -1.
        -11    1    3    3    0    0  0.33677551551E+01  0.10666763553E+02 -0.48791539282E+01  0.12203596306E+02  0.51100000000E-03 0.  1.
         12    1    3    3    0    0 -0.16421536681E+00 -0.12039954316E+01 -0.31846887361E+01  0.34086381492E+01  0.00000000000E+00 0. -1.
</event>
<event>
 7    1  0.4818508E-009  0.4778727E+02  0.7816164E-02  0.1312668E+00
        -11   -1    0    0    0    0  0.00000000000E+00  0.00000000000E+00  0.45593999997E+02  0.45594000000E+02  0.51100000000E-03 0.  1.
         11   -1    0    0    0    0 -0.00000000000E+00 -0.00000000000E+00 -0.45593999997E+02  0.45594000000E+02  0.51100000000E-03 0. -1.
    9900012    2    1    2    0    0  0.84358965847E+00 -0.21124845327E+02  0.37903205539E+02  0.47787265862E+02  0.19999976371E+02 0.  0.
         12    1    1    2    0    0 -0.84358965847E+00  0.21124845327E+02 -0.37903205539E+02  0.43400734138E+02  0.00000000000E+00 0. -1.
         11    1    3    3    0    0  0.57162763621E+00 -0.12179203461E+02  0.72089675963E+01  0.14164355586E+02  0.51100000000E-03 0. -1.
        -11    1    3    3    0    0  0.47103015676E+01 -0.57783274723E+01  0.11800116050E+02  0.13957748683E+02  0.51100000000E-03 0.  1.
         12    1    3    3    0    0 -0.44383395454E+01 -0.31673143933E+01  0.18894121893E+02  0.19665161593E+02  0.00000000000E+00 0. -1.
</event>
<event>
 7    1  0.4818508E-009  0.4778728E+02  0.7816164E-02  0.1312668E+00
        -11   -1    0    0    0    0  0.00000000000E+00  0.00000000000E+00  0.45593999997E+02  0.45594000000E+02  0.51100000000E-03 0. -1.
         11   -1    0    0    0    0 -0.00000000000E+00 -0.00000000000E+00 -0.45593999997E+02  0.45594000000E+02  0.51100000000E-03 0.  1.
    9900012    2    1    2    0    0  0.14210945284E+02  0.14132086189E+02 -0.38496174788E+02  0.47787282273E+02  0.20000051195E+02 0.  0.
         12    1    1    2    0    0 -0.14210945284E+02 -0.14132086189E+02  0.38496174788E+02  0.43400717727E+02  0.00000000000E+00 0. -1.
         11    1    3    3    0    0  0.17876270582E+01  0.13722706272E-01  0.94317327436E+00  0.20212310354E+01  0.51100000000E-03 0. -1.
        -11    1    3    3    0    0  0.14602638080E+02  0.14788240218E+02 -0.33735254779E+02  0.39623181382E+02  0.51100000000E-03 0.  1.
        -12    1    3    3    0    0 -0.21793198538E+01 -0.66987673504E+00 -0.57040932837E+01  0.61428698549E+01  0.00000000000E+00 0.  1.
</event>
<event>
 7    1  0.4818508E-009  0.4778727E+02  0.7816164E-02  0.1312668E+00
        -11   -1    0    0    0    0  0.00000000000E+00  0.00000000000E+00  0.45593999997E+02  0.45594000000E+02  0.51100000000E-03 0.  1.
         11   -1    0    0    0    0 -0.00000000000E+00 -0.00000000000E+00 -0.45593999997E+02  0.45594000000E+02  0.51100000000E-03 0. -1.
    9900012    2    1    2    0    0 -0.22155385364E-01 -0.42884209985E+02  0.66758635446E+01  0.47787272921E+02  0.20000008557E+02 0.  0.
         12    1    1    2    0    0  0.22155385364E-01  0.42884209985E+02 -0.66758635446E+01  0.43400727079E+02  0.00000000000E+00 0. -1.
         11    1    3    3    0    0  0.77427110934E+01 -0.16019294428E+02  0.63980831480E+01  0.18907745431E+02  0.51100000000E-03 0. -1.
        -11    1    3    3    0    0 -0.66953149229E+01 -0.17794623027E+02  0.32219224899E+01  0.19283584610E+02  0.51100000000E-03 0.  1.
        -12    1    3    3    0    0 -0.10695515559E+01 -0.90702925296E+01 -0.29441420933E+01  0.95959428807E+01  0.00000000000E+00 0.  1.
</event>
<event>
 7    1  0.4818508E-009  0.4778727E+02  0.7816164E-02  0.1312668E+00
        -11   -1    0    0    0    0  0.00000000000E+00  0.00000000000E+00  0.45593999997E+02  0.45594000000E+02  0.51100000000E-03 0.  1.
         11   -1    0    0    0    0 -0.00000000000E+00 -0.00000000000E+00 -0.45593999997E+02  0.45594000000E+02  0.51100000000E-03 0. -1.
    9900012    2    1    2    0    0 -0.18282518384E+02  0.11706412748E+02  0.37581017299E+02  0.47787269140E+02  0.19999991318E+02 0.  0.
         12    1    1    2    0    0  0.18282518384E+02 -0.11706412748E+02 -0.37581017299E+02  0.43400730860E+02  0.00000000000E+00 0. -1.
         11    1    3    3    0    0  0.66184629031E+00  0.96682260144E+01  0.95801073841E+01  0.13626851894E+02  0.51100000000E-03 0. -1.
        -11    1    3    3    0    0 -0.18199767825E+02  0.15122816687E+01  0.24590242074E+02  0.30630026939E+02  0.51100000000E-03 0.  1.
        -12    1    3    3    0    0 -0.74459684990E+00  0.52590506527E+00  0.34106678409E+01  0.35303903081E+01  0.00000000000E+00 0.  1.
</event>
<event>
 7    1  0.4818508E-009  0.4778727E+02  0.7816164E-02  0.1312668E+00
        -11   -1    0    0    0    0  0.00000000000E+00  0.00000000000E+00  0.45593999997E+02  0.45594000000E+02  0.51100000000E-03 0. -1.
         11   -1    0    0    0    0 -0.00000000000E+00 -0.00000000000E+00 -0.45593999997E+02  0.45594000000E+02  0.51100000000E-03 0.  1.
    9900012    2    1    2    0    0  0.14809613639E+02  0.34327811453E+02 -0.22043143399E+02  0.47787268829E+02  0.19999989899E+02 0.  0.
         12    1    1    2    0    0 -0.14809613639E+02 -0.34327811453E+02  0.22043143399E+02  0.43400731171E+02  0.00000000000E+00 0. -1.
         11    1    3    3    0    0  0.11245137320E+01  0.23428268026E+02 -0.10087160684E+02  0.25532314520E+02  0.51100000000E-03 0. -1.
        -11    1    3    3    0    0  0.88994357645E+00  0.39042757433E+01 -0.39250480146E+01  0.56072605457E+01  0.51100000000E-03 0.  1.
         12    1    3    3    0    0  0.12795156330E+02  0.69952676839E+01 -0.80309346997E+01  0.16647693763E+02  0.00000000000E+00 0. -1.
</event>
<event>
 7    1  0.4818508E-009  0.4778727E+02  0.7816164E-02  0.1312668E+00
        -11   -1    0    0    0    0  0.00000000000E+00  0.00000000000E+00  0.45593999997E+02  0.45594000000E+02  0.51100000000E-03 0.  1.
         11   -1    0    0    0    0 -0.00000000000E+00 -0.00000000000E+00 -0.45593999997E+02  0.45594000000E+02  0.51100000000E-03 0. -1.
    9900012    2    1    2    0    0 -0.82444354607E+01  0.21858699150E+01  0.42554372105E+02  0.47787270414E+02  0.19999997127E+02 0.  0.
         12    1    1    2    0    0  0.82444354607E+01 -0.21858699150E+01 -0.42554372105E+02  0.43400729586E+02  0.00000000000E+00 0. -1.
         11    1    3    3    0    0 -0.10804781225E+02 -0.24843592343E+01  0.28880694058E+02  0.30935575438E+02  0.51100000000E-03 0. -1.
        -11    1    3    3    0    0 -0.17584210450E+01 -0.14493429454E+01  0.41617719479E+01  0.47447850902E+01  0.51100000000E-03 0.  1.
         12    1    3    3    0    0  0.43187668090E+01  0.61195720947E+01  0.95119060985E+01  0.12106909887E+02  0.00000000000E+00 0. -1.
</event>
<event>
 7    1  0.4818508E-009  0.4778727E+02  0.7816164E-02  0.1312668E+00
        -11   -1    0    0    0    0  0.00000000000E+00  0.00000000000E+00  0.45593999997E+02  0.45594000000E+02  0.51100000000E-03 0.  1.
         11   -1    0    0    0    0 -0.00000000000E+00 -0.00000000000E+00 -0.45593999997E+02  0.45594000000E+02  0.51100000000E-03 0. -1.
    9900012    2    1    2    0    0 -0.17000972529E+01 -0.17925631144E+02  0.39489302843E+02  0.47787267038E+02  0.19999981734E+02 0.  0.
         12    1    1    2    0    0  0.17000972529E+01  0.17925631144E+02 -0.39489302843E+02  0.43400732962E+02  0.00000000000E+00 0. -1.
         11    1    3    3    0    0 -0.64328979006E+01 -0.15979265724E+02  0.20669486795E+02  0.26906259366E+02  0.51100000000E-03 0. -1.
        -11    1    3    3    0    0  0.54402005671E+01 -0.27091651743E+01  0.18884828974E+02  0.19838652267E+02  0.51100000000E-03 0.  1.
        -12    1    3    3    0    0 -0.70739991940E+00  0.76279975336E+00 -0.65012925493E-01  0.10423554049E+01  0.00000000000E+00 0.  1.
</event>
<event>
 7    1  0.4818508E-009  0.4778727E+02  0.7816164E-02  0.1312668E+00
        -11   -1    0    0    0    0  0.00000000000E+00  0.00000000000E+00  0.45593999997E+02  0.45594000000E+02  0.51100000000E-03 0. -1.
         11   -1    0    0    0    0 -0.00000000000E+00 -0.00000000000E+00 -0.45593999997E+02  0.45594000000E+02  0.51100000000E-03 0.  1.
    9900012    2    1    2    0    0  0.75855971629E+01 -0.36703220412E+02 -0.21885064037E+02  0.47787266126E+02  0.19999977573E+02 0.  0.
         12    1    1    2    0    0 -0.75855971629E+01  0.36703220412E+02  0.21885064037E+02  0.43400733874E+02  0.00000000000E+00 0. -1.
         11    1    3    3    0    0 -0.31983369821E+00  0.18774326855E-01 -0.67717688984E+01  0.67793436514E+01  0.51100000000E-03 0. -1.
        -11    1    3    3    0    0  0.52634531396E+01 -0.18170888099E+02 -0.10785266872E+02  0.21776296632E+02  0.51100000000E-03 0.  1.
         12    1    3    3    0    0  0.26419777216E+01 -0.18551106640E+02 -0.43280282667E+01  0.19231625842E+02  0.00000000000E+00 0. -1.
</event>
<event>
 7    1  0.4818508E-009  0.4778727E+02  0.7816164E-02  0.1312668E+00
        -11   -1    0    0    0    0  0.00000000000E+00  0.00000000000E+00  0.45593999997E+02  0.45594000000E+02  0.51100000000E-03 0.  1.
         11   -1    0    0    0    0 -0.00000000000E+00 -0.00000000000E+00 -0.45593999997E+02  0.45594000000E+02  0.51100000000E-03 0. -1.
    9900012    2    1    2    0    0  0.24585805820E+02  0.31140886915E+02  0.17589955932E+02  0.47787271488E+02  0.20000002023E+02 0.  0.
         12    1    1    2    0    0 -0.24585805820E+02 -0.31140886915E+02 -0.17589955932E+02  0.43400728512E+02  0.00000000000E+00 0. -1.
         11    1    3    3    0    0 -0.81146582204E+00 -0.42234742596E-01 -0.57387926118E+00  0.99478551525E+00  0.51100000000E-03 0. -1.
        -11    1    3    3    0    0  0.11133322824E+01  0.11140429730E+02  0.19090553882E+01  0.11357516282E+02  0.51100000000E-03 0.  1.
        -12    1    3    3    0    0  0.24283939360E+02  0.20042691927E+02  0.16254779805E+02  0.35434969691E+02  0.00000000000E+00 0.  1.
</event>
<event>
 7    1  0.4818508E-009  0.4778726E+02  0.7816164E-02  0.1312668E+00
        -11   -1    0    0    0    0  0.00000000000E+00  0.00000000000E+00  0.45593999997E+02  0.45594000000E+02  0.51100000000E-03 0. -1.
         11   -1    0    0    0    0 -0.00000000000E+00 -0.00000000000E+00 -0.45593999997E+02  0.45594000000E+02  0.51100000000E-03 0.  1.
    9900012    2    1    2    0    0  0.19108846796E+02 -0.32293840370E+02 -0.21807884585E+02  0.47787262889E+02  0.19999962817E+02 0.  0.
         12    1    1    2    0    0 -0.19108846796E+02  0.32293840370E+02  0.21807884585E+02  0.43400737111E+02  0.00000000000E+00 0. -1.
         11    1    3    3    0    0 -0.14425674785E+01 -0.16422664052E+01 -0.13168110716E+01  0.25518682440E+01  0.51100000000E-03 0. -1.
        -11    1    3    3    0    0  0.17175184494E+02 -0.31628521010E+02 -0.21022242418E+02  0.41680750716E+02  0.51100000000E-03 0.  1.
        -12    1    3    3    0    0  0.33762297805E+01  0.97694704517E+00  0.53116890485E+00  0.35546439295E+01  0.00000000000E+00 0.  1.
</event>
<event>
 7    1  0.4818508E-009  0.4778727E+02  0.7816164E-02  0.1312668E+00
        -11   -1    0    0    0    0  0.00000000000E+00  0.00000000000E+00  0.45593999997E+02  0.45594000000E+02  0.51100000000E-03 0.  1.
         11   -1    0    0    0    0 -0.00000000000E+00 -0.00000000000E+00 -0.45593999997E+02  0.45594000000E+02  0.51100000000E-03 0. -1.
    9900012    2    1    2    0    0 -0.28546461310E+02 -0.22508726071E+02  0.23708231965E+02  0.47787268836E+02  0.19999989931E+02 0.  0.
         12    1    1    2    0    0  0.28546461310E+02  0.22508726071E+02 -0.23708231965E+02  0.43400731164E+02  0.00000000000E+00 0. -1.
         11    1    3    3    0    0  0.73487993856E-01 -0.41787285816E+01  0.15373998006E+01  0.44531754347E+01  0.51100000000E-03 0. -1.
        -11    1    3    3    0    0 -0.28732778224E+02 -0.14279073206E+02  0.15752871583E+02  0.35743774835E+02  0.51100000000E-03 0.  1.
        -12    1    3    3    0    0  0.11282892014E+00 -0.40509242835E+01  0.64179605815E+01  0.75903185665E+01  0.00000000000E+00 0.  1.
</event>
<event>
 7    1  0.4818508E-009  0.4778727E+02  0.7816164E-02  0.1312668E+00
        -11   -1    0    0    0    0  0.00000000000E+00  0.00000000000E+00  0.45593999997E+02  0.45594000000E+02  0.51100000000E-03 0.  1.
         11   -1    0    0    0    0 -0.00000000000E+00 -0.00000000000E+00 -0.45593999997E+02  0.45594000000E+02  0.51100000000E-03 0. -1.
    9900012    2    1    2    0    0  0.35193326259E+02 -0.23998739795E+02  0.83134588075E+01  0.47787270487E+02  0.19999997459E+02 0.  0.
         12    1    1    2    0    0 -0.35193326259E+02  0.23998739795E+02 -0.83134588075E+01  0.43400729513E+02  0.00000000000E+00 0. -1.
         11    1    3    3    0    0  0.20956143181E-01  0.44334235381E+00  0.73742808824E+00  0.86069277276E+00  0.51100000000E-03 0. -1.
        -11    1    3    3    0    0  0.23161965442E+02 -0.54422825287E+01  0.48778512221E+01  0.24287620613E+02  0.51100000000E-03 0.  1.
        -12    1    3    3    0    0  0.12010404674E+02 -0.18999799620E+02  0.26981794972E+01  0.22638957101E+02  0.00000000000E+00 0.  1.
</event>
<event>
 7    1  0.4818508E-009  0.4778727E+02  0.7816164E-02  0.1312668E+00
        -11   -1    0    0    0    0  0.00000000000E+00  0.00000000000E+00  0.45593999997E+02  0.45594000000E+02  0.51100000000E-03 0. -1.
         11   -1    0    0    0    0 -0.00000000000E+00 -0.00000000000E+00 -0.45593999997E+02  0.45594000000E+02  0.51100000000E-03 0.  1.
    9900012    2    1    2    0    0 -0.23726980975E+02 -0.22951871305E+02  0.28175615009E+02  0.47787270701E+02  0.19999998432E+02 0.  0.
         12    1    1    2    0    0  0.23726980975E+02  0.22951871305E+02 -0.28175615009E+02  0.43400729299E+02  0.00000000000E+00 0. -1.
         11    1    3    3    0    0 -0.57352961395E+01 -0.92943865677E+01  0.20592826207E+02  0.23309734767E+02  0.51100000000E-03 0. -1.
        -11    1    3    3    0    0 -0.15554442559E+02 -0.99169592731E+01  0.43147798346E+01  0.18944764180E+02  0.51100000000E-03 0.  1.
        -12    1    3    3    0    0 -0.24372422762E+01 -0.37405254640E+01  0.32680089680E+01  0.55327717533E+01  0.00000000000E+00 0.  1.
</event>
<event>
 7    1  0.4818508E-009  0.4778727E+02  0.7816164E-02  0.1312668E+00
        -11   -1    0    0    0    0  0.00000000000E+00  0.00000000000E+00  0.45593999997E+02  0.45594000000E+02  0.51100000000E-03 0.  1.
         11   -1    0    0    0    0 -0.00000000000E+00 -0.00000000000E+00 -0.45593999997E+02  0.45594000000E+02  0.51100000000E-03 0. -1.
    9900012    2    1    2    0    0 -0.31023889960E+02  0.16500932280E+02  0.25472745809E+02  0.47787270819E+02  0.19999998974E+02 0.  0.
         12    1    1    2    0    0  0.31023889960E+02 -0.16500932280E+02 -0.25472745809E+02  0.43400729181E+02  0.00000000000E+00 0. -1.
         11    1    3    3    0    0 -0.21375841834E+01  0.33946930543E+00  0.10773034752E+02  0.10988302124E+02  0.51100000000E-03 0. -1.
        -11    1    3    3    0    0 -0.22069345190E+02  0.12824419156E+02  0.14160920781E+02  0.29189953776E+02  0.51100000000E-03 0.  1.
         12    1    3    3    0    0 -0.68169605869E+01  0.33370438180E+01  0.53879027644E+00  0.76090149197E+01  0.00000000000E+00 0. -1.
</event>
<event>
 7    1  0.4818508E-009  0.4778727E+02  0.7816164E-02  0.1312668E+00
        -11   -1    0    0    0    0  0.00000000000E+00  0.00000000000E+00  0.45593999997E+02  0.45594000000E+02  0.51100000000E-03 0.  1.
         11   -1    0    0    0    0 -0.00000000000E+00 -0.00000000000E+00 -0.45593999997E+02  0.45594000000E+02  0.51100000000E-03 0. -1.
    9900012    2    1    2    0    0  0.98347602718E+01 -0.63755958940E+01  0.41788182946E+02  0.47787274585E+02  0.20000016144E+02 0.  0.
         12    1    1    2    0    0 -0.98347602718E+01  0.63755958940E+01 -0.41788182946E+02  0.43400725415E+02  0.00000000000E+00 0. -1.
         11    1    3    3    0    0 -0.35487193934E+01 -0.35776446009E+01  0.21286774021E+02  0.21875093113E+02  0.51100000000E-03 0. -1.
        -11    1    3    3    0    0  0.39647207930E+01  0.82618723720E+00  0.12168049663E+02  0.12824313985E+02  0.51100000000E-03 0.  1.
         12    1    3    3    0    0  0.94187588722E+01 -0.36241385303E+01  0.83333592614E+01  0.13087867487E+02  0.00000000000E+00 0. -1.
</event>
<event>
 7    1  0.4818508E-009  0.4778727E+02  0.7816164E-02  0.1312668E+00
        -11   -1    0    0    0    0  0.00000000000E+00  0.00000000000E+00  0.45593999997E+02  0.45594000000E+02  0.51100000000E-03 0.  1.
         11   -1    0    0    0    0 -0.00000000000E+00 -0.00000000000E+00 -0.45593999997E+02  0.45594000000E+02  0.51100000000E-03 0. -1.
    9900012    2    1    2    0    0 -0.25590616471E+02 -0.90259517048E+01  0.33871457488E+02  0.47787273187E+02  0.20000009771E+02 0.  0.
         12    1    1    2    0    0  0.25590616471E+02  0.90259517048E+01 -0.33871457488E+02  0.43400726813E+02  0.00000000000E+00 0. -1.
         11    1    3    3    0    0 -0.79772439243E+01 -0.69569055820E+01  0.27291814682E+01  0.10930845697E+02  0.51100000000E-03 0. -1.
        -11    1    3    3    0    0 -0.17913937005E+02 -0.32737381005E+01  0.30315856343E+02  0.35364921126E+02  0.51100000000E-03 0.  1.
        -12    1    3    3    0    0  0.30056445823E+00  0.12046919778E+01  0.82641967647E+00  0.14915063649E+01  0.00000000000E+00 0.  1.
</event>
<event>
 7    1  0.4818508E-009  0.4778727E+02  0.7816164E-02  0.1312668E+00
        -11   -1    0    0    0    0  0.00000000000E+00  0.00000000000E+00  0.45593999997E+02  0.45594000000E+02  0.51100000000E-03 0. -1.
         11   -1    0    0    0    0 -0.00000000000E+00 -0.00000000000E+00 -0.45593999997E+02  0.45594000000E+02  0.51100000000E-03 0.  1.
    9900012    2    1    2    0    0  0.35314818440E+02  0.82418713089E+01 -0.23844464638E+02  0.47787270306E+02  0.19999996634E+02 0.  0.
         12    1    1    2    0    0 -0.35314818440E+02 -0.82418713089E+01  0.23844464638E+02  0.43400729694E+02  0.00000000000E+00 0. -1.
         11    1    3    3    0    0  0.27003477383E+01 -0.50329272757E+01 -0.20622668644E+01  0.60724937012E+01  0.51100000000E-03 0. -1.
        -11    1    3    3    0    0  0.25306328215E+02  0.12349606389E+02 -0.16343807582E+02  0.32558302662E+02  0.51100000000E-03 0.  1.
         12    1    3    3    0    0  0.73081424860E+01  0.92519219579E+00 -0.54383901915E+01  0.91564739431E+01  0.00000000000E+00 0. -1.
</event>
<event>
 7    1  0.4818508E-009  0.4778727E+02  0.7816164E-02  0.1312668E+00
        -11   -1    0    0    0    0  0.00000000000E+00  0.00000000000E+00  0.45593999997E+02  0.45594000000E+02  0.51100000000E-03 0.  1.
         11   -1    0    0    0    0 -0.00000000000E+00 -0.00000000000E+00 -0.45593999997E+02  0.45594000000E+02  0.51100000000E-03 0. -1.
    9900012    2    1    2    0    0 -0.42001410310E+02  0.10924086530E+02 -0.41121846995E+00  0.47787271490E+02  0.20000002031E+02 0.  0.
         12    1    1    2    0    0  0.42001410310E+02 -0.10924086530E+02  0.41121846995E+00  0.43400728510E+02  0.00000000000E+00 0. -1.
         11    1    3    3    0    0  0.17908848377E+00  0.29760000811E+01 -0.27514292588E+01  0.40569708398E+01  0.51100000000E-03 0. -1.
        -11    1    3    3    0    0 -0.23711407580E+02  0.60204608621E+00  0.25246775047E+01  0.23853035566E+02  0.51100000000E-03 0.  1.
         12    1    3    3    0    0 -0.18469091214E+02  0.73460403625E+01 -0.18446671587E+00  0.19877265085E+02  0.00000000000E+00 0. -1.
</event>
<event>
 7    1  0.4818508E-009  0.4778727E+02  0.7816164E-02  0.1312668E+00
        -11   -1    0    0    0    0  0.00000000000E+00  0.00000000000E+00  0.45593999997E+02  0.45594000000E+02  0.51100000000E-03 0.  1.
         11   -1    0    0    0    0 -0.00000000000E+00 -0.00000000000E+00 -0.45593999997E+02  0.45594000000E+02  0.51100000000E-03 0. -1.
    9900012    2    1    2    0    0  0.41150169683E+00  0.27741773184E+02  0.33374363427E+02  0.47787269048E+02  0.19999990897E+02 0.  0.
         12    1    1    2    0    0 -0.41150169683E+00 -0.27741773184E+02 -0.33374363427E+02  0.43400730952E+02  0.00000000000E+00 0. -1.
         11    1    3    3    0    0  0.61452717527E+00 -0.17374722118E+01  0.71134704315E+01  0.73483273727E+01  0.51100000000E-03 0. -1.
        -11    1    3    3    0    0 -0.29631921968E+01  0.22328178891E+02  0.15988066997E+02  0.27621483797E+02  0.51100000000E-03 0.  1.
        -12    1    3    3    0    0  0.27601667184E+01  0.71510665051E+01  0.10272825998E+02  0.12817457878E+02  0.00000000000E+00 0.  1.
</event>
<event>
 7    1  0.4818508E-009  0.4778728E+02  0.7816164E-02  0.1312668E+00
        -11   -1    0    0    0    0  0.00000000000E+00  0.00000000000E+00  0.45593999997E+02  0.45594000000E+02  0.51100000000E-03 0.  1.
         11   -1    0    0    0    0 -0.00000000000E+00 -0.00000000000E+00 -0.45593999997E+02  0.45594000000E+02  0.51100000000E-03 0. -1.
    9900012    2    1    2    0    0 -0.10572301363E+02  0.14979458356E+02  0.39337827543E+02  0.47787281059E+02  0.20000045661E+02 0.  0.
         12    1    1    2    0    0  0.10572301363E+02 -0.14979458356E+02 -0.39337827543E+02  0.43400718941E+02  0.00000000000E+00 0. -1.
         11    1    3    3    0    0 -0.20595867439E+01 -0.33948830354E+01  0.27428481939E+01  0.48260071339E+01  0.51100000000E-03 0. -1.
        -11    1    3    3    0    0 -0.31586398118E+01  0.26797094019E+01  0.15960365045E+02  0.16489120673E+02  0.51100000000E-03 0.  1.
         12    1    3    3    0    0 -0.53540748074E+01  0.15694631990E+02  0.20634614305E+02  0.26472153253E+02  0.00000000000E+00 0. -1.
</event>
<event>
 7    1  0.4818508E-009  0.4778727E+02  0.7816164E-02  0.1312668E+00
        -11   -1    0    0    0    0  0.00000000000E+00  0.00000000000E+00  0.45593999997E+02  0.45594000000E+02  0.51100000000E-03 0. -1.
         11   -1    0    0    0    0 -0.00000000000E+00 -0.00000000000E+00 -0.45593999997E+02  0.45594000000E+02  0.51100000000E-03 0.  1.
    9900012    2    1    2    0    0  0.40905303722E+02  0.14498867308E+02  0.40282887319E+00  0.47787270779E+02  0.19999998789E+02 0.  0.
         12    1    1    2    0    0 -0.40905303722E+02 -0.14498867308E+02 -0.40282887319E+00  0.43400729221E+02  0.00000000000E+00 0. -1.
         11    1    3    3    0    0  0.10137855002E+02 -0.18552528467E+01  0.12166014034E+01  0.10377773673E+02  0.51100000000E-03 0. -1.
        -11    1    3    3    0    0  0.22231251165E+02  0.13824934727E+02 -0.63330896983E+01  0.26934464427E+02  0.51100000000E-03 0.  1.
        -12    1    3    3    0    0  0.85361975552E+01  0.25291854271E+01  0.55193171680E+01  0.10475032679E+02  0.00000000000E+00 0.  1.
</event>
<event>
 7    1  0.4818508E-009  0.4778727E+02  0.7816164E-02  0.1312668E+00
        -11   -1    0    0    0    0  0.00000000000E+00  0.00000000000E+00  0.45593999997E+02  0.45594000000E+02  0.51100000000E-03 0. -1.
         11   -1    0    0    0    0 -0.00000000000E+00 -0.00000000000E+00 -0.45593999997E+02  0.45594000000E+02  0.51100000000E-03 0.  1.
    9900012    2    1    2    0    0 -0.36034279513E+00  0.42241075378E+02 -0.99591673662E+01  0.47787270620E+02  0.19999998066E+02 0.  0.
         12    1    1    2    0    0  0.36034279513E+00 -0.42241075378E+02  0.99591673662E+01  0.43400729380E+02  0.00000000000E+00 0. -1.
         11    1    3    3    0    0 -0.76074500457E+01  0.85470160711E+01  0.33108513541E+00  0.11447025707E+02  0.51100000000E-03 0. -1.
        -11    1    3    3    0    0  0.59562733033E+00  0.50697768361E+01  0.27434624584E+00  0.51120128334E+01  0.51100000000E-03 0.  1.
         12    1    3    3    0    0  0.66514799203E+01  0.28624282471E+02 -0.10564598747E+02  0.31228232080E+02  0.00000000000E+00 0. -1.
</event>
<event>
 7    1  0.4818508E-009  0.4778727E+02  0.7816164E-02  0.1312668E+00
        -11   -1    0    0    0    0  0.00000000000E+00  0.00000000000E+00  0.45593999997E+02  0.45594000000E+02  0.51100000000E-03 0.  1.
         11   -1    0    0    0    0 -0.00000000000E+00 -0.00000000000E+00 -0.45593999997E+02  0.45594000000E+02  0.51100000000E-03 0. -1.
    9900012    2    1    2    0    0 -0.31351191225E+02 -0.22066642855E+02  0.20341810015E+02  0.47787272439E+02  0.20000006358E+02 0.  0.
         12    1    1    2    0    0  0.31351191225E+02  0.22066642855E+02 -0.20341810015E+02  0.43400727561E+02  0.00000000000E+00 0. -1.
         11    1    3    3    0    0 -0.14705009923E+02 -0.56164914659E+01  0.66587755572E+01  0.17091564744E+02  0.51100000000E-03 0. -1.
        -11    1    3    3    0    0 -0.62644481908E+01 -0.14739225408E+02  0.42622397537E+01  0.16572711449E+02  0.51100000000E-03 0.  1.
        -12    1    3    3    0    0 -0.10381733111E+02 -0.17109259808E+01  0.94207947046E+01  0.14122996246E+02  0.00000000000E+00 0.  1.
</event>
<event>
 7    1  0.4818508E-009  0.4778727E+02  0.7816164E-02  0.1312668E+00
        -11   -1    0    0    0    0  0.00000000000E+00  0.00000000000E+00  0.45593999997E+02  0.45594000000E+02  0.51100000000E-03 0.  1.
         11   -1    0    0    0    0 -0.00000000000E+00 -0.00000000000E+00 -0.45593999997E+02  0.45594000000E+02  0.51100000000E-03 0. -1.
    9900012    2    1    2    0    0 -0.25888908723E+02 -0.13303980766E+02  0.32193041916E+02  0.47787269051E+02  0.19999990912E+02 0.  0.
         12    1    1    2    0    0  0.25888908723E+02  0.13303980766E+02 -0.32193041916E+02  0.43400730949E+02  0.00000000000E+00 0. -1.
         11    1    3    3    0    0 -0.39716353316E+01 -0.49974411889E+01  0.57217155450E+01  0.85724170853E+01  0.51100000000E-03 0. -1.
        -11    1    3    3    0    0 -0.13200373334E+02 -0.78227325856E+01  0.26340118227E+02  0.30483550150E+02  0.51100000000E-03 0.  1.
        -12    1    3    3    0    0 -0.87169000581E+01 -0.48380699141E+00  0.13120814327E+00  0.87313018161E+01  0.00000000000E+00 0.  1.
</event>
<event>
 7    1  0.4818508E-009  0.4778728E+02  0.7816164E-02  0.1312668E+00
        -11   -1    0    0    0    0  0.00000000000E+00  0.00000000000E+00  0.45593999997E+02  0.45594000000E+02  0.51100000000E-03 0. -1.
         11   -1    0    0    0    0 -0.00000000000E+00 -0.00000000000E+00 -0.45593999997E+02  0.45594000000E+02  0.51100000000E-03 0.  1.
    9900012    2    1    2    0    0  0.28365020570E+02  0.32464495885E+02  0.50104588459E+01  0.47787279006E+02  0.20000036298E+02 0.  0.
         12    1    1    2    0    0 -0.28365020570E+02 -0.32464495885E+02 -0.50104588459E+01  0.43400720994E+02  0.00000000000E+00 0. -1.
         11    1    3    3    0    0 -0.14987560728E+01  0.87710984627E+00  0.36934458568E+01  0.40813152300E+01  0.51100000000E-03 0. -1.
        -11    1    3    3    0    0  0.23609142329E+02  0.22438306466E+02  0.24912612592E+00  0.32571939805E+02  0.51100000000E-03 0.  1.
         12    1    3    3    0    0  0.62546343136E+01  0.91490795729E+01  0.10678868632E+01  0.11134023971E+02  0.00000000000E+00 0. -1.
</event>
<event>
 7    1  0.4818508E-009  0.4778725E+02  0.7816164E-02  0.1312668E+00
        -11   -1    0    0    0    0  0.00000000000E+00  0.00000000000E+00  0.45593999997E+02  0.45594000000E+02  0.51100000000E-03 0. -1.
         11   -1    0    0    0    0 -0.00000000000E+00 -0.00000000000E+00 -0.45593999997E+02  0.45594000000E+02  0.51100000000E-03 0.  1.
    9900012    2    1    2    0    0 -0.15959716664E+02 -0.28228150787E+02 -0.28845864191E+02  0.47787251922E+02  0.19999912811E+02 0.  0.
         12    1    1    2    0    0  0.15959716664E+02  0.28228150787E+02  0.28845864191E+02  0.43400748078E+02  0.00000000000E+00 0. -1.
         11    1    3    3    0    0 -0.83248882115E+00 -0.12629281887E+02 -0.17730890322E+02  0.21784771527E+02  0.51100000000E-03 0. -1.
        -11    1    3    3    0    0 -0.11583715740E+02 -0.14826884457E+02 -0.11938757988E+02  0.22283467315E+02  0.51100000000E-03 0.  1.
         12    1    3    3    0    0 -0.35435121032E+01 -0.77198444325E+00  0.82378411935E+00  0.37190130790E+01  0.00000000000E+00 0. -1.
</event>
<event>
 7    1  0.4818508E-009  0.4778728E+02  0.7816164E-02  0.1312668E+00
        -11   -1    0    0    0    0  0.00000000000E+00  0.00000000000E+00  0.45593999997E+02  0.45594000000E+02  0.51100000000E-03 0.  1.
         11   -1    0    0    0    0 -0.00000000000E+00 -0.00000000000E+00 -0.45593999997E+02  0.45594000000E+02  0.51100000000E-03 0. -1.
    9900012    2    1    2    0    0  0.19495742903E+01  0.41792524209E+02  0.11541510632E+02  0.47787281258E+02  0.20000046568E+02 0.  0.
         12    1    1    2    0    0 -0.19495742903E+01 -0.41792524209E+02 -0.11541510632E+02  0.43400718742E+02  0.00000000000E+00 0. -1.
         11    1    3    3    0    0 -0.28692485343E+01  0.17958017167E+02  0.13045835206E+02  0.22381170304E+02  0.51100000000E-03 0. -1.
        -11    1    3    3    0    0  0.54025832702E+01  0.16546688796E+02 -0.36534460659E+01  0.17785625784E+02  0.51100000000E-03 0.  1.
        -12    1    3    3    0    0 -0.58376044549E+00  0.72878182453E+01  0.21491214918E+01  0.76204851696E+01  0.00000000000E+00 0.  1.
</event>
<event>
 7    1  0.4818508E-009  0.4778726E+02  0.7816164E-02  0.1312668E+00
        -11   -1    0    0    0    0  0.00000000000E+00  0.00000000000E+00  0.45593999997E+02  0.45594000000E+02  0.51100000000E-03 0.  1.
         11   -1    0    0    0    0 -0.00000000000E+00 -0.00000000000E+00 -0.45593999997E+02  0.45594000000E+02  0.51100000000E-03 0. -1.
    9900012    2    1    2    0    0 -0.95321400523E+01  0.36666926593E+02  0.21173075440E+02  0.47787258954E+02  0.19999944875E+02 0.  0.
         12    1    1    2    0    0  0.95321400523E+01 -0.36666926593E+02 -0.21173075440E+02  0.43400741046E+02  0.00000000000E+00 0. -1.
         11    1    3    3    0    0 -0.28836677987E+01  0.11710265204E+00 -0.87306135591E+00  0.30152096771E+01  0.51100000000E-03 0.  1.
        -11    1    3    3    0    0 -0.81684990939E+01  0.29136363783E+02  0.12883386492E+02  0.32888200311E+02  0.51100000000E-03 0. -1.
        -12    1    3    3    0    0  0.15200268403E+01  0.74134601580E+01  0.91627503037E+01  0.11883848966E+02  0.00000000000E+00 0.  1.
</event>
<event>
 7    1  0.4818508E-009  0.4778727E+02  0.7816164E-02  0.1312668E+00
        -11   -1    0    0    0    0  0.00000000000E+00  0.00000000000E+00  0.45593999997E+02  0.45594000000E+02  0.51100000000E-03 0.  1.
         11   -1    0    0    0    0 -0.00000000000E+00 -0.00000000000E+00 -0.45593999997E+02  0.45594000000E+02  0.51100000000E-03 0. -1.
    9900012    2    1    2    0    0  0.35248041146E+02 -0.24918939191E+02  0.44994536369E+01  0.47787273991E+02  0.20000013437E+02 0.  0.
         12    1    1    2    0    0 -0.35248041146E+02  0.24918939191E+02 -0.44994536369E+01  0.43400726009E+02  0.00000000000E+00 0. -1.
         11    1    3    3    0    0 -0.15984236637E+01 -0.28500882193E+01 -0.16031872347E+01  0.36398036537E+01  0.51100000000E-03 0. -1.
        -11    1    3    3    0    0  0.26603118836E+02 -0.19894843864E+02  0.53665938035E+01  0.33650127392E+02  0.51100000000E-03 0.  1.
         12    1    3    3    0    0  0.10243345974E+02 -0.21740071081E+01  0.73604706812E+00  0.10497342946E+02  0.00000000000E+00 0. -1.
</event>
<event>
 7    1  0.4818508E-009  0.4778725E+02  0.7816164E-02  0.1312668E+00
        -11   -1    0    0    0    0  0.00000000000E+00  0.00000000000E+00  0.45593999997E+02  0.45594000000E+02  0.51100000000E-03 0. -1.
         11   -1    0    0    0    0 -0.00000000000E+00 -0.00000000000E+00 -0.45593999997E+02  0.45594000000E+02  0.51100000000E-03 0.  1.
    9900012    2    1    2    0    0 -0.22017060705E+02  0.29369316884E+02 -0.23158521882E+02  0.47787252632E+02  0.19999916051E+02 0.  0.
         12    1    1    2    0    0  0.22017060705E+02 -0.29369316884E+02  0.23158521882E+02  0.43400747368E+02  0.00000000000E+00 0. -1.
         11    1    3    3    0    0 -0.18108337279E+01  0.56261986616E+01 -0.14237238031E+01  0.60794917467E+01  0.51100000000E-03 0. -1.
        -11    1    3    3    0    0 -0.46929984502E+00  0.99162213645E+01 -0.12352877584E+02  0.15847563641E+02  0.51100000000E-03 0.  1.
        -12    1    3    3    0    0 -0.19736927132E+02  0.13826896858E+02 -0.93819204946E+01  0.25860197244E+02  0.00000000000E+00 0.  1.
</event>
<event>
 7    1  0.4818508E-009  0.4778728E+02  0.7816164E-02  0.1312668E+00
        -11   -1    0    0    0    0  0.00000000000E+00  0.00000000000E+00  0.45593999997E+02  0.45594000000E+02  0.51100000000E-03 0. -1.
         11   -1    0    0    0    0 -0.00000000000E+00 -0.00000000000E+00 -0.45593999997E+02  0.45594000000E+02  0.51100000000E-03 0.  1.
    9900012    2    1    2    0    0 -0.33537174202E+02 -0.17233573385E+02 -0.21491503047E+02  0.47787276408E+02  0.20000024456E+02 0.  0.
         12    1    1    2    0    0  0.33537174202E+02  0.17233573385E+02  0.21491503047E+02  0.43400723592E+02  0.00000000000E+00 0. -1.
         11    1    3    3    0    0 -0.70334277484E+01 -0.34999179937E-01 -0.44655552321E+01  0.83313573100E+01  0.51100000000E-03 0. -1.
        -11    1    3    3    0    0 -0.12501463786E+01  0.20897108179E+01 -0.48481304400E+01  0.54253226904E+01  0.51100000000E-03 0.  1.
        -12    1    3    3    0    0 -0.25253600075E+02 -0.19288285023E+02 -0.12177817375E+02  0.34030596408E+02  0.00000000000E+00 0.  1.
</event>
<event>
 7    1  0.4818508E-009  0.4778727E+02  0.7816164E-02  0.1312668E+00
        -11   -1    0    0    0    0  0.00000000000E+00  0.00000000000E+00  0.45593999997E+02  0.45594000000E+02  0.51100000000E-03 0.  1.
         11   -1    0    0    0    0 -0.00000000000E+00 -0.00000000000E+00 -0.45593999997E+02  0.45594000000E+02  0.51100000000E-03 0. -1.
    9900012    2    1    2    0    0  0.20932929738E+02  0.21129952431E+02  0.31606347785E+02  0.47787266625E+02  0.19999979850E+02 0.  0.
         12    1    1    2    0    0 -0.20932929738E+02 -0.21129952431E+02 -0.31606347785E+02  0.43400733375E+02  0.00000000000E+00 0. -1.
         11    1    3    3    0    0 -0.25267322914E+00  0.29442736741E+01  0.29890120456E+00  0.29701739713E+01  0.51100000000E-03 0. -1.
        -11    1    3    3    0    0  0.18604162447E+02  0.79368698614E+01  0.26142701325E+02  0.33053738009E+02  0.51100000000E-03 0.  1.
        -12    1    3    3    0    0  0.25814405204E+01  0.10248808896E+02  0.51647452555E+01  0.11763354645E+02  0.00000000000E+00 0.  1.
</event>
<event>
 7    1  0.4818508E-009  0.4778727E+02  0.7816164E-02  0.1312668E+00
        -11   -1    0    0    0    0  0.00000000000E+00  0.00000000000E+00  0.45593999997E+02  0.45594000000E+02  0.51100000000E-03 0. -1.
         11   -1    0    0    0    0 -0.00000000000E+00 -0.00000000000E+00 -0.45593999997E+02  0.45594000000E+02  0.51100000000E-03 0.  1.
    9900012    2    1    2    0    0  0.38942996057E+02 -0.11421691905E+02 -0.15382174652E+02  0.47787270918E+02  0.19999999423E+02 0.  0.
         12    1    1    2    0    0 -0.38942996057E+02  0.11421691905E+02  0.15382174652E+02  0.43400729082E+02  0.00000000000E+00 0. -1.
         11    1    3    3    0    0  0.12819710613E+02 -0.15053641284E+01 -0.19246736639E+01  0.13050496938E+02  0.51100000000E-03 0. -1.
        -11    1    3    3    0    0  0.18462852828E+01  0.34178129257E+01  0.12758551102E+00  0.38867072007E+01  0.51100000000E-03 0.  1.
        -12    1    3    3    0    0  0.24277000161E+02 -0.13334140702E+02 -0.13585086499E+02  0.30850066779E+02  0.00000000000E+00 0.  1.
</event>
<event>
 7    1  0.4818508E-009  0.4778726E+02  0.7816164E-02  0.1312668E+00
        -11   -1    0    0    0    0  0.00000000000E+00  0.00000000000E+00  0.45593999997E+02  0.45594000000E+02  0.51100000000E-03 0.  1.
         11   -1    0    0    0    0 -0.00000000000E+00 -0.00000000000E+00 -0.45593999997E+02  0.45594000000E+02  0.51100000000E-03 0. -1.
    9900012    2    1    2    0    0  0.30512519032E+01  0.42979248398E+02  0.52055838839E+01  0.47787262280E+02  0.19999960040E+02 0.  0.
         12    1    1    2    0    0 -0.30512519032E+01 -0.42979248398E+02 -0.52055838839E+01  0.43400737720E+02  0.00000000000E+00 0. -1.
         11    1    3    3    0    0 -0.11198294519E+01  0.26836176970E+02 -0.60919699166E+00  0.26866438797E+02  0.51100000000E-03 0.  1.
        -11    1    3    3    0    0 -0.22318451701E+01  0.38645582950E+01  0.54823747936E+01  0.70691143234E+01  0.51100000000E-03 0. -1.
        -12    1    3    3    0    0  0.64029265253E+01  0.12278513133E+02  0.33240608195E+00  0.13851709160E+02  0.00000000000E+00 0.  1.
</event>
<event>
 7    1  0.4818508E-009  0.4778727E+02  0.7816164E-02  0.1312668E+00
        -11   -1    0    0    0    0  0.00000000000E+00  0.00000000000E+00  0.45593999997E+02  0.45594000000E+02  0.51100000000E-03 0.  1.
         11   -1    0    0    0    0 -0.00000000000E+00 -0.00000000000E+00 -0.45593999997E+02  0.45594000000E+02  0.51100000000E-03 0. -1.
    9900012    2    1    2    0    0  0.23609036210E+02  0.34428778293E+02  0.11869947770E+02  0.47787273905E+02  0.20000013043E+02 0.  0.
         12    1    1    2    0    0 -0.23609036210E+02 -0.34428778293E+02 -0.11869947770E+02  0.43400726095E+02  0.00000000000E+00 0. -1.
         11    1    3    3    0    0  0.15509972044E+02  0.14785013816E+02  0.14866745918E+02  0.26080184064E+02  0.51100000000E-03 0. -1.
        -11    1    3    3    0    0  0.52492351325E+01  0.15808628724E+02 -0.30204454411E+01  0.16928978189E+02  0.51100000000E-03 0.  1.
         12    1    3    3    0    0  0.28498290330E+01  0.38351357538E+01  0.23647292601E-01  0.47781116523E+01  0.00000000000E+00 0. -1.
</event>
<event>
 7    1  0.4818508E-009  0.4778727E+02  0.7816164E-02  0.1312668E+00
        -11   -1    0    0    0    0  0.00000000000E+00  0.00000000000E+00  0.45593999997E+02  0.45594000000E+02  0.51100000000E-03 0.  1.
         11   -1    0    0    0    0 -0.00000000000E+00 -0.00000000000E+00 -0.45593999997E+02  0.45594000000E+02  0.51100000000E-03 0. -1.
    9900012    2    1    2    0    0  0.12917930340E+02 -0.33452131447E+02  0.24448017348E+02  0.47787267577E+02  0.19999984191E+02 0.  0.
         12    1    1    2    0    0 -0.12917930340E+02  0.33452131447E+02 -0.24448017348E+02  0.43400732423E+02  0.00000000000E+00 0. -1.
         11    1    3    3    0    0  0.18458679153E+01 -0.61828594998E+01  0.13484233915E+02  0.14948563292E+02  0.51100000000E-03 0. -1.
        -11    1    3    3    0    0  0.95840703316E+01 -0.12291366578E+02  0.32339684036E+01  0.15918248911E+02  0.51100000000E-03 0.  1.
        -12    1    3    3    0    0  0.14879920931E+01 -0.14977905369E+02  0.77298150293E+01  0.16920455375E+02  0.00000000000E+00 0.  1.
</event>
<event>
 7    1  0.4818508E-009  0.4778727E+02  0.7816164E-02  0.1312668E+00
        -11   -1    0    0    0    0  0.00000000000E+00  0.00000000000E+00  0.45593999997E+02  0.45594000000E+02  0.51100000000E-03 0.  1.
         11   -1    0    0    0    0 -0.00000000000E+00 -0.00000000000E+00 -0.45593999997E+02  0.45594000000E+02  0.51100000000E-03 0. -1.
    9900012    2    1    2    0    0 -0.32172106754E+02 -0.13841292690E+02  0.25631964913E+02  0.47787268882E+02  0.19999990139E+02 0.  0.
         12    1    1    2    0    0  0.32172106754E+02  0.13841292690E+02 -0.25631964913E+02  0.43400731118E+02  0.00000000000E+00 0. -1.
         11    1    3    3    0    0  0.54069205619E+00  0.23329129983E+01  0.36526709389E+01  0.43677037681E+01  0.51100000000E-03 0. -1.
        -11    1    3    3    0    0 -0.15913558810E+02 -0.12528102813E+02  0.11669124919E+02  0.23374413163E+02  0.51100000000E-03 0.  1.
        -12    1    3    3    0    0 -0.16799240001E+02 -0.36461028747E+01  0.10310169055E+02  0.20045151951E+02  0.00000000000E+00 0.  1.
</event>
<event>
 7    1  0.4818508E-009  0.4778727E+02  0.7816164E-02  0.1312668E+00
        -11   -1    0    0    0    0  0.00000000000E+00  0.00000000000E+00  0.45593999997E+02  0.45594000000E+02  0.51100000000E-03 0. -1.
         11   -1    0    0    0    0 -0.00000000000E+00 -0.00000000000E+00 -0.45593999997E+02  0.45594000000E+02  0.51100000000E-03 0.  1.
    9900012    2    1    2    0    0 -0.12982058700E+02 -0.28118221730E+02 -0.30404853599E+02  0.47787270009E+02  0.19999995279E+02 0.  0.
         12    1    1    2    0    0  0.12982058700E+02  0.28118221730E+02  0.30404853599E+02  0.43400729991E+02  0.00000000000E+00 0. -1.
         11    1    3    3    0    0  0.37925946925E+00 -0.31401131021E+01 -0.46762289960E-01  0.31632791549E+01  0.51100000000E-03 0. -1.
        -11    1    3    3    0    0 -0.22054178137E+01 -0.20590916893E+02 -0.18698384792E+02  0.27901242272E+02  0.51100000000E-03 0.  1.
        -12    1    3    3    0    0 -0.11155900356E+02 -0.43871917350E+01 -0.11659706517E+02  0.16722748582E+02  0.00000000000E+00 0.  1.
</event>
<event>
 7    1  0.4818508E-009  0.4778728E+02  0.7816164E-02  0.1312668E+00
        -11   -1    0    0    0    0  0.00000000000E+00  0.00000000000E+00  0.45593999997E+02  0.45594000000E+02  0.51100000000E-03 0. -1.
         11   -1    0    0    0    0 -0.00000000000E+00 -0.00000000000E+00 -0.45593999997E+02  0.45594000000E+02  0.51100000000E-03 0.  1.
    9900012    2    1    2    0    0 -0.15163960313E+02 -0.34241977629E+02 -0.21935452773E+02  0.47787276358E+02  0.20000024226E+02 0.  0.
         12    1    1    2    0    0  0.15163960313E+02  0.34241977629E+02  0.21935452773E+02  0.43400723642E+02  0.00000000000E+00 0. -1.
         11    1    3    3    0    0 -0.24183869413E+01 -0.55028639254E+01 -0.14026569291E+02  0.15260234373E+02  0.51100000000E-03 0. -1.
        -11    1    3    3    0    0 -0.55715206127E+01 -0.10229273248E+02 -0.20333816141E+01  0.11824318761E+02  0.51100000000E-03 0.  1.
         12    1    3    3    0    0 -0.71740527586E+01 -0.18509840455E+02 -0.58755018682E+01  0.20702723223E+02  0.00000000000E+00 0. -1.
</event>
<event>
 7    1  0.4818508E-009  0.4778727E+02  0.7816164E-02  0.1312668E+00
        -11   -1    0    0    0    0  0.00000000000E+00  0.00000000000E+00  0.45593999997E+02  0.45594000000E+02  0.51100000000E-03 0.  1.
         11   -1    0    0    0    0 -0.00000000000E+00 -0.00000000000E+00 -0.45593999997E+02  0.45594000000E+02  0.51100000000E-03 0. -1.
    9900012    2    1    2    0    0 -0.21425448281E+01 -0.17200128660E+02  0.39789301738E+02  0.47787268934E+02  0.19999990377E+02 0.  0.
         12    1    1    2    0    0  0.21425448281E+01  0.17200128660E+02 -0.39789301738E+02  0.43400731066E+02  0.00000000000E+00 0. -1.
         11    1    3    3    0    0  0.81730781867E+00  0.25041119527E+01  0.12462287081E+02  0.12737628048E+02  0.51100000000E-03 0. -1.
        -11    1    3    3    0    0 -0.49733070278E+01 -0.14735212999E+02  0.24417721392E+02  0.28949704716E+02  0.51100000000E-03 0.  1.
         12    1    3    3    0    0  0.20134543811E+01 -0.49690276134E+01  0.29092932652E+01  0.60999361693E+01  0.00000000000E+00 0. -1.
</event>
<event>
 7    1  0.4818508E-009  0.4778727E+02  0.7816164E-02  0.1312668E+00
        -11   -1    0    0    0    0  0.00000000000E+00  0.00000000000E+00  0.45593999997E+02  0.45594000000E+02  0.51100000000E-03 0.  1.
         11   -1    0    0    0    0 -0.00000000000E+00 -0.00000000000E+00 -0.45593999997E+02  0.45594000000E+02  0.51100000000E-03 0. -1.
    9900012    2    1    2    0    0 -0.27201496391E+01  0.24882365376E+02  0.35455495225E+02  0.47787268872E+02  0.19999990096E+02 0.  0.
         12    1    1    2    0    0  0.27201496391E+01 -0.24882365376E+02 -0.35455495225E+02  0.43400731128E+02  0.00000000000E+00 0. -1.
         11    1    3    3    0    0  0.45441735011E+01  0.76635744234E+01  0.34446272085E+01  0.95522428057E+01  0.51100000000E-03 0. -1.
        -11    1    3    3    0    0 -0.22708662824E+00  0.12316175665E+02  0.18156098269E+02  0.21940457059E+02  0.51100000000E-03 0.  1.
         12    1    3    3    0    0 -0.70372365120E+01  0.49026152883E+01  0.13854769747E+02  0.16294569008E+02  0.00000000000E+00 0. -1.
</event>
<event>
 7    1  0.4818508E-009  0.4778725E+02  0.7816164E-02  0.1312668E+00
        -11   -1    0    0    0    0  0.00000000000E+00  0.00000000000E+00  0.45593999997E+02  0.45594000000E+02  0.51100000000E-03 0.  1.
         11   -1    0    0    0    0 -0.00000000000E+00 -0.00000000000E+00 -0.45593999997E+02  0.45594000000E+02  0.51100000000E-03 0. -1.
    9900012    2    1    2    0    0 -0.42084324931E+02 -0.63861057629E+01 -0.84706710346E+01  0.47787250934E+02  0.19999908308E+02 0.  0.
         12    1    1    2    0    0  0.42084324931E+02  0.63861057629E+01  0.84706710346E+01  0.43400749066E+02  0.00000000000E+00 0. -1.
         11    1    3    3    0    0 -0.18083290477E+02  0.58981391194E+01 -0.74668429161E+01  0.20433971296E+02  0.51100000000E-03 0. -1.
        -11    1    3    3    0    0 -0.22154707268E+02 -0.10130857492E+02 -0.51700415967E-01  0.24361198674E+02  0.51100000000E-03 0.  1.
         12    1    3    3    0    0 -0.18463271866E+01 -0.21533873898E+01 -0.95212770251E+00  0.29920809636E+01  0.00000000000E+00 0. -1.
</event>
<event>
 7    1  0.4818508E-009  0.4778727E+02  0.7816164E-02  0.1312668E+00
        -11   -1    0    0    0    0  0.00000000000E+00  0.00000000000E+00  0.45593999997E+02  0.45594000000E+02  0.51100000000E-03 0. -1.
         11   -1    0    0    0    0 -0.00000000000E+00 -0.00000000000E+00 -0.45593999997E+02  0.45594000000E+02  0.51100000000E-03 0.  1.
    9900012    2    1    2    0    0 -0.29341160346E+01 -0.41832349129E+02 -0.11183412547E+02  0.47787272048E+02  0.20000004576E+02 0.  0.
         12    1    1    2    0    0  0.29341160346E+01  0.41832349129E+02  0.11183412547E+02  0.43400727952E+02  0.00000000000E+00 0. -1.
         11    1    3    3    0    0  0.77459563902E+00  0.49543655882E+00 -0.17450908429E+01  0.19725106081E+01  0.51100000000E-03 0. -1.
        -11    1    3    3    0    0 -0.65158560301E+01 -0.40899883634E+02 -0.10023659694E+02  0.42611390672E+02  0.51100000000E-03 0.  1.
        -12    1    3    3    0    0  0.28071443565E+01 -0.14279020535E+01  0.58533798948E+00  0.32033707676E+01  0.00000000000E+00 0.  1.
</event>
<event>
 7    1  0.4818508E-009  0.4778727E+02  0.7816164E-02  0.1312668E+00
        -11   -1    0    0    0    0  0.00000000000E+00  0.00000000000E+00  0.45593999997E+02  0.45594000000E+02  0.51100000000E-03 0.  1.
         11   -1    0    0    0    0 -0.00000000000E+00 -0.00000000000E+00 -0.45593999997E+02  0.45594000000E+02  0.51100000000E-03 0. -1.
    9900012    2    1    2    0    0 -0.25076250242E+02 -0.26475246331E+02  0.23534364421E+02  0.47787270707E+02  0.19999998461E+02 0.  0.
         12    1    1    2    0    0  0.25076250242E+02  0.26475246331E+02 -0.23534364421E+02  0.43400729293E+02  0.00000000000E+00 0. -1.
         11    1    3    3    0    0  0.15814771685E+01  0.72579962098E+00  0.40769417098E+01  0.44327541203E+01  0.51100000000E-03 0. -1.
        -11    1    3    3    0    0 -0.14581387680E+02 -0.15256972779E+02  0.14687689645E+02  0.25712259964E+02  0.51100000000E-03 0.  1.
         12    1    3    3    0    0 -0.12076339730E+02 -0.11944073173E+02  0.47697330663E+01  0.17642256623E+02  0.00000000000E+00 0. -1.
</event>
<event>
 7    1  0.4818508E-009  0.4778726E+02  0.7816164E-02  0.1312668E+00
        -11   -1    0    0    0    0  0.00000000000E+00  0.00000000000E+00  0.45593999997E+02  0.45594000000E+02  0.51100000000E-03 0.  1.
         11   -1    0    0    0    0 -0.00000000000E+00 -0.00000000000E+00 -0.45593999997E+02  0.45594000000E+02  0.51100000000E-03 0. -1.
    9900012    2    1    2    0    0  0.20834174715E+02 -0.16069989027E+02  0.34515452106E+02  0.47787264782E+02  0.19999971448E+02 0.  0.
         12    1    1    2    0    0 -0.20834174715E+02  0.16069989027E+02 -0.34515452106E+02  0.43400735218E+02  0.00000000000E+00 0. -1.
         11    1    3    3    0    0  0.14085465019E+02 -0.25365280780E+01  0.20012609552E+02  0.24603634708E+02  0.51100000000E-03 0. -1.
        -11    1    3    3    0    0  0.71001395779E+01 -0.77080804716E+01  0.40954315106E+01  0.11251624154E+02  0.51100000000E-03 0.  1.
         12    1    3    3    0    0 -0.35142988139E+00 -0.58253804776E+01  0.10407411043E+02  0.11932005921E+02  0.00000000000E+00 0. -1.
</event>
<event>
 7    1  0.4818508E-009  0.4778727E+02  0.7816164E-02  0.1312668E+00
        -11   -1    0    0    0    0  0.00000000000E+00  0.00000000000E+00  0.45593999997E+02  0.45594000000E+02  0.51100000000E-03 0. -1.
         11   -1    0    0    0    0 -0.00000000000E+00 -0.00000000000E+00 -0.45593999997E+02  0.45594000000E+02  0.51100000000E-03 0.  1.
    9900012    2    1    2    0    0 -0.63579460789E+01  0.23410407766E+02 -0.35988230621E+02  0.47787269438E+02  0.19999992673E+02 0.  0.
         12    1    1    2    0    0  0.63579460789E+01 -0.23410407766E+02  0.35988230621E+02  0.43400730562E+02  0.00000000000E+00 0. -1.
         11    1    3    3    0    0 -0.39248869904E+01  0.10556632477E+02 -0.29074758983E+02  0.31179942869E+02  0.51100000000E-03 0.  1.
        -11    1    3    3    0    0  0.14628394975E+01  0.73767145306E+01 -0.87358220072E+00  0.75709287927E+01  0.51100000000E-03 0. -1.
         12    1    3    3    0    0 -0.38958985861E+01  0.54770607588E+01 -0.60398894376E+01  0.90363977760E+01  0.00000000000E+00 0. -1.
</event>
<event>
 7    1  0.4818508E-009  0.4778727E+02  0.7816164E-02  0.1312668E+00
        -11   -1    0    0    0    0  0.00000000000E+00  0.00000000000E+00  0.45593999997E+02  0.45594000000E+02  0.51100000000E-03 0.  1.
         11   -1    0    0    0    0 -0.00000000000E+00 -0.00000000000E+00 -0.45593999997E+02  0.45594000000E+02  0.51100000000E-03 0. -1.
    9900012    2    1    2    0    0  0.14498326024E+02 -0.16827774245E+02  0.37286029363E+02  0.47787269255E+02  0.19999991842E+02 0.  0.
         12    1    1    2    0    0 -0.14498326024E+02  0.16827774245E+02 -0.37286029363E+02  0.43400730745E+02  0.00000000000E+00 0. -1.
         11    1    3    3    0    0  0.70748375844E+01 -0.10193732616E+02  0.79368825266E+01  0.14729549076E+02  0.51100000000E-03 0. -1.
        -11    1    3    3    0    0  0.27716190016E+01  0.11822746212E+01  0.19175567750E+02  0.19410874374E+02  0.51100000000E-03 0.  1.
         12    1    3    3    0    0  0.46518694380E+01 -0.78163162507E+01  0.10173579087E+02  0.13646845805E+02  0.00000000000E+00 0. -1.
</event>
<event>
 7    1  0.4818508E-009  0.4778727E+02  0.7816164E-02  0.1312668E+00
        -11   -1    0    0    0    0  0.00000000000E+00  0.00000000000E+00  0.45593999997E+02  0.45594000000E+02  0.51100000000E-03 0.  1.
         11   -1    0    0    0    0 -0.00000000000E+00 -0.00000000000E+00 -0.45593999997E+02  0.45594000000E+02  0.51100000000E-03 0. -1.
    9900012    2    1    2    0    0  0.21959157996E+02 -0.10020683823E+02  0.36069440399E+02  0.47787271264E+02  0.20000000999E+02 0.  0.
         12    1    1    2    0    0 -0.21959157996E+02  0.10020683823E+02 -0.36069440399E+02  0.43400728736E+02  0.00000000000E+00 0. -1.
         11    1    3    3    0    0  0.41956919531E+01  0.47371011008E+01  0.91518869193E+01  0.11126589426E+02  0.51100000000E-03 0. -1.
        -11    1    3    3    0    0  0.17293070817E+02 -0.10142440178E+02  0.23552064345E+02  0.30929260033E+02  0.51100000000E-03 0.  1.
         12    1    3    3    0    0  0.47039522552E+00 -0.46153447450E+01  0.33654891353E+01  0.57314218047E+01  0.00000000000E+00 0. -1.
</event>
<event>
 7    1  0.4818508E-009  0.4778726E+02  0.7816164E-02  0.1312668E+00
        -11   -1    0    0    0    0  0.00000000000E+00  0.00000000000E+00  0.45593999997E+02  0.45594000000E+02  0.51100000000E-03 0.  1.
         11   -1    0    0    0    0 -0.00000000000E+00 -0.00000000000E+00 -0.45593999997E+02  0.45594000000E+02  0.51100000000E-03 0. -1.
    9900012    2    1    2    0    0  0.26182596649E+02 -0.86808527305E+00  0.34602634936E+02  0.47787259408E+02  0.19999946947E+02 0.  0.
         12    1    1    2    0    0 -0.26182596649E+02  0.86808527305E+00 -0.34602634936E+02  0.43400740592E+02  0.00000000000E+00 0. -1.
         11    1    3    3    0    0  0.17482459621E+01  0.17565872056E+01  0.11544991450E+02  0.11807996883E+02  0.51100000000E-03 0. -1.
        -11    1    3    3    0    0  0.25196809775E+02 -0.37069764320E+00  0.21590794348E+02  0.33184017847E+02  0.51100000000E-03 0.  1.
         12    1    3    3    0    0 -0.76245908791E+00 -0.22539748354E+01  0.14668491383E+01  0.27952446787E+01  0.00000000000E+00 0. -1.
</event>
<event>
 7    1  0.4818508E-009  0.4778722E+02  0.7816164E-02  0.1312668E+00
        -11   -1    0    0    0    0  0.00000000000E+00  0.00000000000E+00  0.45593999997E+02  0.45594000000E+02  0.51100000000E-03 0.  1.
         11   -1    0    0    0    0 -0.00000000000E+00 -0.00000000000E+00 -0.45593999997E+02  0.45594000000E+02  0.51100000000E-03 0. -1.
    9900012    2    1    2    0    0  0.97928365588E+01  0.40143780809E+02  0.13274218233E+02  0.47787220569E+02  0.19999769862E+02 0.  0.
         12    1    1    2    0    0 -0.97928365588E+01 -0.40143780809E+02 -0.13274218233E+02  0.43400779431E+02  0.00000000000E+00 0. -1.
         11    1    3    3    0    0 -0.17921676840E+00  0.79837476663E+01 -0.14360864511E+01  0.81138578990E+01  0.51100000000E-03 0. -1.
        -11    1    3    3    0    0  0.10566785164E+02  0.23533037176E+02  0.16790041435E+02  0.30779315767E+02  0.51100000000E-03 0.  1.
        -12    1    3    3    0    0 -0.59473183647E+00  0.86269959669E+01 -0.20797367512E+01  0.88940469037E+01  0.00000000000E+00 0.  1.
</event>
<event>
 7    1  0.4818508E-009  0.4778727E+02  0.7816164E-02  0.1312668E+00
        -11   -1    0    0    0    0  0.00000000000E+00  0.00000000000E+00  0.45593999997E+02  0.45594000000E+02  0.51100000000E-03 0.  1.
         11   -1    0    0    0    0 -0.00000000000E+00 -0.00000000000E+00 -0.45593999997E+02  0.45594000000E+02  0.51100000000E-03 0. -1.
    9900012    2    1    2    0    0 -0.12452291965E+02 -0.16008668597E+02  0.38370385513E+02  0.47787268095E+02  0.19999986552E+02 0.  0.
         12    1    1    2    0    0  0.12452291965E+02  0.16008668597E+02 -0.38370385513E+02  0.43400731905E+02  0.00000000000E+00 0. -1.
         11    1    3    3    0    0  0.10634381017E+01  0.21612140529E+01  0.44772751422E+01  0.50840672438E+01  0.51100000000E-03 0. -1.
        -11    1    3    3    0    0 -0.14588011152E+02 -0.10019631887E+02  0.24457131910E+02  0.30188646774E+02  0.51100000000E-03 0.  1.
        -12    1    3    3    0    0  0.10722810853E+01 -0.81502507632E+01  0.94359784607E+01  0.12514554077E+02  0.00000000000E+00 0.  1.
</event>
<event>
 7    1  0.4818508E-009  0.4778727E+02  0.7816164E-02  0.1312668E+00
        -11   -1    0    0    0    0  0.00000000000E+00  0.00000000000E+00  0.45593999997E+02  0.45594000000E+02  0.51100000000E-03 0. -1.
         11   -1    0    0    0    0 -0.00000000000E+00 -0.00000000000E+00 -0.45593999997E+02  0.45594000000E+02  0.51100000000E-03 0.  1.
    9900012    2    1    2    0    0 -0.43165405476E+01 -0.18230433657E+02 -0.39148973371E+02  0.47787270172E+02  0.19999996022E+02 0.  0.
         12    1    1    2    0    0  0.43165405476E+01  0.18230433657E+02  0.39148973371E+02  0.43400729828E+02  0.00000000000E+00 0. -1.
         11    1    3    3    0    0 -0.12999000614E+00 -0.12343453394E+02 -0.11948235181E+02  0.17179582745E+02  0.51100000000E-03 0. -1.
        -11    1    3    3    0    0  0.14911227337E+01  0.30465160896E+01 -0.78407356976E+01  0.85429411699E+01  0.51100000000E-03 0.  1.
        -12    1    3    3    0    0 -0.56776732751E+01 -0.89334963531E+01 -0.19360002492E+02  0.22064746258E+02  0.00000000000E+00 0.  1.
</event>
<event>
 7    1  0.4818508E-009  0.4778727E+02  0.7816164E-02  0.1312668E+00
        -11   -1    0    0    0    0  0.00000000000E+00  0.00000000000E+00  0.45593999997E+02  0.45594000000E+02  0.51100000000E-03 0.  1.
         11   -1    0    0    0    0 -0.00000000000E+00 -0.00000000000E+00 -0.45593999997E+02  0.45594000000E+02  0.51100000000E-03 0. -1.
    9900012    2    1    2    0    0  0.18290102776E+02 -0.14861740687E+02  0.36444810371E+02  0.47787269605E+02  0.19999993436E+02 0.  0.
         12    1    1    2    0    0 -0.18290102776E+02  0.14861740687E+02 -0.36444810371E+02  0.43400730395E+02  0.00000000000E+00 0. -1.
         11    1    3    3    0    0  0.46565016230E+01 -0.57395990165E+01  0.15455569897E+00  0.73925565240E+01  0.51100000000E-03 0. -1.
        -11    1    3    3    0    0  0.26176129855E+01 -0.50953969577E+01  0.15492880727E+02  0.16517999921E+02  0.51100000000E-03 0.  1.
         12    1    3    3    0    0  0.11015988168E+02 -0.40267447128E+01  0.20797373945E+02  0.23876713160E+02  0.00000000000E+00 0. -1.
</event>
<event>
 7    1  0.4818508E-009  0.4778728E+02  0.7816164E-02  0.1312668E+00
        -11   -1    0    0    0    0  0.00000000000E+00  0.00000000000E+00  0.45593999997E+02  0.45594000000E+02  0.51100000000E-03 0.  1.
         11   -1    0    0    0    0 -0.00000000000E+00 -0.00000000000E+00 -0.45593999997E+02  0.45594000000E+02  0.51100000000E-03 0. -1.
    9900012    2    1    2    0    0  0.27413669445E+02  0.64069282921E+01  0.33031271346E+02  0.47787275475E+02  0.20000020201E+02 0.  0.
         12    1    1    2    0    0 -0.27413669445E+02 -0.64069282921E+01 -0.33031271346E+02  0.43400724525E+02  0.00000000000E+00 0. -1.
         11    1    3    3    0    0  0.33100953204E+01  0.35313293288E+01 -0.92712970364E+00  0.49281424094E+01  0.51100000000E-03 0. -1.
        -11    1    3    3    0    0  0.18412110708E+02 -0.21662316985E+01  0.23672310875E+02  0.30067867948E+02  0.51100000000E-03 0.  1.
         12    1    3    3    0    0  0.56914634163E+01  0.50418306619E+01  0.10286090174E+02  0.12791265118E+02  0.00000000000E+00 0. -1.
</event>
<event>
 7    1  0.4818508E-009  0.4778727E+02  0.7816164E-02  0.1312668E+00
        -11   -1    0    0    0    0  0.00000000000E+00  0.00000000000E+00  0.45593999997E+02  0.45594000000E+02  0.51100000000E-03 0.  1.
         11   -1    0    0    0    0 -0.00000000000E+00 -0.00000000000E+00 -0.45593999997E+02  0.45594000000E+02  0.51100000000E-03 0. -1.
    9900012    2    1    2    0    0 -0.87122141171E+01 -0.33666810167E+02  0.25966642479E+02  0.47787270706E+02  0.19999998457E+02 0.  0.
         12    1    1    2    0    0  0.87122141171E+01  0.33666810167E+02 -0.25966642479E+02  0.43400729294E+02  0.00000000000E+00 0. -1.
         11    1    3    3    0    0 -0.91998496184E+01 -0.13942894941E+02  0.77573782982E+01  0.18417884532E+02  0.51100000000E-03 0. -1.
        -11    1    3    3    0    0 -0.99949743607E+00 -0.15302471435E+02  0.19228283871E+02  0.24594542647E+02  0.51100000000E-03 0.  1.
        -12    1    3    3    0    0  0.14871329374E+01 -0.44214437912E+01 -0.10190196903E+01  0.47748435264E+01  0.00000000000E+00 0.  1.
</event>
<event>
 7    1  0.4818508E-009  0.4778727E+02  0.7816164E-02  0.1312668E+00
        -11   -1    0    0    0    0  0.00000000000E+00  0.00000000000E+00  0.45593999997E+02  0.45594000000E+02  0.51100000000E-03 0.  1.
         11   -1    0    0    0    0 -0.00000000000E+00 -0.00000000000E+00 -0.45593999997E+02  0.45594000000E+02  0.51100000000E-03 0. -1.
    9900012    2    1    2    0    0 -0.41550489319E+02  0.45277188870E+01  0.11691033445E+02  0.47787266550E+02  0.19999979509E+02 0.  0.
         12    1    1    2    0    0  0.41550489319E+02 -0.45277188870E+01 -0.11691033445E+02  0.43400733450E+02  0.00000000000E+00 0. -1.
         11    1    3    3    0    0 -0.55849597966E+00 -0.26966879331E+01 -0.16470449131E+01  0.32088628476E+01  0.51100000000E-03 0. -1.
        -11    1    3    3    0    0 -0.13547669505E+02  0.43763686546E-01  0.82426979864E+00  0.13572792094E+02  0.51100000000E-03 0.  1.
         12    1    3    3    0    0 -0.27444323835E+02  0.71806431336E+01  0.12513808560E+02  0.31005611609E+02  0.00000000000E+00 0. -1.
</event>
<event>
 7    1  0.4818508E-009  0.4778727E+02  0.7816164E-02  0.1312668E+00
        -11   -1    0    0    0    0  0.00000000000E+00  0.00000000000E+00  0.45593999997E+02  0.45594000000E+02  0.51100000000E-03 0.  1.
         11   -1    0    0    0    0 -0.00000000000E+00 -0.00000000000E+00 -0.45593999997E+02  0.45594000000E+02  0.51100000000E-03 0. -1.
    9900012    2    1    2    0    0 -0.24956498580E+02  0.32886025158E+02  0.13390526471E+02  0.47787266467E+02  0.19999979128E+02 0.  0.
         12    1    1    2    0    0  0.24956498580E+02 -0.32886025158E+02 -0.13390526471E+02  0.43400733533E+02  0.00000000000E+00 0. -1.
         11    1    3    3    0    0  0.12636045426E+01  0.97689684010E+01  0.52893545161E+01  0.11180640032E+02  0.51100000000E-03 0. -1.
        -11    1    3    3    0    0 -0.17974656771E+02  0.13441746163E+02  0.81951260796E+01  0.23894118893E+02  0.51100000000E-03 0.  1.
         12    1    3    3    0    0 -0.82454463515E+01  0.96753105938E+01 -0.93954124564E-01  0.12712507542E+02  0.00000000000E+00 0. -1.
</event>
<event>
 7    1  0.4818508E-009  0.4778727E+02  0.7816164E-02  0.1312668E+00
        -11   -1    0    0    0    0  0.00000000000E+00  0.00000000000E+00  0.45593999997E+02  0.45594000000E+02  0.51100000000E-03 0. -1.
         11   -1    0    0    0    0 -0.00000000000E+00 -0.00000000000E+00 -0.45593999997E+02  0.45594000000E+02  0.51100000000E-03 0.  1.
    9900012    2    1    2    0    0 -0.12657852667E+02  0.35004931493E+02 -0.22317193921E+02  0.47787267202E+02  0.19999982479E+02 0.  0.
         12    1    1    2    0    0  0.12657852667E+02 -0.35004931493E+02  0.22317193921E+02  0.43400732798E+02  0.00000000000E+00 0. -1.
         11    1    3    3    0    0  0.48691658432E+01  0.52012364010E+01 -0.28634002238E+01  0.76785869280E+01  0.51100000000E-03 0. -1.
        -11    1    3    3    0    0 -0.11598646387E+02  0.24386235711E+02 -0.15789204069E+02  0.31281241273E+02  0.51100000000E-03 0.  1.
         12    1    3    3    0    0 -0.59283721233E+01  0.54174593803E+01 -0.36645896280E+01  0.88274390007E+01  0.00000000000E+00 0. -1.
</event>
<event>
 7    1  0.4818508E-009  0.4778727E+02  0.7816164E-02  0.1312668E+00
        -11   -1    0    0    0    0  0.00000000000E+00  0.00000000000E+00  0.45593999997E+02  0.45594000000E+02  0.51100000000E-03 0.  1.
         11   -1    0    0    0    0 -0.00000000000E+00 -0.00000000000E+00 -0.45593999997E+02  0.45594000000E+02  0.51100000000E-03 0. -1.
    9900012    2    1    2    0    0 -0.11848556689E+02  0.55836984444E+01  0.41377014697E+02  0.47787270407E+02  0.19999997094E+02 0.  0.
         12    1    1    2    0    0  0.11848556689E+02 -0.55836984444E+01 -0.41377014697E+02  0.43400729593E+02  0.00000000000E+00 0. -1.
         11    1    3    3    0    0  0.17675524343E+01  0.35435526144E+01  0.19037594755E+01  0.43937805067E+01  0.51100000000E-03 0. -1.
        -11    1    3    3    0    0 -0.63795933597E+01 -0.37221377472E+01  0.26154733338E+02  0.27177630454E+02  0.51100000000E-03 0.  1.
        -12    1    3    3    0    0 -0.72365157636E+01  0.57622835771E+01  0.13318521884E+02  0.16215859446E+02  0.00000000000E+00 0.  1.
</event>
<event>
 7    1  0.4818508E-009  0.4778727E+02  0.7816164E-02  0.1312668E+00
        -11   -1    0    0    0    0  0.00000000000E+00  0.00000000000E+00  0.45593999997E+02  0.45594000000E+02  0.51100000000E-03 0.  1.
         11   -1    0    0    0    0 -0.00000000000E+00 -0.00000000000E+00 -0.45593999997E+02  0.45594000000E+02  0.51100000000E-03 0. -1.
    9900012    2    1    2    0    0  0.22737697336E+02  0.35269948619E+02  0.11074789369E+02  0.47787272871E+02  0.20000008329E+02 0.  0.
         12    1    1    2    0    0 -0.22737697336E+02 -0.35269948619E+02 -0.11074789369E+02  0.43400727129E+02  0.00000000000E+00 0. -1.
         11    1    3    3    0    0  0.22673094582E+02  0.32931693242E+02  0.10114960563E+02  0.41241702986E+02  0.51100000000E-03 0. -1.
        -11    1    3    3    0    0 -0.26250315520E+01  0.21754279300E+01  0.16150565247E+01  0.37724905787E+01  0.51100000000E-03 0.  1.
         12    1    3    3    0    0  0.26896343062E+01  0.16282744714E+00 -0.65522771879E+00  0.27730793069E+01  0.00000000000E+00 0. -1.
</event>
<event>
 7    1  0.4818508E-009  0.4778726E+02  0.7816164E-02  0.1312668E+00
        -11   -1    0    0    0    0  0.00000000000E+00  0.00000000000E+00  0.45593999997E+02  0.45594000000E+02  0.51100000000E-03 0.  1.
         11   -1    0    0    0    0 -0.00000000000E+00 -0.00000000000E+00 -0.45593999997E+02  0.45594000000E+02  0.51100000000E-03 0. -1.
    9900012    2    1    2    0    0  0.11970091427E+02  0.14228265018E+02  0.39216039624E+02  0.47787258325E+02  0.19999942005E+02 0.  0.
         12    1    1    2    0    0 -0.11970091427E+02 -0.14228265018E+02 -0.39216039624E+02  0.43400741675E+02  0.00000000000E+00 0. -1.
         11    1    3    3    0    0  0.49298796554E+01  0.11561718415E+02  0.89275779644E+01  0.15416831538E+02  0.51100000000E-03 0. -1.
        -11    1    3    3    0    0  0.36132598860E+01  0.35736492860E+01  0.27194179669E+02  0.27664960227E+02  0.51100000000E-03 0.  1.
         12    1    3    3    0    0  0.34269518855E+01 -0.90710268241E+00  0.30942819905E+01  0.47054665591E+01  0.00000000000E+00 0. -1.
</event>
<event>
 7    1  0.4818508E-009  0.4778727E+02  0.7816164E-02  0.1312668E+00
        -11   -1    0    0    0    0  0.00000000000E+00  0.00000000000E+00  0.45593999997E+02  0.45594000000E+02  0.51100000000E-03 0. -1.
         11   -1    0    0    0    0 -0.00000000000E+00 -0.00000000000E+00 -0.45593999997E+02  0.45594000000E+02  0.51100000000E-03 0.  1.
    9900012    2    1    2    0    0  0.71673086971E+00 -0.19681920135E+00 -0.43394365985E+02  0.47787269128E+02  0.19999991264E+02 0.  0.
         12    1    1    2    0    0 -0.71673086971E+00  0.19681920135E+00  0.43394365985E+02  0.43400730872E+02  0.00000000000E+00 0. -1.
         11    1    3    3    0    0 -0.73361849286E+00 -0.40291554393E+01 -0.16893716078E+01  0.44301542115E+01  0.51100000000E-03 0. -1.
        -11    1    3    3    0    0  0.30237066818E+01  0.72468808354E+01 -0.23808879919E+02  0.25070357939E+02  0.51100000000E-03 0.  1.
         12    1    3    3    0    0 -0.15733573192E+01 -0.34145445974E+01 -0.17896114459E+02  0.18286756978E+02  0.00000000000E+00 0. -1.
</event>
<event>
 7    1  0.4818508E-009  0.4778727E+02  0.7816164E-02  0.1312668E+00
        -11   -1    0    0    0    0  0.00000000000E+00  0.00000000000E+00  0.45593999997E+02  0.45594000000E+02  0.51100000000E-03 0.  1.
         11   -1    0    0    0    0 -0.00000000000E+00 -0.00000000000E+00 -0.45593999997E+02  0.45594000000E+02  0.51100000000E-03 0. -1.
    9900012    2    1    2    0    0  0.21238814607E+01 -0.95975694533E+01  0.42272909385E+02  0.47787273280E+02  0.20000010195E+02 0.  0.
         12    1    1    2    0    0 -0.21238814607E+01  0.95975694533E+01 -0.42272909385E+02  0.43400726720E+02  0.00000000000E+00 0. -1.
         11    1    3    3    0    0 -0.25548479524E+01  0.14203617217E+00  0.46278694034E+01  0.52881563715E+01  0.51100000000E-03 0. -1.
        -11    1    3    3    0    0 -0.58801690747E+01 -0.51962657883E+01  0.11320216861E+02  0.13774065359E+02  0.51100000000E-03 0.  1.
        -12    1    3    3    0    0  0.10558898488E+02 -0.45433398372E+01  0.26324823121E+02  0.28725051550E+02  0.00000000000E+00 0.  1.
</event>
<event>
 7    1  0.4818508E-009  0.4778727E+02  0.7816164E-02  0.1312668E+00
        -11   -1    0    0    0    0  0.00000000000E+00  0.00000000000E+00  0.45593999997E+02  0.45594000000E+02  0.51100000000E-03 0. -1.
         11   -1    0    0    0    0 -0.00000000000E+00 -0.00000000000E+00 -0.45593999997E+02  0.45594000000E+02  0.51100000000E-03 0.  1.
    9900012    2    1    2    0    0 -0.91698292583E+00 -0.18190093160E+02 -0.39394200006E+02  0.47787270271E+02  0.19999996475E+02 0.  0.
         12    1    1    2    0    0  0.91698292583E+00  0.18190093160E+02  0.39394200006E+02  0.43400729729E+02  0.00000000000E+00 0. -1.
         11    1    3    3    0    0 -0.20423780941E+01 -0.34259634146E+01 -0.13537698203E+01  0.42120335451E+01  0.51100000000E-03 0. -1.
        -11    1    3    3    0    0  0.79636759028E+01 -0.85832127967E+01 -0.17430840913E+02  0.20998235425E+02  0.51100000000E-03 0.  1.
        -12    1    3    3    0    0 -0.68382807346E+01 -0.61809169485E+01 -0.20609589273E+02  0.22577001301E+02  0.00000000000E+00 0.  1.
</event>
<event>
 7    1  0.4818508E-009  0.4778727E+02  0.7816164E-02  0.1312668E+00
        -11   -1    0    0    0    0  0.00000000000E+00  0.00000000000E+00  0.45593999997E+02  0.45594000000E+02  0.51100000000E-03 0.  1.
         11   -1    0    0    0    0 -0.00000000000E+00 -0.00000000000E+00 -0.45593999997E+02  0.45594000000E+02  0.51100000000E-03 0. -1.
    9900012    2    1    2    0    0  0.15885282232E+02 -0.40318938414E+02  0.23799464403E+01  0.47787272685E+02  0.20000007478E+02 0.  0.
         12    1    1    2    0    0 -0.15885282232E+02  0.40318938414E+02 -0.23799464403E+01  0.43400727315E+02  0.00000000000E+00 0. -1.
         11    1    3    3    0    0  0.26255482991E+01 -0.92016477330E+01 -0.58684559517E+01  0.11225087990E+02  0.51100000000E-03 0. -1.
        -11    1    3    3    0    0  0.13973228438E+02 -0.21165987957E+02  0.38268725662E+01  0.25649466137E+02  0.51100000000E-03 0.  1.
        -12    1    3    3    0    0 -0.71349450583E+00 -0.99513027241E+01  0.44215298258E+01  0.10912718558E+02  0.00000000000E+00 0.  1.
</event>
<event>
 7    1  0.4818508E-009  0.4778727E+02  0.7816164E-02  0.1312668E+00
        -11   -1    0    0    0    0  0.00000000000E+00  0.00000000000E+00  0.45593999997E+02  0.45594000000E+02  0.51100000000E-03 0.  1.
         11   -1    0    0    0    0 -0.00000000000E+00 -0.00000000000E+00 -0.45593999997E+02  0.45594000000E+02  0.51100000000E-03 0. -1.
    9900012    2    1    2    0    0 -0.25016762835E+02 -0.33996431656E+01  0.35301944291E+02  0.47787271122E+02  0.20000000356E+02 0.  0.
         12    1    1    2    0    0  0.25016762835E+02  0.33996431656E+01 -0.35301944291E+02  0.43400728878E+02  0.00000000000E+00 0. -1.
         11    1    3    3    0    0 -0.46355295691E+01  0.58525068732E+01  0.11284525050E+02  0.13530723445E+02  0.51100000000E-03 0. -1.
        -11    1    3    3    0    0 -0.15055326857E+02 -0.10265562854E+02  0.14435104913E+02  0.23246868641E+02  0.51100000000E-03 0.  1.
        -12    1    3    3    0    0 -0.53259064082E+01  0.10134128154E+01  0.95823143280E+01  0.11009679036E+02  0.00000000000E+00 0.  1.
</event>
<event>
 7    1  0.4818508E-009  0.4778728E+02  0.7816164E-02  0.1312668E+00
        -11   -1    0    0    0    0  0.00000000000E+00  0.00000000000E+00  0.45593999997E+02  0.45594000000E+02  0.51100000000E-03 0.  1.
         11   -1    0    0    0    0 -0.00000000000E+00 -0.00000000000E+00 -0.45593999997E+02  0.45594000000E+02  0.51100000000E-03 0. -1.
    9900012    2    1    2    0    0  0.23526071558E+02 -0.23047556298E+02  0.28265824815E+02  0.47787277118E+02  0.20000027690E+02 0.  0.
         12    1    1    2    0    0 -0.23526071558E+02  0.23047556298E+02 -0.28265824815E+02  0.43400722882E+02  0.00000000000E+00 0. -1.
         11    1    3    3    0    0  0.15289498039E+01  0.11640946425E+00 -0.31751643040E-01  0.15337037178E+01  0.51100000000E-03 0. -1.
        -11    1    3    3    0    0 -0.24190904247E+01  0.59288496145E+00  0.24214614402E+01  0.34737568752E+01  0.51100000000E-03 0.  1.
        -12    1    3    3    0    0  0.24416212179E+02 -0.23756850723E+02  0.25876115018E+02  0.42779816525E+02  0.00000000000E+00 0.  1.
</event>
<event>
 7    1  0.4818508E-009  0.4778727E+02  0.7816164E-02  0.1312668E+00
        -11   -1    0    0    0    0  0.00000000000E+00  0.00000000000E+00  0.45593999997E+02  0.45594000000E+02  0.51100000000E-03 0.  1.
         11   -1    0    0    0    0 -0.00000000000E+00 -0.00000000000E+00 -0.45593999997E+02  0.45594000000E+02  0.51100000000E-03 0. -1.
    9900012    2    1    2    0    0 -0.27856367200E+01  0.21569340787E+02  0.37558316443E+02  0.47787269961E+02  0.19999995058E+02 0.  0.
         12    1    1    2    0    0  0.27856367200E+01 -0.21569340787E+02 -0.37558316443E+02  0.43400730039E+02  0.00000000000E+00 0. -1.
         11    1    3    3    0    0 -0.17822258065E+01  0.12532114389E+02  0.29202695159E+02  0.31828094895E+02  0.51100000000E-03 0. -1.
        -11    1    3    3    0    0  0.20667018893E+01  0.34100852523E+01  0.86682229146E+01  0.95413849564E+01  0.51100000000E-03 0.  1.
         12    1    3    3    0    0 -0.30701128028E+01  0.56271411461E+01 -0.31260163042E+00  0.64177901087E+01  0.00000000000E+00 0. -1.
</event>
<event>
 7    1  0.4818508E-009  0.4778727E+02  0.7816164E-02  0.1312668E+00
        -11   -1    0    0    0    0  0.00000000000E+00  0.00000000000E+00  0.45593999997E+02  0.45594000000E+02  0.51100000000E-03 0. -1.
         11   -1    0    0    0    0 -0.00000000000E+00 -0.00000000000E+00 -0.45593999997E+02  0.45594000000E+02  0.51100000000E-03 0.  1.
    9900012    2    1    2    0    0  0.39665378984E+02  0.65728918398E+01  0.16342518803E+02  0.47787272841E+02  0.20000008191E+02 0.  0.
         12    1    1    2    0    0 -0.39665378984E+02 -0.65728918398E+01 -0.16342518803E+02  0.43400727159E+02  0.00000000000E+00 0. -1.
         11    1    3    3    0    0  0.15534502586E+02 -0.16100980702E+01  0.44939123745E+01  0.16251413325E+02  0.51100000000E-03 0. -1.
        -11    1    3    3    0    0  0.19536686674E+01 -0.32458288305E+01  0.36857686916E+01  0.52855574131E+01  0.51100000000E-03 0.  1.
        -12    1    3    3    0    0  0.22177207732E+02  0.11428818741E+02  0.81628377366E+01  0.26250302103E+02  0.00000000000E+00 0.  1.
</event>
<event>
 7    1  0.4818508E-009  0.4778727E+02  0.7816164E-02  0.1312668E+00
        -11   -1    0    0    0    0  0.00000000000E+00  0.00000000000E+00  0.45593999997E+02  0.45594000000E+02  0.51100000000E-03 0.  1.
         11   -1    0    0    0    0 -0.00000000000E+00 -0.00000000000E+00 -0.45593999997E+02  0.45594000000E+02  0.51100000000E-03 0. -1.
    9900012    2    1    2    0    0 -0.35476688574E+02  0.13394032749E+02  0.21109896362E+02  0.47787271091E+02  0.20000000211E+02 0.  0.
         12    1    1    2    0    0  0.35476688574E+02 -0.13394032749E+02 -0.21109896362E+02  0.43400728909E+02  0.00000000000E+00 0. -1.
         11    1    3    3    0    0 -0.47745522373E+01  0.28219824343E+01 -0.36774152857E+01  0.66545711636E+01  0.51100000000E-03 0. -1.
        -11    1    3    3    0    0 -0.23242329250E+02  0.83980399097E+01  0.16188060026E+02  0.29542955691E+02  0.51100000000E-03 0.  1.
         12    1    3    3    0    0 -0.74598070862E+01  0.21740104047E+01  0.85992516217E+01  0.11589744236E+02  0.00000000000E+00 0. -1.
</event>
<event>
 7    1  0.5263734E-009  0.4778728E+02  0.7816164E-02  0.1312668E+00
        -11   -1    0    0    0    0  0.00000000000E+00  0.00000000000E+00  0.45593999997E+02  0.45594000000E+02  0.51100000000E-03 0.  1.
         11   -1    0    0    0    0 -0.00000000000E+00 -0.00000000000E+00 -0.45593999997E+02  0.45594000000E+02  0.51100000000E-03 0. -1.
    9900012    2    1    2    0    0 -0.34514777001E+02 -0.61918921924E+01 -0.25573685953E+02  0.47787276808E+02  0.20000026278E+02 0.  0.
         12    1    1    2    0    0  0.34514777001E+02  0.61918921924E+01  0.25573685953E+02  0.43400723192E+02  0.00000000000E+00 0. -1.
         11    1    3    3    0    0 -0.78744302083E+01 -0.78802859367E+01 -0.85137252649E+01  0.14021022634E+02  0.51100000000E-03 0. -1.
        -11    1    3    3    0    0 -0.27264614963E+02  0.26184113614E+01 -0.17564155807E+02  0.32537899081E+02  0.51100000000E-03 0.  1.
         12    1    3    3    0    0  0.62426816971E+00 -0.93001761709E+00  0.50419511963E+00  0.12283550930E+01  0.00000000000E+00 0. -1.
</event>
<event>
 7    1  0.4818508E-009  0.4778727E+02  0.7816164E-02  0.1312668E+00
        -11   -1    0    0    0    0  0.00000000000E+00  0.00000000000E+00  0.45593999997E+02  0.45594000000E+02  0.51100000000E-03 0.  1.
         11   -1    0    0    0    0 -0.00000000000E+00 -0.00000000000E+00 -0.45593999997E+02  0.45594000000E+02  0.51100000000E-03 0. -1.
    9900012    2    1    2    0    0  0.42920277042E+02 -0.43714303908E+01  0.47290325731E+01  0.47787270350E+02  0.19999996835E+02 0.  0.
         12    1    1    2    0    0 -0.42920277042E+02  0.43714303908E+01 -0.47290325731E+01  0.43400729650E+02  0.00000000000E+00 0. -1.
         11    1    3    3    0    0  0.26819677942E+02 -0.79295068714E+00  0.12012344321E+02  0.29397624259E+02  0.51100000000E-03 0. -1.
        -11    1    3    3    0    0  0.10402066273E+02 -0.37966972394E+01 -0.37995837199E+01  0.11707037601E+02  0.51100000000E-03 0.  1.
         12    1    3    3    0    0  0.56985328273E+01  0.21821753575E+00 -0.34837280275E+01  0.66826084912E+01  0.00000000000E+00 0. -1.
</event>
<event>
 7    1  0.4818508E-009  0.4778727E+02  0.7816164E-02  0.1312668E+00
        -11   -1    0    0    0    0  0.00000000000E+00  0.00000000000E+00  0.45593999997E+02  0.45594000000E+02  0.51100000000E-03 0.  1.
         11   -1    0    0    0    0 -0.00000000000E+00 -0.00000000000E+00 -0.45593999997E+02  0.45594000000E+02  0.51100000000E-03 0. -1.
    9900012    2    1    2    0    0  0.66567036808E+01 -0.28459633841E+02  0.32083655428E+02  0.47787269501E+02  0.19999992962E+02 0.  0.
         12    1    1    2    0    0 -0.66567036808E+01  0.28459633841E+02 -0.32083655428E+02  0.43400730499E+02  0.00000000000E+00 0. -1.
         11    1    3    3    0    0  0.27010748590E+01  0.79916963794E-01 -0.59681156450E+00  0.27673771734E+01  0.51100000000E-03 0. -1.
        -11    1    3    3    0    0 -0.32159756438E+00 -0.20501909452E+02  0.28215898838E+02  0.34879344370E+02  0.51100000000E-03 0.  1.
        -12    1    3    3    0    0  0.42772263861E+01 -0.80376413529E+01  0.44645681538E+01  0.10140547957E+02  0.00000000000E+00 0.  1.
</event>
<event>
 7    1  0.4818508E-009  0.4778727E+02  0.7816164E-02  0.1312668E+00
        -11   -1    0    0    0    0  0.00000000000E+00  0.00000000000E+00  0.45593999997E+02  0.45594000000E+02  0.51100000000E-03 0.  1.
         11   -1    0    0    0    0 -0.00000000000E+00 -0.00000000000E+00 -0.45593999997E+02  0.45594000000E+02  0.51100000000E-03 0. -1.
    9900012    2    1    2    0    0  0.63023896123E+01  0.19882527238E+02  0.38060329798E+02  0.47787266037E+02  0.19999977170E+02 0.  0.
         12    1    1    2    0    0 -0.63023896123E+01 -0.19882527238E+02 -0.38060329798E+02  0.43400733963E+02  0.00000000000E+00 0. -1.
         11    1    3    3    0    0 -0.20924193160E+01 -0.10306282953E+01  0.36055131981E+00  0.23601717718E+01  0.51100000000E-03 0. -1.
        -11    1    3    3    0    0 -0.14211094345E+00  0.13500203410E+02  0.25082648762E+02  0.28485346352E+02  0.51100000000E-03 0.  1.
        -12    1    3    3    0    0  0.85369198717E+01  0.74129521231E+01  0.12617129716E+02  0.16941747913E+02  0.00000000000E+00 0.  1.
</event>
<event>
 7    1  0.4818508E-009  0.4778727E+02  0.7816164E-02  0.1312668E+00
        -11   -1    0    0    0    0  0.00000000000E+00  0.00000000000E+00  0.45593999997E+02  0.45594000000E+02  0.51100000000E-03 0.  1.
         11   -1    0    0    0    0 -0.00000000000E+00 -0.00000000000E+00 -0.45593999997E+02  0.45594000000E+02  0.51100000000E-03 0. -1.
    9900012    2    1    2    0    0 -0.86195992422E+01 -0.42341751370E+02 -0.40622550280E+01  0.47787270558E+02  0.19999997781E+02 0.  0.
         12    1    1    2    0    0  0.86195992422E+01  0.42341751370E+02  0.40622550280E+01  0.43400729442E+02  0.00000000000E+00 0. -1.
         11    1    3    3    0    0 -0.24257917080E+01 -0.24241011465E+02 -0.94266233114E+01  0.26122257360E+02  0.51100000000E-03 0. -1.
        -11    1    3    3    0    0 -0.28712039238E+01 -0.41129091333E+01  0.52869432944E+01  0.72877707957E+01  0.51100000000E-03 0.  1.
        -12    1    3    3    0    0 -0.33226036104E+01 -0.13987830772E+02  0.77424989033E-01  0.14377242402E+02  0.00000000000E+00 0.  1.
</event>
<event>
 7    1  0.4818508E-009  0.4778728E+02  0.7816164E-02  0.1312668E+00
        -11   -1    0    0    0    0  0.00000000000E+00  0.00000000000E+00  0.45593999997E+02  0.45594000000E+02  0.51100000000E-03 0.  1.
         11   -1    0    0    0    0 -0.00000000000E+00 -0.00000000000E+00 -0.45593999997E+02  0.45594000000E+02  0.51100000000E-03 0. -1.
    9900012    2    1    2    0    0 -0.14090892405E+02 -0.25863349190E+02  0.31877215080E+02  0.47787275105E+02  0.20000018516E+02 0.  0.
         12    1    1    2    0    0  0.14090892405E+02  0.25863349190E+02 -0.31877215080E+02  0.43400724895E+02  0.00000000000E+00 0. -1.
         11    1    3    3    0    0 -0.89280142487E+00 -0.11709425872E+01  0.14314920277E+02  0.14390453215E+02  0.51100000000E-03 0. -1.
        -11    1    3    3    0    0 -0.41075538147E+01 -0.98114103092E+01  0.42326321972E+01  0.11447748520E+02  0.51100000000E-03 0.  1.
         12    1    3    3    0    0 -0.90905371650E+01 -0.14880996294E+02  0.13329662606E+02  0.21949073371E+02  0.00000000000E+00 0. -1.
</event>
<event>
 7    1  0.4818508E-009  0.4778727E+02  0.7816164E-02  0.1312668E+00
        -11   -1    0    0    0    0  0.00000000000E+00  0.00000000000E+00  0.45593999997E+02  0.45594000000E+02  0.51100000000E-03 0.  1.
         11   -1    0    0    0    0 -0.00000000000E+00 -0.00000000000E+00 -0.45593999997E+02  0.45594000000E+02  0.51100000000E-03 0. -1.
    9900012    2    1    2    0    0  0.19026675209E+01 -0.13084688196E+02  0.41337568705E+02  0.47787265037E+02  0.19999972611E+02 0.  0.
         12    1    1    2    0    0 -0.19026675209E+01  0.13084688196E+02 -0.41337568705E+02  0.43400734963E+02  0.00000000000E+00 0. -1.
         11    1    3    3    0    0 -0.47201469503E+01 -0.21180300393E+01  0.61459193051E+01  0.80335647657E+01  0.51100000000E-03 0. -1.
        -11    1    3    3    0    0  0.10697564049E+02 -0.77844329119E+01  0.26995482202E+02  0.30063122458E+02  0.51100000000E-03 0.  1.
        -12    1    3    3    0    0 -0.40747495775E+01 -0.31822252447E+01  0.81961671975E+01  0.96905778134E+01  0.00000000000E+00 0.  1.
</event>
<event>
 7    1  0.4818508E-009  0.4778726E+02  0.7816164E-02  0.1312668E+00
        -11   -1    0    0    0    0  0.00000000000E+00  0.00000000000E+00  0.45593999997E+02  0.45594000000E+02  0.51100000000E-03 0. -1.
         11   -1    0    0    0    0 -0.00000000000E+00 -0.00000000000E+00 -0.45593999997E+02  0.45594000000E+02  0.51100000000E-03 0.  1.
    9900012    2    1    2    0    0  0.10995183832E+02 -0.41044046288E+02 -0.88383556329E+01  0.47787258837E+02  0.19999944340E+02 0.  0.
         12    1    1    2    0    0 -0.10995183832E+02  0.41044046288E+02  0.88383556329E+01  0.43400741163E+02  0.00000000000E+00 0. -1.
         11    1    3    3    0    0 -0.15873622192E+00  0.10303033814E+01  0.14646973925E+01  0.17977933582E+01  0.51100000000E-03 0. -1.
        -11    1    3    3    0    0  0.11856949128E+02 -0.32286951569E+02 -0.47701881158E+01  0.34724475218E+02  0.51100000000E-03 0.  1.
         12    1    3    3    0    0 -0.70302907361E+00 -0.97873981009E+01 -0.55328649097E+01  0.11264990261E+02  0.00000000000E+00 0. -1.
</event>
<event>
 7    1  0.4818508E-009  0.4778729E+02  0.7816164E-02  0.1312668E+00
        -11   -1    0    0    0    0  0.00000000000E+00  0.00000000000E+00  0.45593999997E+02  0.45594000000E+02  0.51100000000E-03 0.  1.
         11   -1    0    0    0    0 -0.00000000000E+00 -0.00000000000E+00 -0.45593999997E+02  0.45594000000E+02  0.51100000000E-03 0. -1.
    9900012    2    1    2    0    0 -0.53010495784E+01 -0.27233688819E+02  0.33374335687E+02  0.47787294754E+02  0.20000108100E+02 0.  0.
         12    1    1    2    0    0  0.53010495784E+01  0.27233688819E+02 -0.33374335687E+02  0.43400705246E+02  0.00000000000E+00 0. -1.
         11    1    3    3    0    0  0.20472287698E+01  0.21147311140E+01  0.55079730624E+01  0.62450781290E+01  0.51100000000E-03 0. -1.
        -11    1    3    3    0    0 -0.71318521715E+01 -0.16857341548E+02  0.15977357314E+02  0.24296280095E+02  0.51100000000E-03 0.  1.
         12    1    3    3    0    0 -0.21642617668E+00 -0.12491078385E+02  0.11889005311E+02  0.17245936530E+02  0.00000000000E+00 0. -1.
</event>
<event>
 7    1  0.4818508E-009  0.4778728E+02  0.7816164E-02  0.1312668E+00
        -11   -1    0    0    0    0  0.00000000000E+00  0.00000000000E+00  0.45593999997E+02  0.45594000000E+02  0.51100000000E-03 0. -1.
         11   -1    0    0    0    0 -0.00000000000E+00 -0.00000000000E+00 -0.45593999997E+02  0.45594000000E+02  0.51100000000E-03 0.  1.
    9900012    2    1    2    0    0 -0.30491423467E+02  0.14868622328E+02 -0.27070645155E+02  0.47787278070E+02  0.20000032030E+02 0.  0.
         12    1    1    2    0    0  0.30491423467E+02 -0.14868622328E+02  0.27070645155E+02  0.43400721930E+02  0.00000000000E+00 0. -1.
         11    1    3    3    0    0 -0.63504146357E+01  0.96798365433E+00 -0.12291624829E+02  0.13868986971E+02  0.51100000000E-03 0. -1.
        -11    1    3    3    0    0 -0.23189222149E+02  0.15671095095E+02 -0.15222583976E+02  0.31859854182E+02  0.51100000000E-03 0.  1.
        -12    1    3    3    0    0 -0.95178668257E+00 -0.17704564210E+01  0.44356365028E+00  0.20584369166E+01  0.00000000000E+00 0.  1.
</event>
<event>
 7    1  0.4818508E-009  0.4778727E+02  0.7816164E-02  0.1312668E+00
        -11   -1    0    0    0    0  0.00000000000E+00  0.00000000000E+00  0.45593999997E+02  0.45594000000E+02  0.51100000000E-03 0.  1.
         11   -1    0    0    0    0 -0.00000000000E+00 -0.00000000000E+00 -0.45593999997E+02  0.45594000000E+02  0.51100000000E-03 0. -1.
    9900012    2    1    2    0    0  0.23596603377E+01  0.43336243033E+02  0.15817891208E+00  0.47787274456E+02  0.20000015557E+02 0.  0.
         12    1    1    2    0    0 -0.23596603377E+01 -0.43336243033E+02 -0.15817891208E+00  0.43400725544E+02  0.00000000000E+00 0. -1.
         11    1    3    3    0    0 -0.46187004826E+01  0.20119615459E+02 -0.55791170838E+01  0.21383588755E+02  0.51100000000E-03 0. -1.
        -11    1    3    3    0    0  0.37469688870E+01  0.63159150306E+01  0.55343528337E+01  0.91956304876E+01  0.51100000000E-03 0.  1.
        -12    1    3    3    0    0  0.32313919333E+01  0.16900712543E+02  0.20294316210E+00  0.17208055213E+02  0.00000000000E+00 0.  1.
</event>
<event>
 7    1  0.4818508E-009  0.4778728E+02  0.7816164E-02  0.1312668E+00
        -11   -1    0    0    0    0  0.00000000000E+00  0.00000000000E+00  0.45593999997E+02  0.45594000000E+02  0.51100000000E-03 0.  1.
         11   -1    0    0    0    0 -0.00000000000E+00 -0.00000000000E+00 -0.45593999997E+02  0.45594000000E+02  0.51100000000E-03 0. -1.
    9900012    2    1    2    0    0 -0.18967799470E+02  0.27193100448E+02  0.28006791054E+02  0.47787280261E+02  0.20000042021E+02 0.  0.
         12    1    1    2    0    0  0.18967799470E+02 -0.27193100448E+02 -0.28006791054E+02  0.43400719739E+02  0.00000000000E+00 0. -1.
         11    1    3    3    0    0  0.34739379509E+00  0.34794061036E+00 -0.19758609774E+01  0.20361168877E+01  0.51100000000E-03 0. -1.
        -11    1    3    3    0    0 -0.11764865879E+02  0.11355164466E+02  0.20011610505E+02  0.25842143574E+02  0.51100000000E-03 0.  1.
         12    1    3    3    0    0 -0.75503273860E+01  0.15489995372E+02  0.99710415266E+01  0.19909019799E+02  0.00000000000E+00 0. -1.
</event>
<event>
 7    1  0.4818508E-009  0.4778727E+02  0.7816164E-02  0.1312668E+00
        -11   -1    0    0    0    0  0.00000000000E+00  0.00000000000E+00  0.45593999997E+02  0.45594000000E+02  0.51100000000E-03 0.  1.
         11   -1    0    0    0    0 -0.00000000000E+00 -0.00000000000E+00 -0.45593999997E+02  0.45594000000E+02  0.51100000000E-03 0. -1.
    9900012    2    1    2    0    0  0.14774306712E+02 -0.40454613397E+02  0.53635389499E+01  0.47787269199E+02  0.19999991587E+02 0.  0.
         12    1    1    2    0    0 -0.14774306712E+02  0.40454613397E+02 -0.53635389499E+01  0.43400730801E+02  0.00000000000E+00 0. -1.
         11    1    3    3    0    0 -0.34061955606E+01 -0.15268473714E+01  0.14908244391E+00  0.37357270951E+01  0.51100000000E-03 0. -1.
        -11    1    3    3    0    0  0.13617142138E+02 -0.32829791488E+02  0.70095775447E+01  0.36226453688E+02  0.51100000000E-03 0.  1.
         12    1    3    3    0    0  0.45633601348E+01 -0.60979745380E+01 -0.17951210387E+01  0.78250884167E+01  0.00000000000E+00 0. -1.
</event>
<event>
 7    1  0.4818508E-009  0.4778727E+02  0.7816164E-02  0.1312668E+00
        -11   -1    0    0    0    0  0.00000000000E+00  0.00000000000E+00  0.45593999997E+02  0.45594000000E+02  0.51100000000E-03 0.  1.
         11   -1    0    0    0    0 -0.00000000000E+00 -0.00000000000E+00 -0.45593999997E+02  0.45594000000E+02  0.51100000000E-03 0. -1.
    9900012    2    1    2    0    0  0.22588453621E+02  0.30780170137E+02  0.20638958252E+02  0.47787266039E+02  0.19999977178E+02 0.  0.
         12    1    1    2    0    0 -0.22588453621E+02 -0.30780170137E+02 -0.20638958252E+02  0.43400733961E+02  0.00000000000E+00 0. -1.
         11    1    3    3    0    0  0.24326987977E+01 -0.25478901883E+01  0.22037065888E+01  0.41552485898E+01  0.51100000000E-03 0. -1.
        -11    1    3    3    0    0  0.15178018509E+02  0.22259231776E+02  0.95246211307E+01  0.28575584912E+02  0.51100000000E-03 0.  1.
        -12    1    3    3    0    0  0.49777363143E+01  0.11068828550E+02  0.89106305321E+01  0.15056432538E+02  0.00000000000E+00 0.  1.
</event>
<event>
 7    1  0.4818508E-009  0.4778727E+02  0.7816164E-02  0.1312668E+00
        -11   -1    0    0    0    0  0.00000000000E+00  0.00000000000E+00  0.45593999997E+02  0.45594000000E+02  0.51100000000E-03 0. -1.
         11   -1    0    0    0    0 -0.00000000000E+00 -0.00000000000E+00 -0.45593999997E+02  0.45594000000E+02  0.51100000000E-03 0.  1.
    9900012    2    1    2    0    0  0.30132130742E+02 -0.20290944906E+02 -0.23747743757E+02  0.47787273258E+02  0.20000010091E+02 0.  0.
         12    1    1    2    0    0 -0.30132130742E+02  0.20290944906E+02  0.23747743757E+02  0.43400726742E+02  0.00000000000E+00 0. -1.
         11    1    3    3    0    0 -0.73776652456E-01  0.29450958562E+00  0.26071186016E+00  0.40018723820E+00  0.51100000000E-03 0. -1.
        -11    1    3    3    0    0  0.15223569399E+02 -0.21757684426E+01 -0.16351392117E+02  0.22446805074E+02  0.51100000000E-03 0.  1.
        -12    1    3    3    0    0  0.14982337995E+02 -0.18409686049E+02 -0.76570634998E+01  0.24940280946E+02  0.00000000000E+00 0.  1.
</event>
<event>
 7    1  0.4818508E-009  0.4778727E+02  0.7816164E-02  0.1312668E+00
        -11   -1    0    0    0    0  0.00000000000E+00  0.00000000000E+00  0.45593999997E+02  0.45594000000E+02  0.51100000000E-03 0.  1.
         11   -1    0    0    0    0 -0.00000000000E+00 -0.00000000000E+00 -0.45593999997E+02  0.45594000000E+02  0.51100000000E-03 0. -1.
    9900012    2    1    2    0    0  0.39241911093E+02  0.42471800375E+01 -0.18045968020E+02  0.47787273205E+02  0.20000009853E+02 0.  0.
         12    1    1    2    0    0 -0.39241911093E+02 -0.42471800375E+01  0.18045968020E+02  0.43400726795E+02  0.00000000000E+00 0. -1.
         11    1    3    3    0    0  0.49306668055E+01 -0.28064645136E+01 -0.10399290522E+02  0.11846221416E+02  0.51100000000E-03 0. -1.
        -11    1    3    3    0    0  0.20415002554E+02  0.51946730080E+01 -0.53483241909E+01  0.21733879747E+02  0.51100000000E-03 0.  1.
         12    1    3    3    0    0  0.13896241734E+02  0.18589715431E+01 -0.22983533069E+01  0.14207172043E+02  0.00000000000E+00 0. -1.
</event>
<event>
 7    1  0.4818508E-009  0.4778728E+02  0.7816164E-02  0.1312668E+00
        -11   -1    0    0    0    0  0.00000000000E+00  0.00000000000E+00  0.45593999997E+02  0.45594000000E+02  0.51100000000E-03 0.  1.
         11   -1    0    0    0    0 -0.00000000000E+00 -0.00000000000E+00 -0.45593999997E+02  0.45594000000E+02  0.51100000000E-03 0. -1.
    9900012    2    1    2    0    0  0.89219367742E+01  0.23355804568E+02  0.35475740421E+02  0.47787277411E+02  0.20000029028E+02 0.  0.
         12    1    1    2    0    0 -0.89219367742E+01 -0.23355804568E+02 -0.35475740421E+02  0.43400722589E+02  0.00000000000E+00 0. -1.
         11    1    3    3    0    0 -0.51253869859E-01  0.26608683295E+01 -0.86089091286E+00  0.27971379392E+01  0.51100000000E-03 0. -1.
        -11    1    3    3    0    0  0.24378669908E+01  0.13950387812E+02  0.31251070891E+02  0.34310143510E+02  0.51100000000E-03 0.  1.
        -12    1    3    3    0    0  0.65353236532E+01  0.67445484263E+01  0.50855604427E+01  0.10679995962E+02  0.00000000000E+00 0.  1.
</event>
<event>
 7    1  0.4818508E-009  0.4778727E+02  0.7816164E-02  0.1312668E+00
        -11   -1    0    0    0    0  0.00000000000E+00  0.00000000000E+00  0.45593999997E+02  0.45594000000E+02  0.51100000000E-03 0.  1.
         11   -1    0    0    0    0 -0.00000000000E+00 -0.00000000000E+00 -0.45593999997E+02  0.45594000000E+02  0.51100000000E-03 0. -1.
    9900012    2    1    2    0    0  0.39526155043E+02 -0.60316883228E+01 -0.16879733374E+02  0.47787267342E+02  0.19999983117E+02 0.  0.
         12    1    1    2    0    0 -0.39526155043E+02  0.60316883228E+01  0.16879733374E+02  0.43400732658E+02  0.00000000000E+00 0. -1.
         11    1    3    3    0    0  0.14371969308E+01 -0.43266826156E+01  0.17574014189E+01  0.48861209033E+01  0.51100000000E-03 0. -1.
        -11    1    3    3    0    0  0.23089347920E+02  0.19164707057E+01 -0.12164007706E+02  0.26167803329E+02  0.51100000000E-03 0.  1.
         12    1    3    3    0    0  0.14999610192E+02 -0.36214764129E+01 -0.64731270874E+01  0.16733343109E+02  0.00000000000E+00 0. -1.
</event>
<event>
 7    1  0.4818508E-009  0.4778727E+02  0.7816164E-02  0.1312668E+00
        -11   -1    0    0    0    0  0.00000000000E+00  0.00000000000E+00  0.45593999997E+02  0.45594000000E+02  0.51100000000E-03 0. -1.
         11   -1    0    0    0    0 -0.00000000000E+00 -0.00000000000E+00 -0.45593999997E+02  0.45594000000E+02  0.51100000000E-03 0.  1.
    9900012    2    1    2    0    0  0.14237228735E+02  0.40637668840E+02 -0.54317842999E+01  0.47787273145E+02  0.20000009579E+02 0.  0.
         12    1    1    2    0    0 -0.14237228735E+02 -0.40637668840E+02  0.54317842999E+01  0.43400726855E+02  0.00000000000E+00 0. -1.
         11    1    3    3    0    0  0.38692063307E+01  0.31204892503E+01 -0.54293429510E+01  0.73611124113E+01  0.51100000000E-03 0. -1.
        -11    1    3    3    0    0  0.10055931004E+02  0.30299875233E+02 -0.39921366655E+01  0.32173612525E+02  0.51100000000E-03 0.  1.
        -12    1    3    3    0    0  0.31209140038E+00  0.72173043573E+01  0.39896953165E+01  0.82525482093E+01  0.00000000000E+00 0.  1.
</event>
<event>
 7    1  0.4818508E-009  0.4778729E+02  0.7816164E-02  0.1312668E+00
        -11   -1    0    0    0    0  0.00000000000E+00  0.00000000000E+00  0.45593999997E+02  0.45594000000E+02  0.51100000000E-03 0. -1.
         11   -1    0    0    0    0 -0.00000000000E+00 -0.00000000000E+00 -0.45593999997E+02  0.45594000000E+02  0.51100000000E-03 0.  1.
    9900012    2    1    2    0    0  0.22410323706E+02  0.36880579060E+02 -0.46067470835E+01  0.47787287574E+02  0.20000075366E+02 0.  0.
         12    1    1    2    0    0 -0.22410323706E+02 -0.36880579060E+02  0.46067470835E+01  0.43400712426E+02  0.00000000000E+00 0. -1.
         11    1    3    3    0    0  0.12697936902E+02  0.95236536230E+01  0.58169328332E+01  0.16904859886E+02  0.51100000000E-03 0. -1.
        -11    1    3    3    0    0  0.33379899708E+01  0.11449042895E+02 -0.46085735261E+01  0.12785214526E+02  0.51100000000E-03 0.  1.
         12    1    3    3    0    0  0.63743968326E+01  0.15907882541E+02 -0.58151063906E+01  0.18097213163E+02  0.00000000000E+00 0. -1.
</event>
<event>
 7    1  0.4818508E-009  0.4778726E+02  0.7816164E-02  0.1312668E+00
        -11   -1    0    0    0    0  0.00000000000E+00  0.00000000000E+00  0.45593999997E+02  0.45594000000E+02  0.51100000000E-03 0. -1.
         11   -1    0    0    0    0 -0.00000000000E+00 -0.00000000000E+00 -0.45593999997E+02  0.45594000000E+02  0.51100000000E-03 0.  1.
    9900012    2    1    2    0    0  0.17490151720E+02 -0.29077562883E+02 -0.27059453999E+02  0.47787261284E+02  0.19999955496E+02 0.  0.
         12    1    1    2    0    0 -0.17490151720E+02  0.29077562883E+02  0.27059453999E+02  0.43400738716E+02  0.00000000000E+00 0. -1.
         11    1    3    3    0    0  0.29018210957E+01  0.19653087288E+01 -0.45952830968E+01  0.57792413924E+01  0.51100000000E-03 0. -1.
        -11    1    3    3    0    0  0.10913118026E+02 -0.18021774359E+02 -0.18146271682E+02  0.27805892762E+02  0.51100000000E-03 0.  1.
        -12    1    3    3    0    0  0.36752125985E+01 -0.13021097253E+02 -0.43178992206E+01  0.14202127129E+02  0.00000000000E+00 0.  1.
</event>
<event>
 7    1  0.4818508E-009  0.4778727E+02  0.7816164E-02  0.1312668E+00
        -11   -1    0    0    0    0  0.00000000000E+00  0.00000000000E+00  0.45593999997E+02  0.45594000000E+02  0.51100000000E-03 0.  1.
         11   -1    0    0    0    0 -0.00000000000E+00 -0.00000000000E+00 -0.45593999997E+02  0.45594000000E+02  0.51100000000E-03 0. -1.
    9900012    2    1    2    0    0  0.39088145481E+02  0.15740209897E+02 -0.10391620924E+02  0.47787272931E+02  0.20000008602E+02 0.  0.
         12    1    1    2    0    0 -0.39088145481E+02 -0.15740209897E+02  0.10391620924E+02  0.43400727069E+02  0.00000000000E+00 0. -1.
         11    1    3    3    0    0  0.22669910466E+02  0.18041649756E+01 -0.12554110177E+02  0.25976634393E+02  0.51100000000E-03 0. -1.
        -11    1    3    3    0    0  0.10906785919E+02  0.75367694101E+01  0.13626984122E+01  0.13327333546E+02  0.51100000000E-03 0.  1.
         12    1    3    3    0    0  0.55114490960E+01  0.63992755109E+01  0.79979084111E+00  0.84833049923E+01  0.00000000000E+00 0. -1.
</event>
<event>
 7    1  0.4818508E-009  0.4778727E+02  0.7816164E-02  0.1312668E+00
        -11   -1    0    0    0    0  0.00000000000E+00  0.00000000000E+00  0.45593999997E+02  0.45594000000E+02  0.51100000000E-03 0.  1.
         11   -1    0    0    0    0 -0.00000000000E+00 -0.00000000000E+00 -0.45593999997E+02  0.45594000000E+02  0.51100000000E-03 0. -1.
    9900012    2    1    2    0    0  0.33274530580E+02  0.25465458333E+02  0.11311039896E+02  0.47787267553E+02  0.19999984082E+02 0.  0.
         12    1    1    2    0    0 -0.33274530580E+02 -0.25465458333E+02 -0.11311039896E+02  0.43400732447E+02  0.00000000000E+00 0. -1.
         11    1    3    3    0    0  0.14722581621E+02  0.18623850467E+02 -0.49490676249E+00  0.23745465857E+02  0.51100000000E-03 0. -1.
        -11    1    3    3    0    0  0.16068419371E+02  0.82737713359E+01  0.10045729428E+02  0.20677670884E+02  0.51100000000E-03 0.  1.
         12    1    3    3    0    0  0.24835295876E+01 -0.14321634704E+01  0.17602172310E+01  0.33641308118E+01  0.00000000000E+00 0. -1.
</event>
<event>
 7    1  0.4818508E-009  0.4778727E+02  0.7816164E-02  0.1312668E+00
        -11   -1    0    0    0    0  0.00000000000E+00  0.00000000000E+00  0.45593999997E+02  0.45594000000E+02  0.51100000000E-03 0. -1.
         11   -1    0    0    0    0 -0.00000000000E+00 -0.00000000000E+00 -0.45593999997E+02  0.45594000000E+02  0.51100000000E-03 0.  1.
    9900012    2    1    2    0    0 -0.13697211403E+02 -0.32763049721E+02 -0.24951794765E+02  0.47787273172E+02  0.20000009699E+02 0.  0.
         12    1    1    2    0    0  0.13697211403E+02  0.32763049721E+02  0.24951794765E+02  0.43400726828E+02  0.00000000000E+00 0. -1.
         11    1    3    3    0    0 -0.10909750327E+02 -0.11245325598E+02 -0.29965768203E+01  0.15951785884E+02  0.51100000000E-03 0. -1.
        -11    1    3    3    0    0 -0.54056766743E+01 -0.16429432682E+02 -0.17241600198E+02  0.24421719354E+02  0.51100000000E-03 0.  1.
        -12    1    3    3    0    0  0.26182155980E+01 -0.50882914411E+01 -0.47136177467E+01  0.74137679333E+01  0.00000000000E+00 0.  1.
</event>
<event>
 7    1  0.4818508E-009  0.4778728E+02  0.7816164E-02  0.1312668E+00
        -11   -1    0    0    0    0  0.00000000000E+00  0.00000000000E+00  0.45593999997E+02  0.45594000000E+02  0.51100000000E-03 0.  1.
         11   -1    0    0    0    0 -0.00000000000E+00 -0.00000000000E+00 -0.45593999997E+02  0.45594000000E+02  0.51100000000E-03 0. -1.
    9900012    2    1    2    0    0 -0.59996822068E+01  0.41100300707E+02  0.12585378343E+02  0.47787278200E+02  0.20000032623E+02 0.  0.
         12    1    1    2    0    0  0.59996822068E+01 -0.41100300707E+02 -0.12585378343E+02  0.43400721800E+02  0.00000000000E+00 0. -1.
         11    1    3    3    0    0 -0.12225699110E+02  0.28079248275E+02  0.76165138675E+01  0.31558250683E+02  0.51100000000E-03 0. -1.
        -11    1    3    3    0    0  0.62946295589E+01  0.12083499000E+02  0.59526300944E+01  0.14868325886E+02  0.51100000000E-03 0.  1.
        -12    1    3    3    0    0 -0.68612655625E-01  0.93755343156E+00 -0.98376561854E+00  0.13607016300E+01  0.00000000000E+00 0.  1.
</event>
<event>
 7    1  0.4818508E-009  0.4778727E+02  0.7816164E-02  0.1312668E+00
        -11   -1    0    0    0    0  0.00000000000E+00  0.00000000000E+00  0.45593999997E+02  0.45594000000E+02  0.51100000000E-03 0.  1.
         11   -1    0    0    0    0 -0.00000000000E+00 -0.00000000000E+00 -0.45593999997E+02  0.45594000000E+02  0.51100000000E-03 0. -1.
    9900012    2    1    2    0    0 -0.29600525482E+02 -0.30429481938E+02 -0.90265467270E+01  0.47787273905E+02  0.20000013040E+02 0.  0.
         12    1    1    2    0    0  0.29600525482E+02  0.30429481938E+02  0.90265467270E+01  0.43400726095E+02  0.00000000000E+00 0. -1.
         11    1    3    3    0    0  0.57592999240E+00 -0.56038352813E+01 -0.33490344954E+01  0.65536781679E+01  0.51100000000E-03 0. -1.
        -11    1    3    3    0    0 -0.23812110646E+02 -0.23605250757E+02 -0.77809770866E+01  0.34420460215E+02  0.51100000000E-03 0.  1.
        -12    1    3    3    0    0 -0.63643448281E+01 -0.12203958998E+01  0.21034648550E+01  0.68131355219E+01  0.00000000000E+00 0.  1.
</event>
<event>
 7    1  0.4818508E-009  0.4778727E+02  0.7816164E-02  0.1312668E+00
        -11   -1    0    0    0    0  0.00000000000E+00  0.00000000000E+00  0.45593999997E+02  0.45594000000E+02  0.51100000000E-03 0.  1.
         11   -1    0    0    0    0 -0.00000000000E+00 -0.00000000000E+00 -0.45593999997E+02  0.45594000000E+02  0.51100000000E-03 0. -1.
    9900012    2    1    2    0    0 -0.16248526832E+02  0.14555869713E+02  0.37519799191E+02  0.47787270759E+02  0.19999998696E+02 0.  0.
         12    1    1    2    0    0  0.16248526832E+02 -0.14555869713E+02 -0.37519799191E+02  0.43400729241E+02  0.00000000000E+00 0. -1.
         11    1    3    3    0    0 -0.26128684830E+01  0.58526591278E+01  0.51262539962E+01  0.82072639089E+01  0.51100000000E-03 0. -1.
        -11    1    3    3    0    0 -0.10102748675E+02 -0.15393635916E+01  0.83103653970E+01  0.13171839065E+02  0.51100000000E-03 0.  1.
        -12    1    3    3    0    0 -0.35329096739E+01  0.10242574177E+02  0.24083179798E+02  0.26408167784E+02  0.00000000000E+00 0.  1.
</event>
<event>
 7    1  0.4818508E-009  0.4778727E+02  0.7816164E-02  0.1312668E+00
        -11   -1    0    0    0    0  0.00000000000E+00  0.00000000000E+00  0.45593999997E+02  0.45594000000E+02  0.51100000000E-03 0.  1.
         11   -1    0    0    0    0 -0.00000000000E+00 -0.00000000000E+00 -0.45593999997E+02  0.45594000000E+02  0.51100000000E-03 0. -1.
    9900012    2    1    2    0    0  0.12302260138E+01 -0.12559527046E+02  0.41525510466E+02  0.47787271952E+02  0.20000004139E+02 0.  0.
         12    1    1    2    0    0 -0.12302260138E+01  0.12559527046E+02 -0.41525510466E+02  0.43400728048E+02  0.00000000000E+00 0. -1.
         11    1    3    3    0    0 -0.51749370012E+01 -0.33302207374E+01  0.77174632550E+01  0.98706424552E+01  0.51100000000E-03 0. -1.
        -11    1    3    3    0    0  0.73111074866E+01 -0.77171659071E+01  0.34440544931E+02  0.36043835502E+02  0.51100000000E-03 0.  1.
        -12    1    3    3    0    0 -0.90594447161E+00 -0.15121404015E+01 -0.63249772044E+00  0.18727939945E+01  0.00000000000E+00 0.  1.
</event>
<event>
 7    1  0.4818508E-009  0.4778727E+02  0.7816164E-02  0.1312668E+00
        -11   -1    0    0    0    0  0.00000000000E+00  0.00000000000E+00  0.45593999997E+02  0.45594000000E+02  0.51100000000E-03 0.  1.
         11   -1    0    0    0    0 -0.00000000000E+00 -0.00000000000E+00 -0.45593999997E+02  0.45594000000E+02  0.51100000000E-03 0. -1.
    9900012    2    1    2    0    0  0.29798990168E+02  0.26967987223E+02  0.16382038471E+02  0.47787270347E+02  0.19999996820E+02 0.  0.
         12    1    1    2    0    0 -0.29798990168E+02 -0.26967987223E+02 -0.16382038471E+02  0.43400729653E+02  0.00000000000E+00 0. -1.
         11    1    3    3    0    0  0.49070292582E+01  0.29163795310E+01 -0.19098256838E+01  0.60192723907E+01  0.51100000000E-03 0. -1.
        -11    1    3    3    0    0  0.18514661991E+01  0.50849218204E+01  0.90184739599E+01  0.10517472597E+02  0.51100000000E-03 0.  1.
        -12    1    3    3    0    0  0.23040494711E+02  0.18966685872E+02  0.92733901952E+01  0.31250525359E+02  0.00000000000E+00 0.  1.
</event>
<event>
 7    1  0.4818508E-009  0.4778727E+02  0.7816164E-02  0.1312668E+00
        -11   -1    0    0    0    0  0.00000000000E+00  0.00000000000E+00  0.45593999997E+02  0.45594000000E+02  0.51100000000E-03 0.  1.
         11   -1    0    0    0    0 -0.00000000000E+00 -0.00000000000E+00 -0.45593999997E+02  0.45594000000E+02  0.51100000000E-03 0. -1.
    9900012    2    1    2    0    0 -0.16837297736E+02 -0.55902714511E+01  0.39609065460E+02  0.47787265022E+02  0.19999972544E+02 0.  0.
         12    1    1    2    0    0  0.16837297736E+02  0.55902714511E+01 -0.39609065460E+02  0.43400734978E+02  0.00000000000E+00 0. -1.
         11    1    3    3    0    0 -0.42644293836E+01  0.55662975230E+01  0.53299094222E+01  0.88077784254E+01  0.51100000000E-03 0. -1.
        -11    1    3    3    0    0 -0.47898062653E+01 -0.78311185780E+01  0.11735236153E+02  0.14899141924E+02  0.51100000000E-03 0.  1.
         12    1    3    3    0    0 -0.77830620869E+01 -0.33254503962E+01  0.22543919885E+02  0.24080344673E+02  0.00000000000E+00 0. -1.
</event>
<event>
 7    1  0.4818508E-009  0.4778727E+02  0.7816164E-02  0.1312668E+00
        -11   -1    0    0    0    0  0.00000000000E+00  0.00000000000E+00  0.45593999997E+02  0.45594000000E+02  0.51100000000E-03 0.  1.
         11   -1    0    0    0    0 -0.00000000000E+00 -0.00000000000E+00 -0.45593999997E+02  0.45594000000E+02  0.51100000000E-03 0. -1.
    9900012    2    1    2    0    0  0.27669944330E+01 -0.37275465215E+02  0.22056896570E+02  0.47787271302E+02  0.20000001175E+02 0.  0.
         12    1    1    2    0    0 -0.27669944330E+01  0.37275465215E+02 -0.22056896570E+02  0.43400728698E+02  0.00000000000E+00 0. -1.
         11    1    3    3    0    0  0.67519220694E+01 -0.25282909052E+02  0.12460299529E+02  0.28984012945E+02  0.51100000000E-03 0. -1.
        -11    1    3    3    0    0 -0.23662402598E+00 -0.12421373173E+01  0.70163762958E+01  0.71294061906E+01  0.51100000000E-03 0.  1.
         12    1    3    3    0    0 -0.37483036105E+01 -0.10750418846E+02  0.25802207447E+01  0.11673852167E+02  0.00000000000E+00 0. -1.
</event>
<event>
 7    1  0.4818508E-009  0.4778727E+02  0.7816164E-02  0.1312668E+00
        -11   -1    0    0    0    0  0.00000000000E+00  0.00000000000E+00  0.45593999997E+02  0.45594000000E+02  0.51100000000E-03 0.  1.
         11   -1    0    0    0    0 -0.00000000000E+00 -0.00000000000E+00 -0.45593999997E+02  0.45594000000E+02  0.51100000000E-03 0. -1.
    9900012    2    1    2    0    0 -0.31198067767E+02 -0.15167348876E+02  0.26081705910E+02  0.47787270887E+02  0.19999999284E+02 0.  0.
         12    1    1    2    0    0  0.31198067767E+02  0.15167348876E+02 -0.26081705910E+02  0.43400729113E+02  0.00000000000E+00 0. -1.
         11    1    3    3    0    0 -0.19502102521E+01  0.32594847955E+01  0.49619050531E+01  0.62488449475E+01  0.51100000000E-03 0. -1.
        -11    1    3    3    0    0 -0.24185673066E+02 -0.18473905826E+02  0.16190773784E+02  0.34472788313E+02  0.51100000000E-03 0.  1.
        -12    1    3    3    0    0 -0.50621844494E+01  0.47072154646E-01  0.49290270725E+01  0.70656376265E+01  0.00000000000E+00 0.  1.
</event>
<event>
 7    1  0.4818508E-009  0.4778727E+02  0.7816164E-02  0.1312668E+00
        -11   -1    0    0    0    0  0.00000000000E+00  0.00000000000E+00  0.45593999997E+02  0.45594000000E+02  0.51100000000E-03 0.  1.
         11   -1    0    0    0    0 -0.00000000000E+00 -0.00000000000E+00 -0.45593999997E+02  0.45594000000E+02  0.51100000000E-03 0. -1.
    9900012    2    1    2    0    0 -0.21045142027E+02  0.26380258129E+02  0.27291157067E+02  0.47787271020E+02  0.19999999888E+02 0.  0.
         12    1    1    2    0    0  0.21045142027E+02 -0.26380258129E+02 -0.27291157067E+02  0.43400728980E+02  0.00000000000E+00 0. -1.
         11    1    3    3    0    0 -0.46963666598E+01  0.12396094388E+02  0.35787933225E+01  0.13730505372E+02  0.51100000000E-03 0. -1.
        -11    1    3    3    0    0 -0.11469887666E+01  0.31021713884E+01 -0.62676908188E+00  0.33662873164E+01  0.51100000000E-03 0.  1.
        -12    1    3    3    0    0 -0.15201786601E+02  0.10881992353E+02  0.24339132827E+02  0.30690478331E+02  0.00000000000E+00 0.  1.
</event>
<event>
 7    1  0.4818508E-009  0.4778727E+02  0.7816164E-02  0.1312668E+00
        -11   -1    0    0    0    0  0.00000000000E+00  0.00000000000E+00  0.45593999997E+02  0.45594000000E+02  0.51100000000E-03 0.  1.
         11   -1    0    0    0    0 -0.00000000000E+00 -0.00000000000E+00 -0.45593999997E+02  0.45594000000E+02  0.51100000000E-03 0. -1.
    9900012    2    1    2    0    0 -0.37804363591E+02 -0.61345948189E+01  0.20416170807E+02  0.47787272005E+02  0.20000004380E+02 0.  0.
         12    1    1    2    0    0  0.37804363591E+02  0.61345948189E+01 -0.20416170807E+02  0.43400727995E+02  0.00000000000E+00 0. -1.
         11    1    3    3    0    0 -0.79094895643E+01  0.20134379271E+01  0.53066643759E+01  0.97352269882E+01  0.51100000000E-03 0. -1.
        -11    1    3    3    0    0 -0.13820412152E+02 -0.67159366085E+01  0.15613068664E+02  0.21906061033E+02  0.51100000000E-03 0.  1.
        -12    1    3    3    0    0 -0.16074461874E+02 -0.14320961375E+01 -0.50356223332E+00  0.16145983984E+02  0.00000000000E+00 0.  1.
</event>
<event>
 7    1  0.4818508E-009  0.4778727E+02  0.7816164E-02  0.1312668E+00
        -11   -1    0    0    0    0  0.00000000000E+00  0.00000000000E+00  0.45593999997E+02  0.45594000000E+02  0.51100000000E-03 0. -1.
         11   -1    0    0    0    0 -0.00000000000E+00 -0.00000000000E+00 -0.45593999997E+02  0.45594000000E+02  0.51100000000E-03 0.  1.
    9900012    2    1    2    0    0  0.27039495642E+02 -0.82570355611E+01 -0.32928868030E+02  0.47787270622E+02  0.19999998073E+02 0.  0.
         12    1    1    2    0    0 -0.27039495642E+02  0.82570355611E+01  0.32928868030E+02  0.43400729378E+02  0.00000000000E+00 0. -1.
         11    1    3    3    0    0  0.43222849658E+01 -0.31799266739E+01  0.13651803452E+01  0.55369484929E+01  0.51100000000E-03 0. -1.
        -11    1    3    3    0    0  0.18900630703E+02 -0.32525860167E+01 -0.32320633370E+02  0.37582396125E+02  0.51100000000E-03 0.  1.
         12    1    3    3    0    0  0.38165799732E+01 -0.18245228705E+01 -0.19734150051E+01  0.46679260040E+01  0.00000000000E+00 0. -1.
</event>
<event>
 7    1  0.4818508E-009  0.4778727E+02  0.7816164E-02  0.1312668E+00
        -11   -1    0    0    0    0  0.00000000000E+00  0.00000000000E+00  0.45593999997E+02  0.45594000000E+02  0.51100000000E-03 0.  1.
         11   -1    0    0    0    0 -0.00000000000E+00 -0.00000000000E+00 -0.45593999997E+02  0.45594000000E+02  0.51100000000E-03 0. -1.
    9900012    2    1    2    0    0  0.29670530772E+02  0.20597297462E+02 -0.24063132374E+02  0.47787269607E+02  0.19999993444E+02 0.  0.
         12    1    1    2    0    0 -0.29670530772E+02 -0.20597297462E+02  0.24063132374E+02  0.43400730393E+02  0.00000000000E+00 0. -1.
         11    1    3    3    0    0  0.27740256383E+02  0.10976391285E+02 -0.19222322451E+02  0.35489444494E+02  0.51100000000E-03 0. -1.
        -11    1    3    3    0    0 -0.14439828443E+00  0.64812535957E+01 -0.54701816942E+01  0.84823574002E+01  0.51100000000E-03 0.  1.
        -12    1    3    3    0    0  0.20746726731E+01  0.31396525821E+01  0.62937177113E+00  0.38154677122E+01  0.00000000000E+00 0.  1.
</event>
<event>
 7    1  0.4818508E-009  0.4778727E+02  0.7816164E-02  0.1312668E+00
        -11   -1    0    0    0    0  0.00000000000E+00  0.00000000000E+00  0.45593999997E+02  0.45594000000E+02  0.51100000000E-03 0.  1.
         11   -1    0    0    0    0 -0.00000000000E+00 -0.00000000000E+00 -0.45593999997E+02  0.45594000000E+02  0.51100000000E-03 0. -1.
    9900012    2    1    2    0    0 -0.14557649424E+02  0.21622581672E+02  0.34701037748E+02  0.47787271715E+02  0.20000003057E+02 0.  0.
         12    1    1    2    0    0  0.14557649424E+02 -0.21622581672E+02 -0.34701037748E+02  0.43400728285E+02  0.00000000000E+00 0. -1.
         11    1    3    3    0    0 -0.10306804093E+02  0.90674528948E+01  0.26464277393E+02  0.29812864519E+02  0.51100000000E-03 0. -1.
        -11    1    3    3    0    0 -0.13762459804E+01 -0.11906775721E+01  0.16770296584E+01  0.24747110570E+01  0.51100000000E-03 0.  1.
         12    1    3    3    0    0 -0.28745993513E+01  0.13745806349E+02  0.65597306961E+01  0.15499696139E+02  0.00000000000E+00 0. -1.
</event>
<event>
 7    1  0.4818508E-009  0.4778727E+02  0.7816164E-02  0.1312668E+00
        -11   -1    0    0    0    0  0.00000000000E+00  0.00000000000E+00  0.45593999997E+02  0.45594000000E+02  0.51100000000E-03 0. -1.
         11   -1    0    0    0    0 -0.00000000000E+00 -0.00000000000E+00 -0.45593999997E+02  0.45594000000E+02  0.51100000000E-03 0.  1.
    9900012    2    1    2    0    0 -0.33532661605E+02  0.25930443342E+02 -0.93164376535E+01  0.47787270781E+02  0.19999998797E+02 0.  0.
         12    1    1    2    0    0  0.33532661605E+02 -0.25930443342E+02  0.93164376535E+01  0.43400729219E+02  0.00000000000E+00 0. -1.
         11    1    3    3    0    0 -0.15457992030E+02  0.19954581162E+02  0.27621115672E+00  0.25243041017E+02  0.51100000000E-03 0.  1.
        -11    1    3    3    0    0 -0.83432570772E+01 -0.13962299640E+00 -0.14766234513E+01  0.84740692891E+01  0.51100000000E-03 0. -1.
         12    1    3    3    0    0 -0.97314124976E+01  0.61154851766E+01 -0.81160253590E+01  0.14070160474E+02  0.00000000000E+00 0. -1.
</event>
<event>
 7    1  0.4818508E-009  0.4778727E+02  0.7816164E-02  0.1312668E+00
        -11   -1    0    0    0    0  0.00000000000E+00  0.00000000000E+00  0.45593999997E+02  0.45594000000E+02  0.51100000000E-03 0.  1.
         11   -1    0    0    0    0 -0.00000000000E+00 -0.00000000000E+00 -0.45593999997E+02  0.45594000000E+02  0.51100000000E-03 0. -1.
    9900012    2    1    2    0    0 -0.51563572446E+01 -0.83351121777E+01  0.42279562082E+02  0.47787268613E+02  0.19999988916E+02 0.  0.
         12    1    1    2    0    0  0.51563572446E+01  0.83351121777E+01 -0.42279562082E+02  0.43400731387E+02  0.00000000000E+00 0. -1.
         11    1    3    3    0    0  0.15288280526E+01  0.51989020119E+01  0.14912671070E+02  0.15866746864E+02  0.51100000000E-03 0. -1.
        -11    1    3    3    0    0 -0.29187737472E+01 -0.89436471855E+01  0.21957867384E+02  0.23888407345E+02  0.51100000000E-03 0.  1.
         12    1    3    3    0    0 -0.37664115500E+01 -0.45903670041E+01  0.54090236274E+01  0.80321144040E+01  0.00000000000E+00 0. -1.
</event>
<event>
 7    1  0.4818508E-009  0.4778726E+02  0.7816164E-02  0.1312668E+00
        -11   -1    0    0    0    0  0.00000000000E+00  0.00000000000E+00  0.45593999997E+02  0.45594000000E+02  0.51100000000E-03 0.  1.
         11   -1    0    0    0    0 -0.00000000000E+00 -0.00000000000E+00 -0.45593999997E+02  0.45594000000E+02  0.51100000000E-03 0. -1.
    9900012    2    1    2    0    0  0.60767473885E+01  0.34259155316E+02  0.25942393553E+02  0.47787258474E+02  0.19999942686E+02 0.  0.
         12    1    1    2    0    0 -0.60767473885E+01 -0.34259155316E+02 -0.25942393553E+02  0.43400741526E+02  0.00000000000E+00 0. -1.
         11    1    3    3    0    0  0.27285508399E+01 -0.13045772955E+01  0.51441404937E+01  0.59673355265E+01  0.51100000000E-03 0. -1.
        -11    1    3    3    0    0  0.22914883480E+01  0.25882176211E+02  0.18252598719E+02  0.31753666316E+02  0.51100000000E-03 0.  1.
         12    1    3    3    0    0  0.10567082006E+01  0.96815564005E+01  0.25456543401E+01  0.10066256632E+02  0.00000000000E+00 0. -1.
</event>
<event>
 7    1  0.4818508E-009  0.4778727E+02  0.7816164E-02  0.1312668E+00
        -11   -1    0    0    0    0  0.00000000000E+00  0.00000000000E+00  0.45593999997E+02  0.45594000000E+02  0.51100000000E-03 0.  1.
         11   -1    0    0    0    0 -0.00000000000E+00 -0.00000000000E+00 -0.45593999997E+02  0.45594000000E+02  0.51100000000E-03 0. -1.
    9900012    2    1    2    0    0  0.49588777588E+01 -0.47250447994E+00  0.43113914579E+02  0.47787270059E+02  0.19999995506E+02 0.  0.
         12    1    1    2    0    0 -0.49588777588E+01  0.47250447994E+00 -0.43113914579E+02  0.43400729941E+02  0.00000000000E+00 0. -1.
         11    1    3    3    0    0 -0.41427803314E+01 -0.10250525495E+01  0.82626974538E+01  0.92997597322E+01  0.51100000000E-03 0. -1.
        -11    1    3    3    0    0  0.91740787339E+01  0.51123218762E+01  0.16349675584E+02  0.19432227035E+02  0.51100000000E-03 0.  1.
        -12    1    3    3    0    0 -0.72420643701E-01 -0.45597738066E+01  0.18501541541E+02  0.19055283291E+02  0.00000000000E+00 0.  1.
</event>
<event>
 7    1  0.4818508E-009  0.4778728E+02  0.7816164E-02  0.1312668E+00
        -11   -1    0    0    0    0  0.00000000000E+00  0.00000000000E+00  0.45593999997E+02  0.45594000000E+02  0.51100000000E-03 0.  1.
         11   -1    0    0    0    0 -0.00000000000E+00 -0.00000000000E+00 -0.45593999997E+02  0.45594000000E+02  0.51100000000E-03 0. -1.
    9900012    2    1    2    0    0  0.16141518186E+02 -0.11436022848E+02  0.38630190257E+02  0.47787276190E+02  0.20000023460E+02 0.  0.
         12    1    1    2    0    0 -0.16141518186E+02  0.11436022848E+02 -0.38630190257E+02  0.43400723810E+02  0.00000000000E+00 0. -1.
         11    1    3    3    0    0  0.10334596181E+02  0.24193490759E+00  0.27859872741E+02  0.29715903489E+02  0.51100000000E-03 0. -1.
        -11    1    3    3    0    0  0.17836584450E+01 -0.40865430785E+01  0.21858725603E+00  0.44641967285E+01  0.51100000000E-03 0.  1.
         12    1    3    3    0    0  0.40232635605E+01 -0.75914146776E+01  0.10551730260E+02  0.13607175973E+02  0.00000000000E+00 0. -1.
</event>
<event>
 7    1  0.4818508E-009  0.4778727E+02  0.7816164E-02  0.1312668E+00
        -11   -1    0    0    0    0  0.00000000000E+00  0.00000000000E+00  0.45593999997E+02  0.45594000000E+02  0.51100000000E-03 0.  1.
         11   -1    0    0    0    0 -0.00000000000E+00 -0.00000000000E+00 -0.45593999997E+02  0.45594000000E+02  0.51100000000E-03 0. -1.
    9900012    2    1    2    0    0 -0.28088661230E+02  0.32244747856E+02  0.74112511739E+01  0.47787270767E+02  0.19999998734E+02 0.  0.
         12    1    1    2    0    0  0.28088661230E+02 -0.32244747856E+02 -0.74112511739E+01  0.43400729233E+02  0.00000000000E+00 0. -1.
         11    1    3    3    0    0 -0.11633396551E+02  0.48999883986E+01 -0.39949405007E+01  0.13240292726E+02  0.51100000000E-03 0. -1.
        -11    1    3    3    0    0 -0.92668365408E+01  0.17231875970E+02  0.10244429883E+02  0.22085292681E+02  0.51100000000E-03 0.  1.
        -12    1    3    3    0    0 -0.71884281388E+01  0.10112883488E+02  0.11617617912E+01  0.12461685360E+02  0.00000000000E+00 0.  1.
</event>
<event>
 7    1  0.4818508E-009  0.4778727E+02  0.7816164E-02  0.1312668E+00
        -11   -1    0    0    0    0  0.00000000000E+00  0.00000000000E+00  0.45593999997E+02  0.45594000000E+02  0.51100000000E-03 0. -1.
         11   -1    0    0    0    0 -0.00000000000E+00 -0.00000000000E+00 -0.45593999997E+02  0.45594000000E+02  0.51100000000E-03 0.  1.
    9900012    2    1    2    0    0  0.15250895768E+02  0.35004916313E+02 -0.20632242624E+02  0.47787269321E+02  0.19999992140E+02 0.  0.
         12    1    1    2    0    0 -0.15250895768E+02 -0.35004916313E+02  0.20632242624E+02  0.43400730679E+02  0.00000000000E+00 0. -1.
         11    1    3    3    0    0  0.73314119496E+01  0.16408431960E+02 -0.14129341544E+02  0.22860982771E+02  0.51100000000E-03 0. -1.
        -11    1    3    3    0    0 -0.11467989532E+01 -0.13899102134E+01  0.53353717367E+00  0.18792712463E+01  0.51100000000E-03 0.  1.
        -12    1    3    3    0    0  0.90662827715E+01  0.19986394567E+02 -0.70364382544E+01  0.23047015303E+02  0.00000000000E+00 0.  1.
</event>
<event>
 7    1  0.4818508E-009  0.4778727E+02  0.7816164E-02  0.1312668E+00
        -11   -1    0    0    0    0  0.00000000000E+00  0.00000000000E+00  0.45593999997E+02  0.45594000000E+02  0.51100000000E-03 0. -1.
         11   -1    0    0    0    0 -0.00000000000E+00 -0.00000000000E+00 -0.45593999997E+02  0.45594000000E+02  0.51100000000E-03 0.  1.
    9900012    2    1    2    0    0  0.13913685229E+02 -0.40956806994E+02  0.35457895977E+01  0.47787270748E+02  0.19999998646E+02 0.  0.
         12    1    1    2    0    0 -0.13913685229E+02  0.40956806994E+02 -0.35457895977E+01  0.43400729252E+02  0.00000000000E+00 0. -1.
         11    1    3    3    0    0  0.79154789268E+01 -0.60860058881E+01  0.32573645527E+01  0.10502604363E+02  0.51100000000E-03 0. -1.
        -11    1    3    3    0    0  0.20238792061E+01 -0.25863891504E+02  0.49190978351E+01  0.26405198248E+02  0.51100000000E-03 0.  1.
        -12    1    3    3    0    0  0.39743270964E+01 -0.90069096016E+01 -0.46306727901E+01  0.10879468136E+02  0.00000000000E+00 0.  1.
</event>
<event>
 7    1  0.4818508E-009  0.4778727E+02  0.7816164E-02  0.1312668E+00
        -11   -1    0    0    0    0  0.00000000000E+00  0.00000000000E+00  0.45593999997E+02  0.45594000000E+02  0.51100000000E-03 0.  1.
         11   -1    0    0    0    0 -0.00000000000E+00 -0.00000000000E+00 -0.45593999997E+02  0.45594000000E+02  0.51100000000E-03 0. -1.
    9900012    2    1    2    0    0  0.31996335213E+02 -0.19362873711E+02  0.22021285335E+02  0.47787270130E+02  0.19999995833E+02 0.  0.
         12    1    1    2    0    0 -0.31996335213E+02  0.19362873711E+02 -0.22021285335E+02  0.43400729870E+02  0.00000000000E+00 0. -1.
         11    1    3    3    0    0 -0.53136161981E+00 -0.95105330495E+00  0.36695570937E+01  0.38278580283E+01  0.51100000000E-03 0. -1.
        -11    1    3    3    0    0  0.29002367372E+02 -0.10755603299E+02  0.11175283043E+02  0.32889318431E+02  0.51100000000E-03 0.  1.
        -12    1    3    3    0    0  0.35253294608E+01 -0.76562171074E+01  0.71764451987E+01  0.11070093671E+02  0.00000000000E+00 0.  1.
</event>
<event>
 7    1  0.4818508E-009  0.4778727E+02  0.7816164E-02  0.1312668E+00
        -11   -1    0    0    0    0  0.00000000000E+00  0.00000000000E+00  0.45593999997E+02  0.45594000000E+02  0.51100000000E-03 0.  1.
         11   -1    0    0    0    0 -0.00000000000E+00 -0.00000000000E+00 -0.45593999997E+02  0.45594000000E+02  0.51100000000E-03 0. -1.
    9900012    2    1    2    0    0 -0.28160079585E+01  0.28396998508E+02  0.32700217332E+02  0.47787266842E+02  0.19999980840E+02 0.  0.
         12    1    1    2    0    0  0.28160079585E+01 -0.28396998508E+02 -0.32700217332E+02  0.43400733158E+02  0.00000000000E+00 0. -1.
         11    1    3    3    0    0 -0.41994603983E+01  0.15081277682E+02  0.16159798527E+02  0.22499322054E+02  0.51100000000E-03 0. -1.
        -11    1    3    3    0    0  0.71291355233E+01  0.40555446449E+01  0.77899576029E+01  0.11311739716E+02  0.51100000000E-03 0.  1.
        -12    1    3    3    0    0 -0.57456830836E+01  0.92601761809E+01  0.87504612013E+01  0.13976205073E+02  0.00000000000E+00 0.  1.
</event>
<event>
 7    1  0.4818508E-009  0.4778727E+02  0.7816164E-02  0.1312668E+00
        -11   -1    0    0    0    0  0.00000000000E+00  0.00000000000E+00  0.45593999997E+02  0.45594000000E+02  0.51100000000E-03 0. -1.
         11   -1    0    0    0    0 -0.00000000000E+00 -0.00000000000E+00 -0.45593999997E+02  0.45594000000E+02  0.51100000000E-03 0.  1.
    9900012    2    1    2    0    0  0.31810787686E+02  0.27073785695E+02 -0.11777403956E+02  0.47787270409E+02  0.19999997103E+02 0.  0.
         12    1    1    2    0    0 -0.31810787686E+02 -0.27073785695E+02  0.11777403956E+02  0.43400729591E+02  0.00000000000E+00 0. -1.
         11    1    3    3    0    0  0.37515300994E+01 -0.12905072520E+01 -0.10203136473E+01  0.40963919800E+01  0.51100000000E-03 0. -1.
        -11    1    3    3    0    0  0.28938470362E+02  0.25553424870E+02 -0.12094858547E+02  0.40456126767E+02  0.51100000000E-03 0.  1.
        -12    1    3    3    0    0 -0.87921277564E+00  0.28108680774E+01  0.13377682382E+01  0.32347516617E+01  0.00000000000E+00 0.  1.
</event>
<event>
 7    1  0.4818508E-009  0.4778728E+02  0.7816164E-02  0.1312668E+00
        -11   -1    0    0    0    0  0.00000000000E+00  0.00000000000E+00  0.45593999997E+02  0.45594000000E+02  0.51100000000E-03 0.  1.
         11   -1    0    0    0    0 -0.00000000000E+00 -0.00000000000E+00 -0.45593999997E+02  0.45594000000E+02  0.51100000000E-03 0. -1.
    9900012    2    1    2    0    0 -0.13238799880E+02 -0.39171071576E+02  0.13190286116E+02  0.47787282051E+02  0.20000050184E+02 0.  0.
         12    1    1    2    0    0  0.13238799880E+02  0.39171071576E+02 -0.13190286116E+02  0.43400717949E+02  0.00000000000E+00 0. -1.
         11    1    3    3    0    0 -0.10401782060E+02 -0.48911192397E+01  0.32134101918E+01  0.11935079504E+02  0.51100000000E-03 0. -1.
        -11    1    3    3    0    0 -0.13302000062E+01 -0.13709516905E+02  0.48068494050E+01  0.14588560151E+02  0.51100000000E-03 0.  1.
         12    1    3    3    0    0 -0.15068178136E+01 -0.20570435431E+02  0.51700265191E+01  0.21263642397E+02  0.00000000000E+00 0. -1.
</event>
<event>
 7    1  0.4818508E-009  0.4778727E+02  0.7816164E-02  0.1312668E+00
        -11   -1    0    0    0    0  0.00000000000E+00  0.00000000000E+00  0.45593999997E+02  0.45594000000E+02  0.51100000000E-03 0.  1.
         11   -1    0    0    0    0 -0.00000000000E+00 -0.00000000000E+00 -0.45593999997E+02  0.45594000000E+02  0.51100000000E-03 0. -1.
    9900012    2    1    2    0    0  0.99188403908E+01 -0.20088154418E+02  0.37171308285E+02  0.47787268414E+02  0.19999988006E+02 0.  0.
         12    1    1    2    0    0 -0.99188403908E+01  0.20088154418E+02 -0.37171308285E+02  0.43400731586E+02  0.00000000000E+00 0. -1.
         11    1    3    3    0    0  0.74518391772E+01 -0.10187429745E+02  0.82472577721E+01  0.15077496243E+02  0.51100000000E-03 0. -1.
        -11    1    3    3    0    0  0.28749807153E+01 -0.52673719062E+01  0.27029206307E+02  0.27687338528E+02  0.51100000000E-03 0.  1.
        -12    1    3    3    0    0 -0.40797950169E+00 -0.46333527662E+01  0.18948442054E+01  0.50224336424E+01  0.00000000000E+00 0.  1.
</event>
<event>
 7    1  0.4818508E-009  0.4778726E+02  0.7816164E-02  0.1312668E+00
        -11   -1    0    0    0    0  0.00000000000E+00  0.00000000000E+00  0.45593999997E+02  0.45594000000E+02  0.51100000000E-03 0. -1.
         11   -1    0    0    0    0 -0.00000000000E+00 -0.00000000000E+00 -0.45593999997E+02  0.45594000000E+02  0.51100000000E-03 0.  1.
    9900012    2    1    2    0    0  0.29499311588E+02 -0.28010797906E+02 -0.15126458146E+02  0.47787263606E+02  0.19999966085E+02 0.  0.
         12    1    1    2    0    0 -0.29499311588E+02  0.28010797906E+02  0.15126458146E+02  0.43400736394E+02  0.00000000000E+00 0. -1.
         11    1    3    3    0    0  0.10034555882E+02 -0.18511714903E+02 -0.10483547216E+02  0.23521918776E+02  0.51100000000E-03 0. -1.
        -11    1    3    3    0    0  0.18448275906E+02 -0.10280504917E+02 -0.64203776324E+01  0.22073715465E+02  0.51100000000E-03 0.  1.
         12    1    3    3    0    0  0.10164798006E+01  0.78142191367E+00  0.17774667032E+01  0.21916293649E+01  0.00000000000E+00 0. -1.
</event>
<event>
 7    1  0.4818508E-009  0.4778727E+02  0.7816164E-02  0.1312668E+00
        -11   -1    0    0    0    0  0.00000000000E+00  0.00000000000E+00  0.45593999997E+02  0.45594000000E+02  0.51100000000E-03 0. -1.
         11   -1    0    0    0    0 -0.00000000000E+00 -0.00000000000E+00 -0.45593999997E+02  0.45594000000E+02  0.51100000000E-03 0.  1.
    9900012    2    1    2    0    0  0.77373809626E+01 -0.13380218824E+02 -0.40555220095E+02  0.47787271931E+02  0.20000004044E+02 0.  0.
         12    1    1    2    0    0 -0.77373809626E+01  0.13380218824E+02  0.40555220095E+02  0.43400728069E+02  0.00000000000E+00 0. -1.
         11    1    3    3    0    0  0.91931419113E+01 -0.95889143337E+00 -0.15220875330E+02  0.17807537086E+02  0.51100000000E-03 0. -1.
        -11    1    3    3    0    0 -0.55446768729E+01 -0.95133786139E+01 -0.17243162799E+02  0.20459092792E+02  0.51100000000E-03 0.  1.
        -12    1    3    3    0    0  0.40889159242E+01 -0.29079487769E+01 -0.80911819653E+01  0.95206420540E+01  0.00000000000E+00 0.  1.
</event>
<event>
 7    1  0.4818508E-009  0.4778727E+02  0.7816164E-02  0.1312668E+00
        -11   -1    0    0    0    0  0.00000000000E+00  0.00000000000E+00  0.45593999997E+02  0.45594000000E+02  0.51100000000E-03 0.  1.
         11   -1    0    0    0    0 -0.00000000000E+00 -0.00000000000E+00 -0.45593999997E+02  0.45594000000E+02  0.51100000000E-03 0. -1.
    9900012    2    1    2    0    0 -0.17859448364E+02  0.14082607053E+02  0.36964084694E+02  0.47787271036E+02  0.19999999964E+02 0.  0.
         12    1    1    2    0    0  0.17859448364E+02 -0.14082607053E+02 -0.36964084694E+02  0.43400728964E+02  0.00000000000E+00 0. -1.
         11    1    3    3    0    0 -0.56667444391E+01  0.58187999718E+01  0.24718060712E+01  0.84900089025E+01  0.51100000000E-03 0. -1.
        -11    1    3    3    0    0 -0.12399211311E+02  0.28091885752E+01  0.28409165741E+02  0.31124149466E+02  0.51100000000E-03 0.  1.
        -12    1    3    3    0    0  0.20650738677E+00  0.54546185065E+01  0.60831128819E+01  0.81731126681E+01  0.00000000000E+00 0.  1.
</event>
<event>
 7    1  0.4818508E-009  0.4778728E+02  0.7816164E-02  0.1312668E+00
        -11   -1    0    0    0    0  0.00000000000E+00  0.00000000000E+00  0.45593999997E+02  0.45594000000E+02  0.51100000000E-03 0. -1.
         11   -1    0    0    0    0 -0.00000000000E+00 -0.00000000000E+00 -0.45593999997E+02  0.45594000000E+02  0.51100000000E-03 0.  1.
    9900012    2    1    2    0    0 -0.68683156032E+01  0.40362718406E+02 -0.14397915164E+02  0.47787276994E+02  0.20000027126E+02 0.  0.
         12    1    1    2    0    0  0.68683156032E+01 -0.40362718406E+02  0.14397915164E+02  0.43400723006E+02  0.00000000000E+00 0. -1.
         11    1    3    3    0    0 -0.37588913695E+01  0.66129192062E+01 -0.85478432720E+01  0.11442272048E+02  0.51100000000E-03 0. -1.
        -11    1    3    3    0    0 -0.51001770694E+01  0.31911804951E+02 -0.30688837248E+01  0.32462180287E+02  0.51100000000E-03 0.  1.
        -12    1    3    3    0    0  0.19907528357E+01  0.18379942487E+01 -0.27811881673E+01  0.38828246591E+01  0.00000000000E+00 0.  1.
</event>
<event>
 7    1  0.4818508E-009  0.4778727E+02  0.7816164E-02  0.1312668E+00
        -11   -1    0    0    0    0  0.00000000000E+00  0.00000000000E+00  0.45593999997E+02  0.45594000000E+02  0.51100000000E-03 0. -1.
         11   -1    0    0    0    0 -0.00000000000E+00 -0.00000000000E+00 -0.45593999997E+02  0.45594000000E+02  0.51100000000E-03 0.  1.
    9900012    2    1    2    0    0  0.20882198709E+02 -0.17248633425E+02 -0.33912264950E+02  0.47787270836E+02  0.19999999051E+02 0.  0.
         12    1    1    2    0    0 -0.20882198709E+02  0.17248633425E+02  0.33912264950E+02  0.43400729164E+02  0.00000000000E+00 0. -1.
         11    1    3    3    0    0  0.51177124326E+01  0.33567884571E+01 -0.46827793906E+01  0.77063241802E+01  0.51100000000E-03 0. -1.
        -11    1    3    3    0    0  0.11329576188E+02 -0.10214519306E+02 -0.11693332416E+02  0.19220554740E+02  0.51100000000E-03 0.  1.
         12    1    3    3    0    0  0.44349100877E+01 -0.10390902575E+02 -0.17536153143E+02  0.20860391916E+02  0.00000000000E+00 0. -1.
</event>
<event>
 7    1  0.4818508E-009  0.4778727E+02  0.7816164E-02  0.1312668E+00
        -11   -1    0    0    0    0  0.00000000000E+00  0.00000000000E+00  0.45593999997E+02  0.45594000000E+02  0.51100000000E-03 0.  1.
         11   -1    0    0    0    0 -0.00000000000E+00 -0.00000000000E+00 -0.45593999997E+02  0.45594000000E+02  0.51100000000E-03 0. -1.
    9900012    2    1    2    0    0  0.33677583570E+02  0.13311744105E+02  0.23921561339E+02  0.47787271169E+02  0.20000000566E+02 0.  0.
         12    1    1    2    0    0 -0.33677583570E+02 -0.13311744105E+02 -0.23921561339E+02  0.43400728831E+02  0.00000000000E+00 0. -1.
         11    1    3    3    0    0  0.25455789991E+02  0.13953288163E+02  0.14508243476E+02  0.32452744470E+02  0.51100000000E-03 0. -1.
        -11    1    3    3    0    0  0.45851398027E+01  0.34530207089E+01  0.76848339882E+01  0.95918472003E+01  0.51100000000E-03 0.  1.
         12    1    3    3    0    0  0.36366537755E+01 -0.40945647664E+01  0.17284838748E+01  0.57426794978E+01  0.00000000000E+00 0. -1.
</event>
<event>
 7    1  0.4818508E-009  0.4778728E+02  0.7816164E-02  0.1312668E+00
        -11   -1    0    0    0    0  0.00000000000E+00  0.00000000000E+00  0.45593999997E+02  0.45594000000E+02  0.51100000000E-03 0. -1.
         11   -1    0    0    0    0 -0.00000000000E+00 -0.00000000000E+00 -0.45593999997E+02  0.45594000000E+02  0.51100000000E-03 0.  1.
    9900012    2    1    2    0    0  0.39245368472E+02  0.31836581782E+01 -0.18256170465E+02  0.47787281273E+02  0.20000046638E+02 0.  0.
         12    1    1    2    0    0 -0.39245368472E+02 -0.31836581782E+01  0.18256170465E+02  0.43400718727E+02  0.00000000000E+00 0. -1.
         11    1    3    3    0    0  0.21520491744E+02 -0.25244839097E+01 -0.76144721733E+01  0.22967036610E+02  0.51100000000E-03 0. -1.
        -11    1    3    3    0    0  0.50389779201E+01  0.41255443807E+01  0.20285484840E+01  0.68210280845E+01  0.51100000000E-03 0.  1.
        -12    1    3    3    0    0  0.12685898808E+02  0.15825977072E+01 -0.12670246776E+02  0.17999216578E+02  0.00000000000E+00 0.  1.
</event>
<event>
 7    1  0.4818508E-009  0.4778727E+02  0.7816164E-02  0.1312668E+00
        -11   -1    0    0    0    0  0.00000000000E+00  0.00000000000E+00  0.45593999997E+02  0.45594000000E+02  0.51100000000E-03 0. -1.
         11   -1    0    0    0    0 -0.00000000000E+00 -0.00000000000E+00 -0.45593999997E+02  0.45594000000E+02  0.51100000000E-03 0.  1.
    9900012    2    1    2    0    0  0.24853783244E+02  0.72560882224E+01 -0.34831908684E+02  0.47787271661E+02  0.20000002809E+02 0.  0.
         12    1    1    2    0    0 -0.24853783244E+02 -0.72560882224E+01  0.34831908684E+02  0.43400728339E+02  0.00000000000E+00 0. -1.
         11    1    3    3    0    0  0.10104394160E+01  0.11956205771E+01  0.17466945464E+01  0.23455145442E+01  0.51100000000E-03 0. -1.
        -11    1    3    3    0    0  0.16061987420E+02  0.33424663100E+01 -0.32128131700E+02  0.36074594491E+02  0.51100000000E-03 0.  1.
         12    1    3    3    0    0  0.77813564080E+01  0.27180013354E+01 -0.44504715308E+01  0.93671626256E+01  0.00000000000E+00 0. -1.
</event>
<event>
 7    1  0.4818508E-009  0.4778727E+02  0.7816164E-02  0.1312668E+00
        -11   -1    0    0    0    0  0.00000000000E+00  0.00000000000E+00  0.45593999997E+02  0.45594000000E+02  0.51100000000E-03 0.  1.
         11   -1    0    0    0    0 -0.00000000000E+00 -0.00000000000E+00 -0.45593999997E+02  0.45594000000E+02  0.51100000000E-03 0. -1.
    9900012    2    1    2    0    0  0.14736679364E+00  0.24978709606E+02  0.35491774037E+02  0.47787266425E+02  0.19999978938E+02 0.  0.
         12    1    1    2    0    0 -0.14736679364E+00 -0.24978709606E+02 -0.35491774037E+02  0.43400733575E+02  0.00000000000E+00 0. -1.
         11    1    3    3    0    0  0.78695826386E+01  0.76946466142E+01  0.16462718017E+02  0.19803004878E+02  0.51100000000E-03 0. -1.
        -11    1    3    3    0    0 -0.46381980221E+01  0.11079965565E+02  0.16904627657E+02  0.20737525269E+02  0.51100000000E-03 0.  1.
         12    1    3    3    0    0 -0.30840178229E+01  0.62040974266E+01  0.21244283631E+01  0.72467362779E+01  0.00000000000E+00 0. -1.
</event>
<event>
 7    1  0.4818508E-009  0.4778727E+02  0.7816164E-02  0.1312668E+00
        -11   -1    0    0    0    0  0.00000000000E+00  0.00000000000E+00  0.45593999997E+02  0.45594000000E+02  0.51100000000E-03 0. -1.
         11   -1    0    0    0    0 -0.00000000000E+00 -0.00000000000E+00 -0.45593999997E+02  0.45594000000E+02  0.51100000000E-03 0.  1.
    9900012    2    1    2    0    0  0.32067378991E+02  0.25244701768E+02 -0.14765205476E+02  0.47787273561E+02  0.20000011474E+02 0.  0.
         12    1    1    2    0    0 -0.32067378991E+02 -0.25244701768E+02  0.14765205476E+02  0.43400726439E+02  0.00000000000E+00 0. -1.
         11    1    3    3    0    0  0.10185385679E+02  0.59918728128E+01 -0.13375868573E+02  0.17848206677E+02  0.51100000000E-03 0. -1.
        -11    1    3    3    0    0  0.25329658313E+01  0.41748919715E+01 -0.22875735633E+01  0.53924606577E+01  0.51100000000E-03 0.  1.
         12    1    3    3    0    0  0.19349027481E+02  0.15077936984E+02  0.89823666096E+00  0.24546606227E+02  0.00000000000E+00 0. -1.
</event>
<event>
 7    1  0.4818508E-009  0.4778727E+02  0.7816164E-02  0.1312668E+00
        -11   -1    0    0    0    0  0.00000000000E+00  0.00000000000E+00  0.45593999997E+02  0.45594000000E+02  0.51100000000E-03 0.  1.
         11   -1    0    0    0    0 -0.00000000000E+00 -0.00000000000E+00 -0.45593999997E+02  0.45594000000E+02  0.51100000000E-03 0. -1.
    9900012    2    1    2    0    0  0.18330502289E+02  0.35525641281E+01  0.39179017781E+02  0.47787268896E+02  0.19999990205E+02 0.  0.
         12    1    1    2    0    0 -0.18330502289E+02 -0.35525641281E+01 -0.39179017781E+02  0.43400731104E+02  0.00000000000E+00 0. -1.
         11    1    3    3    0    0  0.19670889983E+01 -0.19476036984E+01 -0.52580714202E+00  0.28176360136E+01  0.51100000000E-03 0. -1.
        -11    1    3    3    0    0  0.14616935783E+02  0.12355346454E+01  0.36552785879E+02  0.39386387412E+02  0.51100000000E-03 0.  1.
        -12    1    3    3    0    0  0.17464775078E+01  0.42646331811E+01  0.31520390440E+01  0.55832454710E+01  0.00000000000E+00 0.  1.
</event>
<event>
 7    1  0.4818508E-009  0.4778727E+02  0.7816164E-02  0.1312668E+00
        -11   -1    0    0    0    0  0.00000000000E+00  0.00000000000E+00  0.45593999997E+02  0.45594000000E+02  0.51100000000E-03 0.  1.
         11   -1    0    0    0    0 -0.00000000000E+00 -0.00000000000E+00 -0.45593999997E+02  0.45594000000E+02  0.51100000000E-03 0. -1.
    9900012    2    1    2    0    0  0.18468813757E+02  0.13015649464E+02  0.37055623642E+02  0.47787268945E+02  0.19999990429E+02 0.  0.
         12    1    1    2    0    0 -0.18468813757E+02 -0.13015649464E+02 -0.37055623642E+02  0.43400731055E+02  0.00000000000E+00 0. -1.
         11    1    3    3    0    0  0.14923025052E+01  0.57732565712E+01  0.48175506169E+01  0.76659149755E+01  0.51100000000E-03 0. -1.
        -11    1    3    3    0    0  0.12096390951E+02  0.10641161351E+02  0.29415552273E+02  0.33538510771E+02  0.51100000000E-03 0.  1.
        -12    1    3    3    0    0  0.48801203015E+01 -0.33987684580E+01  0.28225207520E+01  0.65828431991E+01  0.00000000000E+00 0.  1.
</event>
<event>
 7    1  0.4818508E-009  0.4778727E+02  0.7816164E-02  0.1312668E+00
        -11   -1    0    0    0    0  0.00000000000E+00  0.00000000000E+00  0.45593999997E+02  0.45594000000E+02  0.51100000000E-03 0.  1.
         11   -1    0    0    0    0 -0.00000000000E+00 -0.00000000000E+00 -0.45593999997E+02  0.45594000000E+02  0.51100000000E-03 0. -1.
    9900012    2    1    2    0    0  0.37260985878E+02 -0.98331857249E+01  0.19963734057E+02  0.47787270886E+02  0.19999999279E+02 0.  0.
         12    1    1    2    0    0 -0.37260985878E+02  0.98331857249E+01 -0.19963734057E+02  0.43400729114E+02  0.00000000000E+00 0. -1.
         11    1    3    3    0    0  0.20916674955E+02 -0.17642923369E+01  0.14012939085E+02  0.25238511856E+02  0.51100000000E-03 0. -1.
        -11    1    3    3    0    0  0.14549950542E+02 -0.10558774848E+02  0.28790287628E+01  0.18206526136E+02  0.51100000000E-03 0.  1.
        -12    1    3    3    0    0  0.17943603805E+01  0.24898814602E+01  0.30717662096E+01  0.43422328942E+01  0.00000000000E+00 0.  1.
</event>
<event>
 7    1  0.4818508E-009  0.4778727E+02  0.7816164E-02  0.1312668E+00
        -11   -1    0    0    0    0  0.00000000000E+00  0.00000000000E+00  0.45593999997E+02  0.45594000000E+02  0.51100000000E-03 0.  1.
         11   -1    0    0    0    0 -0.00000000000E+00 -0.00000000000E+00 -0.45593999997E+02  0.45594000000E+02  0.51100000000E-03 0. -1.
    9900012    2    1    2    0    0  0.34188094851E+02 -0.26231671666E+02  0.51668967027E+01  0.47787271326E+02  0.20000001282E+02 0.  0.
         12    1    1    2    0    0 -0.34188094851E+02  0.26231671666E+02 -0.51668967027E+01  0.43400728674E+02  0.00000000000E+00 0. -1.
         11    1    3    3    0    0  0.15066705351E+02 -0.17772303442E+02  0.43704043540E+01  0.23705712693E+02  0.51100000000E-03 0. -1.
        -11    1    3    3    0    0 -0.38444026038E+00  0.19203615812E+01  0.29258092861E+00  0.19801986712E+01  0.51100000000E-03 0.  1.
        -12    1    3    3    0    0  0.19505829760E+02 -0.10379729805E+02  0.50391142001E+00  0.22101359962E+02  0.00000000000E+00 0.  1.
</event>
<event>
 7    1  0.4818508E-009  0.4778727E+02  0.7816164E-02  0.1312668E+00
        -11   -1    0    0    0    0  0.00000000000E+00  0.00000000000E+00  0.45593999997E+02  0.45594000000E+02  0.51100000000E-03 0. -1.
         11   -1    0    0    0    0 -0.00000000000E+00 -0.00000000000E+00 -0.45593999997E+02  0.45594000000E+02  0.51100000000E-03 0.  1.
    9900012    2    1    2    0    0  0.18581613169E+02 -0.27267647612E+02 -0.28192597920E+02  0.47787268074E+02  0.19999986456E+02 0.  0.
         12    1    1    2    0    0 -0.18581613169E+02  0.27267647612E+02  0.28192597920E+02  0.43400731926E+02  0.00000000000E+00 0. -1.
         11    1    3    3    0    0 -0.34383413405E+01 -0.76867184782E+01 -0.58577683219E+01  0.10257742545E+02  0.51100000000E-03 0. -1.
        -11    1    3    3    0    0  0.13080004239E+02 -0.14932863521E+02 -0.12559201756E+02  0.23490646496E+02  0.51100000000E-03 0.  1.
         12    1    3    3    0    0  0.89399502710E+01 -0.46480656128E+01 -0.97756278423E+01  0.14038879033E+02  0.00000000000E+00 0. -1.
</event>
<event>
 7    1  0.4818508E-009  0.4778727E+02  0.7816164E-02  0.1312668E+00
        -11   -1    0    0    0    0  0.00000000000E+00  0.00000000000E+00  0.45593999997E+02  0.45594000000E+02  0.51100000000E-03 0. -1.
         11   -1    0    0    0    0 -0.00000000000E+00 -0.00000000000E+00 -0.45593999997E+02  0.45594000000E+02  0.51100000000E-03 0.  1.
    9900012    2    1    2    0    0  0.13209272022E+02  0.10387384872E+02 -0.40015504197E+02  0.47787271804E+02  0.20000003462E+02 0.  0.
         12    1    1    2    0    0 -0.13209272022E+02 -0.10387384872E+02  0.40015504197E+02  0.43400728196E+02  0.00000000000E+00 0. -1.
         11    1    3    3    0    0  0.37109604513E+01 -0.46382738792E+01 -0.13795706459E+02  0.15020197369E+02  0.51100000000E-03 0. -1.
        -11    1    3    3    0    0  0.43935008400E+01  0.40619699816E+01 -0.15467717437E+02  0.16584713827E+02  0.51100000000E-03 0.  1.
         12    1    3    3    0    0  0.51048107308E+01  0.10963688769E+02 -0.10752080301E+02  0.16182360607E+02  0.00000000000E+00 0. -1.
</event>
<event>
 7    1  0.4818508E-009  0.4778727E+02  0.7816164E-02  0.1312668E+00
        -11   -1    0    0    0    0  0.00000000000E+00  0.00000000000E+00  0.45593999997E+02  0.45594000000E+02  0.51100000000E-03 0.  1.
         11   -1    0    0    0    0 -0.00000000000E+00 -0.00000000000E+00 -0.45593999997E+02  0.45594000000E+02  0.51100000000E-03 0. -1.
    9900012    2    1    2    0    0  0.47203882933E+01 -0.32778977727E+02  0.28051380544E+02  0.47787269627E+02  0.19999993537E+02 0.  0.
         12    1    1    2    0    0 -0.47203882933E+01  0.32778977727E+02 -0.28051380544E+02  0.43400730373E+02  0.00000000000E+00 0. -1.
         11    1    3    3    0    0  0.64521982930E+01 -0.14278548802E+01  0.83108770495E+01  0.10617923995E+02  0.51100000000E-03 0. -1.
        -11    1    3    3    0    0 -0.43427602950E+00 -0.25326543492E+02  0.15758351123E+02  0.29831996770E+02  0.51100000000E-03 0.  1.
         12    1    3    3    0    0 -0.12975339702E+01 -0.60245793549E+01  0.39821523723E+01  0.73373488620E+01  0.00000000000E+00 0. -1.
</event>
<event>
 7    1  0.4818508E-009  0.4778727E+02  0.7816164E-02  0.1312668E+00
        -11   -1    0    0    0    0  0.00000000000E+00  0.00000000000E+00  0.45593999997E+02  0.45594000000E+02  0.51100000000E-03 0.  1.
         11   -1    0    0    0    0 -0.00000000000E+00 -0.00000000000E+00 -0.45593999997E+02  0.45594000000E+02  0.51100000000E-03 0. -1.
    9900012    2    1    2    0    0 -0.76498842859E+01 -0.14204564307E+02  0.40290605716E+02  0.47787270908E+02  0.19999999377E+02 0.  0.
         12    1    1    2    0    0  0.76498842859E+01  0.14204564307E+02 -0.40290605716E+02  0.43400729092E+02  0.00000000000E+00 0. -1.
         11    1    3    3    0    0 -0.10761266084E+02 -0.21902124613E+01  0.12716870345E+02  0.16802400721E+02  0.51100000000E-03 0. -1.
        -11    1    3    3    0    0 -0.21584031501E+00 -0.99305091202E+01  0.22283498650E+02  0.24397047173E+02  0.51100000000E-03 0.  1.
         12    1    3    3    0    0  0.33272221128E+01 -0.20838427256E+01  0.52902367219E+01  0.65878230142E+01  0.00000000000E+00 0. -1.
</event>
<event>
 7    1  0.4818508E-009  0.4778727E+02  0.7816164E-02  0.1312668E+00
        -11   -1    0    0    0    0  0.00000000000E+00  0.00000000000E+00  0.45593999997E+02  0.45594000000E+02  0.51100000000E-03 0. -1.
         11   -1    0    0    0    0 -0.00000000000E+00 -0.00000000000E+00 -0.45593999997E+02  0.45594000000E+02  0.51100000000E-03 0.  1.
    9900012    2    1    2    0    0  0.14415405523E+02 -0.31996413256E+02 -0.25535244101E+02  0.47787273405E+02  0.20000010765E+02 0.  0.
         12    1    1    2    0    0 -0.14415405523E+02  0.31996413256E+02  0.25535244101E+02  0.43400726595E+02  0.00000000000E+00 0. -1.
         11    1    3    3    0    0  0.11010424555E+02 -0.19077452711E+02 -0.20569107391E+02  0.30137465553E+02  0.51100000000E-03 0.  1.
        -11    1    3    3    0    0 -0.30038724390E+01 -0.18937540139E+01 -0.31913037212E+01  0.47743034673E+01  0.51100000000E-03 0. -1.
        -12    1    3    3    0    0  0.64088534070E+01 -0.11025206531E+02 -0.17748329888E+01  0.12875504385E+02  0.00000000000E+00 0.  1.
</event>
<event>
 7    1  0.4818508E-009  0.4778727E+02  0.7816164E-02  0.1312668E+00
        -11   -1    0    0    0    0  0.00000000000E+00  0.00000000000E+00  0.45593999997E+02  0.45594000000E+02  0.51100000000E-03 0.  1.
         11   -1    0    0    0    0 -0.00000000000E+00 -0.00000000000E+00 -0.45593999997E+02  0.45594000000E+02  0.51100000000E-03 0. -1.
    9900012    2    1    2    0    0  0.30183282608E+02  0.56401670929E+01  0.30672159297E+02  0.47787269710E+02  0.19999993914E+02 0.  0.
         12    1    1    2    0    0 -0.30183282608E+02 -0.56401670929E+01 -0.30672159297E+02  0.43400730290E+02  0.00000000000E+00 0. -1.
         11    1    3    3    0    0 -0.10518389583E+01 -0.18178442482E+01  0.40571062151E+01  0.45684826810E+01  0.51100000000E-03 0. -1.
        -11    1    3    3    0    0  0.24583054505E+02  0.10451029014E+02  0.21795590162E+02  0.34476054401E+02  0.51100000000E-03 0.  1.
        -12    1    3    3    0    0  0.66520670607E+01 -0.29930176728E+01  0.48194629197E+01  0.87427326280E+01  0.00000000000E+00 0.  1.
</event>
<event>
 7    1  0.4818508E-009  0.4778728E+02  0.7816164E-02  0.1312668E+00
        -11   -1    0    0    0    0  0.00000000000E+00  0.00000000000E+00  0.45593999997E+02  0.45594000000E+02  0.51100000000E-03 0. -1.
         11   -1    0    0    0    0 -0.00000000000E+00 -0.00000000000E+00 -0.45593999997E+02  0.45594000000E+02  0.51100000000E-03 0.  1.
    9900012    2    1    2    0    0 -0.26459741355E+02  0.70402145140E+01 -0.33674029686E+02  0.47787276409E+02  0.20000024458E+02 0.  0.
         12    1    1    2    0    0  0.26459741355E+02 -0.70402145140E+01  0.33674029686E+02  0.43400723591E+02  0.00000000000E+00 0. -1.
         11    1    3    3    0    0 -0.11962696316E+01  0.38696422624E+01 -0.51604196293E+01  0.65601161027E+01  0.51100000000E-03 0. -1.
        -11    1    3    3    0    0 -0.17215920059E+00 -0.37073937892E+01 -0.43727877483E+01  0.57354756081E+01  0.51100000000E-03 0.  1.
        -12    1    3    3    0    0 -0.25091312523E+02  0.68779660408E+01 -0.24140822308E+02  0.35491684698E+02  0.00000000000E+00 0.  1.
</event>
<event>
 7    1  0.4818508E-009  0.4778727E+02  0.7816164E-02  0.1312668E+00
        -11   -1    0    0    0    0  0.00000000000E+00  0.00000000000E+00  0.45593999997E+02  0.45594000000E+02  0.51100000000E-03 0.  1.
         11   -1    0    0    0    0 -0.00000000000E+00 -0.00000000000E+00 -0.45593999997E+02  0.45594000000E+02  0.51100000000E-03 0. -1.
    9900012    2    1    2    0    0  0.21016911408E+02  0.27831173148E+02  0.25832896613E+02  0.47787270613E+02  0.19999998033E+02 0.  0.
         12    1    1    2    0    0 -0.21016911408E+02 -0.27831173148E+02 -0.25832896613E+02  0.43400729387E+02  0.00000000000E+00 0. -1.
         11    1    3    3    0    0  0.17882436694E+02  0.12071978558E+02  0.10436550652E+02  0.23967390308E+02  0.51100000000E-03 0. -1.
        -11    1    3    3    0    0  0.24602940473E+01  0.14622185745E+02  0.16437569756E+02  0.22137187321E+02  0.51100000000E-03 0.  1.
        -12    1    3    3    0    0  0.67418066706E+00  0.11370088455E+01 -0.10412237955E+01  0.16826929841E+01  0.00000000000E+00 0.  1.
</event>
<event>
 7    1  0.4818508E-009  0.4778727E+02  0.7816164E-02  0.1312668E+00
        -11   -1    0    0    0    0  0.00000000000E+00  0.00000000000E+00  0.45593999997E+02  0.45594000000E+02  0.51100000000E-03 0. -1.
         11   -1    0    0    0    0 -0.00000000000E+00 -0.00000000000E+00 -0.45593999997E+02  0.45594000000E+02  0.51100000000E-03 0.  1.
    9900012    2    1    2    0    0 -0.28396555998E+01 -0.31804086546E+02 -0.29394896346E+02  0.47787268484E+02  0.19999988325E+02 0.  0.
         12    1    1    2    0    0  0.28396555998E+01  0.31804086546E+02  0.29394896346E+02  0.43400731516E+02  0.00000000000E+00 0. -1.
         11    1    3    3    0    0 -0.10419693994E+01  0.60680651792E-01  0.44366091552E+00  0.11341153556E+01  0.51100000000E-03 0. -1.
        -11    1    3    3    0    0  0.66353717662E+01 -0.14347906060E+02 -0.91570016981E+01  0.18268586347E+02  0.51100000000E-03 0.  1.
        -12    1    3    3    0    0 -0.84330579666E+01 -0.17516861138E+02 -0.20681555564E+02  0.28384566781E+02  0.00000000000E+00 0.  1.
</event>
<event>
 7    1  0.4818508E-009  0.4778723E+02  0.7816164E-02  0.1312668E+00
        -11   -1    0    0    0    0  0.00000000000E+00  0.00000000000E+00  0.45593999997E+02  0.45594000000E+02  0.51100000000E-03 0. -1.
         11   -1    0    0    0    0 -0.00000000000E+00 -0.00000000000E+00 -0.45593999997E+02  0.45594000000E+02  0.51100000000E-03 0.  1.
    9900012    2    1    2    0    0  0.75162231922E+00  0.43374860502E+02 -0.12974733969E+01  0.47787229306E+02  0.19999809696E+02 0.  0.
         12    1    1    2    0    0 -0.75162231922E+00 -0.43374860502E+02  0.12974733969E+01  0.43400770694E+02  0.00000000000E+00 0. -1.
         11    1    3    3    0    0  0.43963215637E+01  0.17337116257E+01  0.77897880168E+00  0.47895936704E+01  0.51100000000E-03 0. -1.
        -11    1    3    3    0    0 -0.62430786933E+01  0.30136562148E+02  0.10554723875E+01  0.30794519511E+02  0.51100000000E-03 0.  1.
        -12    1    3    3    0    0  0.25983794488E+01  0.11504586727E+02 -0.31319245861E+01  0.12203116124E+02  0.00000000000E+00 0.  1.
</event>
<event>
 7    1  0.4818508E-009  0.4778727E+02  0.7816164E-02  0.1312668E+00
        -11   -1    0    0    0    0  0.00000000000E+00  0.00000000000E+00  0.45593999997E+02  0.45594000000E+02  0.51100000000E-03 0.  1.
         11   -1    0    0    0    0 -0.00000000000E+00 -0.00000000000E+00 -0.45593999997E+02  0.45594000000E+02  0.51100000000E-03 0. -1.
    9900012    2    1    2    0    0  0.40007547273E+02 -0.13227889046E+02  0.10394357461E+02  0.47787267812E+02  0.19999985261E+02 0.  0.
         12    1    1    2    0    0 -0.40007547273E+02  0.13227889046E+02 -0.10394357461E+02  0.43400732188E+02  0.00000000000E+00 0. -1.
         11    1    3    3    0    0  0.25967707870E+01  0.19704954452E+01 -0.17205946739E+00  0.32643032245E+01  0.51100000000E-03 0. -1.
        -11    1    3    3    0    0  0.30501759470E+01 -0.40662505633E+01 -0.30439306639E+01  0.59248190773E+01  0.51100000000E-03 0.  1.
        -12    1    3    3    0    0  0.34360600539E+02 -0.11132133928E+02  0.13610347592E+02  0.38598145510E+02  0.00000000000E+00 0.  1.
</event>
<event>
 7    1  0.4818508E-009  0.4778727E+02  0.7816164E-02  0.1312668E+00
        -11   -1    0    0    0    0  0.00000000000E+00  0.00000000000E+00  0.45593999997E+02  0.45594000000E+02  0.51100000000E-03 0.  1.
         11   -1    0    0    0    0 -0.00000000000E+00 -0.00000000000E+00 -0.45593999997E+02  0.45594000000E+02  0.51100000000E-03 0. -1.
    9900012    2    1    2    0    0 -0.62529404942E+01  0.34345733680E+02  0.25785557942E+02  0.47787266305E+02  0.19999978392E+02 0.  0.
         12    1    1    2    0    0  0.62529404942E+01 -0.34345733680E+02 -0.25785557942E+02  0.43400733695E+02  0.00000000000E+00 0. -1.
         11    1    3    3    0    0 -0.82404957286E+01  0.23814249227E+02  0.26807103470E+02  0.36791915319E+02  0.51100000000E-03 0. -1.
        -11    1    3    3    0    0  0.18851765561E+01  0.68731574649E+01  0.22094885226E+00  0.71304279564E+01  0.51100000000E-03 0.  1.
         12    1    3    3    0    0  0.10237867831E+00  0.36583269883E+01 -0.12424943800E+01  0.38649230305E+01  0.00000000000E+00 0. -1.
</event>
<event>
 7    1  0.4818508E-009  0.4778727E+02  0.7816164E-02  0.1312668E+00
        -11   -1    0    0    0    0  0.00000000000E+00  0.00000000000E+00  0.45593999997E+02  0.45594000000E+02  0.51100000000E-03 0.  1.
         11   -1    0    0    0    0 -0.00000000000E+00 -0.00000000000E+00 -0.45593999997E+02  0.45594000000E+02  0.51100000000E-03 0. -1.
    9900012    2    1    2    0    0 -0.19037037113E+02  0.32230498497E+02  0.21963816107E+02  0.47787273815E+02  0.20000012632E+02 0.  0.
         12    1    1    2    0    0  0.19037037113E+02 -0.32230498497E+02 -0.21963816107E+02  0.43400726185E+02  0.00000000000E+00 0. -1.
         11    1    3    3    0    0  0.39892144635E+01  0.44476543442E+01  0.46614435204E+01  0.75778966182E+01  0.51100000000E-03 0. -1.
        -11    1    3    3    0    0 -0.12659042211E+02  0.18104487234E+02  0.11223092312E+02  0.24778652284E+02  0.51100000000E-03 0.  1.
         12    1    3    3    0    0 -0.10367209366E+02  0.96783569183E+01  0.60792802749E+01  0.15430724913E+02  0.00000000000E+00 0. -1.
</event>
<event>
 7    1  0.4818508E-009  0.4778727E+02  0.7816164E-02  0.1312668E+00
        -11   -1    0    0    0    0  0.00000000000E+00  0.00000000000E+00  0.45593999997E+02  0.45594000000E+02  0.51100000000E-03 0.  1.
         11   -1    0    0    0    0 -0.00000000000E+00 -0.00000000000E+00 -0.45593999997E+02  0.45594000000E+02  0.51100000000E-03 0. -1.
    9900012    2    1    2    0    0 -0.28508948043E+02  0.18919429821E+02  0.26700524695E+02  0.47787274634E+02  0.20000016368E+02 0.  0.
         12    1    1    2    0    0  0.28508948043E+02 -0.18919429821E+02 -0.26700524695E+02  0.43400725366E+02  0.00000000000E+00 0. -1.
         11    1    3    3    0    0 -0.33450789445E+01  0.11031377547E+02  0.63133643154E+01  0.13143036672E+02  0.51100000000E-03 0. -1.
        -11    1    3    3    0    0 -0.75706703030E+01  0.69564357589E+01  0.90226940109E+01  0.13679037056E+02  0.51100000000E-03 0.  1.
         12    1    3    3    0    0 -0.17593198796E+02  0.93161651508E+00  0.11364466369E+02  0.20965200906E+02  0.00000000000E+00 0. -1.
</event>
<event>
 7    1  0.4818508E-009  0.4778730E+02  0.7816164E-02  0.1312668E+00
        -11   -1    0    0    0    0  0.00000000000E+00  0.00000000000E+00  0.45593999997E+02  0.45594000000E+02  0.51100000000E-03 0.  1.
         11   -1    0    0    0    0 -0.00000000000E+00 -0.00000000000E+00 -0.45593999997E+02  0.45594000000E+02  0.51100000000E-03 0. -1.
    9900012    2    1    2    0    0 -0.91627097470E+01  0.41375962677E+02 -0.93645562424E+01  0.47787303565E+02  0.20000148276E+02 0.  0.
         12    1    1    2    0    0  0.91627097470E+01 -0.41375962677E+02  0.93645562424E+01  0.43400696435E+02  0.00000000000E+00 0. -1.
         11    1    3    3    0    0  0.29294755251E+01  0.35598042158E+01  0.31280931127E+01  0.55712655375E+01  0.51100000000E-03 0. -1.
        -11    1    3    3    0    0 -0.12005600422E+02  0.38092639864E+02 -0.12638454030E+02  0.41891695762E+02  0.51100000000E-03 0.  1.
        -12    1    3    3    0    0 -0.86584850411E-01 -0.27648140250E+00  0.14580467474E+00  0.32434226586E+00  0.00000000000E+00 0.  1.
</event>
<event>
 7    1  0.4818508E-009  0.4778727E+02  0.7816164E-02  0.1312668E+00
        -11   -1    0    0    0    0  0.00000000000E+00  0.00000000000E+00  0.45593999997E+02  0.45594000000E+02  0.51100000000E-03 0.  1.
         11   -1    0    0    0    0 -0.00000000000E+00 -0.00000000000E+00 -0.45593999997E+02  0.45594000000E+02  0.51100000000E-03 0. -1.
    9900012    2    1    2    0    0 -0.33086977189E+01  0.34434671723E+02  0.26209331579E+02  0.47787272367E+02  0.20000006028E+02 0.  0.
         12    1    1    2    0    0  0.33086977189E+01 -0.34434671723E+02 -0.26209331579E+02  0.43400727633E+02  0.00000000000E+00 0. -1.
         11    1    3    3    0    0 -0.11845427399E+01  0.45887195696E+01 -0.75907682341E+00  0.47995506743E+01  0.51100000000E-03 0. -1.
        -11    1    3    3    0    0 -0.82096745266E+01  0.21426259052E+02  0.20354962523E+02  0.30672590897E+02  0.51100000000E-03 0.  1.
        -12    1    3    3    0    0  0.60855195475E+01  0.84196931014E+01  0.66134458800E+01  0.12315130795E+02  0.00000000000E+00 0.  1.
</event>
<event>
 7    1  0.4818508E-009  0.4778727E+02  0.7816164E-02  0.1312668E+00
        -11   -1    0    0    0    0  0.00000000000E+00  0.00000000000E+00  0.45593999997E+02  0.45594000000E+02  0.51100000000E-03 0. -1.
         11   -1    0    0    0    0 -0.00000000000E+00 -0.00000000000E+00 -0.45593999997E+02  0.45594000000E+02  0.51100000000E-03 0.  1.
    9900012    2    1    2    0    0 -0.42065834583E+02  0.97143288710E+01 -0.44407823107E+01  0.47787272217E+02  0.20000005344E+02 0.  0.
         12    1    1    2    0    0  0.42065834583E+02 -0.97143288710E+01  0.44407823107E+01  0.43400727783E+02  0.00000000000E+00 0. -1.
         11    1    3    3    0    0 -0.24754585035E+02  0.11094857817E+02  0.54959281436E+01  0.27678341291E+02  0.51100000000E-03 0. -1.
        -11    1    3    3    0    0 -0.12097281645E+02 -0.13514169884E+00 -0.73626790735E+01  0.14162327841E+02  0.51100000000E-03 0.  1.
         12    1    3    3    0    0 -0.52139679036E+01 -0.12453872468E+01 -0.25740313807E+01  0.59466030843E+01  0.00000000000E+00 0. -1.
</event>
<event>
 7    1  0.4818508E-009  0.4778727E+02  0.7816164E-02  0.1312668E+00
        -11   -1    0    0    0    0  0.00000000000E+00  0.00000000000E+00  0.45593999997E+02  0.45594000000E+02  0.51100000000E-03 0.  1.
         11   -1    0    0    0    0 -0.00000000000E+00 -0.00000000000E+00 -0.45593999997E+02  0.45594000000E+02  0.51100000000E-03 0. -1.
    9900012    2    1    2    0    0  0.34506968368E+00 -0.39292610148E+02  0.18428096905E+02  0.47787273729E+02  0.20000012239E+02 0.  0.
         12    1    1    2    0    0 -0.34506968368E+00  0.39292610148E+02 -0.18428096905E+02  0.43400726271E+02  0.00000000000E+00 0. -1.
         11    1    3    3    0    0 -0.41125019575E+01 -0.99077012476E+01 -0.17027836409E+01  0.10861615384E+02  0.51100000000E-03 0. -1.
        -11    1    3    3    0    0  0.57365831819E+01 -0.20797262316E+02  0.10614707500E+02  0.24043845824E+02  0.51100000000E-03 0.  1.
         12    1    3    3    0    0 -0.12790115408E+01 -0.85876465843E+01  0.95161730453E+01  0.12881812520E+02  0.00000000000E+00 0. -1.
</event>
<event>
 7    1  0.4818508E-009  0.4778727E+02  0.7816164E-02  0.1312668E+00
        -11   -1    0    0    0    0  0.00000000000E+00  0.00000000000E+00  0.45593999997E+02  0.45594000000E+02  0.51100000000E-03 0.  1.
         11   -1    0    0    0    0 -0.00000000000E+00 -0.00000000000E+00 -0.45593999997E+02  0.45594000000E+02  0.51100000000E-03 0. -1.
    9900012    2    1    2    0    0 -0.38377371797E+02 -0.10234941876E+02  0.17494195958E+02  0.47787267362E+02  0.19999983212E+02 0.  0.
         12    1    1    2    0    0  0.38377371797E+02  0.10234941876E+02 -0.17494195958E+02  0.43400732638E+02  0.00000000000E+00 0. -1.
         11    1    3    3    0    0 -0.37365603596E+01 -0.49775179109E+01 -0.61902247204E+00  0.62546588201E+01  0.51100000000E-03 0. -1.
        -11    1    3    3    0    0 -0.20229839634E+02  0.30039393123E+01  0.12643102131E+02  0.24044086482E+02  0.51100000000E-03 0.  1.
        -12    1    3    3    0    0 -0.14410971804E+02 -0.82613632773E+01  0.54701162986E+01  0.17488522060E+02  0.00000000000E+00 0.  1.
</event>
<event>
 7    1  0.4818508E-009  0.4778727E+02  0.7816164E-02  0.1312668E+00
        -11   -1    0    0    0    0  0.00000000000E+00  0.00000000000E+00  0.45593999997E+02  0.45594000000E+02  0.51100000000E-03 0. -1.
         11   -1    0    0    0    0 -0.00000000000E+00 -0.00000000000E+00 -0.45593999997E+02  0.45594000000E+02  0.51100000000E-03 0.  1.
    9900012    2    1    2    0    0 -0.65249848491E+01 -0.27241851551E+02 -0.33150105973E+02  0.47787269255E+02  0.19999991839E+02 0.  0.
         12    1    1    2    0    0  0.65249848491E+01  0.27241851551E+02  0.33150105973E+02  0.43400730745E+02  0.00000000000E+00 0. -1.
         11    1    3    3    0    0 -0.21806246975E+01 -0.18510644706E+02 -0.11521931006E+02  0.21912416249E+02  0.51100000000E-03 0. -1.
        -11    1    3    3    0    0 -0.39675858258E+01  0.71720814942E+00 -0.10639130919E+02  0.11377487939E+02  0.51100000000E-03 0.  1.
        -12    1    3    3    0    0 -0.37677432581E+00 -0.94484149942E+01 -0.10989044048E+02  0.14497365067E+02  0.00000000000E+00 0.  1.
</event>
<event>
 7    1  0.4818508E-009  0.4778727E+02  0.7816164E-02  0.1312668E+00
        -11   -1    0    0    0    0  0.00000000000E+00  0.00000000000E+00  0.45593999997E+02  0.45594000000E+02  0.51100000000E-03 0. -1.
         11   -1    0    0    0    0 -0.00000000000E+00 -0.00000000000E+00 -0.45593999997E+02  0.45594000000E+02  0.51100000000E-03 0.  1.
    9900012    2    1    2    0    0  0.10201747507E+02  0.58705051577E+01 -0.41774213686E+02  0.47787269453E+02  0.19999992742E+02 0.  0.
         12    1    1    2    0    0 -0.10201747507E+02 -0.58705051577E+01  0.41774213686E+02  0.43400730547E+02  0.00000000000E+00 0. -1.
         11    1    3    3    0    0  0.43854467854E+01  0.36378477530E+01 -0.44104407424E+01  0.72054193205E+01  0.51100000000E-03 0. -1.
        -11    1    3    3    0    0 -0.13322334782E+01  0.31799830554E+01 -0.30272624944E+02  0.30468327154E+02  0.51100000000E-03 0.  1.
        -12    1    3    3    0    0  0.71485341996E+01 -0.94732565071E+00 -0.70911479988E+01  0.10113522978E+02  0.00000000000E+00 0.  1.
</event>
<event>
 7    1  0.4818508E-009  0.4778728E+02  0.7816164E-02  0.1312668E+00
        -11   -1    0    0    0    0  0.00000000000E+00  0.00000000000E+00  0.45593999997E+02  0.45594000000E+02  0.51100000000E-03 0. -1.
         11   -1    0    0    0    0 -0.00000000000E+00 -0.00000000000E+00 -0.45593999997E+02  0.45594000000E+02  0.51100000000E-03 0.  1.
    9900012    2    1    2    0    0 -0.75775020710E+01 -0.38462704492E+02 -0.18623231566E+02  0.47787275024E+02  0.20000018143E+02 0.  0.
         12    1    1    2    0    0  0.75775020710E+01  0.38462704492E+02  0.18623231566E+02  0.43400724976E+02  0.00000000000E+00 0. -1.
         11    1    3    3    0    0 -0.18583663623E+01 -0.11777663188E+02 -0.14818467469E+02  0.19019827920E+02  0.51100000000E-03 0. -1.
        -11    1    3    3    0    0  0.13086185624E+00 -0.18126719148E+02 -0.18900315247E+01  0.18225457232E+02  0.51100000000E-03 0.  1.
        -12    1    3    3    0    0 -0.58499975650E+01 -0.85583221565E+01 -0.19147325727E+01  0.10541989872E+02  0.00000000000E+00 0.  1.
</event>
<event>
 7    1  0.4818508E-009  0.4778727E+02  0.7816164E-02  0.1312668E+00
        -11   -1    0    0    0    0  0.00000000000E+00  0.00000000000E+00  0.45593999997E+02  0.45594000000E+02  0.51100000000E-03 0. -1.
         11   -1    0    0    0    0 -0.00000000000E+00 -0.00000000000E+00 -0.45593999997E+02  0.45594000000E+02  0.51100000000E-03 0.  1.
    9900012    2    1    2    0    0 -0.42034190035E+02  0.58841560260E+01  0.90623835975E+01  0.47787271659E+02  0.20000002803E+02 0.  0.
         12    1    1    2    0    0  0.42034190035E+02 -0.58841560260E+01 -0.90623835975E+01  0.43400728341E+02  0.00000000000E+00 0. -1.
         11    1    3    3    0    0 -0.13898200301E+02 -0.54553324964E+00  0.12521171752E+02  0.18714628515E+02  0.51100000000E-03 0. -1.
        -11    1    3    3    0    0 -0.11571709067E+02  0.28832102178E+01 -0.13106290391E+01  0.11997295555E+02  0.51100000000E-03 0.  1.
         12    1    3    3    0    0 -0.16564280667E+02  0.35464790578E+01 -0.21481591155E+01  0.17075347589E+02  0.00000000000E+00 0. -1.
</event>
<event>
 7    1  0.4818508E-009  0.4778727E+02  0.7816164E-02  0.1312668E+00
        -11   -1    0    0    0    0  0.00000000000E+00  0.00000000000E+00  0.45593999997E+02  0.45594000000E+02  0.51100000000E-03 0. -1.
         11   -1    0    0    0    0 -0.00000000000E+00 -0.00000000000E+00 -0.45593999997E+02  0.45594000000E+02  0.51100000000E-03 0.  1.
    9900012    2    1    2    0    0  0.26183926248E+02  0.29815685887E+02 -0.17579814652E+02  0.47787274178E+02  0.20000014286E+02 0.  0.
         12    1    1    2    0    0 -0.26183926248E+02 -0.29815685887E+02  0.17579814652E+02  0.43400725822E+02  0.00000000000E+00 0. -1.
         11    1    3    3    0    0  0.86930374749E+01  0.21953943579E+02 -0.10264303249E+02  0.25746853413E+02  0.51100000000E-03 0. -1.
        -11    1    3    3    0    0  0.10619575723E+02  0.54668792615E+01 -0.85108806836E+01  0.14666194042E+02  0.51100000000E-03 0.  1.
         12    1    3    3    0    0  0.68713130506E+01  0.23948630462E+01  0.11953692802E+01  0.73742267232E+01  0.00000000000E+00 0. -1.
</event>
<event>
 7    1  0.4818508E-009  0.4778727E+02  0.7816164E-02  0.1312668E+00
        -11   -1    0    0    0    0  0.00000000000E+00  0.00000000000E+00  0.45593999997E+02  0.45594000000E+02  0.51100000000E-03 0.  1.
         11   -1    0    0    0    0 -0.00000000000E+00 -0.00000000000E+00 -0.45593999997E+02  0.45594000000E+02  0.51100000000E-03 0. -1.
    9900012    2    1    2    0    0  0.22182064677E+02 -0.31217728610E+02  0.20421380938E+02  0.47787269910E+02  0.19999994830E+02 0.  0.
         12    1    1    2    0    0 -0.22182064677E+02  0.31217728610E+02 -0.20421380938E+02  0.43400730090E+02  0.00000000000E+00 0. -1.
         11    1    3    3    0    0  0.76803791822E+01 -0.71208060187E+00  0.83488034680E+01  0.11366521138E+02  0.51100000000E-03 0. -1.
        -11    1    3    3    0    0  0.12982653189E+02 -0.28881331336E+02  0.95850624253E+01  0.33084044576E+02  0.51100000000E-03 0.  1.
        -12    1    3    3    0    0  0.15190323060E+01 -0.16243166718E+01  0.24875150446E+01  0.33367041964E+01  0.00000000000E+00 0.  1.
</event>
<event>
 7    1  0.4818508E-009  0.4778726E+02  0.7816164E-02  0.1312668E+00
        -11   -1    0    0    0    0  0.00000000000E+00  0.00000000000E+00  0.45593999997E+02  0.45594000000E+02  0.51100000000E-03 0.  1.
         11   -1    0    0    0    0 -0.00000000000E+00 -0.00000000000E+00 -0.45593999997E+02  0.45594000000E+02  0.51100000000E-03 0. -1.
    9900012    2    1    2    0    0 -0.34890621183E+02  0.18321850024E+02  0.18181816102E+02  0.47787261854E+02  0.19999958099E+02 0.  0.
         12    1    1    2    0    0  0.34890621183E+02 -0.18321850024E+02 -0.18181816102E+02  0.43400738146E+02  0.00000000000E+00 0. -1.
         11    1    3    3    0    0  0.10698072852E+01  0.32158755373E+01  0.34765076494E+01  0.48551466298E+01  0.51100000000E-03 0. -1.
        -11    1    3    3    0    0 -0.33357628899E+02  0.15377689790E+02  0.10901618845E+02  0.38315141169E+02  0.51100000000E-03 0.  1.
        -12    1    3    3    0    0 -0.26027995686E+01 -0.27171530384E+00  0.38036896076E+01  0.46169740557E+01  0.00000000000E+00 0.  1.
</event>
<event>
 7    1  0.4818508E-009  0.4778727E+02  0.7816164E-02  0.1312668E+00
        -11   -1    0    0    0    0  0.00000000000E+00  0.00000000000E+00  0.45593999997E+02  0.45594000000E+02  0.51100000000E-03 0.  1.
         11   -1    0    0    0    0 -0.00000000000E+00 -0.00000000000E+00 -0.45593999997E+02  0.45594000000E+02  0.51100000000E-03 0. -1.
    9900012    2    1    2    0    0  0.31579523643E+02  0.11979886407E+02  0.27255084282E+02  0.47787267160E+02  0.19999982288E+02 0.  0.
         12    1    1    2    0    0 -0.31579523643E+02 -0.11979886407E+02 -0.27255084282E+02  0.43400732840E+02  0.00000000000E+00 0. -1.
         11    1    3    3    0    0  0.14559966639E+02  0.72180182881E+01  0.22080839896E+02  0.27416343799E+02  0.51100000000E-03 0. -1.
        -11    1    3    3    0    0  0.16625311139E+02  0.65305889411E+01  0.50105415573E+01  0.18551417448E+02  0.51100000000E-03 0.  1.
         12    1    3    3    0    0  0.39424586503E+00 -0.17687208218E+01  0.16370282829E+00  0.18195059119E+01  0.00000000000E+00 0. -1.
</event>
<event>
 7    1  0.4818508E-009  0.4778727E+02  0.7816164E-02  0.1312668E+00
        -11   -1    0    0    0    0  0.00000000000E+00  0.00000000000E+00  0.45593999997E+02  0.45594000000E+02  0.51100000000E-03 0. -1.
         11   -1    0    0    0    0 -0.00000000000E+00 -0.00000000000E+00 -0.45593999997E+02  0.45594000000E+02  0.51100000000E-03 0.  1.
    9900012    2    1    2    0    0 -0.28699623375E+02  0.10381671880E+02 -0.30857342731E+02  0.47787273124E+02  0.20000009483E+02 0.  0.
         12    1    1    2    0    0  0.28699623375E+02 -0.10381671880E+02  0.30857342731E+02  0.43400726876E+02  0.00000000000E+00 0. -1.
         11    1    3    3    0    0 -0.15769234997E+02 -0.10521400759E+01 -0.16252657671E+02  0.22669906324E+02  0.51100000000E-03 0. -1.
        -11    1    3    3    0    0 -0.14170708207E+02  0.77320774242E+01 -0.13543284360E+02  0.21071652615E+02  0.51100000000E-03 0.  1.
         12    1    3    3    0    0  0.12403198290E+01  0.37017345318E+01 -0.10614007001E+01  0.40457141852E+01  0.00000000000E+00 0. -1.
</event>
<event>
 7    1  0.4818508E-009  0.4778727E+02  0.7816164E-02  0.1312668E+00
        -11   -1    0    0    0    0  0.00000000000E+00  0.00000000000E+00  0.45593999997E+02  0.45594000000E+02  0.51100000000E-03 0.  1.
         11   -1    0    0    0    0 -0.00000000000E+00 -0.00000000000E+00 -0.45593999997E+02  0.45594000000E+02  0.51100000000E-03 0. -1.
    9900012    2    1    2    0    0 -0.21507352913E+02  0.19229855340E+02  0.32423290106E+02  0.47787270663E+02  0.19999998261E+02 0.  0.
         12    1    1    2    0    0  0.21507352913E+02 -0.19229855340E+02 -0.32423290106E+02  0.43400729337E+02  0.00000000000E+00 0. -1.
         11    1    3    3    0    0 -0.51620712665E+01 -0.63093729997E+00  0.14230150266E+01  0.53916633485E+01  0.51100000000E-03 0. -1.
        -11    1    3    3    0    0 -0.81908883424E+01  0.17169690197E+02  0.14958377173E+02  0.24200040521E+02  0.51100000000E-03 0.  1.
        -12    1    3    3    0    0 -0.81543933041E+01  0.26911024431E+01  0.16041897906E+02  0.18195566794E+02  0.00000000000E+00 0.  1.
</event>
<event>
 7    1  0.4818508E-009  0.4778728E+02  0.7816164E-02  0.1312668E+00
        -11   -1    0    0    0    0  0.00000000000E+00  0.00000000000E+00  0.45593999997E+02  0.45594000000E+02  0.51100000000E-03 0.  1.
         11   -1    0    0    0    0 -0.00000000000E+00 -0.00000000000E+00 -0.45593999997E+02  0.45594000000E+02  0.51100000000E-03 0. -1.
    9900012    2    1    2    0    0  0.11931994008E+02  0.11874289193E+02  0.40003141421E+02  0.47787279403E+02  0.20000038109E+02 0.  0.
         12    1    1    2    0    0 -0.11931994008E+02 -0.11874289193E+02 -0.40003141421E+02  0.43400720597E+02  0.00000000000E+00 0. -1.
         11    1    3    3    0    0  0.35366625665E+01  0.15972505711E+01  0.27287154782E+02  0.27561712716E+02  0.51100000000E-03 0.  1.
        -11    1    3    3    0    0  0.53929000961E+01  0.25910783818E+01  0.97843539528E+01  0.11468680881E+02  0.51100000000E-03 0. -1.
         12    1    3    3    0    0  0.30024313452E+01  0.76859602405E+01  0.29316326859E+01  0.87568858052E+01  0.00000000000E+00 0. -1.
</event>
<event>
 7    1  0.4818508E-009  0.4778727E+02  0.7816164E-02  0.1312668E+00
        -11   -1    0    0    0    0  0.00000000000E+00  0.00000000000E+00  0.45593999997E+02  0.45594000000E+02  0.51100000000E-03 0.  1.
         11   -1    0    0    0    0 -0.00000000000E+00 -0.00000000000E+00 -0.45593999997E+02  0.45594000000E+02  0.51100000000E-03 0. -1.
    9900012    2    1    2    0    0 -0.14079988005E+01  0.16158260588E+02  0.40256074764E+02  0.47787269577E+02  0.19999993310E+02 0.  0.
         12    1    1    2    0    0  0.14079988005E+01 -0.16158260588E+02 -0.40256074764E+02  0.43400730423E+02  0.00000000000E+00 0. -1.
         11    1    3    3    0    0 -0.23090275630E+00 -0.23497643289E+01  0.13394557283E+02  0.13601061486E+02  0.51100000000E-03 0. -1.
        -11    1    3    3    0    0 -0.21311258620E+01  0.29859072931E+01  0.12466747305E+02  0.12995273311E+02  0.51100000000E-03 0.  1.
         12    1    3    3    0    0  0.95402981784E+00  0.15522117624E+02  0.14394770176E+02  0.21190934780E+02  0.00000000000E+00 0. -1.
</event>
<event>
 7    1  0.4818508E-009  0.4778728E+02  0.7816164E-02  0.1312668E+00
        -11   -1    0    0    0    0  0.00000000000E+00  0.00000000000E+00  0.45593999997E+02  0.45594000000E+02  0.51100000000E-03 0.  1.
         11   -1    0    0    0    0 -0.00000000000E+00 -0.00000000000E+00 -0.45593999997E+02  0.45594000000E+02  0.51100000000E-03 0. -1.
    9900012    2    1    2    0    0  0.14298366980E+02 -0.40886616383E+02 -0.27320343277E+01  0.47787277550E+02  0.20000029663E+02 0.  0.
         12    1    1    2    0    0 -0.14298366980E+02  0.40886616383E+02  0.27320343277E+01  0.43400722450E+02  0.00000000000E+00 0. -1.
         11    1    3    3    0    0  0.14018707765E+02 -0.28225040360E+02  0.13389313790E+01  0.31543142016E+02  0.51100000000E-03 0. -1.
        -11    1    3    3    0    0  0.32554818092E+01 -0.10698654049E+02 -0.49375958839E+00  0.11193889363E+02  0.51100000000E-03 0.  1.
         12    1    3    3    0    0 -0.29758225937E+01 -0.19629219744E+01 -0.35772061183E+01  0.50502461722E+01  0.00000000000E+00 0. -1.
</event>
<event>
 7    1  0.4818508E-009  0.4778727E+02  0.7816164E-02  0.1312668E+00
        -11   -1    0    0    0    0  0.00000000000E+00  0.00000000000E+00  0.45593999997E+02  0.45594000000E+02  0.51100000000E-03 0.  1.
         11   -1    0    0    0    0 -0.00000000000E+00 -0.00000000000E+00 -0.45593999997E+02  0.45594000000E+02  0.51100000000E-03 0. -1.
    9900012    2    1    2    0    0  0.51578579456E+01  0.64019777768E+00  0.43088392885E+02  0.47787274738E+02  0.20000016842E+02 0.  0.
         12    1    1    2    0    0 -0.51578579456E+01 -0.64019777768E+00 -0.43088392885E+02  0.43400725262E+02  0.00000000000E+00 0. -1.
         11    1    3    3    0    0 -0.28917594068E+01 -0.72349009462E+01  0.15526452866E+02  0.17371724239E+02  0.51100000000E-03 0. -1.
        -11    1    3    3    0    0  0.59764207528E+01  0.64901032363E+01  0.26041098060E+02  0.27495051072E+02  0.51100000000E-03 0.  1.
        -12    1    3    3    0    0  0.20731965997E+01  0.13849954875E+01  0.15208419600E+01  0.29204994280E+01  0.00000000000E+00 0.  1.
</event>
<event>
 7    1  0.4818508E-009  0.4778727E+02  0.7816164E-02  0.1312668E+00
        -11   -1    0    0    0    0  0.00000000000E+00  0.00000000000E+00  0.45593999997E+02  0.45594000000E+02  0.51100000000E-03 0.  1.
         11   -1    0    0    0    0 -0.00000000000E+00 -0.00000000000E+00 -0.45593999997E+02  0.45594000000E+02  0.51100000000E-03 0. -1.
    9900012    2    1    2    0    0 -0.19235408173E+02 -0.11128121345E+02  0.37279850561E+02  0.47787271088E+02  0.20000000199E+02 0.  0.
         12    1    1    2    0    0  0.19235408173E+02  0.11128121345E+02 -0.37279850561E+02  0.43400728912E+02  0.00000000000E+00 0. -1.
         11    1    3    3    0    0 -0.93856105879E+01  0.33454038460E+01  0.93333754639E+01  0.13652593556E+02  0.51100000000E-03 0. -1.
        -11    1    3    3    0    0 -0.17315658166E+01 -0.87025535762E+01  0.85088062363E+01  0.12293597633E+02  0.51100000000E-03 0.  1.
         12    1    3    3    0    0 -0.81182317681E+01 -0.57709716143E+01  0.19437668861E+02  0.21841079899E+02  0.00000000000E+00 0. -1.
</event>
<event>
 7    1  0.4818508E-009  0.4778728E+02  0.7816164E-02  0.1312668E+00
        -11   -1    0    0    0    0  0.00000000000E+00  0.00000000000E+00  0.45593999997E+02  0.45594000000E+02  0.51100000000E-03 0.  1.
         11   -1    0    0    0    0 -0.00000000000E+00 -0.00000000000E+00 -0.45593999997E+02  0.45594000000E+02  0.51100000000E-03 0. -1.
    9900012    2    1    2    0    0  0.27655254807E+02  0.14075495193E+01  0.33418985675E+02  0.47787275149E+02  0.20000018713E+02 0.  0.
         12    1    1    2    0    0 -0.27655254807E+02 -0.14075495193E+01 -0.33418985675E+02  0.43400724851E+02  0.00000000000E+00 0. -1.
         11    1    3    3    0    0  0.17077610500E+02  0.73370084784E+01  0.18546006553E+02  0.26257014932E+02  0.51100000000E-03 0.  1.
        -11    1    3    3    0    0  0.23176910079E+01 -0.51164575674E+01  0.11042821215E+02  0.12389258666E+02  0.51100000000E-03 0. -1.
        -12    1    3    3    0    0  0.82599532984E+01 -0.81300139175E+00  0.38301579067E+01  0.91410015504E+01  0.00000000000E+00 0.  1.
</event>
<event>
 7    1  0.4818508E-009  0.4778727E+02  0.7816164E-02  0.1312668E+00
        -11   -1    0    0    0    0  0.00000000000E+00  0.00000000000E+00  0.45593999997E+02  0.45594000000E+02  0.51100000000E-03 0.  1.
         11   -1    0    0    0    0 -0.00000000000E+00 -0.00000000000E+00 -0.45593999997E+02  0.45594000000E+02  0.51100000000E-03 0. -1.
    9900012    2    1    2    0    0  0.13457763819E+02  0.34721581568E+01  0.41115151245E+02  0.47787274762E+02  0.20000016950E+02 0.  0.
         12    1    1    2    0    0 -0.13457763819E+02 -0.34721581568E+01 -0.41115151245E+02  0.43400725238E+02  0.00000000000E+00 0. -1.
         11    1    3    3    0    0  0.69135488032E+01 -0.24226627370E+01  0.37356822112E+01  0.82232459306E+01  0.51100000000E-03 0. -1.
        -11    1    3    3    0    0  0.34015192793E+01  0.62599375321E+01  0.34682523376E+02  0.35406702463E+02  0.51100000000E-03 0.  1.
        -12    1    3    3    0    0  0.31426957368E+01 -0.36511663829E+00  0.26969456576E+01  0.41573263684E+01  0.00000000000E+00 0.  1.
</event>
<event>
 7    1  0.4818508E-009  0.4778728E+02  0.7816164E-02  0.1312668E+00
        -11   -1    0    0    0    0  0.00000000000E+00  0.00000000000E+00  0.45593999997E+02  0.45594000000E+02  0.51100000000E-03 0.  1.
         11   -1    0    0    0    0 -0.00000000000E+00 -0.00000000000E+00 -0.45593999997E+02  0.45594000000E+02  0.51100000000E-03 0. -1.
    9900012    2    1    2    0    0 -0.16247186155E+02 -0.40062850088E+02  0.38235774801E+01  0.47787276966E+02  0.20000027000E+02 0.  0.
         12    1    1    2    0    0  0.16247186155E+02  0.40062850088E+02 -0.38235774801E+01  0.43400723034E+02  0.00000000000E+00 0. -1.
         11    1    3    3    0    0 -0.13098812618E+01 -0.15533106575E+02 -0.40312585183E+01  0.16101063141E+02  0.51100000000E-03 0. -1.
        -11    1    3    3    0    0 -0.15373134570E+02 -0.23547897387E+02  0.49043653258E+01  0.28546270113E+02  0.51100000000E-03 0.  1.
         12    1    3    3    0    0  0.43582967732E+00 -0.98184612644E+00  0.29504706726E+01  0.31399437119E+01  0.00000000000E+00 0. -1.
</event>
<event>
 7    1  0.4818508E-009  0.4778727E+02  0.7816164E-02  0.1312668E+00
        -11   -1    0    0    0    0  0.00000000000E+00  0.00000000000E+00  0.45593999997E+02  0.45594000000E+02  0.51100000000E-03 0. -1.
         11   -1    0    0    0    0 -0.00000000000E+00 -0.00000000000E+00 -0.45593999997E+02  0.45594000000E+02  0.51100000000E-03 0.  1.
    9900012    2    1    2    0    0  0.38848477565E+02  0.10845181513E+01  0.19319494245E+02  0.47787271359E+02  0.20000001433E+02 0.  0.
         12    1    1    2    0    0 -0.38848477565E+02 -0.10845181513E+01 -0.19319494245E+02  0.43400728641E+02  0.00000000000E+00 0. -1.
         11    1    3    3    0    0  0.11979374484E+00 -0.68247488885E+00  0.25144793728E+01  0.26082042275E+01  0.51100000000E-03 0. -1.
        -11    1    3    3    0    0  0.79291007926E+01 -0.13690081730E+01 -0.28174443023E+01  0.85254217147E+01  0.51100000000E-03 0.  1.
        -12    1    3    3    0    0  0.30799583027E+02  0.31360012131E+01  0.19622459174E+02  0.36653645416E+02  0.00000000000E+00 0.  1.
</event>
<event>
 7    1  0.4818508E-009  0.4778727E+02  0.7816164E-02  0.1312668E+00
        -11   -1    0    0    0    0  0.00000000000E+00  0.00000000000E+00  0.45593999997E+02  0.45594000000E+02  0.51100000000E-03 0. -1.
         11   -1    0    0    0    0 -0.00000000000E+00 -0.00000000000E+00 -0.45593999997E+02  0.45594000000E+02  0.51100000000E-03 0.  1.
    9900012    2    1    2    0    0  0.25466677146E+02 -0.12503682052E+02 -0.32844016771E+02  0.47787272502E+02  0.20000006645E+02 0.  0.
         12    1    1    2    0    0 -0.25466677146E+02  0.12503682052E+02  0.32844016771E+02  0.43400727498E+02  0.00000000000E+00 0. -1.
         11    1    3    3    0    0  0.55756982146E+01 -0.99085072640E+01 -0.13136972966E+02  0.17373744149E+02  0.51100000000E-03 0.  1.
        -11    1    3    3    0    0  0.14475029443E+02  0.94081460890E+00 -0.68939752433E+01  0.16060464017E+02  0.51100000000E-03 0. -1.
        -12    1    3    3    0    0  0.54159494878E+01 -0.35359893972E+01 -0.12813068561E+02  0.14353064336E+02  0.00000000000E+00 0.  1.
</event>
<event>
 7    1  0.4818508E-009  0.4778727E+02  0.7816164E-02  0.1312668E+00
        -11   -1    0    0    0    0  0.00000000000E+00  0.00000000000E+00  0.45593999997E+02  0.45594000000E+02  0.51100000000E-03 0.  1.
         11   -1    0    0    0    0 -0.00000000000E+00 -0.00000000000E+00 -0.45593999997E+02  0.45594000000E+02  0.51100000000E-03 0. -1.
    9900012    2    1    2    0    0  0.37705479117E+01  0.33420070360E+02  0.27431827830E+02  0.47787270600E+02  0.19999997972E+02 0.  0.
         12    1    1    2    0    0 -0.37705479117E+01 -0.33420070360E+02 -0.27431827830E+02  0.43400729400E+02  0.00000000000E+00 0. -1.
         11    1    3    3    0    0 -0.60496200075E+01  0.67178874633E+01  0.93398076738E+01  0.12998458441E+02  0.51100000000E-03 0.  1.
        -11    1    3    3    0    0  0.75863524384E+01  0.11334756841E+02  0.11794143268E+02  0.18031396830E+02  0.51100000000E-03 0. -1.
        -12    1    3    3    0    0  0.22338154808E+01  0.15367426056E+02  0.62978768878E+01  0.16757415328E+02  0.00000000000E+00 0.  1.
</event>
<event>
 7    1  0.4818508E-009  0.4778726E+02  0.7816164E-02  0.1312668E+00
        -11   -1    0    0    0    0  0.00000000000E+00  0.00000000000E+00  0.45593999997E+02  0.45594000000E+02  0.51100000000E-03 0.  1.
         11   -1    0    0    0    0 -0.00000000000E+00 -0.00000000000E+00 -0.45593999997E+02  0.45594000000E+02  0.51100000000E-03 0. -1.
    9900012    2    1    2    0    0 -0.17514338912E+02  0.30919454700E+02  0.24917043664E+02  0.47787264852E+02  0.19999971764E+02 0.  0.
         12    1    1    2    0    0  0.17514338912E+02 -0.30919454700E+02 -0.24917043664E+02  0.43400735148E+02  0.00000000000E+00 0. -1.
         11    1    3    3    0    0 -0.12072112356E+01  0.48173965194E+01  0.10934511719E+02  0.12009505193E+02  0.51100000000E-03 0. -1.
        -11    1    3    3    0    0 -0.49615658622E+01  0.17860551076E+02  0.52812945126E+01  0.19274555573E+02  0.51100000000E-03 0.  1.
         12    1    3    3    0    0 -0.11345561814E+02  0.82415071044E+01  0.87012374331E+01  0.16503204086E+02  0.00000000000E+00 0. -1.
</event>
<event>
 7    1  0.4818508E-009  0.4778727E+02  0.7816164E-02  0.1312668E+00
        -11   -1    0    0    0    0  0.00000000000E+00  0.00000000000E+00  0.45593999997E+02  0.45594000000E+02  0.51100000000E-03 0.  1.
         11   -1    0    0    0    0 -0.00000000000E+00 -0.00000000000E+00 -0.45593999997E+02  0.45594000000E+02  0.51100000000E-03 0. -1.
    9900012    2    1    2    0    0  0.11937737524E+02  0.25482182132E+02  0.33041980627E+02  0.47787266514E+02  0.19999979343E+02 0.  0.
         12    1    1    2    0    0 -0.11937737524E+02 -0.25482182132E+02 -0.33041980627E+02  0.43400733486E+02  0.00000000000E+00 0. -1.
         11    1    3    3    0    0 -0.22838880834E+01 -0.13236830657E+01 -0.27766924016E+00  0.26543138669E+01  0.51100000000E-03 0. -1.
        -11    1    3    3    0    0  0.78800127212E+01  0.17355252423E+02  0.20638999016E+02  0.28093908019E+02  0.51100000000E-03 0.  1.
        -12    1    3    3    0    0  0.63416128865E+01  0.94506127754E+01  0.12680650850E+02  0.17039044628E+02  0.00000000000E+00 0.  1.
</event>
<event>
 7    1  0.4818508E-009  0.4778727E+02  0.7816164E-02  0.1312668E+00
        -11   -1    0    0    0    0  0.00000000000E+00  0.00000000000E+00  0.45593999997E+02  0.45594000000E+02  0.51100000000E-03 0.  1.
         11   -1    0    0    0    0 -0.00000000000E+00 -0.00000000000E+00 -0.45593999997E+02  0.45594000000E+02  0.51100000000E-03 0. -1.
    9900012    2    1    2    0    0  0.27774794569E+02 -0.17885859047E+01  0.33301427140E+02  0.47787270716E+02  0.19999998502E+02 0.  0.
         12    1    1    2    0    0 -0.27774794569E+02  0.17885859047E+01 -0.33301427140E+02  0.43400729284E+02  0.00000000000E+00 0. -1.
         11    1    3    3    0    0 -0.32840425005E+00  0.81771806943E+00  0.32418072245E-01  0.88179554606E+00  0.51100000000E-03 0. -1.
        -11    1    3    3    0    0  0.11030506433E+02 -0.95716586142E+01  0.13862310190E+02  0.20135847756E+02  0.51100000000E-03 0.  1.
        -12    1    3    3    0    0  0.17072692385E+02  0.69653546401E+01  0.19406698877E+02  0.26769627414E+02  0.00000000000E+00 0.  1.
</event>
<event>
 7    1  0.4818508E-009  0.4778728E+02  0.7816164E-02  0.1312668E+00
        -11   -1    0    0    0    0  0.00000000000E+00  0.00000000000E+00  0.45593999997E+02  0.45594000000E+02  0.51100000000E-03 0.  1.
         11   -1    0    0    0    0 -0.00000000000E+00 -0.00000000000E+00 -0.45593999997E+02  0.45594000000E+02  0.51100000000E-03 0. -1.
    9900012    2    1    2    0    0 -0.11409967233E+02  0.17733394652E+02  0.37933655552E+02  0.47787275793E+02  0.20000021652E+02 0.  0.
         12    1    1    2    0    0  0.11409967233E+02 -0.17733394652E+02 -0.37933655552E+02  0.43400724207E+02  0.00000000000E+00 0. -1.
         11    1    3    3    0    0 -0.21068056032E-01  0.12938229822E+02  0.83649940409E+01  0.15406860821E+02  0.51100000000E-03 0. -1.
        -11    1    3    3    0    0 -0.10262447748E+02  0.33273150793E+01  0.20941420653E+02  0.23556993837E+02  0.51100000000E-03 0.  1.
         12    1    3    3    0    0 -0.11264514289E+01  0.14678497511E+01  0.86272408576E+01  0.88234211351E+01  0.00000000000E+00 0. -1.
</event>
<event>
 7    1  0.4818508E-009  0.4778725E+02  0.7816164E-02  0.1312668E+00
        -11   -1    0    0    0    0  0.00000000000E+00  0.00000000000E+00  0.45593999997E+02  0.45594000000E+02  0.51100000000E-03 0. -1.
         11   -1    0    0    0    0 -0.00000000000E+00 -0.00000000000E+00 -0.45593999997E+02  0.45594000000E+02  0.51100000000E-03 0.  1.
    9900012    2    1    2    0    0 -0.40271151344E+02  0.68902961792E+01 -0.14641819495E+02  0.47787254728E+02  0.19999925608E+02 0.  0.
         12    1    1    2    0    0  0.40271151344E+02 -0.68902961792E+01  0.14641819495E+02  0.43400745272E+02  0.00000000000E+00 0. -1.
         11    1    3    3    0    0 -0.18131707412E+02  0.11156231072E+01 -0.16904293409E+00  0.18166782995E+02  0.51100000000E-03 0. -1.
        -11    1    3    3    0    0 -0.11607983258E+02  0.90949147900E+01 -0.92263137063E+01  0.17395045709E+02  0.51100000000E-03 0.  1.
         12    1    3    3    0    0 -0.10531460674E+02 -0.33202417180E+01 -0.52464628549E+01  0.12225426024E+02  0.00000000000E+00 0. -1.
</event>
<event>
 7    1  0.4818508E-009  0.4778729E+02  0.7816164E-02  0.1312668E+00
        -11   -1    0    0    0    0  0.00000000000E+00  0.00000000000E+00  0.45593999997E+02  0.45594000000E+02  0.51100000000E-03 0. -1.
         11   -1    0    0    0    0 -0.00000000000E+00 -0.00000000000E+00 -0.45593999997E+02  0.45594000000E+02  0.51100000000E-03 0.  1.
    9900012    2    1    2    0    0 -0.73685909231E+01 -0.32470456830E+02 -0.27838731729E+02  0.47787289369E+02  0.20000083551E+02 0.  0.
         12    1    1    2    0    0  0.73685909231E+01  0.32470456830E+02  0.27838731729E+02  0.43400710631E+02  0.00000000000E+00 0. -1.
         11    1    3    3    0    0 -0.41040587829E+01 -0.24104551133E+02 -0.97613059101E+01  0.26327851738E+02  0.51100000000E-03 0.  1.
        -11    1    3    3    0    0 -0.54318511664E+01 -0.72305853139E+01 -0.13172442928E+02  0.15978098260E+02  0.51100000000E-03 0. -1.
        -12    1    3    3    0    0  0.21673190262E+01 -0.11353203831E+01 -0.49049828911E+01  0.54813393706E+01  0.00000000000E+00 0.  1.
</event>
<event>
 7    1  0.4818508E-009  0.4778727E+02  0.7816164E-02  0.1312668E+00
        -11   -1    0    0    0    0  0.00000000000E+00  0.00000000000E+00  0.45593999997E+02  0.45594000000E+02  0.51100000000E-03 0.  1.
         11   -1    0    0    0    0 -0.00000000000E+00 -0.00000000000E+00 -0.45593999997E+02  0.45594000000E+02  0.51100000000E-03 0. -1.
    9900012    2    1    2    0    0 -0.27210972292E+02 -0.33709743592E+02  0.26152643605E+01  0.47787269202E+02  0.19999991601E+02 0.  0.
         12    1    1    2    0    0  0.27210972292E+02  0.33709743592E+02 -0.26152643605E+01  0.43400730798E+02  0.00000000000E+00 0. -1.
         11    1    3    3    0    0 -0.25990499129E+02 -0.17758718818E+02  0.65226590986E+00  0.31484974037E+02  0.51100000000E-03 0. -1.
        -11    1    3    3    0    0 -0.82005984474E+00 -0.10500318810E+02  0.24555404944E+01  0.10814752546E+02  0.51100000000E-03 0.  1.
         12    1    3    3    0    0 -0.40041331802E+00 -0.54507059641E+01 -0.49254204372E+00  0.54875426191E+01  0.00000000000E+00 0. -1.
</event>
<event>
 7    1  0.4818508E-009  0.4778727E+02  0.7816164E-02  0.1312668E+00
        -11   -1    0    0    0    0  0.00000000000E+00  0.00000000000E+00  0.45593999997E+02  0.45594000000E+02  0.51100000000E-03 0.  1.
         11   -1    0    0    0    0 -0.00000000000E+00 -0.00000000000E+00 -0.45593999997E+02  0.45594000000E+02  0.51100000000E-03 0. -1.
    9900012    2    1    2    0    0 -0.27842195719E+01  0.42824892380E+02  0.64730415318E+01  0.47787267833E+02  0.19999985357E+02 0.  0.
         12    1    1    2    0    0  0.27842195719E+01 -0.42824892380E+02 -0.64730415318E+01  0.43400732167E+02  0.00000000000E+00 0. -1.
         11    1    3    3    0    0  0.73585944857E+01  0.15908792873E+02  0.19518370758E+00  0.17529309753E+02  0.51100000000E-03 0.  1.
        -11    1    3    3    0    0 -0.81230398795E+01  0.14761325038E+02  0.61493021356E+01  0.17935841513E+02  0.51100000000E-03 0. -1.
        -12    1    3    3    0    0 -0.20197741780E+01  0.12154774469E+02  0.12855568861E+00  0.12322116567E+02  0.00000000000E+00 0.  1.
</event>
<event>
 7    1  0.4818508E-009  0.4778727E+02  0.7816164E-02  0.1312668E+00
        -11   -1    0    0    0    0  0.00000000000E+00  0.00000000000E+00  0.45593999997E+02  0.45594000000E+02  0.51100000000E-03 0. -1.
         11   -1    0    0    0    0 -0.00000000000E+00 -0.00000000000E+00 -0.45593999997E+02  0.45594000000E+02  0.51100000000E-03 0.  1.
    9900012    2    1    2    0    0  0.73740498265E+01  0.36527209688E+02  0.22248811740E+02  0.47787270947E+02  0.19999999557E+02 0.  0.
         12    1    1    2    0    0 -0.73740498265E+01 -0.36527209688E+02 -0.22248811740E+02  0.43400729053E+02  0.00000000000E+00 0. -1.
         11    1    3    3    0    0  0.46844637665E+01  0.20219746709E+02  0.20579873208E+02  0.29228642447E+02  0.51100000000E-03 0. -1.
        -11    1    3    3    0    0 -0.23115203976E+01  0.10770456190E+02  0.75295815823E+00  0.11041412923E+02  0.51100000000E-03 0.  1.
         12    1    3    3    0    0  0.50011064576E+01  0.55370067888E+01  0.91598037341E+00  0.75172155765E+01  0.00000000000E+00 0. -1.
</event>
<event>
 7    1  0.4818508E-009  0.4778727E+02  0.7816164E-02  0.1312668E+00
        -11   -1    0    0    0    0  0.00000000000E+00  0.00000000000E+00  0.45593999997E+02  0.45594000000E+02  0.51100000000E-03 0.  1.
         11   -1    0    0    0    0 -0.00000000000E+00 -0.00000000000E+00 -0.45593999997E+02  0.45594000000E+02  0.51100000000E-03 0. -1.
    9900012    2    1    2    0    0  0.12611740999E+02 -0.36117475573E+02  0.20496222990E+02  0.47787271784E+02  0.20000003371E+02 0.  0.
         12    1    1    2    0    0 -0.12611740999E+02  0.36117475573E+02 -0.20496222990E+02  0.43400728216E+02  0.00000000000E+00 0. -1.
         11    1    3    3    0    0  0.67838874555E+00 -0.10877960900E+02  0.20414300753E+01  0.11088628484E+02  0.51100000000E-03 0. -1.
        -11    1    3    3    0    0  0.60472069049E+01 -0.23597083219E+02  0.10154438410E+02  0.26391355924E+02  0.51100000000E-03 0.  1.
        -12    1    3    3    0    0  0.58861453489E+01 -0.16424314542E+01  0.83003545053E+01  0.10307287377E+02  0.00000000000E+00 0.  1.
</event>
<event>
 7    1  0.4818508E-009  0.4778727E+02  0.7816164E-02  0.1312668E+00
        -11   -1    0    0    0    0  0.00000000000E+00  0.00000000000E+00  0.45593999997E+02  0.45594000000E+02  0.51100000000E-03 0. -1.
         11   -1    0    0    0    0 -0.00000000000E+00 -0.00000000000E+00 -0.45593999997E+02  0.45594000000E+02  0.51100000000E-03 0.  1.
    9900012    2    1    2    0    0 -0.70837367645E+01 -0.37168516421E+02 -0.21259005012E+02  0.47787271509E+02  0.20000002116E+02 0.  0.
         12    1    1    2    0    0  0.70837367645E+01  0.37168516421E+02  0.21259005012E+02  0.43400728491E+02  0.00000000000E+00 0. -1.
         11    1    3    3    0    0  0.52069682189E+01 -0.13836860681E+02 -0.53386094284E+01  0.15718523545E+02  0.51100000000E-03 0. -1.
        -11    1    3    3    0    0  0.74161801154E+00 -0.60337253225E+01 -0.23911380085E+01  0.65324864928E+01  0.51100000000E-03 0.  1.
         12    1    3    3    0    0 -0.13032322995E+02 -0.17297930417E+02 -0.13529257575E+02  0.25536261471E+02  0.00000000000E+00 0. -1.
</event>
<event>
 7    1  0.4818508E-009  0.4778727E+02  0.7816164E-02  0.1312668E+00
        -11   -1    0    0    0    0  0.00000000000E+00  0.00000000000E+00  0.45593999997E+02  0.45594000000E+02  0.51100000000E-03 0.  1.
         11   -1    0    0    0    0 -0.00000000000E+00 -0.00000000000E+00 -0.45593999997E+02  0.45594000000E+02  0.51100000000E-03 0. -1.
    9900012    2    1    2    0    0  0.79409499251E+01  0.42364490330E+01  0.42457239306E+02  0.47787270103E+02  0.19999995706E+02 0.  0.
         12    1    1    2    0    0 -0.79409499251E+01 -0.42364490330E+01 -0.42457239306E+02  0.43400729897E+02  0.00000000000E+00 0. -1.
         11    1    3    3    0    0 -0.31244868811E+01  0.81012836283E+01  0.13720956023E+02  0.16237544431E+02  0.51100000000E-03 0. -1.
        -11    1    3    3    0    0  0.61923036855E+01 -0.36819488530E+01  0.22547790454E+02  0.23670746226E+02  0.51100000000E-03 0.  1.
         12    1    3    3    0    0  0.48731331206E+01 -0.18288574228E+00  0.61884928297E+01  0.78789794459E+01  0.00000000000E+00 0. -1.
</event>
<event>
 7    1  0.4818508E-009  0.4778727E+02  0.7816164E-02  0.1312668E+00
        -11   -1    0    0    0    0  0.00000000000E+00  0.00000000000E+00  0.45593999997E+02  0.45594000000E+02  0.51100000000E-03 0.  1.
         11   -1    0    0    0    0 -0.00000000000E+00 -0.00000000000E+00 -0.45593999997E+02  0.45594000000E+02  0.51100000000E-03 0. -1.
    9900012    2    1    2    0    0 -0.24162384006E+02  0.36016296981E+02 -0.16212682872E+01  0.47787274661E+02  0.20000016490E+02 0.  0.
         12    1    1    2    0    0  0.24162384006E+02 -0.36016296981E+02  0.16212682872E+01  0.43400725339E+02  0.00000000000E+00 0. -1.
         11    1    3    3    0    0 -0.11155902942E+02  0.21175007470E+02 -0.84688439309E+01  0.25388115913E+02  0.51100000000E-03 0. -1.
        -11    1    3    3    0    0 -0.12503691575E+02  0.89639146675E+01  0.43061412699E+01  0.15976136018E+02  0.51100000000E-03 0.  1.
         12    1    3    3    0    0 -0.50278948890E+00  0.58773748435E+01  0.25414343738E+01  0.64230227305E+01  0.00000000000E+00 0. -1.
</event>
<event>
 7    1  0.4818508E-009  0.4778727E+02  0.7816164E-02  0.1312668E+00
        -11   -1    0    0    0    0  0.00000000000E+00  0.00000000000E+00  0.45593999997E+02  0.45594000000E+02  0.51100000000E-03 0. -1.
         11   -1    0    0    0    0 -0.00000000000E+00 -0.00000000000E+00 -0.45593999997E+02  0.45594000000E+02  0.51100000000E-03 0.  1.
    9900012    2    1    2    0    0  0.38307615130E+02 -0.12573751780E+01 -0.20360962620E+02  0.47787272263E+02  0.20000005554E+02 0.  0.
         12    1    1    2    0    0 -0.38307615130E+02  0.12573751780E+01  0.20360962620E+02  0.43400727737E+02  0.00000000000E+00 0. -1.
         11    1    3    3    0    0  0.81841425578E+01 -0.16929518090E+01  0.23606438590E+01  0.86844064232E+01  0.51100000000E-03 0. -1.
        -11    1    3    3    0    0  0.11009518719E+02  0.16399722349E+01 -0.14452508302E+02  0.18242094393E+02  0.51100000000E-03 0.  1.
         12    1    3    3    0    0  0.19113953853E+02 -0.12043956039E+01 -0.82690981773E+01  0.20860771446E+02  0.00000000000E+00 0. -1.
</event>
<event>
 7    1  0.4818508E-009  0.4778727E+02  0.7816164E-02  0.1312668E+00
        -11   -1    0    0    0    0  0.00000000000E+00  0.00000000000E+00  0.45593999997E+02  0.45594000000E+02  0.51100000000E-03 0.  1.
         11   -1    0    0    0    0 -0.00000000000E+00 -0.00000000000E+00 -0.45593999997E+02  0.45594000000E+02  0.51100000000E-03 0. -1.
    9900012    2    1    2    0    0 -0.26625662748E+02 -0.30601743561E+02 -0.15434730067E+02  0.47787268233E+02  0.19999987181E+02 0.  0.
         12    1    1    2    0    0  0.26625662748E+02  0.30601743561E+02  0.15434730067E+02  0.43400731767E+02  0.00000000000E+00 0. -1.
         11    1    3    3    0    0 -0.20507539104E+02 -0.95397648898E+01 -0.81545828602E+01  0.24042951070E+02  0.51100000000E-03 0. -1.
        -11    1    3    3    0    0 -0.65742836370E+01 -0.14271668891E+02 -0.41409608437E+01  0.16249593695E+02  0.51100000000E-03 0.  1.
         12    1    3    3    0    0  0.45615999351E+00 -0.67903097793E+01 -0.31391863626E+01  0.74947234677E+01  0.00000000000E+00 0. -1.
</event>
<event>
 7    1  0.4818508E-009  0.4778728E+02  0.7816164E-02  0.1312668E+00
        -11   -1    0    0    0    0  0.00000000000E+00  0.00000000000E+00  0.45593999997E+02  0.45594000000E+02  0.51100000000E-03 0.  1.
         11   -1    0    0    0    0 -0.00000000000E+00 -0.00000000000E+00 -0.45593999997E+02  0.45594000000E+02  0.51100000000E-03 0. -1.
    9900012    2    1    2    0    0 -0.22714407836E+02 -0.29094005908E+02  0.22830183119E+02  0.47787276914E+02  0.20000026761E+02 0.  0.
         12    1    1    2    0    0  0.22714407836E+02  0.29094005908E+02 -0.22830183119E+02  0.43400723086E+02  0.00000000000E+00 0. -1.
         11    1    3    3    0    0 -0.25012513784E+01  0.18173346604E+00  0.90889857243E-01  0.25094913305E+01  0.51100000000E-03 0. -1.
        -11    1    3    3    0    0 -0.20501482014E+02 -0.22005380271E+02  0.12166724669E+02  0.32443438706E+02  0.51100000000E-03 0.  1.
        -12    1    3    3    0    0  0.28832555568E+00 -0.72703591028E+01  0.10572568593E+02  0.12834346877E+02  0.00000000000E+00 0.  1.
</event>
<event>
 7    1  0.4818508E-009  0.4778727E+02  0.7816164E-02  0.1312668E+00
        -11   -1    0    0    0    0  0.00000000000E+00  0.00000000000E+00  0.45593999997E+02  0.45594000000E+02  0.51100000000E-03 0.  1.
         11   -1    0    0    0    0 -0.00000000000E+00 -0.00000000000E+00 -0.45593999997E+02  0.45594000000E+02  0.51100000000E-03 0. -1.
    9900012    2    1    2    0    0 -0.47649145248E+01  0.66479260510E+01  0.42623044303E+02  0.47787271471E+02  0.20000001945E+02 0.  0.
         12    1    1    2    0    0  0.47649145248E+01 -0.66479260510E+01 -0.42623044303E+02  0.43400728529E+02  0.00000000000E+00 0. -1.
         11    1    3    3    0    0 -0.73666774797E+01  0.10269464955E+02  0.34514891881E+02  0.36756055411E+02  0.51100000000E-03 0.  1.
        -11    1    3    3    0    0  0.45036898934E+01 -0.18309117814E+01  0.54800085957E+01  0.73257050908E+01  0.51100000000E-03 0. -1.
        -12    1    3    3    0    0 -0.19019269385E+01 -0.17906271229E+01  0.26281438261E+01  0.37055109693E+01  0.00000000000E+00 0.  1.
</event>
<event>
 7    1  0.4818508E-009  0.4778727E+02  0.7816164E-02  0.1312668E+00
        -11   -1    0    0    0    0  0.00000000000E+00  0.00000000000E+00  0.45593999997E+02  0.45594000000E+02  0.51100000000E-03 0. -1.
         11   -1    0    0    0    0 -0.00000000000E+00 -0.00000000000E+00 -0.45593999997E+02  0.45594000000E+02  0.51100000000E-03 0.  1.
    9900012    2    1    2    0    0 -0.16215065607E+02  0.36790756525E+02  0.16344262953E+02  0.47787273626E+02  0.20000011772E+02 0.  0.
         12    1    1    2    0    0  0.16215065607E+02 -0.36790756525E+02 -0.16344262953E+02  0.43400726374E+02  0.00000000000E+00 0. -1.
         11    1    3    3    0    0 -0.18321913981E+02  0.20634016945E+02  0.12824012265E+02  0.30428777137E+02  0.51100000000E-03 0. -1.
        -11    1    3    3    0    0  0.34661258183E+01  0.12757927775E+02  0.19031428336E+01  0.13356672572E+02  0.51100000000E-03 0.  1.
        -12    1    3    3    0    0 -0.13592774443E+01  0.33988118046E+01  0.16171078542E+01  0.40018239174E+01  0.00000000000E+00 0.  1.
</event>
<event>
 7    1  0.4818508E-009  0.4778727E+02  0.7816164E-02  0.1312668E+00
        -11   -1    0    0    0    0  0.00000000000E+00  0.00000000000E+00  0.45593999997E+02  0.45594000000E+02  0.51100000000E-03 0. -1.
         11   -1    0    0    0    0 -0.00000000000E+00 -0.00000000000E+00 -0.45593999997E+02  0.45594000000E+02  0.51100000000E-03 0.  1.
    9900012    2    1    2    0    0  0.32348381254E+02 -0.19296988785E+02 -0.21559962642E+02  0.47787268036E+02  0.19999986282E+02 0.  0.
         12    1    1    2    0    0 -0.32348381254E+02  0.19296988785E+02  0.21559962642E+02  0.43400731964E+02  0.00000000000E+00 0. -1.
         11    1    3    3    0    0  0.17847648392E+02 -0.73685182006E+01 -0.72888552856E+01  0.20638823252E+02  0.51100000000E-03 0. -1.
        -11    1    3    3    0    0  0.51368674300E+01 -0.12695614498E+02 -0.82105425066E+01  0.15968063220E+02  0.51100000000E-03 0.  1.
        -12    1    3    3    0    0  0.93638654319E+01  0.76714391376E+00 -0.60605648495E+01  0.11180381564E+02  0.00000000000E+00 0.  1.
</event>
<event>
 7    1  0.4818508E-009  0.4778727E+02  0.7816164E-02  0.1312668E+00
        -11   -1    0    0    0    0  0.00000000000E+00  0.00000000000E+00  0.45593999997E+02  0.45594000000E+02  0.51100000000E-03 0. -1.
         11   -1    0    0    0    0 -0.00000000000E+00 -0.00000000000E+00 -0.45593999997E+02  0.45594000000E+02  0.51100000000E-03 0.  1.
    9900012    2    1    2    0    0  0.18771555452E+02  0.39034165137E+02  0.27542656340E+01  0.47787270499E+02  0.19999997514E+02 0.  0.
         12    1    1    2    0    0 -0.18771555452E+02 -0.39034165137E+02 -0.27542656340E+01  0.43400729501E+02  0.00000000000E+00 0. -1.
         11    1    3    3    0    0  0.14780011778E+02  0.19034941561E+02 -0.38884188789E+01  0.24411012884E+02  0.51100000000E-03 0. -1.
        -11    1    3    3    0    0  0.36967558590E+01  0.10174307515E+02  0.79907477712E+01  0.13454909419E+02  0.51100000000E-03 0.  1.
        -12    1    3    3    0    0  0.29478781459E+00  0.98249160617E+01 -0.13480632583E+01  0.99213481959E+01  0.00000000000E+00 0.  1.
</event>
<event>
 7    1  0.4818508E-009  0.4778727E+02  0.7816164E-02  0.1312668E+00
        -11   -1    0    0    0    0  0.00000000000E+00  0.00000000000E+00  0.45593999997E+02  0.45594000000E+02  0.51100000000E-03 0.  1.
         11   -1    0    0    0    0 -0.00000000000E+00 -0.00000000000E+00 -0.45593999997E+02  0.45594000000E+02  0.51100000000E-03 0. -1.
    9900012    2    1    2    0    0  0.15105314671E+02  0.24987573007E+02  0.32110340474E+02  0.47787270727E+02  0.19999998553E+02 0.  0.
         12    1    1    2    0    0 -0.15105314671E+02 -0.24987573007E+02 -0.32110340474E+02  0.43400729273E+02  0.00000000000E+00 0. -1.
         11    1    3    3    0    0  0.14362935539E+02  0.24617812115E+02  0.19733368963E+02  0.34666070465E+02  0.51100000000E-03 0.  1.
        -11    1    3    3    0    0  0.20227049676E+01 -0.90054313105E+00  0.92506877254E+01  0.95119680914E+01  0.51100000000E-03 0. -1.
        -12    1    3    3    0    0 -0.12803258350E+01  0.12703040228E+01  0.31262837856E+01  0.36092321708E+01  0.00000000000E+00 0.  1.
</event>
<event>
 7    1  0.4818508E-009  0.4778727E+02  0.7816164E-02  0.1312668E+00
        -11   -1    0    0    0    0  0.00000000000E+00  0.00000000000E+00  0.45593999997E+02  0.45594000000E+02  0.51100000000E-03 0.  1.
         11   -1    0    0    0    0 -0.00000000000E+00 -0.00000000000E+00 -0.45593999997E+02  0.45594000000E+02  0.51100000000E-03 0. -1.
    9900012    2    1    2    0    0  0.13137634822E+02  0.26030632584E+02  0.32147040358E+02  0.47787268609E+02  0.19999988896E+02 0.  0.
         12    1    1    2    0    0 -0.13137634822E+02 -0.26030632584E+02 -0.32147040358E+02  0.43400731391E+02  0.00000000000E+00 0. -1.
         11    1    3    3    0    0 -0.56914652099E-01 -0.88651588271E+00  0.71291145802E+01  0.71842483704E+01  0.51100000000E-03 0. -1.
        -11    1    3    3    0    0  0.14752952973E+02  0.26405023068E+02  0.22976223068E+02  0.37983966240E+02  0.51100000000E-03 0.  1.
        -12    1    3    3    0    0 -0.15584034984E+01  0.51212539937E+00  0.20417027104E+01  0.26190539984E+01  0.00000000000E+00 0.  1.
</event>
<event>
 7    1  0.4818508E-009  0.4778727E+02  0.7816164E-02  0.1312668E+00
        -11   -1    0    0    0    0  0.00000000000E+00  0.00000000000E+00  0.45593999997E+02  0.45594000000E+02  0.51100000000E-03 0.  1.
         11   -1    0    0    0    0 -0.00000000000E+00 -0.00000000000E+00 -0.45593999997E+02  0.45594000000E+02  0.51100000000E-03 0. -1.
    9900012    2    1    2    0    0 -0.26021422225E+02  0.26843538522E+02  0.22043897993E+02  0.47787269433E+02  0.19999992653E+02 0.  0.
         12    1    1    2    0    0  0.26021422225E+02 -0.26843538522E+02 -0.22043897993E+02  0.43400730567E+02  0.00000000000E+00 0. -1.
         11    1    3    3    0    0 -0.92641776186E+01  0.17590427057E+02  0.82051896913E+01  0.21507516108E+02  0.51100000000E-03 0. -1.
        -11    1    3    3    0    0 -0.17972861540E+02  0.99217232263E+01  0.11421947822E+02  0.23493089112E+02  0.51100000000E-03 0.  1.
        -12    1    3    3    0    0  0.12156169335E+01 -0.66861176158E+00  0.24167604800E+01  0.27866642127E+01  0.00000000000E+00 0.  1.
</event>
<event>
 7    1  0.4818508E-009  0.4778727E+02  0.7816164E-02  0.1312668E+00
        -11   -1    0    0    0    0  0.00000000000E+00  0.00000000000E+00  0.45593999997E+02  0.45594000000E+02  0.51100000000E-03 0.  1.
         11   -1    0    0    0    0 -0.00000000000E+00 -0.00000000000E+00 -0.45593999997E+02  0.45594000000E+02  0.51100000000E-03 0. -1.
    9900012    2    1    2    0    0  0.41499492119E+01 -0.14616635305E+02  0.40654089804E+02  0.47787272772E+02  0.20000007879E+02 0.  0.
         12    1    1    2    0    0 -0.41499492119E+01  0.14616635305E+02 -0.40654089804E+02  0.43400727228E+02  0.00000000000E+00 0. -1.
         11    1    3    3    0    0 -0.58931033896E+01 -0.46737603977E+01  0.17842060783E+02  0.19362640240E+02  0.51100000000E-03 0. -1.
        -11    1    3    3    0    0  0.90292090546E+01 -0.30464667982E+01  0.16324066595E+02  0.18901923886E+02  0.51100000000E-03 0.  1.
        -12    1    3    3    0    0  0.10138435469E+01 -0.68964081086E+01  0.64879624256E+01  0.95227086469E+01  0.00000000000E+00 0.  1.
</event>
<event>
 7    1  0.4818508E-009  0.4778727E+02  0.7816164E-02  0.1312668E+00
        -11   -1    0    0    0    0  0.00000000000E+00  0.00000000000E+00  0.45593999997E+02  0.45594000000E+02  0.51100000000E-03 0. -1.
         11   -1    0    0    0    0 -0.00000000000E+00 -0.00000000000E+00 -0.45593999997E+02  0.45594000000E+02  0.51100000000E-03 0.  1.
    9900012    2    1    2    0    0 -0.22060291569E+02  0.18289230998E+01 -0.37331246506E+02  0.47787269712E+02  0.19999993924E+02 0.  0.
         12    1    1    2    0    0  0.22060291569E+02 -0.18289230998E+01  0.37331246506E+02  0.43400730288E+02  0.00000000000E+00 0. -1.
         11    1    3    3    0    0  0.15799715876E+01  0.14235739341E+01 -0.12577419794E+01  0.24707869417E+01  0.51100000000E-03 0. -1.
        -11    1    3    3    0    0 -0.21076806263E+02 -0.31701767024E+01 -0.34671778786E+02  0.40699066660E+02  0.51100000000E-03 0.  1.
        -12    1    3    3    0    0 -0.25634568934E+01  0.35755258681E+01 -0.14017257415E+01  0.46174161100E+01  0.00000000000E+00 0.  1.
</event>
<event>
 7    1  0.4818508E-009  0.4778727E+02  0.7816164E-02  0.1312668E+00
        -11   -1    0    0    0    0  0.00000000000E+00  0.00000000000E+00  0.45593999997E+02  0.45594000000E+02  0.51100000000E-03 0.  1.
         11   -1    0    0    0    0 -0.00000000000E+00 -0.00000000000E+00 -0.45593999997E+02  0.45594000000E+02  0.51100000000E-03 0. -1.
    9900012    2    1    2    0    0 -0.38014058653E+02 -0.94792401514E+00  0.20920232895E+02  0.47787270057E+02  0.19999995498E+02 0.  0.
         12    1    1    2    0    0  0.38014058653E+02  0.94792401514E+00 -0.20920232895E+02  0.43400729943E+02  0.00000000000E+00 0. -1.
         11    1    3    3    0    0 -0.18934717825E+02 -0.26378710941E+01  0.17998617299E+02  0.26257039589E+02  0.51100000000E-03 0. -1.
        -11    1    3    3    0    0 -0.91209596160E+01  0.51690971387E+01 -0.33840035681E+00  0.10489327176E+02  0.51100000000E-03 0.  1.
        -12    1    3    3    0    0 -0.99583812116E+01 -0.34791500598E+01  0.32600159529E+01  0.11040903292E+02  0.00000000000E+00 0.  1.
</event>
<event>
 7    1  0.4818508E-009  0.4778727E+02  0.7816164E-02  0.1312668E+00
        -11   -1    0    0    0    0  0.00000000000E+00  0.00000000000E+00  0.45593999997E+02  0.45594000000E+02  0.51100000000E-03 0.  1.
         11   -1    0    0    0    0 -0.00000000000E+00 -0.00000000000E+00 -0.45593999997E+02  0.45594000000E+02  0.51100000000E-03 0. -1.
    9900012    2    1    2    0    0  0.20965230207E+02 -0.34783415794E+02 -0.15303483300E+02  0.47787268520E+02  0.19999988489E+02 0.  0.
         12    1    1    2    0    0 -0.20965230207E+02  0.34783415794E+02  0.15303483300E+02  0.43400731480E+02  0.00000000000E+00 0. -1.
         11    1    3    3    0    0  0.49046308392E+01 -0.10384072811E+01 -0.52182495552E+01  0.72362850988E+01  0.51100000000E-03 0. -1.
        -11    1    3    3    0    0  0.13606038847E+02 -0.29640176281E+02 -0.40711365482E+01  0.32866981853E+02  0.51100000000E-03 0.  1.
        -12    1    3    3    0    0  0.24545605209E+01 -0.41048322313E+01 -0.60140971968E+01  0.76840015676E+01  0.00000000000E+00 0.  1.
</event>
<event>
 7    1  0.4818508E-009  0.4778727E+02  0.7816164E-02  0.1312668E+00
        -11   -1    0    0    0    0  0.00000000000E+00  0.00000000000E+00  0.45593999997E+02  0.45594000000E+02  0.51100000000E-03 0.  1.
         11   -1    0    0    0    0 -0.00000000000E+00 -0.00000000000E+00 -0.45593999997E+02  0.45594000000E+02  0.51100000000E-03 0. -1.
    9900012    2    1    2    0    0  0.11616432532E+02 -0.68526726872E+01  0.41251943261E+02  0.47787269009E+02  0.19999990719E+02 0.  0.
         12    1    1    2    0    0 -0.11616432532E+02  0.68526726872E+01 -0.41251943261E+02  0.43400730991E+02  0.00000000000E+00 0. -1.
         11    1    3    3    0    0  0.73726684419E+00 -0.31528823259E+01  0.23464460669E+02  0.23686813718E+02  0.51100000000E-03 0.  1.
        -11    1    3    3    0    0  0.31996049409E+00 -0.36648730705E+01  0.10873578398E+02  0.11479040760E+02  0.51100000000E-03 0. -1.
         12    1    3    3    0    0  0.10559205194E+02 -0.34917290888E-01  0.69139041943E+01  0.12621414530E+02  0.00000000000E+00 0. -1.
</event>
<event>
 7    1  0.4818508E-009  0.4778727E+02  0.7816164E-02  0.1312668E+00
        -11   -1    0    0    0    0  0.00000000000E+00  0.00000000000E+00  0.45593999997E+02  0.45594000000E+02  0.51100000000E-03 0.  1.
         11   -1    0    0    0    0 -0.00000000000E+00 -0.00000000000E+00 -0.45593999997E+02  0.45594000000E+02  0.51100000000E-03 0. -1.
    9900012    2    1    2    0    0  0.20216104524E+00 -0.24080406376E+02  0.36107011236E+02  0.47787273039E+02  0.20000009094E+02 0.  0.
         12    1    1    2    0    0 -0.20216104524E+00  0.24080406376E+02 -0.36107011236E+02  0.43400726961E+02  0.00000000000E+00 0. -1.
         11    1    3    3    0    0 -0.85915176670E+00 -0.14813624077E+02  0.92281343349E+01  0.17473982478E+02  0.51100000000E-03 0. -1.
        -11    1    3    3    0    0 -0.19033664852E+01 -0.10585692083E+02  0.20046466341E+02  0.22749516344E+02  0.51100000000E-03 0.  1.
         12    1    3    3    0    0  0.29646792972E+01  0.13189097837E+01  0.68324105599E+01  0.75637742174E+01  0.00000000000E+00 0. -1.
</event>
<event>
 7    1  0.4818508E-009  0.4778727E+02  0.7816164E-02  0.1312668E+00
        -11   -1    0    0    0    0  0.00000000000E+00  0.00000000000E+00  0.45593999997E+02  0.45594000000E+02  0.51100000000E-03 0. -1.
         11   -1    0    0    0    0 -0.00000000000E+00 -0.00000000000E+00 -0.45593999997E+02  0.45594000000E+02  0.51100000000E-03 0.  1.
    9900012    2    1    2    0    0  0.18577816176E+02  0.34899427676E+02 -0.17903010124E+02  0.47787273307E+02  0.20000010316E+02 0.  0.
         12    1    1    2    0    0 -0.18577816176E+02 -0.34899427676E+02  0.17903010124E+02  0.43400726693E+02  0.00000000000E+00 0. -1.
         11    1    3    3    0    0  0.60193555671E+01  0.78347746605E+01 -0.18383604902E+01  0.10049671884E+02  0.51100000000E-03 0. -1.
        -11    1    3    3    0    0  0.77006067929E+01  0.17065858676E+02 -0.18539820266E+02  0.26348962277E+02  0.51100000000E-03 0.  1.
        -12    1    3    3    0    0  0.48578538159E+01  0.99987943391E+01  0.24751706321E+01  0.11388639146E+02  0.00000000000E+00 0.  1.
</event>
<event>
 7    1  0.4818508E-009  0.4778727E+02  0.7816164E-02  0.1312668E+00
        -11   -1    0    0    0    0  0.00000000000E+00  0.00000000000E+00  0.45593999997E+02  0.45594000000E+02  0.51100000000E-03 0. -1.
         11   -1    0    0    0    0 -0.00000000000E+00 -0.00000000000E+00 -0.45593999997E+02  0.45594000000E+02  0.51100000000E-03 0.  1.
    9900012    2    1    2    0    0  0.26518689380E+02 -0.34218817854E+02  0.30749230366E+01  0.47787268054E+02  0.19999986366E+02 0.  0.
         12    1    1    2    0    0 -0.26518689380E+02  0.34218817854E+02 -0.30749230366E+01  0.43400731946E+02  0.00000000000E+00 0. -1.
         11    1    3    3    0    0 -0.32947410434E+00 -0.26468980051E+01 -0.15891700238E+01  0.31048484440E+01  0.51100000000E-03 0. -1.
        -11    1    3    3    0    0  0.22337862421E+02 -0.25571020178E+02 -0.28345889246E+01  0.34071866182E+02  0.51100000000E-03 0.  1.
        -12    1    3    3    0    0  0.45103010634E+01 -0.60008996710E+01  0.74986819850E+01  0.10610553428E+02  0.00000000000E+00 0.  1.
</event>
<event>
 7    1  0.4818508E-009  0.4778727E+02  0.7816164E-02  0.1312668E+00
        -11   -1    0    0    0    0  0.00000000000E+00  0.00000000000E+00  0.45593999997E+02  0.45594000000E+02  0.51100000000E-03 0.  1.
         11   -1    0    0    0    0 -0.00000000000E+00 -0.00000000000E+00 -0.45593999997E+02  0.45594000000E+02  0.51100000000E-03 0. -1.
    9900012    2    1    2    0    0 -0.16387497267E+02  0.32192440109E+02  0.24056600272E+02  0.47787270933E+02  0.19999999494E+02 0.  0.
         12    1    1    2    0    0  0.16387497267E+02 -0.32192440109E+02 -0.24056600272E+02  0.43400729067E+02  0.00000000000E+00 0. -1.
         11    1    3    3    0    0  0.24738642341E-01  0.26192146388E+01  0.94727741378E+01  0.98282423378E+01  0.51100000000E-03 0. -1.
        -11    1    3    3    0    0 -0.14047291505E+02  0.16113526927E+02  0.86584627463E+01  0.23063848899E+02  0.51100000000E-03 0.  1.
         12    1    3    3    0    0 -0.23649444041E+01  0.13459698543E+02  0.59253633882E+01  0.14895179696E+02  0.00000000000E+00 0. -1.
</event>
<event>
 7    1  0.4818508E-009  0.4778727E+02  0.7816164E-02  0.1312668E+00
        -11   -1    0    0    0    0  0.00000000000E+00  0.00000000000E+00  0.45593999997E+02  0.45594000000E+02  0.51100000000E-03 0. -1.
         11   -1    0    0    0    0 -0.00000000000E+00 -0.00000000000E+00 -0.45593999997E+02  0.45594000000E+02  0.51100000000E-03 0.  1.
    9900012    2    1    2    0    0  0.34244414163E+01  0.14142300950E+02 -0.40888771101E+02  0.47787273309E+02  0.20000010324E+02 0.  0.
         12    1    1    2    0    0 -0.34244414163E+01 -0.14142300950E+02  0.40888771101E+02  0.43400726691E+02  0.00000000000E+00 0. -1.
         11    1    3    3    0    0  0.20719475533E+01 -0.29413661645E+00 -0.23657742327E+01  0.31585393766E+01  0.51100000000E-03 0. -1.
        -11    1    3    3    0    0  0.56563284765E+01  0.33804391847E+01 -0.28017135027E+02  0.28781613511E+02  0.51100000000E-03 0.  1.
        -12    1    3    3    0    0 -0.43038346135E+01  0.11055998382E+02 -0.10505861841E+02  0.15847120421E+02  0.00000000000E+00 0.  1.
</event>
<event>
 7    1  0.4818508E-009  0.4778727E+02  0.7816164E-02  0.1312668E+00
        -11   -1    0    0    0    0  0.00000000000E+00  0.00000000000E+00  0.45593999997E+02  0.45594000000E+02  0.51100000000E-03 0.  1.
         11   -1    0    0    0    0 -0.00000000000E+00 -0.00000000000E+00 -0.45593999997E+02  0.45594000000E+02  0.51100000000E-03 0. -1.
    9900012    2    1    2    0    0  0.25767743741E+00  0.42846519553E+02 -0.69088943090E+01  0.47787268946E+02  0.19999990433E+02 0.  0.
         12    1    1    2    0    0 -0.25767743741E+00 -0.42846519553E+02  0.69088943090E+01  0.43400731054E+02  0.00000000000E+00 0. -1.
         11    1    3    3    0    0  0.90483398242E+00 -0.15394344437E+01  0.13708589950E+01  0.22511858181E+01  0.51100000000E-03 0. -1.
        -11    1    3    3    0    0 -0.13060685692E+01  0.23361098784E+02 -0.71705190337E+01  0.24471679447E+02  0.51100000000E-03 0.  1.
        -12    1    3    3    0    0  0.65891202416E+00  0.21024855213E+02 -0.11092342703E+01  0.21064403681E+02  0.00000000000E+00 0.  1.
</event>
<event>
 7    1  0.4818508E-009  0.4778727E+02  0.7816164E-02  0.1312668E+00
        -11   -1    0    0    0    0  0.00000000000E+00  0.00000000000E+00  0.45593999997E+02  0.45594000000E+02  0.51100000000E-03 0. -1.
         11   -1    0    0    0    0 -0.00000000000E+00 -0.00000000000E+00 -0.45593999997E+02  0.45594000000E+02  0.51100000000E-03 0.  1.
    9900012    2    1    2    0    0 -0.14020948562E+02  0.36752581240E+02 -0.18338043531E+02  0.47787273428E+02  0.20000010869E+02 0.  0.
         12    1    1    2    0    0  0.14020948562E+02 -0.36752581240E+02  0.18338043531E+02  0.43400726572E+02  0.00000000000E+00 0. -1.
         11    1    3    3    0    0 -0.61307318956E+01  0.14150666678E+02  0.19022141430E+01  0.15538521806E+02  0.51100000000E-03 0. -1.
        -11    1    3    3    0    0 -0.61437442301E+01  0.22535696412E+02 -0.18800394327E+02  0.29984296440E+02  0.51100000000E-03 0.  1.
         12    1    3    3    0    0 -0.17464724361E+01  0.66218150819E-01 -0.14398633470E+01  0.22644551821E+01  0.00000000000E+00 0. -1.
</event>
<event>
 7    1  0.4818508E-009  0.4778727E+02  0.7816164E-02  0.1312668E+00
        -11   -1    0    0    0    0  0.00000000000E+00  0.00000000000E+00  0.45593999997E+02  0.45594000000E+02  0.51100000000E-03 0.  1.
         11   -1    0    0    0    0 -0.00000000000E+00 -0.00000000000E+00 -0.45593999997E+02  0.45594000000E+02  0.51100000000E-03 0. -1.
    9900012    2    1    2    0    0 -0.20500980069E+02 -0.13585732172E+02  0.35759769498E+02  0.47787269396E+02  0.19999992484E+02 0.  0.
         12    1    1    2    0    0  0.20500980069E+02  0.13585732172E+02 -0.35759769498E+02  0.43400730604E+02  0.00000000000E+00 0. -1.
         11    1    3    3    0    0 -0.12508923951E+02 -0.39451031033E+01  0.23963975884E+02  0.27318659508E+02  0.51100000000E-03 0.  1.
        -11    1    3    3    0    0 -0.80171205022E+01 -0.10951668065E+02  0.65667283680E+01  0.15077638285E+02  0.51100000000E-03 0. -1.
         12    1    3    3    0    0  0.25064383961E-01  0.13110389957E+01  0.52290652462E+01  0.53909716027E+01  0.00000000000E+00 0. -1.
</event>
<event>
 7    1  0.4818508E-009  0.4778728E+02  0.7816164E-02  0.1312668E+00
        -11   -1    0    0    0    0  0.00000000000E+00  0.00000000000E+00  0.45593999997E+02  0.45594000000E+02  0.51100000000E-03 0. -1.
         11   -1    0    0    0    0 -0.00000000000E+00 -0.00000000000E+00 -0.45593999997E+02  0.45594000000E+02  0.51100000000E-03 0.  1.
    9900012    2    1    2    0    0 -0.15640701331E+02  0.35722143964E+02 -0.19050450081E+02  0.47787277013E+02  0.20000027212E+02 0.  0.
         12    1    1    2    0    0  0.15640701331E+02 -0.35722143964E+02  0.19050450081E+02  0.43400722987E+02  0.00000000000E+00 0. -1.
         11    1    3    3    0    0 -0.29828012393E+01  0.26234269919E+01  0.72394958123E+00  0.40377686502E+01  0.51100000000E-03 0. -1.
        -11    1    3    3    0    0 -0.73436724210E+01  0.17273868098E+02 -0.12477459581E+01  0.18811510145E+02  0.51100000000E-03 0.  1.
        -12    1    3    3    0    0 -0.53142276702E+01  0.15824848875E+02 -0.18526653704E+02  0.24937998218E+02  0.00000000000E+00 0.  1.
</event>
<event>
 7    1  0.4818508E-009  0.4778727E+02  0.7816164E-02  0.1312668E+00
        -11   -1    0    0    0    0  0.00000000000E+00  0.00000000000E+00  0.45593999997E+02  0.45594000000E+02  0.51100000000E-03 0.  1.
         11   -1    0    0    0    0 -0.00000000000E+00 -0.00000000000E+00 -0.45593999997E+02  0.45594000000E+02  0.51100000000E-03 0. -1.
    9900012    2    1    2    0    0  0.19058053046E+02  0.11812153188E+02  0.37160286858E+02  0.47787271110E+02  0.20000000297E+02 0.  0.
         12    1    1    2    0    0 -0.19058053046E+02 -0.11812153188E+02 -0.37160286858E+02  0.43400728890E+02  0.00000000000E+00 0. -1.
         11    1    3    3    0    0  0.10363397087E+02  0.10746052917E+01  0.98148619343E+01  0.14313849614E+02  0.51100000000E-03 0.  1.
        -11    1    3    3    0    0  0.50848422341E+01  0.12557116195E+02  0.13803403585E+02  0.19340908419E+02  0.51100000000E-03 0. -1.
        -12    1    3    3    0    0  0.36098137247E+01 -0.18195682988E+01  0.13542021339E+02  0.14132513077E+02  0.00000000000E+00 0.  1.
</event>
<event>
 7    1  0.4818508E-009  0.4778727E+02  0.7816164E-02  0.1312668E+00
        -11   -1    0    0    0    0  0.00000000000E+00  0.00000000000E+00  0.45593999997E+02  0.45594000000E+02  0.51100000000E-03 0. -1.
         11   -1    0    0    0    0 -0.00000000000E+00 -0.00000000000E+00 -0.45593999997E+02  0.45594000000E+02  0.51100000000E-03 0.  1.
    9900012    2    1    2    0    0 -0.20772296473E+02  0.48172479255E+01 -0.37801179313E+02  0.47787270331E+02  0.19999996747E+02 0.  0.
         12    1    1    2    0    0  0.20772296473E+02 -0.48172479255E+01  0.37801179313E+02  0.43400729669E+02  0.00000000000E+00 0. -1.
         11    1    3    3    0    0  0.14494937035E+01 -0.34883018941E+00  0.12450411395E+01  0.19423805492E+01  0.51100000000E-03 0. -1.
        -11    1    3    3    0    0 -0.19680444154E+02  0.18396287206E+01 -0.33491898099E+02  0.38889733278E+02  0.51100000000E-03 0.  1.
        -12    1    3    3    0    0 -0.25413460234E+01  0.33264493942E+01 -0.55543223534E+01  0.69551565036E+01  0.00000000000E+00 0.  1.
</event>
<event>
 7    1  0.4818508E-009  0.4778727E+02  0.7816164E-02  0.1312668E+00
        -11   -1    0    0    0    0  0.00000000000E+00  0.00000000000E+00  0.45593999997E+02  0.45594000000E+02  0.51100000000E-03 0.  1.
         11   -1    0    0    0    0 -0.00000000000E+00 -0.00000000000E+00 -0.45593999997E+02  0.45594000000E+02  0.51100000000E-03 0. -1.
    9900012    2    1    2    0    0  0.55576313216E+00 -0.39830644410E+02  0.17228873298E+02  0.47787272104E+02  0.20000004833E+02 0.  0.
         12    1    1    2    0    0 -0.55576313216E+00  0.39830644410E+02 -0.17228873298E+02  0.43400727896E+02  0.00000000000E+00 0. -1.
         11    1    3    3    0    0 -0.15372033647E+00 -0.23799212876E+00 -0.11219281189E+01  0.11571487200E+01  0.51100000000E-03 0. -1.
        -11    1    3    3    0    0  0.44172690170E+01 -0.29162156561E+01  0.53907558213E+01  0.75549207743E+01  0.51100000000E-03 0.  1.
        -12    1    3    3    0    0 -0.37077855483E+01 -0.36676436625E+02  0.12960045596E+02  0.39075202610E+02  0.00000000000E+00 0.  1.
</event>
<event>
 7    1  0.4818508E-009  0.4778729E+02  0.7816164E-02  0.1312668E+00
        -11   -1    0    0    0    0  0.00000000000E+00  0.00000000000E+00  0.45593999997E+02  0.45594000000E+02  0.51100000000E-03 0. -1.
         11   -1    0    0    0    0 -0.00000000000E+00 -0.00000000000E+00 -0.45593999997E+02  0.45594000000E+02  0.51100000000E-03 0.  1.
    9900012    2    1    2    0    0 -0.31354112589E+02 -0.12160332845E+01 -0.29984378355E+02  0.47787285046E+02  0.20000063838E+02 0.  0.
         12    1    1    2    0    0  0.31354112589E+02  0.12160332845E+01  0.29984378355E+02  0.43400714954E+02  0.00000000000E+00 0. -1.
         11    1    3    3    0    0 -0.19672499697E+02  0.32204937452E+01 -0.95749374368E+01  0.22114661460E+02  0.51100000000E-03 0. -1.
        -11    1    3    3    0    0 -0.11328389995E+02 -0.56448977787E+01 -0.20805418652E+02  0.24352879426E+02  0.51100000000E-03 0.  1.
        -12    1    3    3    0    0 -0.35322289697E+00  0.12083707490E+01  0.39597773345E+00  0.13197441598E+01  0.00000000000E+00 0.  1.
</event>
<event>
 7    1  0.4818508E-009  0.4778727E+02  0.7816164E-02  0.1312668E+00
        -11   -1    0    0    0    0  0.00000000000E+00  0.00000000000E+00  0.45593999997E+02  0.45594000000E+02  0.51100000000E-03 0.  1.
         11   -1    0    0    0    0 -0.00000000000E+00 -0.00000000000E+00 -0.45593999997E+02  0.45594000000E+02  0.51100000000E-03 0. -1.
    9900012    2    1    2    0    0 -0.19263774343E+02 -0.38615378527E+02 -0.46241394650E+01  0.47787272742E+02  0.20000007741E+02 0.  0.
         12    1    1    2    0    0  0.19263774343E+02  0.38615378527E+02  0.46241394650E+01  0.43400727258E+02  0.00000000000E+00 0. -1.
         11    1    3    3    0    0 -0.59484903963E+00 -0.34554406972E+01 -0.56910461660E+01  0.66844537935E+01  0.51100000000E-03 0. -1.
        -11    1    3    3    0    0 -0.81364474529E+01 -0.25609559872E+02  0.62772536903E+00  0.26878343948E+02  0.51100000000E-03 0.  1.
         12    1    3    3    0    0 -0.10532477850E+02 -0.95503779582E+01  0.43918133202E+00  0.14224475001E+02  0.00000000000E+00 0. -1.
</event>
<event>
 7    1  0.4818508E-009  0.4778727E+02  0.7816164E-02  0.1312668E+00
        -11   -1    0    0    0    0  0.00000000000E+00  0.00000000000E+00  0.45593999997E+02  0.45594000000E+02  0.51100000000E-03 0.  1.
         11   -1    0    0    0    0 -0.00000000000E+00 -0.00000000000E+00 -0.45593999997E+02  0.45594000000E+02  0.51100000000E-03 0. -1.
    9900012    2    1    2    0    0 -0.19688890959E+02 -0.36638203164E+02  0.12394062684E+02  0.47787272493E+02  0.20000006605E+02 0.  0.
         12    1    1    2    0    0  0.19688890959E+02  0.36638203164E+02 -0.12394062684E+02  0.43400727507E+02  0.00000000000E+00 0. -1.
         11    1    3    3    0    0  0.47445070185E+00 -0.12225827511E+01  0.59912730741E+01  0.61331203609E+01  0.51100000000E-03 0. -1.
        -11    1    3    3    0    0 -0.11450989509E+02 -0.21053479828E+02  0.65877563736E+01  0.24855033855E+02  0.51100000000E-03 0.  1.
         12    1    3    3    0    0 -0.87123521518E+01 -0.14362140585E+02 -0.18496676369E+00  0.16799118278E+02  0.00000000000E+00 0. -1.
</event>
<event>
 7    1  0.4818508E-009  0.4778728E+02  0.7816164E-02  0.1312668E+00
        -11   -1    0    0    0    0  0.00000000000E+00  0.00000000000E+00  0.45593999997E+02  0.45594000000E+02  0.51100000000E-03 0. -1.
         11   -1    0    0    0    0 -0.00000000000E+00 -0.00000000000E+00 -0.45593999997E+02  0.45594000000E+02  0.51100000000E-03 0.  1.
    9900012    2    1    2    0    0  0.33138612846E+02 -0.29315607979E+01 -0.27872229220E+02  0.47787275677E+02  0.20000021121E+02 0.  0.
         12    1    1    2    0    0 -0.33138612846E+02  0.29315607979E+01  0.27872229220E+02  0.43400724323E+02  0.00000000000E+00 0. -1.
         11    1    3    3    0    0  0.10145194033E+02  0.56660274922E+01 -0.17265746399E+02  0.20811891516E+02  0.51100000000E-03 0. -1.
        -11    1    3    3    0    0  0.19915551938E+02 -0.62902588301E+01 -0.96754702475E+01  0.23017629980E+02  0.51100000000E-03 0.  1.
         12    1    3    3    0    0  0.30778668755E+01 -0.23073294600E+01 -0.93101257306E+00  0.39577541803E+01  0.00000000000E+00 0. -1.
</event>
<event>
 7    1  0.4818508E-009  0.4778727E+02  0.7816164E-02  0.1312668E+00
        -11   -1    0    0    0    0  0.00000000000E+00  0.00000000000E+00  0.45593999997E+02  0.45594000000E+02  0.51100000000E-03 0.  1.
         11   -1    0    0    0    0 -0.00000000000E+00 -0.00000000000E+00 -0.45593999997E+02  0.45594000000E+02  0.51100000000E-03 0. -1.
    9900012    2    1    2    0    0  0.29849983859E+02  0.47626636442E+01  0.31143518508E+02  0.47787271361E+02  0.20000001443E+02 0.  0.
         12    1    1    2    0    0 -0.29849983859E+02 -0.47626636442E+01 -0.31143518508E+02  0.43400728639E+02  0.00000000000E+00 0. -1.
         11    1    3    3    0    0  0.83227626273E+01  0.88530065043E+01  0.11743566641E+02  0.16898386302E+02  0.51100000000E-03 0. -1.
        -11    1    3    3    0    0  0.14787675371E+02 -0.18913991218E+01  0.67004838818E+01  0.16344699998E+02  0.51100000000E-03 0.  1.
         12    1    3    3    0    0  0.67395458605E+01 -0.21989437384E+01  0.12699467985E+02  0.14544185061E+02  0.00000000000E+00 0. -1.
</event>
<event>
 7    1  0.4818508E-009  0.4778726E+02  0.7816164E-02  0.1312668E+00
        -11   -1    0    0    0    0  0.00000000000E+00  0.00000000000E+00  0.45593999997E+02  0.45594000000E+02  0.51100000000E-03 0.  1.
         11   -1    0    0    0    0 -0.00000000000E+00 -0.00000000000E+00 -0.45593999997E+02  0.45594000000E+02  0.51100000000E-03 0. -1.
    9900012    2    1    2    0    0 -0.12955284762E+02  0.13635387934E+02  0.39113435634E+02  0.47787262051E+02  0.19999958996E+02 0.  0.
         12    1    1    2    0    0  0.12955284762E+02 -0.13635387934E+02 -0.39113435634E+02  0.43400737949E+02  0.00000000000E+00 0. -1.
         11    1    3    3    0    0  0.29382368878E+01 -0.21962628107E+01  0.49810785906E+01  0.61861094825E+01  0.51100000000E-03 0. -1.
        -11    1    3    3    0    0 -0.15132897205E+02  0.10898814620E+02  0.28671916454E+02  0.34203326320E+02  0.51100000000E-03 0.  1.
        -12    1    3    3    0    0 -0.76062444517E+00  0.49328361243E+01  0.54604405899E+01  0.73978262491E+01  0.00000000000E+00 0.  1.
</event>
<event>
 7    1  0.4818508E-009  0.4778726E+02  0.7816164E-02  0.1312668E+00
        -11   -1    0    0    0    0  0.00000000000E+00  0.00000000000E+00  0.45593999997E+02  0.45594000000E+02  0.51100000000E-03 0.  1.
         11   -1    0    0    0    0 -0.00000000000E+00 -0.00000000000E+00 -0.45593999997E+02  0.45594000000E+02  0.51100000000E-03 0. -1.
    9900012    2    1    2    0    0 -0.43171402152E+02  0.44365258592E+01 -0.41368939458E+00  0.47787264241E+02  0.19999968982E+02 0.  0.
         12    1    1    2    0    0  0.43171402152E+02 -0.44365258592E+01  0.41368939458E+00  0.43400735759E+02  0.00000000000E+00 0. -1.
         11    1    3    3    0    0  0.25415604362E+00 -0.18465401984E+01 -0.10613010748E+01  0.21449163693E+01  0.51100000000E-03 0. -1.
        -11    1    3    3    0    0 -0.51100043124E+01 -0.83264054571E+00  0.39786461074E+01  0.65295527764E+01  0.51100000000E-03 0.  1.
         12    1    3    3    0    0 -0.38315553883E+02  0.71157066033E+01 -0.33310344272E+01  0.39112795096E+02  0.00000000000E+00 0. -1.
</event>
<event>
 7    1  0.4818508E-009  0.4778727E+02  0.7816164E-02  0.1312668E+00
        -11   -1    0    0    0    0  0.00000000000E+00  0.00000000000E+00  0.45593999997E+02  0.45594000000E+02  0.51100000000E-03 0. -1.
         11   -1    0    0    0    0 -0.00000000000E+00 -0.00000000000E+00 -0.45593999997E+02  0.45594000000E+02  0.51100000000E-03 0.  1.
    9900012    2    1    2    0    0 -0.32800398272E+02 -0.27111357623E+02  0.85282728868E+01  0.47787271004E+02  0.19999999814E+02 0.  0.
         12    1    1    2    0    0  0.32800398272E+02  0.27111357623E+02 -0.85282728868E+01  0.43400728996E+02  0.00000000000E+00 0. -1.
         11    1    3    3    0    0 -0.65144323434E+01 -0.14019703204E+02  0.83316331274E+01  0.17561492463E+02  0.51100000000E-03 0. -1.
        -11    1    3    3    0    0 -0.23443910763E+02 -0.88078210481E+01  0.75097577436E+00  0.25055111821E+02  0.51100000000E-03 0.  1.
        -12    1    3    3    0    0 -0.28420551662E+01 -0.42838333705E+01 -0.55433601488E+00  0.51706667201E+01  0.00000000000E+00 0.  1.
</event>
<event>
 7    1  0.4818508E-009  0.4778727E+02  0.7816164E-02  0.1312668E+00
        -11   -1    0    0    0    0  0.00000000000E+00  0.00000000000E+00  0.45593999997E+02  0.45594000000E+02  0.51100000000E-03 0.  1.
         11   -1    0    0    0    0 -0.00000000000E+00 -0.00000000000E+00 -0.45593999997E+02  0.45594000000E+02  0.51100000000E-03 0. -1.
    9900012    2    1    2    0    0 -0.68469956903E+01  0.12525367077E+02  0.40986062687E+02  0.47787268382E+02  0.19999987862E+02 0.  0.
         12    1    1    2    0    0  0.68469956903E+01 -0.12525367077E+02 -0.40986062687E+02  0.43400731618E+02  0.00000000000E+00 0. -1.
         11    1    3    3    0    0 -0.37806018464E+01  0.78782957347E+01  0.54554470569E+01  0.10301572543E+02  0.51100000000E-03 0. -1.
        -11    1    3    3    0    0  0.17593762747E+01 -0.25319912475E+01  0.12764005397E+02  0.13131116426E+02  0.51100000000E-03 0.  1.
        -12    1    3    3    0    0 -0.48257701185E+01  0.71790625896E+01  0.22766610233E+02  0.24354579413E+02  0.00000000000E+00 0.  1.
</event>
<event>
 7    1  0.4818508E-009  0.4778726E+02  0.7816164E-02  0.1312668E+00
        -11   -1    0    0    0    0  0.00000000000E+00  0.00000000000E+00  0.45593999997E+02  0.45594000000E+02  0.51100000000E-03 0.  1.
         11   -1    0    0    0    0 -0.00000000000E+00 -0.00000000000E+00 -0.45593999997E+02  0.45594000000E+02  0.51100000000E-03 0. -1.
    9900012    2    1    2    0    0 -0.15638725126E+02  0.13457388620E+01  0.40462866597E+02  0.47787259109E+02  0.19999945581E+02 0.  0.
         12    1    1    2    0    0  0.15638725126E+02 -0.13457388620E+01 -0.40462866597E+02  0.43400740891E+02  0.00000000000E+00 0. -1.
         11    1    3    3    0    0 -0.90541347841E+01  0.57488736167E+00  0.75758734599E+01  0.11819547839E+02  0.51100000000E-03 0. -1.
        -11    1    3    3    0    0  0.83364180180E+00  0.51231755981E+01  0.18418317188E+02  0.19135733462E+02  0.51100000000E-03 0.  1.
        -12    1    3    3    0    0 -0.74182321438E+01 -0.43523240978E+01  0.14468675950E+02  0.16831977808E+02  0.00000000000E+00 0.  1.
</event>
<event>
 7    1  0.4818508E-009  0.4778727E+02  0.7816164E-02  0.1312668E+00
        -11   -1    0    0    0    0  0.00000000000E+00  0.00000000000E+00  0.45593999997E+02  0.45594000000E+02  0.51100000000E-03 0.  1.
         11   -1    0    0    0    0 -0.00000000000E+00 -0.00000000000E+00 -0.45593999997E+02  0.45594000000E+02  0.51100000000E-03 0. -1.
    9900012    2    1    2    0    0 -0.71234834209E+01  0.29696005266E+02  0.30838713258E+02  0.47787274428E+02  0.20000015425E+02 0.  0.
         12    1    1    2    0    0  0.71234834209E+01 -0.29696005266E+02 -0.30838713258E+02  0.43400725572E+02  0.00000000000E+00 0. -1.
         11    1    3    3    0    0 -0.80397042555E+01  0.25031714602E+02  0.16219502888E+02  0.30891679375E+02  0.51100000000E-03 0. -1.
        -11    1    3    3    0    0  0.30274257134E+01  0.48906697433E+01  0.74112237172E+01  0.93813748585E+01  0.51100000000E-03 0.  1.
         12    1    3    3    0    0 -0.21112048788E+01 -0.22637907948E+00  0.72079866537E+01  0.75142201943E+01  0.00000000000E+00 0. -1.
</event>
<event>
 7    1  0.4818508E-009  0.4778724E+02  0.7816164E-02  0.1312668E+00
        -11   -1    0    0    0    0  0.00000000000E+00  0.00000000000E+00  0.45593999997E+02  0.45594000000E+02  0.51100000000E-03 0. -1.
         11   -1    0    0    0    0 -0.00000000000E+00 -0.00000000000E+00 -0.45593999997E+02  0.45594000000E+02  0.51100000000E-03 0.  1.
    9900012    2    1    2    0    0 -0.31214836772E+02 -0.13761307231E+02 -0.26830690798E+02  0.47787244475E+02  0.19999878860E+02 0.  0.
         12    1    1    2    0    0  0.31214836772E+02  0.13761307231E+02  0.26830690798E+02  0.43400755525E+02  0.00000000000E+00 0. -1.
         11    1    3    3    0    0 -0.11161505370E+01 -0.64834609257E+00 -0.10995879422E+02  0.11071382443E+02  0.51100000000E-03 0. -1.
        -11    1    3    3    0    0 -0.15807799544E+02 -0.51448189096E+01 -0.62961779628E+01  0.17776319789E+02  0.51100000000E-03 0.  1.
         12    1    3    3    0    0 -0.14290886691E+02 -0.79681422287E+01 -0.95386334134E+01  0.18939542243E+02  0.00000000000E+00 0. -1.
</event>
<event>
 7    1  0.4818508E-009  0.4778727E+02  0.7816164E-02  0.1312668E+00
        -11   -1    0    0    0    0  0.00000000000E+00  0.00000000000E+00  0.45593999997E+02  0.45594000000E+02  0.51100000000E-03 0.  1.
         11   -1    0    0    0    0 -0.00000000000E+00 -0.00000000000E+00 -0.45593999997E+02  0.45594000000E+02  0.51100000000E-03 0. -1.
    9900012    2    1    2    0    0  0.84833470049E+01  0.42305259438E+02  0.46819956966E+01  0.47787271478E+02  0.20000001978E+02 0.  0.
         12    1    1    2    0    0 -0.84833470049E+01 -0.42305259438E+02 -0.46819956966E+01  0.43400728522E+02  0.00000000000E+00 0. -1.
         11    1    3    3    0    0  0.90633780695E+01  0.16906783083E+02 -0.63986449427E+00  0.19193581299E+02  0.51100000000E-03 0. -1.
        -11    1    3    3    0    0 -0.11620188002E+01  0.11836092765E+02  0.85412697005E+01  0.14642290394E+02  0.51100000000E-03 0.  1.
        -12    1    3    3    0    0  0.58198773563E+00  0.13562383590E+02 -0.32194095097E+01  0.13951399785E+02  0.00000000000E+00 0.  1.
</event>
<event>
 7    1  0.4818508E-009  0.4778727E+02  0.7816164E-02  0.1312668E+00
        -11   -1    0    0    0    0  0.00000000000E+00  0.00000000000E+00  0.45593999997E+02  0.45594000000E+02  0.51100000000E-03 0. -1.
         11   -1    0    0    0    0 -0.00000000000E+00 -0.00000000000E+00 -0.45593999997E+02  0.45594000000E+02  0.51100000000E-03 0.  1.
    9900012    2    1    2    0    0  0.93577669018E+00 -0.43144780076E+02 -0.46125207751E+01  0.47787273350E+02  0.20000010512E+02 0.  0.
         12    1    1    2    0    0 -0.93577669018E+00  0.43144780076E+02  0.46125207751E+01  0.43400726650E+02  0.00000000000E+00 0. -1.
         11    1    3    3    0    0 -0.31845270066E+01 -0.19166540759E+02  0.36648662858E+01  0.19771918017E+02  0.51100000000E-03 0. -1.
        -11    1    3    3    0    0  0.29502891881E+01 -0.14412143494E+01 -0.37750677599E+01  0.50032431429E+01  0.51100000000E-03 0.  1.
        -12    1    3    3    0    0  0.11700145087E+01 -0.22537024968E+02 -0.45023193011E+01  0.23012112190E+02  0.00000000000E+00 0.  1.
</event>
<event>
 7    1  0.5152152E-009  0.4778727E+02  0.7816164E-02  0.1312668E+00
        -11   -1    0    0    0    0  0.00000000000E+00  0.00000000000E+00  0.45593999997E+02  0.45594000000E+02  0.51100000000E-03 0. -1.
         11   -1    0    0    0    0 -0.00000000000E+00 -0.00000000000E+00 -0.45593999997E+02  0.45594000000E+02  0.51100000000E-03 0.  1.
    9900012    2    1    2    0    0 -0.22748030899E+01  0.27827400927E+02 -0.33227763324E+02  0.47787271585E+02  0.20000002464E+02 0.  0.
         12    1    1    2    0    0  0.22748030899E+01 -0.27827400927E+02  0.33227763324E+02  0.43400728415E+02  0.00000000000E+00 0. -1.
         11    1    3    3    0    0 -0.14051452970E+01  0.76301522561E+00 -0.17551560184E+00  0.16085495106E+01  0.51100000000E-03 0. -1.
        -11    1    3    3    0    0  0.10403238897E+01  0.19785498350E+01  0.20222006396E+01  0.30143372294E+01  0.51100000000E-03 0.  1.
        -12    1    3    3    0    0 -0.19099816826E+01  0.25085835867E+02 -0.35074448361E+02  0.43164384845E+02  0.00000000000E+00 0.  1.
</event>
<event>
 7    1  0.4818508E-009  0.4778727E+02  0.7816164E-02  0.1312668E+00
        -11   -1    0    0    0    0  0.00000000000E+00  0.00000000000E+00  0.45593999997E+02  0.45594000000E+02  0.51100000000E-03 0. -1.
         11   -1    0    0    0    0 -0.00000000000E+00 -0.00000000000E+00 -0.45593999997E+02  0.45594000000E+02  0.51100000000E-03 0.  1.
    9900012    2    1    2    0    0  0.31863931710E+02  0.24182796773E+02 -0.16837628153E+02  0.47787268145E+02  0.19999986779E+02 0.  0.
         12    1    1    2    0    0 -0.31863931710E+02 -0.24182796773E+02  0.16837628153E+02  0.43400731855E+02  0.00000000000E+00 0. -1.
         11    1    3    3    0    0  0.38926299358E+01  0.20202271943E+01 -0.74756240290E+01  0.86671125882E+01  0.51100000000E-03 0. -1.
        -11    1    3    3    0    0  0.21802116883E+01 -0.12065865304E+01 -0.27190707452E+01  0.36881594380E+01  0.51100000000E-03 0.  1.
         12    1    3    3    0    0  0.25791090085E+02  0.23369156110E+02 -0.66429333785E+01  0.35431996118E+02  0.00000000000E+00 0. -1.
</event>
<event>
 7    1  0.4818508E-009  0.4778728E+02  0.7816164E-02  0.1312668E+00
        -11   -1    0    0    0    0  0.00000000000E+00  0.00000000000E+00  0.45593999997E+02  0.45594000000E+02  0.51100000000E-03 0.  1.
         11   -1    0    0    0    0 -0.00000000000E+00 -0.00000000000E+00 -0.45593999997E+02  0.45594000000E+02  0.51100000000E-03 0. -1.
    9900012    2    1    2    0    0 -0.23146750923E+02 -0.39074341398E+01  0.36504557863E+02  0.47787275759E+02  0.20000021497E+02 0.  0.
         12    1    1    2    0    0  0.23146750923E+02  0.39074341398E+01 -0.36504557863E+02  0.43400724241E+02  0.00000000000E+00 0. -1.
         11    1    3    3    0    0 -0.32739227833E+01  0.60926270305E+01  0.75797015852E+01  0.10261118404E+02  0.51100000000E-03 0. -1.
        -11    1    3    3    0    0 -0.13548840538E+02 -0.22749842730E+01  0.19019927301E+02  0.23462827370E+02  0.51100000000E-03 0.  1.
         12    1    3    3    0    0 -0.63239876015E+01 -0.77250768973E+01  0.99049289763E+01  0.14063329985E+02  0.00000000000E+00 0. -1.
</event>
<event>
 7    1  0.4818508E-009  0.4778727E+02  0.7816164E-02  0.1312668E+00
        -11   -1    0    0    0    0  0.00000000000E+00  0.00000000000E+00  0.45593999997E+02  0.45594000000E+02  0.51100000000E-03 0.  1.
         11   -1    0    0    0    0 -0.00000000000E+00 -0.00000000000E+00 -0.45593999997E+02  0.45594000000E+02  0.51100000000E-03 0. -1.
    9900012    2    1    2    0    0 -0.11512609827E+02  0.44356484737E+01  0.41610191686E+02  0.47787271728E+02  0.20000003117E+02 0.  0.
         12    1    1    2    0    0  0.11512609827E+02 -0.44356484737E+01 -0.41610191686E+02  0.43400728272E+02  0.00000000000E+00 0. -1.
         11    1    3    3    0    0  0.31341124090E+01  0.29861432079E+01  0.15457115914E+02  0.16051857976E+02  0.51100000000E-03 0. -1.
        -11    1    3    3    0    0 -0.10344563778E+02  0.57302283528E+01  0.18677361519E+02  0.22106319239E+02  0.51100000000E-03 0.  1.
        -12    1    3    3    0    0 -0.43021584580E+01 -0.42807230871E+01  0.74757142532E+01  0.96290945130E+01  0.00000000000E+00 0.  1.
</event>
<event>
 7    1  0.4818508E-009  0.4778727E+02  0.7816164E-02  0.1312668E+00
        -11   -1    0    0    0    0  0.00000000000E+00  0.00000000000E+00  0.45593999997E+02  0.45594000000E+02  0.51100000000E-03 0.  1.
         11   -1    0    0    0    0 -0.00000000000E+00 -0.00000000000E+00 -0.45593999997E+02  0.45594000000E+02  0.51100000000E-03 0. -1.
    9900012    2    1    2    0    0  0.42554401850E+02 -0.32160830543E+01  0.78995537552E+01  0.47787271244E+02  0.20000000911E+02 0.  0.
         12    1    1    2    0    0 -0.42554401850E+02  0.32160830543E+01 -0.78995537552E+01  0.43400728756E+02  0.00000000000E+00 0. -1.
         11    1    3    3    0    0  0.72905283558E+01  0.17524347989E+01  0.74052424721E+01  0.10538522086E+02  0.51100000000E-03 0. -1.
        -11    1    3    3    0    0  0.18043216806E+02 -0.42883418250E+01 -0.49143300227E+01  0.19185885128E+02  0.51100000000E-03 0.  1.
         12    1    3    3    0    0  0.17220656688E+02 -0.68017602824E+00  0.54086413058E+01  0.18062864030E+02  0.00000000000E+00 0. -1.
</event>
<event>
 7    1  0.4818508E-009  0.4778726E+02  0.7816164E-02  0.1312668E+00
        -11   -1    0    0    0    0  0.00000000000E+00  0.00000000000E+00  0.45593999997E+02  0.45594000000E+02  0.51100000000E-03 0.  1.
         11   -1    0    0    0    0 -0.00000000000E+00 -0.00000000000E+00 -0.45593999997E+02  0.45594000000E+02  0.51100000000E-03 0. -1.
    9900012    2    1    2    0    0  0.21380794025E+02  0.31949528034E+02  0.20142323534E+02  0.47787263922E+02  0.19999967528E+02 0.  0.
         12    1    1    2    0    0 -0.21380794025E+02 -0.31949528034E+02 -0.20142323534E+02  0.43400736078E+02  0.00000000000E+00 0. -1.
         11    1    3    3    0    0  0.15388663968E+02  0.66114732046E+01  0.46339302059E+01  0.17378028256E+02  0.51100000000E-03 0. -1.
        -11    1    3    3    0    0  0.29357927677E+01  0.15392466375E+02  0.81254177451E+01  0.17651326128E+02  0.51100000000E-03 0.  1.
         12    1    3    3    0    0  0.30563372890E+01  0.99455884548E+01  0.73829755830E+01  0.12757909539E+02  0.00000000000E+00 0. -1.
</event>
<event>
 7    1  0.4818508E-009  0.4778727E+02  0.7816164E-02  0.1312668E+00
        -11   -1    0    0    0    0  0.00000000000E+00  0.00000000000E+00  0.45593999997E+02  0.45594000000E+02  0.51100000000E-03 0. -1.
         11   -1    0    0    0    0 -0.00000000000E+00 -0.00000000000E+00 -0.45593999997E+02  0.45594000000E+02  0.51100000000E-03 0.  1.
    9900012    2    1    2    0    0 -0.37352307819E+02  0.27565695614E+01 -0.21927829282E+02  0.47787271064E+02  0.20000000089E+02 0.  0.
         12    1    1    2    0    0  0.37352307819E+02 -0.27565695614E+01  0.21927829282E+02  0.43400728936E+02  0.00000000000E+00 0. -1.
         11    1    3    3    0    0 -0.10619452012E+02 -0.34376437310E+01 -0.13622101475E+02  0.17611127287E+02  0.51100000000E-03 0. -1.
        -11    1    3    3    0    0 -0.20592468816E+02  0.74297897241E+01 -0.93879905884E+01  0.23819863871E+02  0.51100000000E-03 0.  1.
         12    1    3    3    0    0 -0.61403869914E+01 -0.12355764316E+01  0.10822627815E+01  0.63562799065E+01  0.00000000000E+00 0. -1.
</event>
<event>
 7    1  0.4818508E-009  0.4778727E+02  0.7816164E-02  0.1312668E+00
        -11   -1    0    0    0    0  0.00000000000E+00  0.00000000000E+00  0.45593999997E+02  0.45594000000E+02  0.51100000000E-03 0.  1.
         11   -1    0    0    0    0 -0.00000000000E+00 -0.00000000000E+00 -0.45593999997E+02  0.45594000000E+02  0.51100000000E-03 0. -1.
    9900012    2    1    2    0    0  0.14575918327E+02 -0.34971571513E+02  0.21169674535E+02  0.47787270408E+02  0.19999997100E+02 0.  0.
         12    1    1    2    0    0 -0.14575918327E+02  0.34971571513E+02 -0.21169674535E+02  0.43400729592E+02  0.00000000000E+00 0. -1.
         11    1    3    3    0    0  0.15212334276E+02 -0.26209055596E+02  0.89713517849E+01  0.31604032377E+02  0.51100000000E-03 0. -1.
        -11    1    3    3    0    0 -0.78347202339E-01 -0.54866915861E+01  0.26903442466E+01  0.61112908024E+01  0.51100000000E-03 0.  1.
         12    1    3    3    0    0 -0.55806874624E+00 -0.32758243311E+01  0.95079785031E+01  0.10071947229E+02  0.00000000000E+00 0. -1.
</event>
<event>
 7    1  0.4818508E-009  0.4778727E+02  0.7816164E-02  0.1312668E+00
        -11   -1    0    0    0    0  0.00000000000E+00  0.00000000000E+00  0.45593999997E+02  0.45594000000E+02  0.51100000000E-03 0.  1.
         11   -1    0    0    0    0 -0.00000000000E+00 -0.00000000000E+00 -0.45593999997E+02  0.45594000000E+02  0.51100000000E-03 0. -1.
    9900012    2    1    2    0    0 -0.31103016053E+02 -0.19790554980E+02  0.22903263836E+02  0.47787272260E+02  0.20000005543E+02 0.  0.
         12    1    1    2    0    0  0.31103016053E+02  0.19790554980E+02 -0.22903263836E+02  0.43400727740E+02  0.00000000000E+00 0. -1.
         11    1    3    3    0    0 -0.31562528023E+01  0.35348365967E+01  0.33985354712E+01  0.58315559782E+01  0.51100000000E-03 0. -1.
        -11    1    3    3    0    0 -0.15405857548E+02 -0.17485292799E+02  0.11810356542E+02  0.26125857555E+02  0.51100000000E-03 0.  1.
         12    1    3    3    0    0 -0.12540905702E+02 -0.58400987783E+01  0.76943718231E+01  0.15829858727E+02  0.00000000000E+00 0. -1.
</event>
<event>
 7    1  0.4818508E-009  0.4778727E+02  0.7816164E-02  0.1312668E+00
        -11   -1    0    0    0    0  0.00000000000E+00  0.00000000000E+00  0.45593999997E+02  0.45594000000E+02  0.51100000000E-03 0. -1.
         11   -1    0    0    0    0 -0.00000000000E+00 -0.00000000000E+00 -0.45593999997E+02  0.45594000000E+02  0.51100000000E-03 0.  1.
    9900012    2    1    2    0    0 -0.16177442482E+02 -0.30725279638E+02 -0.26035953435E+02  0.47787270452E+02  0.19999997298E+02 0.  0.
         12    1    1    2    0    0  0.16177442482E+02  0.30725279638E+02  0.26035953435E+02  0.43400729548E+02  0.00000000000E+00 0. -1.
         11    1    3    3    0    0 -0.48681757690E+01 -0.17445725218E+02 -0.23183245406E+01  0.18259986107E+02  0.51100000000E-03 0. -1.
        -11    1    3    3    0    0 -0.32442587470E+01 -0.53859155934E+01 -0.90812444410E+01  0.11045465244E+02  0.51100000000E-03 0.  1.
         12    1    3    3    0    0 -0.80650079659E+01 -0.78936388265E+01 -0.14636384453E+02  0.18481819101E+02  0.00000000000E+00 0. -1.
</event>
<event>
 7    1  0.4818508E-009  0.4778728E+02  0.7816164E-02  0.1312668E+00
        -11   -1    0    0    0    0  0.00000000000E+00  0.00000000000E+00  0.45593999997E+02  0.45594000000E+02  0.51100000000E-03 0.  1.
         11   -1    0    0    0    0 -0.00000000000E+00 -0.00000000000E+00 -0.45593999997E+02  0.45594000000E+02  0.51100000000E-03 0. -1.
    9900012    2    1    2    0    0 -0.74889371962E+01 -0.32772549021E+02  0.27449931070E+02  0.47787275750E+02  0.20000021456E+02 0.  0.
         12    1    1    2    0    0  0.74889371962E+01  0.32772549021E+02 -0.27449931070E+02  0.43400724250E+02  0.00000000000E+00 0. -1.
         11    1    3    3    0    0 -0.35094993078E+01 -0.61954148169E+01 -0.13268961313E+01  0.72429554568E+01  0.51100000000E-03 0. -1.
        -11    1    3    3    0    0  0.15368563039E+01 -0.18654143183E+02  0.21135170531E+02  0.28231798009E+02  0.51100000000E-03 0.  1.
        -12    1    3    3    0    0 -0.55162941924E+01 -0.79229910207E+01  0.76416566711E+01  0.12312522285E+02  0.00000000000E+00 0.  1.
</event>
<event>
 7    1  0.4818508E-009  0.4778727E+02  0.7816164E-02  0.1312668E+00
        -11   -1    0    0    0    0  0.00000000000E+00  0.00000000000E+00  0.45593999997E+02  0.45594000000E+02  0.51100000000E-03 0. -1.
         11   -1    0    0    0    0 -0.00000000000E+00 -0.00000000000E+00 -0.45593999997E+02  0.45594000000E+02  0.51100000000E-03 0.  1.
    9900012    2    1    2    0    0 -0.12901655185E+02  0.11035712545E+02 -0.39942253183E+02  0.47787271351E+02  0.20000001398E+02 0.  0.
         12    1    1    2    0    0  0.12901655185E+02 -0.11035712545E+02  0.39942253183E+02  0.43400728649E+02  0.00000000000E+00 0. -1.
         11    1    3    3    0    0 -0.83207821670E+01  0.29787384358E+00 -0.52328746308E+01  0.98339779265E+01  0.51100000000E-03 0. -1.
        -11    1    3    3    0    0 -0.73425620485E+01  0.97400040869E+01 -0.30220789799E+02  0.32589523368E+02  0.51100000000E-03 0.  1.
        -12    1    3    3    0    0  0.27616890300E+01  0.99783461412E+00 -0.44885887538E+01  0.53637700563E+01  0.00000000000E+00 0.  1.
</event>
<event>
 7    1  0.4818508E-009  0.4778726E+02  0.7816164E-02  0.1312668E+00
        -11   -1    0    0    0    0  0.00000000000E+00  0.00000000000E+00  0.45593999997E+02  0.45594000000E+02  0.51100000000E-03 0.  1.
         11   -1    0    0    0    0 -0.00000000000E+00 -0.00000000000E+00 -0.45593999997E+02  0.45594000000E+02  0.51100000000E-03 0. -1.
    9900012    2    1    2    0    0  0.11555818417E+01  0.34886998138E+02  0.25791198196E+02  0.47787263683E+02  0.19999966434E+02 0.  0.
         12    1    1    2    0    0 -0.11555818417E+01 -0.34886998138E+02 -0.25791198196E+02  0.43400736317E+02  0.00000000000E+00 0. -1.
         11    1    3    3    0    0  0.80096462628E+01  0.15789435647E+02  0.12382324880E+02  0.21605154037E+02  0.51100000000E-03 0. -1.
        -11    1    3    3    0    0 -0.47357179725E+01  0.13710441059E+02  0.14248593080E+02  0.20332870524E+02  0.51100000000E-03 0.  1.
         12    1    3    3    0    0 -0.21183464486E+01  0.53871214333E+01 -0.83971976329E+00  0.58492391210E+01  0.00000000000E+00 0. -1.
</event>
<event>
 7    1  0.4818508E-009  0.4778727E+02  0.7816164E-02  0.1312668E+00
        -11   -1    0    0    0    0  0.00000000000E+00  0.00000000000E+00  0.45593999997E+02  0.45594000000E+02  0.51100000000E-03 0.  1.
         11   -1    0    0    0    0 -0.00000000000E+00 -0.00000000000E+00 -0.45593999997E+02  0.45594000000E+02  0.51100000000E-03 0. -1.
    9900012    2    1    2    0    0  0.16952116044E+02 -0.38598145672E+02 -0.10316594756E+02  0.47787271722E+02  0.20000003088E+02 0.  0.
         12    1    1    2    0    0 -0.16952116044E+02  0.38598145672E+02  0.10316594756E+02  0.43400728278E+02  0.00000000000E+00 0. -1.
         11    1    3    3    0    0  0.11293534096E+00 -0.32538964532E+01  0.11162821062E+01  0.34419010040E+01  0.51100000000E-03 0. -1.
        -11    1    3    3    0    0  0.11479531204E+01 -0.17655990173E+02  0.82372175617E+00  0.17712433575E+02  0.51100000000E-03 0.  1.
        -12    1    3    3    0    0  0.15691227583E+02 -0.17688259046E+02 -0.12256598619E+02  0.26632937143E+02  0.00000000000E+00 0.  1.
</event>
<event>
 7    1  0.4818508E-009  0.4778727E+02  0.7816164E-02  0.1312668E+00
        -11   -1    0    0    0    0  0.00000000000E+00  0.00000000000E+00  0.45593999997E+02  0.45594000000E+02  0.51100000000E-03 0.  1.
         11   -1    0    0    0    0 -0.00000000000E+00 -0.00000000000E+00 -0.45593999997E+02  0.45594000000E+02  0.51100000000E-03 0. -1.
    9900012    2    1    2    0    0 -0.43122216277E+02  0.13787625924E+01  0.47113264144E+01  0.47787272823E+02  0.20000008108E+02 0.  0.
         12    1    1    2    0    0  0.43122216277E+02 -0.13787625924E+01 -0.47113264144E+01  0.43400727177E+02  0.00000000000E+00 0. -1.
         11    1    3    3    0    0 -0.39780223720E+01 -0.14630175349E+01 -0.43388530145E+01  0.60655360886E+01  0.51100000000E-03 0. -1.
        -11    1    3    3    0    0 -0.34178983181E+02  0.24977703594E+01  0.11534324696E+02  0.36159126020E+02  0.51100000000E-03 0.  1.
        -12    1    3    3    0    0 -0.49652107238E+01  0.34400976795E+00 -0.24841452669E+01  0.55626107143E+01  0.00000000000E+00 0.  1.
</event>
<event>
 7    1  0.4818508E-009  0.4778727E+02  0.7816164E-02  0.1312668E+00
        -11   -1    0    0    0    0  0.00000000000E+00  0.00000000000E+00  0.45593999997E+02  0.45594000000E+02  0.51100000000E-03 0.  1.
         11   -1    0    0    0    0 -0.00000000000E+00 -0.00000000000E+00 -0.45593999997E+02  0.45594000000E+02  0.51100000000E-03 0. -1.
    9900012    2    1    2    0    0  0.38933094926E+02  0.17951774974E+02  0.67506277050E+01  0.47787273282E+02  0.20000010201E+02 0.  0.
         12    1    1    2    0    0 -0.38933094926E+02 -0.17951774974E+02 -0.67506277050E+01  0.43400726718E+02  0.00000000000E+00 0. -1.
         11    1    3    3    0    0  0.79891791138E+01  0.56906573057E+01 -0.10690126121E+01  0.98667802098E+01  0.51100000000E-03 0. -1.
        -11    1    3    3    0    0  0.17517092554E+02  0.15155533374E+02  0.68316780093E+01  0.24149752547E+02  0.51100000000E-03 0.  1.
        -12    1    3    3    0    0  0.13426823258E+02 -0.28944157056E+01  0.98796230782E+00  0.13770740525E+02  0.00000000000E+00 0.  1.
</event>
<event>
 7    1  0.4818508E-009  0.4778729E+02  0.7816164E-02  0.1312668E+00
        -11   -1    0    0    0    0  0.00000000000E+00  0.00000000000E+00  0.45593999997E+02  0.45594000000E+02  0.51100000000E-03 0.  1.
         11   -1    0    0    0    0 -0.00000000000E+00 -0.00000000000E+00 -0.45593999997E+02  0.45594000000E+02  0.51100000000E-03 0. -1.
    9900012    2    1    2    0    0  0.52161055038E+01 -0.33613839028E+01  0.42954799433E+02  0.47787292025E+02  0.20000095661E+02 0.  0.
         12    1    1    2    0    0 -0.52161055038E+01  0.33613839028E+01 -0.42954799433E+02  0.43400707975E+02  0.00000000000E+00 0. -1.
         11    1    3    3    0    0  0.22092688021E+01 -0.76452398260E+01  0.67274291845E+01  0.10420598079E+02  0.51100000000E-03 0. -1.
        -11    1    3    3    0    0  0.54614439371E+01  0.27144944523E+01  0.21215170464E+02  0.22074403912E+02  0.51100000000E-03 0.  1.
         12    1    3    3    0    0 -0.24546072354E+01  0.15693614710E+01  0.15012199785E+02  0.15292290034E+02  0.00000000000E+00 0. -1.
</event>
<event>
 7    1  0.4818508E-009  0.4778727E+02  0.7816164E-02  0.1312668E+00
        -11   -1    0    0    0    0  0.00000000000E+00  0.00000000000E+00  0.45593999997E+02  0.45594000000E+02  0.51100000000E-03 0.  1.
         11   -1    0    0    0    0 -0.00000000000E+00 -0.00000000000E+00 -0.45593999997E+02  0.45594000000E+02  0.51100000000E-03 0. -1.
    9900012    2    1    2    0    0 -0.29473280161E+02  0.14371045605E+02  0.28432766178E+02  0.47787269732E+02  0.19999994016E+02 0.  0.
         12    1    1    2    0    0  0.29473280161E+02 -0.14371045605E+02 -0.28432766178E+02  0.43400730268E+02  0.00000000000E+00 0. -1.
         11    1    3    3    0    0 -0.12873617031E+02 -0.11589013405E+01  0.72854820785E+01  0.14837496997E+02  0.51100000000E-03 0. -1.
        -11    1    3    3    0    0 -0.72950280256E+00  0.36004506668E+01  0.88848058866E+01  0.96143224018E+01  0.51100000000E-03 0.  1.
        -12    1    3    3    0    0 -0.15870160328E+02  0.11929496279E+02  0.12262478213E+02  0.23335450333E+02  0.00000000000E+00 0.  1.
</event>
<event>
 7    1  0.4818508E-009  0.4778727E+02  0.7816164E-02  0.1312668E+00
        -11   -1    0    0    0    0  0.00000000000E+00  0.00000000000E+00  0.45593999997E+02  0.45594000000E+02  0.51100000000E-03 0.  1.
         11   -1    0    0    0    0 -0.00000000000E+00 -0.00000000000E+00 -0.45593999997E+02  0.45594000000E+02  0.51100000000E-03 0. -1.
    9900012    2    1    2    0    0  0.40383988387E+02 -0.95747315914E+01  0.12691772510E+02  0.47787273133E+02  0.20000009524E+02 0.  0.
         12    1    1    2    0    0 -0.40383988387E+02  0.95747315914E+01 -0.12691772510E+02  0.43400726867E+02  0.00000000000E+00 0. -1.
         11    1    3    3    0    0  0.11426699337E+02 -0.11281844476E+02  0.40280567508E+01  0.16555202021E+02  0.51100000000E-03 0. -1.
        -11    1    3    3    0    0  0.15597896609E+02 -0.18318707057E+01  0.73791966397E+01  0.17352310285E+02  0.51100000000E-03 0.  1.
         12    1    3    3    0    0  0.13359392441E+02  0.35389835902E+01  0.12845191197E+01  0.13879760827E+02  0.00000000000E+00 0. -1.
</event>
<event>
 7    1  0.4818508E-009  0.4778727E+02  0.7816164E-02  0.1312668E+00
        -11   -1    0    0    0    0  0.00000000000E+00  0.00000000000E+00  0.45593999997E+02  0.45594000000E+02  0.51100000000E-03 0. -1.
         11   -1    0    0    0    0 -0.00000000000E+00 -0.00000000000E+00 -0.45593999997E+02  0.45594000000E+02  0.51100000000E-03 0.  1.
    9900012    2    1    2    0    0  0.13596504257E+02  0.37430643941E+02 -0.17254138271E+02  0.47787270497E+02  0.19999997506E+02 0.  0.
         12    1    1    2    0    0 -0.13596504257E+02 -0.37430643941E+02  0.17254138271E+02  0.43400729503E+02  0.00000000000E+00 0. -1.
         11    1    3    3    0    0 -0.23329906739E+01  0.14516923105E+02 -0.70972120859E+01  0.16326491404E+02  0.51100000000E-03 0. -1.
        -11    1    3    3    0    0  0.10747950568E+02  0.12723793711E+02 -0.77772514593E+00  0.16673878507E+02  0.51100000000E-03 0.  1.
        -12    1    3    3    0    0  0.51815443627E+01  0.10189927126E+02 -0.93792010393E+01  0.14786900586E+02  0.00000000000E+00 0.  1.
</event>
<event>
 7    1  0.4818508E-009  0.4778727E+02  0.7816164E-02  0.1312668E+00
        -11   -1    0    0    0    0  0.00000000000E+00  0.00000000000E+00  0.45593999997E+02  0.45594000000E+02  0.51100000000E-03 0. -1.
         11   -1    0    0    0    0 -0.00000000000E+00 -0.00000000000E+00 -0.45593999997E+02  0.45594000000E+02  0.51100000000E-03 0.  1.
    9900012    2    1    2    0    0 -0.22052573000E+02  0.24511693947E+02 -0.28222051237E+02  0.47787270834E+02  0.19999999041E+02 0.  0.
         12    1    1    2    0    0  0.22052573000E+02 -0.24511693947E+02  0.28222051237E+02  0.43400729166E+02  0.00000000000E+00 0. -1.
         11    1    3    3    0    0 -0.87153972848E+01 -0.21923613844E+00 -0.85790395728E+01  0.12231358656E+02  0.51100000000E-03 0. -1.
        -11    1    3    3    0    0 -0.12822384145E+02  0.20723847033E+02 -0.19963927586E+02  0.31503170887E+02  0.51100000000E-03 0.  1.
        -12    1    3    3    0    0 -0.51479157092E+00  0.40070830520E+01  0.32091592120E+00  0.40527412914E+01  0.00000000000E+00 0.  1.
</event>
<event>
 7    1  0.4818508E-009  0.4778727E+02  0.7816164E-02  0.1312668E+00
        -11   -1    0    0    0    0  0.00000000000E+00  0.00000000000E+00  0.45593999997E+02  0.45594000000E+02  0.51100000000E-03 0.  1.
         11   -1    0    0    0    0 -0.00000000000E+00 -0.00000000000E+00 -0.45593999997E+02  0.45594000000E+02  0.51100000000E-03 0. -1.
    9900012    2    1    2    0    0  0.29967944034E+02  0.16101592062E+02  0.26949659375E+02  0.47787273312E+02  0.20000010340E+02 0.  0.
         12    1    1    2    0    0 -0.29967944034E+02 -0.16101592062E+02 -0.26949659375E+02  0.43400726688E+02  0.00000000000E+00 0. -1.
         11    1    3    3    0    0 -0.18701565543E+01  0.14890316735E+01  0.30984286769E+01  0.39134334528E+01  0.51100000000E-03 0. -1.
        -11    1    3    3    0    0  0.24227521342E+02  0.13702723538E+02  0.13342419943E+02  0.30866771663E+02  0.51100000000E-03 0.  1.
        -12    1    3    3    0    0  0.76105792472E+01  0.90983685100E+00  0.10508810755E+02  0.13007068196E+02  0.00000000000E+00 0.  1.
</event>
<event>
 7    1  0.4818508E-009  0.4778727E+02  0.7816164E-02  0.1312668E+00
        -11   -1    0    0    0    0  0.00000000000E+00  0.00000000000E+00  0.45593999997E+02  0.45594000000E+02  0.51100000000E-03 0.  1.
         11   -1    0    0    0    0 -0.00000000000E+00 -0.00000000000E+00 -0.45593999997E+02  0.45594000000E+02  0.51100000000E-03 0. -1.
    9900012    2    1    2    0    0 -0.26758792117E+02 -0.28900010135E+02  0.18231291681E+02  0.47787268005E+02  0.19999986142E+02 0.  0.
         12    1    1    2    0    0  0.26758792117E+02  0.28900010135E+02 -0.18231291681E+02  0.43400731995E+02  0.00000000000E+00 0. -1.
         11    1    3    3    0    0 -0.24072123172E+01 -0.71827969423E+01 -0.22504052560E+01  0.79026303932E+01  0.51100000000E-03 0. -1.
        -11    1    3    3    0    0 -0.24347994596E+02 -0.17463919196E+02  0.17662438479E+02  0.34781820652E+02  0.51100000000E-03 0.  1.
        -12    1    3    3    0    0 -0.35852030428E-02 -0.42532939966E+01  0.28192584582E+01  0.51028169602E+01  0.00000000000E+00 0.  1.
</event>
<event>
 7    1  0.4818508E-009  0.4778726E+02  0.7816164E-02  0.1312668E+00
        -11   -1    0    0    0    0  0.00000000000E+00  0.00000000000E+00  0.45593999997E+02  0.45594000000E+02  0.51100000000E-03 0.  1.
         11   -1    0    0    0    0 -0.00000000000E+00 -0.00000000000E+00 -0.45593999997E+02  0.45594000000E+02  0.51100000000E-03 0. -1.
    9900012    2    1    2    0    0 -0.27833104145E+02 -0.28921609138E+02 -0.16507073981E+02  0.47787255158E+02  0.19999927566E+02 0.  0.
         12    1    1    2    0    0  0.27833104145E+02  0.28921609138E+02  0.16507073981E+02  0.43400744842E+02  0.00000000000E+00 0. -1.
         11    1    3    3    0    0 -0.19896089598E+02 -0.24399925934E+02 -0.17001461670E+02  0.35780727578E+02  0.51100000000E-03 0. -1.
        -11    1    3    3    0    0 -0.82007876385E+01 -0.59365281880E+01  0.15224579753E+01  0.10237830013E+02  0.51100000000E-03 0.  1.
         12    1    3    3    0    0  0.26377309161E+00  0.14148449833E+01 -0.10280702857E+01  0.17686975668E+01  0.00000000000E+00 0. -1.
</event>
<event>
 7    1  0.4818508E-009  0.4778727E+02  0.7816164E-02  0.1312668E+00
        -11   -1    0    0    0    0  0.00000000000E+00  0.00000000000E+00  0.45593999997E+02  0.45594000000E+02  0.51100000000E-03 0. -1.
         11   -1    0    0    0    0 -0.00000000000E+00 -0.00000000000E+00 -0.45593999997E+02  0.45594000000E+02  0.51100000000E-03 0.  1.
    9900012    2    1    2    0    0 -0.74148988003E+01  0.78954573198E+01 -0.42027423034E+02  0.47787271234E+02  0.20000000866E+02 0.  0.
         12    1    1    2    0    0  0.74148988003E+01 -0.78954573198E+01  0.42027423034E+02  0.43400728766E+02  0.00000000000E+00 0. -1.
         11    1    3    3    0    0 -0.35805793643E+01  0.83403867179E+01 -0.10853435892E+02  0.14148486495E+02  0.51100000000E-03 0. -1.
        -11    1    3    3    0    0 -0.76489078868E+01 -0.13284723858E+01 -0.26097016230E+02  0.27227282036E+02  0.51100000000E-03 0.  1.
        -12    1    3    3    0    0  0.38145884508E+01  0.88354298767E+00 -0.50769709123E+01  0.64115027025E+01  0.00000000000E+00 0.  1.
</event>
<event>
 7    1  0.4818508E-009  0.4778727E+02  0.7816164E-02  0.1312668E+00
        -11   -1    0    0    0    0  0.00000000000E+00  0.00000000000E+00  0.45593999997E+02  0.45594000000E+02  0.51100000000E-03 0. -1.
         11   -1    0    0    0    0 -0.00000000000E+00 -0.00000000000E+00 -0.45593999997E+02  0.45594000000E+02  0.51100000000E-03 0.  1.
    9900012    2    1    2    0    0 -0.41891149932E+02 -0.62802371742E+01 -0.94505826464E+01  0.47787270353E+02  0.19999996847E+02 0.  0.
         12    1    1    2    0    0  0.41891149932E+02  0.62802371742E+01  0.94505826464E+01  0.43400729647E+02  0.00000000000E+00 0. -1.
         11    1    3    3    0    0 -0.99082913071E+01 -0.83899900966E+00 -0.91567892254E+01  0.13517579115E+02  0.51100000000E-03 0. -1.
        -11    1    3    3    0    0 -0.32639377275E+02 -0.56173490162E+01 -0.11951198559E+01  0.33140788623E+02  0.51100000000E-03 0.  1.
        -12    1    3    3    0    0  0.65651865006E+00  0.17611085174E+00  0.90132643485E+00  0.11289026141E+01  0.00000000000E+00 0.  1.
</event>
<event>
 7    1  0.4818508E-009  0.4778726E+02  0.7816164E-02  0.1312668E+00
        -11   -1    0    0    0    0  0.00000000000E+00  0.00000000000E+00  0.45593999997E+02  0.45594000000E+02  0.51100000000E-03 0. -1.
         11   -1    0    0    0    0 -0.00000000000E+00 -0.00000000000E+00 -0.45593999997E+02  0.45594000000E+02  0.51100000000E-03 0.  1.
    9900012    2    1    2    0    0 -0.21795588645E+02  0.40196122609E+00 -0.37528850002E+02  0.47787264525E+02  0.19999970277E+02 0.  0.
         12    1    1    2    0    0  0.21795588645E+02 -0.40196122609E+00  0.37528850002E+02  0.43400735475E+02  0.00000000000E+00 0. -1.
         11    1    3    3    0    0  0.10411044661E+01  0.47373105615E+01 -0.52575950203E+01  0.71532031653E+01  0.51100000000E-03 0. -1.
        -11    1    3    3    0    0 -0.20020460937E+02 -0.59097156426E+01 -0.24301655700E+02  0.32036136863E+02  0.51100000000E-03 0.  1.
        -12    1    3    3    0    0 -0.28162321740E+01  0.15743663072E+01 -0.79695992826E+01  0.85979244967E+01  0.00000000000E+00 0.  1.
</event>
<event>
 7    1  0.4818508E-009  0.4778726E+02  0.7816164E-02  0.1312668E+00
        -11   -1    0    0    0    0  0.00000000000E+00  0.00000000000E+00  0.45593999997E+02  0.45594000000E+02  0.51100000000E-03 0.  1.
         11   -1    0    0    0    0 -0.00000000000E+00 -0.00000000000E+00 -0.45593999997E+02  0.45594000000E+02  0.51100000000E-03 0. -1.
    9900012    2    1    2    0    0  0.11669043710E+02  0.41754260061E+02  0.20098603239E+01  0.47787258614E+02  0.19999943323E+02 0.  0.
         12    1    1    2    0    0 -0.11669043710E+02 -0.41754260061E+02 -0.20098603239E+01  0.43400741386E+02  0.00000000000E+00 0. -1.
         11    1    3    3    0    0 -0.26819807872E+01  0.22398769680E+02  0.21839860978E+01  0.22664238343E+02  0.51100000000E-03 0. -1.
        -11    1    3    3    0    0  0.13473237094E+02  0.13893654955E+02 -0.15716289346E+01  0.19417306290E+02  0.51100000000E-03 0.  1.
        -12    1    3    3    0    0  0.87778740357E+00  0.54618354259E+01  0.13975031607E+01  0.57057139807E+01  0.00000000000E+00 0.  1.
</event>
<event>
 7    1  0.4818508E-009  0.4778727E+02  0.7816164E-02  0.1312668E+00
        -11   -1    0    0    0    0  0.00000000000E+00  0.00000000000E+00  0.45593999997E+02  0.45594000000E+02  0.51100000000E-03 0. -1.
         11   -1    0    0    0    0 -0.00000000000E+00 -0.00000000000E+00 -0.45593999997E+02  0.45594000000E+02  0.51100000000E-03 0.  1.
    9900012    2    1    2    0    0 -0.53289202213E+01  0.36186311832E+02 -0.23361867491E+02  0.47787269506E+02  0.19999992986E+02 0.  0.
         12    1    1    2    0    0  0.53289202213E+01 -0.36186311832E+02  0.23361867491E+02  0.43400730494E+02  0.00000000000E+00 0. -1.
         11    1    3    3    0    0  0.20539390751E+01  0.78533850143E+01  0.10190413676E+01  0.81812448611E+01  0.51100000000E-03 0. -1.
        -11    1    3    3    0    0 -0.94327613716E+01  0.16529981711E+02 -0.17111143620E+02  0.25593134210E+02  0.51100000000E-03 0.  1.
        -12    1    3    3    0    0  0.20499020752E+01  0.11802945107E+02 -0.72697652385E+01  0.14012890435E+02  0.00000000000E+00 0.  1.
</event>
<event>
 7    1  0.4818508E-009  0.4778728E+02  0.7816164E-02  0.1312668E+00
        -11   -1    0    0    0    0  0.00000000000E+00  0.00000000000E+00  0.45593999997E+02  0.45594000000E+02  0.51100000000E-03 0.  1.
         11   -1    0    0    0    0 -0.00000000000E+00 -0.00000000000E+00 -0.45593999997E+02  0.45594000000E+02  0.51100000000E-03 0. -1.
    9900012    2    1    2    0    0  0.27382155409E+01  0.21802130504E+02  0.37427154214E+02  0.47787278907E+02  0.20000035848E+02 0.  0.
         12    1    1    2    0    0 -0.27382155409E+01 -0.21802130504E+02 -0.37427154214E+02  0.43400721093E+02  0.00000000000E+00 0. -1.
         11    1    3    3    0    0  0.29854805270E+01  0.17819416846E+02  0.19383697915E+02  0.26498536862E+02  0.51100000000E-03 0. -1.
        -11    1    3    3    0    0 -0.33906450981E+01  0.56089486754E+01  0.65632850937E+01  0.92754240284E+01  0.51100000000E-03 0.  1.
         12    1    3    3    0    0  0.31433801120E+01 -0.16262350179E+01  0.11480171205E+02  0.12013318016E+02  0.00000000000E+00 0. -1.
</event>
<event>
 7    1  0.4818508E-009  0.4778729E+02  0.7816164E-02  0.1312668E+00
        -11   -1    0    0    0    0  0.00000000000E+00  0.00000000000E+00  0.45593999997E+02  0.45594000000E+02  0.51100000000E-03 0.  1.
         11   -1    0    0    0    0 -0.00000000000E+00 -0.00000000000E+00 -0.45593999997E+02  0.45594000000E+02  0.51100000000E-03 0. -1.
    9900012    2    1    2    0    0 -0.29169041711E+02  0.15098137082E+02  0.28369618642E+02  0.47787285725E+02  0.20000066936E+02 0.  0.
         12    1    1    2    0    0  0.29169041711E+02 -0.15098137082E+02 -0.28369618642E+02  0.43400714275E+02  0.00000000000E+00 0. -1.
         11    1    3    3    0    0 -0.47079969243E+01  0.74661222535E+01  0.31934514761E+01  0.93864982360E+01  0.51100000000E-03 0. -1.
        -11    1    3    3    0    0 -0.20793052527E+02  0.59048672967E+01  0.26442860120E+02  0.34153233270E+02  0.51100000000E-03 0.  1.
        -12    1    3    3    0    0 -0.36679922591E+01  0.17271475316E+01 -0.12666929542E+01  0.42475542197E+01  0.00000000000E+00 0.  1.
</event>
<event>
 7    1  0.4818508E-009  0.4778727E+02  0.7816164E-02  0.1312668E+00
        -11   -1    0    0    0    0  0.00000000000E+00  0.00000000000E+00  0.45593999997E+02  0.45594000000E+02  0.51100000000E-03 0.  1.
         11   -1    0    0    0    0 -0.00000000000E+00 -0.00000000000E+00 -0.45593999997E+02  0.45594000000E+02  0.51100000000E-03 0. -1.
    9900012    2    1    2    0    0 -0.25014245250E+02  0.14431014112E+02  0.32398403345E+02  0.47787272206E+02  0.20000005298E+02 0.  0.
         12    1    1    2    0    0  0.25014245250E+02 -0.14431014112E+02 -0.32398403345E+02  0.43400727794E+02  0.00000000000E+00 0. -1.
         11    1    3    3    0    0 -0.93272787712E+01  0.10057413589E+01  0.17443915619E+01  0.95421458352E+01  0.51100000000E-03 0. -1.
        -11    1    3    3    0    0 -0.11634143865E+02  0.13030367427E+02  0.18576398869E+02  0.25499536740E+02  0.51100000000E-03 0.  1.
         12    1    3    3    0    0 -0.40528226139E+01  0.39490532648E+00  0.12077612914E+02  0.12745589632E+02  0.00000000000E+00 0. -1.
</event>
<event>
 7    1  0.4818508E-009  0.4778725E+02  0.7816164E-02  0.1312668E+00
        -11   -1    0    0    0    0  0.00000000000E+00  0.00000000000E+00  0.45593999997E+02  0.45594000000E+02  0.51100000000E-03 0.  1.
         11   -1    0    0    0    0 -0.00000000000E+00 -0.00000000000E+00 -0.45593999997E+02  0.45594000000E+02  0.51100000000E-03 0. -1.
    9900012    2    1    2    0    0  0.32431508652E+02  0.98211675170E+01  0.27117643798E+02  0.47787254730E+02  0.19999925617E+02 0.  0.
         12    1    1    2    0    0 -0.32431508652E+02 -0.98211675170E+01 -0.27117643798E+02  0.43400745270E+02  0.00000000000E+00 0. -1.
         11    1    3    3    0    0  0.27440775403E+02  0.11902212105E+02  0.20383518729E+02  0.36195947891E+02  0.51100000000E-03 0. -1.
        -11    1    3    3    0    0  0.47632367538E+01  0.68722481367E+00  0.73125761814E+01  0.87541117760E+01  0.51100000000E-03 0.  1.
         12    1    3    3    0    0  0.22749649528E+00 -0.27682694016E+01 -0.57845111318E+00  0.28371950630E+01  0.00000000000E+00 0. -1.
</event>
<event>
 7    1  0.4818508E-009  0.4778727E+02  0.7816164E-02  0.1312668E+00
        -11   -1    0    0    0    0  0.00000000000E+00  0.00000000000E+00  0.45593999997E+02  0.45594000000E+02  0.51100000000E-03 0.  1.
         11   -1    0    0    0    0 -0.00000000000E+00 -0.00000000000E+00 -0.45593999997E+02  0.45594000000E+02  0.51100000000E-03 0. -1.
    9900012    2    1    2    0    0 -0.27867152975E+02 -0.18258459656E+02  0.27814989910E+02  0.47787271577E+02  0.20000002428E+02 0.  0.
         12    1    1    2    0    0  0.27867152975E+02  0.18258459656E+02 -0.27814989910E+02  0.43400728423E+02  0.00000000000E+00 0. -1.
         11    1    3    3    0    0 -0.58944125911E+01 -0.13329964347E+02  0.17824680165E+02  0.23025014062E+02  0.51100000000E-03 0. -1.
        -11    1    3    3    0    0 -0.69581768995E+01 -0.10465639265E+01  0.19923028175E+01  0.73130563101E+01  0.51100000000E-03 0.  1.
         12    1    3    3    0    0 -0.15014563484E+02 -0.38819313829E+01  0.79980069273E+01  0.17449201205E+02  0.00000000000E+00 0. -1.
</event>
<event>
 7    1  0.4818508E-009  0.4778727E+02  0.7816164E-02  0.1312668E+00
        -11   -1    0    0    0    0  0.00000000000E+00  0.00000000000E+00  0.45593999997E+02  0.45594000000E+02  0.51100000000E-03 0. -1.
         11   -1    0    0    0    0 -0.00000000000E+00 -0.00000000000E+00 -0.45593999997E+02  0.45594000000E+02  0.51100000000E-03 0.  1.
    9900012    2    1    2    0    0  0.99694424027E+01  0.41568672378E+02 -0.75019400260E+01  0.47787269485E+02  0.19999992890E+02 0.  0.
         12    1    1    2    0    0 -0.99694424027E+01 -0.41568672378E+02  0.75019400260E+01  0.43400730515E+02  0.00000000000E+00 0. -1.
         11    1    3    3    0    0  0.43809477690E+01  0.94491678062E+01  0.53360702968E+01  0.11702697213E+02  0.51100000000E-03 0. -1.
        -11    1    3    3    0    0  0.18480966789E+01  0.15787370606E+02 -0.10775039230E+02  0.19203072739E+02  0.51100000000E-03 0.  1.
         12    1    3    3    0    0  0.37403979548E+01  0.16332133966E+02 -0.20629710931E+01  0.16881499533E+02  0.00000000000E+00 0. -1.
</event>
<event>
 7    1  0.4818508E-009  0.4778728E+02  0.7816164E-02  0.1312668E+00
        -11   -1    0    0    0    0  0.00000000000E+00  0.00000000000E+00  0.45593999997E+02  0.45594000000E+02  0.51100000000E-03 0.  1.
         11   -1    0    0    0    0 -0.00000000000E+00 -0.00000000000E+00 -0.45593999997E+02  0.45594000000E+02  0.51100000000E-03 0. -1.
    9900012    2    1    2    0    0  0.42316993075E+02  0.67466619376E+01  0.68831248308E+01  0.47787276992E+02  0.20000027118E+02 0.  0.
         12    1    1    2    0    0 -0.42316993075E+02 -0.67466619376E+01 -0.68831248308E+01  0.43400723008E+02  0.00000000000E+00 0. -1.
         11    1    3    3    0    0  0.27215817075E+02  0.10948020306E+02  0.62607594724E+01  0.29995949012E+02  0.51100000000E-03 0. -1.
        -11    1    3    3    0    0  0.15619086028E+02 -0.52853454418E+01  0.12100866534E+00  0.16489553304E+02  0.51100000000E-03 0.  1.
        -12    1    3    3    0    0 -0.51791002915E+00  0.10839870738E+01  0.50135669313E+00  0.13017746764E+01  0.00000000000E+00 0.  1.
</event>
<event>
 7    1  0.4818508E-009  0.4778727E+02  0.7816164E-02  0.1312668E+00
        -11   -1    0    0    0    0  0.00000000000E+00  0.00000000000E+00  0.45593999997E+02  0.45594000000E+02  0.51100000000E-03 0.  1.
         11   -1    0    0    0    0 -0.00000000000E+00 -0.00000000000E+00 -0.45593999997E+02  0.45594000000E+02  0.51100000000E-03 0. -1.
    9900012    2    1    2    0    0  0.16614978717E+02  0.23345304917E+02  0.32596971585E+02  0.47787270329E+02  0.19999996739E+02 0.  0.
         12    1    1    2    0    0 -0.16614978717E+02 -0.23345304917E+02 -0.32596971585E+02  0.43400729671E+02  0.00000000000E+00 0. -1.
         11    1    3    3    0    0 -0.16132266591E+01 -0.17746922017E+01  0.46540592057E+01  0.52356756981E+01  0.51100000000E-03 0. -1.
        -11    1    3    3    0    0  0.14762674332E+02  0.15552727604E+02  0.22208810598E+02  0.30871591436E+02  0.51100000000E-03 0.  1.
         12    1    3    3    0    0  0.34655310435E+01  0.95672695156E+01  0.57341017814E+01  0.11680003195E+02  0.00000000000E+00 0. -1.
</event>
<event>
 7    1  0.4818508E-009  0.4778727E+02  0.7816164E-02  0.1312668E+00
        -11   -1    0    0    0    0  0.00000000000E+00  0.00000000000E+00  0.45593999997E+02  0.45594000000E+02  0.51100000000E-03 0.  1.
         11   -1    0    0    0    0 -0.00000000000E+00 -0.00000000000E+00 -0.45593999997E+02  0.45594000000E+02  0.51100000000E-03 0. -1.
    9900012    2    1    2    0    0  0.42125775007E+02 -0.98290640860E+00  0.10395969900E+02  0.47787271721E+02  0.20000003085E+02 0.  0.
         12    1    1    2    0    0 -0.42125775007E+02  0.98290640860E+00 -0.10395969900E+02  0.43400728279E+02  0.00000000000E+00 0. -1.
         11    1    3    3    0    0  0.85748933645E+01 -0.77936407609E+00  0.97255000275E+01  0.12989286186E+02  0.51100000000E-03 0. -1.
        -11    1    3    3    0    0  0.27489070933E+02 -0.20745898704E+01  0.36162431648E+01  0.27803419912E+02  0.51100000000E-03 0.  1.
         12    1    3    3    0    0  0.60618107097E+01  0.18710475379E+01 -0.29457732921E+01  0.69945656232E+01  0.00000000000E+00 0. -1.
</event>
<event>
 7    1  0.4818508E-009  0.4778727E+02  0.7816164E-02  0.1312668E+00
        -11   -1    0    0    0    0  0.00000000000E+00  0.00000000000E+00  0.45593999997E+02  0.45594000000E+02  0.51100000000E-03 0. -1.
         11   -1    0    0    0    0 -0.00000000000E+00 -0.00000000000E+00 -0.45593999997E+02  0.45594000000E+02  0.51100000000E-03 0.  1.
    9900012    2    1    2    0    0 -0.11506526873E+02  0.22631587432E+02 -0.35199921045E+02  0.47787270145E+02  0.19999995900E+02 0.  0.
         12    1    1    2    0    0  0.11506526873E+02 -0.22631587432E+02  0.35199921045E+02  0.43400729855E+02  0.00000000000E+00 0. -1.
         11    1    3    3    0    0 -0.98420938108E+01  0.37170932205E+01 -0.12585890487E+02  0.16403909053E+02  0.51100000000E-03 0.  1.
        -11    1    3    3    0    0  0.18453120505E+01  0.15783915678E+02 -0.12462532705E+02  0.20195343334E+02  0.51100000000E-03 0. -1.
         12    1    3    3    0    0 -0.35097451127E+01  0.31305785330E+01 -0.10151497852E+02  0.11188017758E+02  0.00000000000E+00 0. -1.
</event>
<event>
 7    1  0.4818508E-009  0.4778728E+02  0.7816164E-02  0.1312668E+00
        -11   -1    0    0    0    0  0.00000000000E+00  0.00000000000E+00  0.45593999997E+02  0.45594000000E+02  0.51100000000E-03 0.  1.
         11   -1    0    0    0    0 -0.00000000000E+00 -0.00000000000E+00 -0.45593999997E+02  0.45594000000E+02  0.51100000000E-03 0. -1.
    9900012    2    1    2    0    0  0.26830211764E+02  0.13565185221E+01  0.34086979451E+02  0.47787279109E+02  0.20000036768E+02 0.  0.
         12    1    1    2    0    0 -0.26830211764E+02 -0.13565185221E+01 -0.34086979451E+02  0.43400720891E+02  0.00000000000E+00 0. -1.
         11    1    3    3    0    0  0.75954908790E+01 -0.51980487676E+01  0.72375800966E+01  0.11708704395E+02  0.51100000000E-03 0. -1.
        -11    1    3    3    0    0  0.87976283773E+01  0.68520522496E+01  0.57714457287E+01  0.12556212453E+02  0.51100000000E-03 0.  1.
        -12    1    3    3    0    0  0.10437092507E+02 -0.29748495991E+00  0.21077953626E+02  0.23522362261E+02  0.00000000000E+00 0.  1.
</event>
<event>
 7    1  0.4818508E-009  0.4778727E+02  0.7816164E-02  0.1312668E+00
        -11   -1    0    0    0    0  0.00000000000E+00  0.00000000000E+00  0.45593999997E+02  0.45594000000E+02  0.51100000000E-03 0. -1.
         11   -1    0    0    0    0 -0.00000000000E+00 -0.00000000000E+00 -0.45593999997E+02  0.45594000000E+02  0.51100000000E-03 0.  1.
    9900012    2    1    2    0    0 -0.27275963936E+02  0.14645659007E+02 -0.30416273968E+02  0.47787271221E+02  0.20000000806E+02 0.  0.
         12    1    1    2    0    0  0.27275963936E+02 -0.14645659007E+02  0.30416273968E+02  0.43400728779E+02  0.00000000000E+00 0. -1.
         11    1    3    3    0    0 -0.56476370035E+00  0.35734573642E+01 -0.54985545852E+01  0.65819950136E+01  0.51100000000E-03 0. -1.
        -11    1    3    3    0    0 -0.12375491926E+02  0.33752961346E+01 -0.20772996047E+02  0.24414397175E+02  0.51100000000E-03 0.  1.
        -12    1    3    3    0    0 -0.14335708310E+02  0.76969055081E+01 -0.41447233366E+01  0.16790879033E+02  0.00000000000E+00 0.  1.
</event>
<event>
 7    1  0.4818508E-009  0.4778727E+02  0.7816164E-02  0.1312668E+00
        -11   -1    0    0    0    0  0.00000000000E+00  0.00000000000E+00  0.45593999997E+02  0.45594000000E+02  0.51100000000E-03 0. -1.
         11   -1    0    0    0    0 -0.00000000000E+00 -0.00000000000E+00 -0.45593999997E+02  0.45594000000E+02  0.51100000000E-03 0.  1.
    9900012    2    1    2    0    0 -0.37254107017E+01 -0.37056548858E+02 -0.22283555834E+02  0.47787270066E+02  0.19999995540E+02 0.  0.
         12    1    1    2    0    0  0.37254107017E+01  0.37056548858E+02  0.22283555834E+02  0.43400729934E+02  0.00000000000E+00 0. -1.
         11    1    3    3    0    0 -0.40752590269E+01 -0.12062649755E+02 -0.15868672072E+02  0.20345269938E+02  0.51100000000E-03 0. -1.
        -11    1    3    3    0    0  0.16834538933E+01 -0.21863510676E+02 -0.84238163149E+01  0.23490589555E+02  0.51100000000E-03 0.  1.
         12    1    3    3    0    0 -0.13336055681E+01 -0.31303884273E+01  0.20089325529E+01  0.39514105733E+01  0.00000000000E+00 0. -1.
</event>
<event>
 7    1  0.4818508E-009  0.4778727E+02  0.7816164E-02  0.1312668E+00
        -11   -1    0    0    0    0  0.00000000000E+00  0.00000000000E+00  0.45593999997E+02  0.45594000000E+02  0.51100000000E-03 0.  1.
         11   -1    0    0    0    0 -0.00000000000E+00 -0.00000000000E+00 -0.45593999997E+02  0.45594000000E+02  0.51100000000E-03 0. -1.
    9900012    2    1    2    0    0 -0.52878096704E+01 -0.11827272461E+02  0.41421952517E+02  0.47787268955E+02  0.19999990473E+02 0.  0.
         12    1    1    2    0    0  0.52878096704E+01  0.11827272461E+02 -0.41421952517E+02  0.43400731045E+02  0.00000000000E+00 0. -1.
         11    1    3    3    0    0  0.19999065240E+01 -0.32684216325E+01  0.23773394203E+02  0.24080209265E+02  0.51100000000E-03 0. -1.
        -11    1    3    3    0    0 -0.87329687027E+01 -0.56520802748E+01  0.17618992760E+02  0.20460685715E+02  0.51100000000E-03 0.  1.
         12    1    3    3    0    0  0.14452525082E+01 -0.29067705532E+01  0.29565553844E-01  0.32463739747E+01  0.00000000000E+00 0. -1.
</event>
<event>
 7    1  0.4818508E-009  0.4778722E+02  0.7816164E-02  0.1312668E+00
        -11   -1    0    0    0    0  0.00000000000E+00  0.00000000000E+00  0.45593999997E+02  0.45594000000E+02  0.51100000000E-03 0.  1.
         11   -1    0    0    0    0 -0.00000000000E+00 -0.00000000000E+00 -0.45593999997E+02  0.45594000000E+02  0.51100000000E-03 0. -1.
    9900012    2    1    2    0    0 -0.28741462466E+02 -0.26512122745E+02  0.18832501685E+02  0.47787223085E+02  0.19999781332E+02 0.  0.
         12    1    1    2    0    0  0.28741462466E+02  0.26512122745E+02 -0.18832501685E+02  0.43400776915E+02  0.00000000000E+00 0. -1.
         11    1    3    3    0    0 -0.95153775077E+01 -0.30591171964E+01  0.64066664009E+01  0.11872067291E+02  0.51100000000E-03 0. -1.
        -11    1    3    3    0    0 -0.60956376673E+01 -0.15535339498E+02  0.86238951325E+00  0.16710693816E+02  0.51100000000E-03 0.  1.
        -12    1    3    3    0    0 -0.13130447291E+02 -0.79176660503E+01  0.11563445770E+02  0.19204461977E+02  0.00000000000E+00 0.  1.
</event>
<event>
 7    1  0.4818508E-009  0.4778727E+02  0.7816164E-02  0.1312668E+00
        -11   -1    0    0    0    0  0.00000000000E+00  0.00000000000E+00  0.45593999997E+02  0.45594000000E+02  0.51100000000E-03 0.  1.
         11   -1    0    0    0    0 -0.00000000000E+00 -0.00000000000E+00 -0.45593999997E+02  0.45594000000E+02  0.51100000000E-03 0. -1.
    9900012    2    1    2    0    0 -0.43185933918E+02 -0.83402041375E+00  0.42312169841E+01  0.47787266416E+02  0.19999978897E+02 0.  0.
         12    1    1    2    0    0  0.43185933918E+02  0.83402041375E+00 -0.42312169841E+01  0.43400733584E+02  0.00000000000E+00 0. -1.
         11    1    3    3    0    0 -0.23004994778E+02 -0.91621761764E+01  0.60842717548E+01  0.25498894487E+02  0.51100000000E-03 0. -1.
        -11    1    3    3    0    0 -0.93177623744E+01  0.56009335729E+01  0.33332713985E+00  0.10876684228E+02  0.51100000000E-03 0.  1.
         12    1    3    3    0    0 -0.10863176766E+02  0.27272221897E+01 -0.21863819106E+01  0.11411687701E+02  0.00000000000E+00 0. -1.
</event>
<event>
 7    1  0.4818508E-009  0.4778727E+02  0.7816164E-02  0.1312668E+00
        -11   -1    0    0    0    0  0.00000000000E+00  0.00000000000E+00  0.45593999997E+02  0.45594000000E+02  0.51100000000E-03 0.  1.
         11   -1    0    0    0    0 -0.00000000000E+00 -0.00000000000E+00 -0.45593999997E+02  0.45594000000E+02  0.51100000000E-03 0. -1.
    9900012    2    1    2    0    0  0.83007599273E+01  0.21576413702E+02  0.36731174430E+02  0.47787269377E+02  0.19999992396E+02 0.  0.
         12    1    1    2    0    0 -0.83007599273E+01 -0.21576413702E+02 -0.36731174430E+02  0.43400730623E+02  0.00000000000E+00 0. -1.
         11    1    3    3    0    0  0.86760748986E+01  0.45892724333E+01  0.93891178029E+01  0.13582754893E+02  0.51100000000E-03 0. -1.
        -11    1    3    3    0    0  0.26330222701E+01  0.13005269098E+02  0.25747279349E+02  0.28965362499E+02  0.51100000000E-03 0.  1.
        -12    1    3    3    0    0 -0.30083372415E+01  0.39818721709E+01  0.15947772787E+01  0.52391519841E+01  0.00000000000E+00 0.  1.
</event>
<event>
 7    1  0.4818508E-009  0.4778727E+02  0.7816164E-02  0.1312668E+00
        -11   -1    0    0    0    0  0.00000000000E+00  0.00000000000E+00  0.45593999997E+02  0.45594000000E+02  0.51100000000E-03 0. -1.
         11   -1    0    0    0    0 -0.00000000000E+00 -0.00000000000E+00 -0.45593999997E+02  0.45594000000E+02  0.51100000000E-03 0.  1.
    9900012    2    1    2    0    0  0.37424528498E+02  0.72450822619E+01 -0.20749381509E+02  0.47787269784E+02  0.19999994252E+02 0.  0.
         12    1    1    2    0    0 -0.37424528498E+02 -0.72450822619E+01  0.20749381509E+02  0.43400730216E+02  0.00000000000E+00 0. -1.
         11    1    3    3    0    0  0.11053723504E+01  0.29203088315E+01 -0.13996102793E+01  0.34218358960E+01  0.51100000000E-03 0. -1.
        -11    1    3    3    0    0 -0.12392870579E+00 -0.22646838978E+01 -0.32973640006E+01  0.40020945884E+01  0.51100000000E-03 0.  1.
        -12    1    3    3    0    0  0.36443084854E+02  0.65894573282E+01 -0.16052407229E+02  0.40363339299E+02  0.00000000000E+00 0.  1.
</event>
<event>
 7    1  0.4818508E-009  0.4778728E+02  0.7816164E-02  0.1312668E+00
        -11   -1    0    0    0    0  0.00000000000E+00  0.00000000000E+00  0.45593999997E+02  0.45594000000E+02  0.51100000000E-03 0.  1.
         11   -1    0    0    0    0 -0.00000000000E+00 -0.00000000000E+00 -0.45593999997E+02  0.45594000000E+02  0.51100000000E-03 0. -1.
    9900012    2    1    2    0    0  0.17546799756E+02 -0.14454331233E+02  0.36970321513E+02  0.47787279431E+02  0.20000038239E+02 0.  0.
         12    1    1    2    0    0 -0.17546799756E+02  0.14454331233E+02 -0.36970321513E+02  0.43400720569E+02  0.00000000000E+00 0. -1.
         11    1    3    3    0    0 -0.24975292453E+01 -0.61122762727E+01  0.12675051280E+02  0.14291763319E+02  0.51100000000E-03 0. -1.
        -11    1    3    3    0    0  0.13627131905E+02 -0.39922565733E+01  0.20301590694E+02  0.24774814257E+02  0.51100000000E-03 0.  1.
        -12    1    3    3    0    0  0.64171970964E+01 -0.43497983871E+01  0.39936795396E+01  0.87207018552E+01  0.00000000000E+00 0.  1.
</event>
<event>
 7    1  0.4818508E-009  0.4778727E+02  0.7816164E-02  0.1312668E+00
        -11   -1    0    0    0    0  0.00000000000E+00  0.00000000000E+00  0.45593999997E+02  0.45594000000E+02  0.51100000000E-03 0. -1.
         11   -1    0    0    0    0 -0.00000000000E+00 -0.00000000000E+00 -0.45593999997E+02  0.45594000000E+02  0.51100000000E-03 0.  1.
    9900012    2    1    2    0    0  0.10598414342E+02 -0.41863719854E+02 -0.43273222630E+01  0.47787272534E+02  0.20000006793E+02 0.  0.
         12    1    1    2    0    0 -0.10598414342E+02  0.41863719854E+02  0.43273222630E+01  0.43400727466E+02  0.00000000000E+00 0. -1.
         11    1    3    3    0    0 -0.89448005532E+00  0.18263644419E-01 -0.76521606783E+00  0.11772782261E+01  0.51100000000E-03 0. -1.
        -11    1    3    3    0    0 -0.53798041528E+00 -0.19467977805E+02  0.43769620950E+01  0.19961196863E+02  0.51100000000E-03 0.  1.
        -12    1    3    3    0    0  0.12030874813E+02 -0.22414005693E+02 -0.79390682902E+01  0.26648797445E+02  0.00000000000E+00 0.  1.
</event>
<event>
 7    1  0.4818508E-009  0.4778727E+02  0.7816164E-02  0.1312668E+00
        -11   -1    0    0    0    0  0.00000000000E+00  0.00000000000E+00  0.45593999997E+02  0.45594000000E+02  0.51100000000E-03 0.  1.
         11   -1    0    0    0    0 -0.00000000000E+00 -0.00000000000E+00 -0.45593999997E+02  0.45594000000E+02  0.51100000000E-03 0. -1.
    9900012    2    1    2    0    0 -0.34553161180E+02 -0.11447032260E+02  0.23636152857E+02  0.47787271700E+02  0.20000002990E+02 0.  0.
         12    1    1    2    0    0  0.34553161180E+02  0.11447032260E+02 -0.23636152857E+02  0.43400728300E+02  0.00000000000E+00 0. -1.
         11    1    3    3    0    0  0.68215746998E+00  0.25821726139E+01  0.27209486175E+01  0.38126783056E+01  0.51100000000E-03 0. -1.
        -11    1    3    3    0    0 -0.20016478687E+02 -0.49748966654E+01  0.83036670068E+01  0.22234205672E+02  0.51100000000E-03 0.  1.
        -12    1    3    3    0    0 -0.15218839963E+02 -0.90543082088E+01  0.12611537233E+02  0.21740387722E+02  0.00000000000E+00 0.  1.
</event>
<event>
 7    1  0.4818508E-009  0.4778727E+02  0.7816164E-02  0.1312668E+00
        -11   -1    0    0    0    0  0.00000000000E+00  0.00000000000E+00  0.45593999997E+02  0.45594000000E+02  0.51100000000E-03 0. -1.
         11   -1    0    0    0    0 -0.00000000000E+00 -0.00000000000E+00 -0.45593999997E+02  0.45594000000E+02  0.51100000000E-03 0.  1.
    9900012    2    1    2    0    0  0.18503872141E+02  0.38353208312E+02 -0.83822051453E+01  0.47787271491E+02  0.20000002035E+02 0.  0.
         12    1    1    2    0    0 -0.18503872141E+02 -0.38353208312E+02  0.83822051453E+01  0.43400728509E+02  0.00000000000E+00 0. -1.
         11    1    3    3    0    0  0.35327186401E+01  0.41223917680E+01 -0.65158893418E+01  0.84812162486E+01  0.51100000000E-03 0. -1.
        -11    1    3    3    0    0  0.14240801015E+02  0.35244204797E+02 -0.18136938086E+01  0.38055799437E+02  0.51100000000E-03 0.  1.
        -12    1    3    3    0    0  0.73035248548E+00 -0.10133882526E+01 -0.52621994890E-01  0.12502558050E+01  0.00000000000E+00 0.  1.
</event>
<event>
 7    1  0.4818508E-009  0.4778727E+02  0.7816164E-02  0.1312668E+00
        -11   -1    0    0    0    0  0.00000000000E+00  0.00000000000E+00  0.45593999997E+02  0.45594000000E+02  0.51100000000E-03 0.  1.
         11   -1    0    0    0    0 -0.00000000000E+00 -0.00000000000E+00 -0.45593999997E+02  0.45594000000E+02  0.51100000000E-03 0. -1.
    9900012    2    1    2    0    0  0.24264727892E+02  0.57476478263E+01  0.35521973647E+02  0.47787273197E+02  0.20000009816E+02 0.  0.
         12    1    1    2    0    0 -0.24264727892E+02 -0.57476478263E+01 -0.35521973647E+02  0.43400726803E+02  0.00000000000E+00 0. -1.
         11    1    3    3    0    0  0.11731768789E+02  0.99930112314E+01  0.91291141589E+01  0.17911878684E+02  0.51100000000E-03 0. -1.
        -11    1    3    3    0    0  0.95808987996E+01 -0.42018726324E+01  0.16376140833E+02  0.19432636061E+02  0.51100000000E-03 0.  1.
        -12    1    3    3    0    0  0.29520603028E+01 -0.43490772779E-01  0.10016718656E+02  0.10442758453E+02  0.00000000000E+00 0.  1.
</event>
<event>
 7    1  0.4818508E-009  0.4778727E+02  0.7816164E-02  0.1312668E+00
        -11   -1    0    0    0    0  0.00000000000E+00  0.00000000000E+00  0.45593999997E+02  0.45594000000E+02  0.51100000000E-03 0.  1.
         11   -1    0    0    0    0 -0.00000000000E+00 -0.00000000000E+00 -0.45593999997E+02  0.45594000000E+02  0.51100000000E-03 0. -1.
    9900012    2    1    2    0    0  0.11210422365E+02 -0.50906796216E+01  0.41617724673E+02  0.47787267338E+02  0.19999983102E+02 0.  0.
         12    1    1    2    0    0 -0.11210422365E+02  0.50906796216E+01 -0.41617724673E+02  0.43400732662E+02  0.00000000000E+00 0. -1.
         11    1    3    3    0    0 -0.57812546223E+00 -0.66558632431E+01  0.22680133222E+02  0.23643671199E+02  0.51100000000E-03 0. -1.
        -11    1    3    3    0    0  0.58376141736E+01  0.20257574496E+01  0.16635985985E+02  0.17746477466E+02  0.51100000000E-03 0.  1.
         12    1    3    3    0    0  0.59509336532E+01 -0.46057382816E+00  0.23016054659E+01  0.63971186730E+01  0.00000000000E+00 0. -1.
</event>
<event>
 7    1  0.4818508E-009  0.4778727E+02  0.7816164E-02  0.1312668E+00
        -11   -1    0    0    0    0  0.00000000000E+00  0.00000000000E+00  0.45593999997E+02  0.45594000000E+02  0.51100000000E-03 0.  1.
         11   -1    0    0    0    0 -0.00000000000E+00 -0.00000000000E+00 -0.45593999997E+02  0.45594000000E+02  0.51100000000E-03 0. -1.
    9900012    2    1    2    0    0  0.22826934484E+02  0.18680566136E+02  0.31836940519E+02  0.47787271081E+02  0.20000000167E+02 0.  0.
         12    1    1    2    0    0 -0.22826934484E+02 -0.18680566136E+02 -0.31836940519E+02  0.43400728919E+02  0.00000000000E+00 0. -1.
         11    1    3    3    0    0  0.56328069613E+01  0.16809116242E+02  0.12892752082E+02  0.21920263676E+02  0.51100000000E-03 0. -1.
        -11    1    3    3    0    0  0.62261812017E+01  0.41948325869E+00  0.46034125177E+01  0.77545280727E+01  0.51100000000E-03 0.  1.
         12    1    3    3    0    0  0.10967946321E+02  0.14519666349E+01  0.14340775920E+02  0.18112479333E+02  0.00000000000E+00 0. -1.
</event>
<event>
 7    1  0.4818508E-009  0.4778727E+02  0.7816164E-02  0.1312668E+00
        -11   -1    0    0    0    0  0.00000000000E+00  0.00000000000E+00  0.45593999997E+02  0.45594000000E+02  0.51100000000E-03 0.  1.
         11   -1    0    0    0    0 -0.00000000000E+00 -0.00000000000E+00 -0.45593999997E+02  0.45594000000E+02  0.51100000000E-03 0. -1.
    9900012    2    1    2    0    0 -0.16237843412E+02  0.16576753722E+01  0.40214520828E+02  0.47787272682E+02  0.20000007466E+02 0.  0.
         12    1    1    2    0    0  0.16237843412E+02 -0.16576753722E+01 -0.40214520828E+02  0.43400727318E+02  0.00000000000E+00 0. -1.
         11    1    3    3    0    0 -0.10845856715E+02  0.64968161457E+01  0.16319876110E+02  0.20644117429E+02  0.51100000000E-03 0. -1.
        -11    1    3    3    0    0 -0.13140259164E+01 -0.44848630735E+01  0.22243864646E+02  0.22729500116E+02  0.51100000000E-03 0.  1.
        -12    1    3    3    0    0 -0.40779607812E+01 -0.35427769990E+00  0.16507800722E+01  0.44136551370E+01  0.00000000000E+00 0.  1.
</event>
<event>
 7    1  0.4818508E-009  0.4778727E+02  0.7816164E-02  0.1312668E+00
        -11   -1    0    0    0    0  0.00000000000E+00  0.00000000000E+00  0.45593999997E+02  0.45594000000E+02  0.51100000000E-03 0.  1.
         11   -1    0    0    0    0 -0.00000000000E+00 -0.00000000000E+00 -0.45593999997E+02  0.45594000000E+02  0.51100000000E-03 0. -1.
    9900012    2    1    2    0    0  0.11843946543E+02  0.96158769176E+01  0.40631010652E+02  0.47787272066E+02  0.20000004659E+02 0.  0.
         12    1    1    2    0    0 -0.11843946543E+02 -0.96158769176E+01 -0.40631010652E+02  0.43400727934E+02  0.00000000000E+00 0. -1.
         11    1    3    3    0    0  0.15818813222E+01  0.34147242819E+01 -0.17683819531E+00  0.37674875511E+01  0.51100000000E-03 0. -1.
        -11    1    3    3    0    0  0.57661007408E+01  0.10325836768E+01  0.33479922721E+02  0.33988518244E+02  0.51100000000E-03 0.  1.
        -12    1    3    3    0    0  0.44959644797E+01  0.51685689588E+01  0.73279261263E+01  0.10031266271E+02  0.00000000000E+00 0.  1.
</event>
<event>
 7    1  0.4818508E-009  0.4778727E+02  0.7816164E-02  0.1312668E+00
        -11   -1    0    0    0    0  0.00000000000E+00  0.00000000000E+00  0.45593999997E+02  0.45594000000E+02  0.51100000000E-03 0.  1.
         11   -1    0    0    0    0 -0.00000000000E+00 -0.00000000000E+00 -0.45593999997E+02  0.45594000000E+02  0.51100000000E-03 0. -1.
    9900012    2    1    2    0    0 -0.24820771432E+02  0.33999708876E+02  0.10562786206E+02  0.47787270160E+02  0.19999995969E+02 0.  0.
         12    1    1    2    0    0  0.24820771432E+02 -0.33999708876E+02 -0.10562786206E+02  0.43400729840E+02  0.00000000000E+00 0. -1.
         11    1    3    3    0    0 -0.21607523630E+01  0.26694226394E+00 -0.19436411478E+01  0.29185356121E+01  0.51100000000E-03 0. -1.
        -11    1    3    3    0    0 -0.24541746904E+02  0.32758156821E+02  0.11461658819E+02  0.42506044306E+02  0.51100000000E-03 0.  1.
        -12    1    3    3    0    0  0.18817278346E+01  0.97460979135E+00  0.10447685353E+01  0.23626902423E+01  0.00000000000E+00 0.  1.
</event>
<event>
 7    1  0.4818508E-009  0.4778727E+02  0.7816164E-02  0.1312668E+00
        -11   -1    0    0    0    0  0.00000000000E+00  0.00000000000E+00  0.45593999997E+02  0.45594000000E+02  0.51100000000E-03 0.  1.
         11   -1    0    0    0    0 -0.00000000000E+00 -0.00000000000E+00 -0.45593999997E+02  0.45594000000E+02  0.51100000000E-03 0. -1.
    9900012    2    1    2    0    0 -0.48113445059E+01  0.43121855625E+02 -0.98990933141E+00  0.47787269718E+02  0.19999993952E+02 0.  0.
         12    1    1    2    0    0  0.48113445059E+01 -0.43121855625E+02  0.98990933141E+00  0.43400730282E+02  0.00000000000E+00 0. -1.
         11    1    3    3    0    0  0.67980161161E+01  0.16375192653E+02 -0.12987746043E+01  0.17777704387E+02  0.51100000000E-03 0. -1.
        -11    1    3    3    0    0 -0.10848592431E+02  0.20474739254E+02 -0.20589308408E+01  0.23262547189E+02  0.51100000000E-03 0.  1.
        -12    1    3    3    0    0 -0.76076819103E+00  0.62719237188E+01  0.23677961137E+01  0.67470181422E+01  0.00000000000E+00 0.  1.
</event>
<event>
 7    1  0.4818508E-009  0.4778727E+02  0.7816164E-02  0.1312668E+00
        -11   -1    0    0    0    0  0.00000000000E+00  0.00000000000E+00  0.45593999997E+02  0.45594000000E+02  0.51100000000E-03 0. -1.
         11   -1    0    0    0    0 -0.00000000000E+00 -0.00000000000E+00 -0.45593999997E+02  0.45594000000E+02  0.51100000000E-03 0.  1.
    9900012    2    1    2    0    0 -0.25357169342E+02  0.28839054396E+02 -0.20222417697E+02  0.47787271054E+02  0.20000000044E+02 0.  0.
         12    1    1    2    0    0  0.25357169342E+02 -0.28839054396E+02  0.20222417697E+02  0.43400728946E+02  0.00000000000E+00 0. -1.
         11    1    3    3    0    0 -0.11010671539E+02  0.89980662682E+01  0.18524736219E+00  0.14220914217E+02  0.51100000000E-03 0. -1.
        -11    1    3    3    0    0 -0.11139451769E+02  0.19012882254E+02 -0.20709950866E+02  0.30240356189E+02  0.51100000000E-03 0.  1.
        -12    1    3    3    0    0 -0.32070460343E+01  0.82810587432E+00  0.30228580683E+00  0.33260006485E+01  0.00000000000E+00 0.  1.
</event>
<event>
 7    1  0.4818508E-009  0.4778728E+02  0.7816164E-02  0.1312668E+00
        -11   -1    0    0    0    0  0.00000000000E+00  0.00000000000E+00  0.45593999997E+02  0.45594000000E+02  0.51100000000E-03 0.  1.
         11   -1    0    0    0    0 -0.00000000000E+00 -0.00000000000E+00 -0.45593999997E+02  0.45594000000E+02  0.51100000000E-03 0. -1.
    9900012    2    1    2    0    0 -0.63354387472E+01 -0.23151406146E+02  0.36159334392E+02  0.47787275878E+02  0.20000022039E+02 0.  0.
         12    1    1    2    0    0  0.63354387472E+01  0.23151406146E+02 -0.36159334392E+02  0.43400724122E+02  0.00000000000E+00 0. -1.
         11    1    3    3    0    0 -0.68700254609E+01 -0.52244662054E+01  0.15822671959E+02  0.18023574705E+02  0.51100000000E-03 0.  1.
        -11    1    3    3    0    0  0.36483147069E+01 -0.17891972501E+02  0.15208144478E+02  0.23763849413E+02  0.51100000000E-03 0. -1.
         12    1    3    3    0    0 -0.31137279932E+01 -0.34967438960E-01  0.51285179537E+01  0.59998517598E+01  0.00000000000E+00 0. -1.
</event>
<event>
 7    1  0.4818508E-009  0.4778727E+02  0.7816164E-02  0.1312668E+00
        -11   -1    0    0    0    0  0.00000000000E+00  0.00000000000E+00  0.45593999997E+02  0.45594000000E+02  0.51100000000E-03 0.  1.
         11   -1    0    0    0    0 -0.00000000000E+00 -0.00000000000E+00 -0.45593999997E+02  0.45594000000E+02  0.51100000000E-03 0. -1.
    9900012    2    1    2    0    0 -0.30908132721E+02 -0.96393828886E+00  0.30452932594E+02  0.47787274788E+02  0.20000017070E+02 0.  0.
         12    1    1    2    0    0  0.30908132721E+02  0.96393828886E+00 -0.30452932594E+02  0.43400725212E+02  0.00000000000E+00 0. -1.
         11    1    3    3    0    0 -0.39457041110E+01 -0.25472042850E+01 -0.68688636069E+00  0.47464348447E+01  0.51100000000E-03 0. -1.
        -11    1    3    3    0    0 -0.19369276102E+02 -0.29334210931E+01  0.26802595978E+02  0.33198689243E+02  0.51100000000E-03 0.  1.
         12    1    3    3    0    0 -0.75931525078E+01  0.45166870893E+01  0.43372229771E+01  0.98421507010E+01  0.00000000000E+00 0. -1.
</event>
<event>
 7    1  0.4818508E-009  0.4778727E+02  0.7816164E-02  0.1312668E+00
        -11   -1    0    0    0    0  0.00000000000E+00  0.00000000000E+00  0.45593999997E+02  0.45594000000E+02  0.51100000000E-03 0.  1.
         11   -1    0    0    0    0 -0.00000000000E+00 -0.00000000000E+00 -0.45593999997E+02  0.45594000000E+02  0.51100000000E-03 0. -1.
    9900012    2    1    2    0    0 -0.30561708782E+02 -0.30756266128E+02  0.19123840263E+01  0.47787272328E+02  0.20000005852E+02 0.  0.
         12    1    1    2    0    0  0.30561708782E+02  0.30756266128E+02 -0.19123840263E+01  0.43400727672E+02  0.00000000000E+00 0. -1.
         11    1    3    3    0    0 -0.23203353093E+02 -0.11597919685E+02 -0.13584261683E+01  0.25976001573E+02  0.51100000000E-03 0. -1.
        -11    1    3    3    0    0 -0.40936309924E+01 -0.41593922318E+01  0.27522078770E+01  0.64523644425E+01  0.51100000000E-03 0.  1.
         12    1    3    3    0    0 -0.32647246964E+01 -0.14998954211E+02  0.51860231755E+00  0.15358906313E+02  0.00000000000E+00 0. -1.
</event>
<event>
 7    1  0.4818508E-009  0.4778727E+02  0.7816164E-02  0.1312668E+00
        -11   -1    0    0    0    0  0.00000000000E+00  0.00000000000E+00  0.45593999997E+02  0.45594000000E+02  0.51100000000E-03 0. -1.
         11   -1    0    0    0    0 -0.00000000000E+00 -0.00000000000E+00 -0.45593999997E+02  0.45594000000E+02  0.51100000000E-03 0.  1.
    9900012    2    1    2    0    0  0.36992314329E+02  0.18419183168E+02 -0.13263707624E+02  0.47787267657E+02  0.19999984553E+02 0.  0.
         12    1    1    2    0    0 -0.36992314329E+02 -0.18419183168E+02  0.13263707624E+02  0.43400732343E+02  0.00000000000E+00 0. -1.
         11    1    3    3    0    0  0.76686827439E+01  0.46869275205E+01  0.52763509305E+01  0.10421893495E+02  0.51100000000E-03 0. -1.
        -11    1    3    3    0    0  0.27623211676E+02  0.12389817882E+02 -0.17339183323E+02  0.34888346035E+02  0.51100000000E-03 0.  1.
         12    1    3    3    0    0  0.17004199092E+01  0.13424377651E+01 -0.12008752315E+01  0.24770281271E+01  0.00000000000E+00 0. -1.
</event>
<event>
 7    1  0.4818508E-009  0.4778728E+02  0.7816164E-02  0.1312668E+00
        -11   -1    0    0    0    0  0.00000000000E+00  0.00000000000E+00  0.45593999997E+02  0.45594000000E+02  0.51100000000E-03 0.  1.
         11   -1    0    0    0    0 -0.00000000000E+00 -0.00000000000E+00 -0.45593999997E+02  0.45594000000E+02  0.51100000000E-03 0. -1.
    9900012    2    1    2    0    0 -0.26585128096E+02 -0.32932651673E+02  0.96069822884E+01  0.47787277762E+02  0.20000030628E+02 0.  0.
         12    1    1    2    0    0  0.26585128096E+02  0.32932651673E+02 -0.96069822884E+01  0.43400722238E+02  0.00000000000E+00 0. -1.
         11    1    3    3    0    0 -0.22759995774E+02 -0.27768522769E+02  0.22465022412E+01  0.35974366388E+02  0.51100000000E-03 0. -1.
        -11    1    3    3    0    0  0.30611911337E+00 -0.37215836376E+01  0.62788836646E+01  0.73053592668E+01  0.51100000000E-03 0.  1.
         12    1    3    3    0    0 -0.41312514354E+01 -0.14425452662E+01  0.10815963826E+01  0.45075521075E+01  0.00000000000E+00 0. -1.
</event>
<event>
 7    1  0.4818508E-009  0.4778727E+02  0.7816164E-02  0.1312668E+00
        -11   -1    0    0    0    0  0.00000000000E+00  0.00000000000E+00  0.45593999997E+02  0.45594000000E+02  0.51100000000E-03 0.  1.
         11   -1    0    0    0    0 -0.00000000000E+00 -0.00000000000E+00 -0.45593999997E+02  0.45594000000E+02  0.51100000000E-03 0. -1.
    9900012    2    1    2    0    0  0.16364853423E+02 -0.35454048613E+02  0.18942695486E+02  0.47787266102E+02  0.19999977465E+02 0.  0.
         12    1    1    2    0    0 -0.16364853423E+02  0.35454048613E+02 -0.18942695486E+02  0.43400733898E+02  0.00000000000E+00 0. -1.
         11    1    3    3    0    0  0.33444010005E+01 -0.25562662625E+01 -0.30610100255E+01  0.52047380236E+01  0.51100000000E-03 0. -1.
        -11    1    3    3    0    0  0.13385451389E+02 -0.27531271558E+02  0.16072422740E+02  0.34575482577E+02  0.51100000000E-03 0.  1.
         12    1    3    3    0    0 -0.36499896662E+00 -0.53665107933E+01  0.59312827712E+01  0.80070455008E+01  0.00000000000E+00 0. -1.
</event>
<event>
 7    1  0.4818508E-009  0.4778727E+02  0.7816164E-02  0.1312668E+00
        -11   -1    0    0    0    0  0.00000000000E+00  0.00000000000E+00  0.45593999997E+02  0.45594000000E+02  0.51100000000E-03 0. -1.
         11   -1    0    0    0    0 -0.00000000000E+00 -0.00000000000E+00 -0.45593999997E+02  0.45594000000E+02  0.51100000000E-03 0.  1.
    9900012    2    1    2    0    0 -0.54902435610E+01  0.43039504660E+02 -0.10398315273E+01  0.47787274368E+02  0.20000015154E+02 0.  0.
         12    1    1    2    0    0  0.54902435610E+01 -0.43039504660E+02  0.10398315273E+01  0.43400725632E+02  0.00000000000E+00 0. -1.
         11    1    3    3    0    0 -0.45342101699E+00  0.27164220316E+02  0.60208266584E+01  0.27827159573E+02  0.51100000000E-03 0. -1.
        -11    1    3    3    0    0 -0.41091928168E+01  0.66494955462E+01  0.72814163640E+00  0.78505698601E+01  0.51100000000E-03 0.  1.
         12    1    3    3    0    0 -0.92762972724E+00  0.92257887986E+01 -0.77887998221E+01  0.12109544935E+02  0.00000000000E+00 0. -1.
</event>
<event>
 7    1  0.4818508E-009  0.4778726E+02  0.7816164E-02  0.1312668E+00
        -11   -1    0    0    0    0  0.00000000000E+00  0.00000000000E+00  0.45593999997E+02  0.45594000000E+02  0.51100000000E-03 0.  1.
         11   -1    0    0    0    0 -0.00000000000E+00 -0.00000000000E+00 -0.45593999997E+02  0.45594000000E+02  0.51100000000E-03 0. -1.
    9900012    2    1    2    0    0  0.15953724028E+02 -0.76554026994E+01  0.39629505633E+02  0.47787260173E+02  0.19999950432E+02 0.  0.
         12    1    1    2    0    0 -0.15953724028E+02  0.76554026994E+01 -0.39629505633E+02  0.43400739827E+02  0.00000000000E+00 0. -1.
         11    1    3    3    0    0  0.19531413546E+01 -0.47017467393E+01  0.15559072448E+01  0.53237234307E+01  0.51100000000E-03 0. -1.
        -11    1    3    3    0    0 -0.51009894721E+00  0.39021821951E+00  0.14926321979E+02  0.14940132505E+02  0.51100000000E-03 0.  1.
        -12    1    3    3    0    0  0.14510681620E+02 -0.33438741796E+01  0.23147276409E+02  0.27523404237E+02  0.00000000000E+00 0.  1.
</event>
<event>
 7    1  0.4818508E-009  0.4778727E+02  0.7816164E-02  0.1312668E+00
        -11   -1    0    0    0    0  0.00000000000E+00  0.00000000000E+00  0.45593999997E+02  0.45594000000E+02  0.51100000000E-03 0. -1.
         11   -1    0    0    0    0 -0.00000000000E+00 -0.00000000000E+00 -0.45593999997E+02  0.45594000000E+02  0.51100000000E-03 0.  1.
    9900012    2    1    2    0    0 -0.11519268151E+02 -0.12910831965E+02 -0.39802510343E+02  0.47787274771E+02  0.20000016993E+02 0.  0.
         12    1    1    2    0    0  0.11519268151E+02  0.12910831965E+02  0.39802510343E+02  0.43400725229E+02  0.00000000000E+00 0. -1.
         11    1    3    3    0    0 -0.94838635420E+01 -0.88625932217E+01 -0.35969603318E+02  0.38240052163E+02  0.51100000000E-03 0.  1.
        -11    1    3    3    0    0 -0.24566453722E+01 -0.11155651402E+00  0.15186788131E+01  0.28903177921E+01  0.51100000000E-03 0. -1.
        -12    1    3    3    0    0  0.42124076290E+00 -0.39366822293E+01 -0.53515858377E+01  0.66569048162E+01  0.00000000000E+00 0.  1.
</event>
<event>
 7    1  0.4843647E-009  0.4778722E+02  0.7816164E-02  0.1312668E+00
        -11   -1    0    0    0    0  0.00000000000E+00  0.00000000000E+00  0.45593999997E+02  0.45594000000E+02  0.51100000000E-03 0. -1.
         11   -1    0    0    0    0 -0.00000000000E+00 -0.00000000000E+00 -0.45593999997E+02  0.45594000000E+02  0.51100000000E-03 0.  1.
    9900012    2    1    2    0    0  0.55527988175E+01  0.12613317927E+02 -0.41154570396E+02  0.47787216270E+02  0.19999750262E+02 0.  0.
         12    1    1    2    0    0 -0.55527988175E+01 -0.12613317927E+02  0.41154570396E+02  0.43400783730E+02  0.00000000000E+00 0. -1.
         11    1    3    3    0    0 -0.56851502722E+01  0.30339091663E+01 -0.64739665322E+01  0.91344283547E+01  0.51100000000E-03 0. -1.
        -11    1    3    3    0    0  0.50701656678E+01  0.92148602712E+01 -0.17776000064E+02  0.20654452504E+02  0.51100000000E-03 0.  1.
         12    1    3    3    0    0  0.61677834219E+01  0.36454848979E+00 -0.16904603800E+02  0.17998335411E+02  0.00000000000E+00 0. -1.
</event>
<event>
 7    1  0.4818508E-009  0.4778727E+02  0.7816164E-02  0.1312668E+00
        -11   -1    0    0    0    0  0.00000000000E+00  0.00000000000E+00  0.45593999997E+02  0.45594000000E+02  0.51100000000E-03 0. -1.
         11   -1    0    0    0    0 -0.00000000000E+00 -0.00000000000E+00 -0.45593999997E+02  0.45594000000E+02  0.51100000000E-03 0.  1.
    9900012    2    1    2    0    0 -0.37811035308E+02  0.48746413926E+01 -0.20740936025E+02  0.47787274810E+02  0.20000017170E+02 0.  0.
         12    1    1    2    0    0  0.37811035308E+02 -0.48746413926E+01  0.20740936025E+02  0.43400725190E+02  0.00000000000E+00 0. -1.
         11    1    3    3    0    0 -0.79273120629E+01  0.21006111254E+01 -0.12832285761E+02  0.15228998711E+02  0.51100000000E-03 0. -1.
        -11    1    3    3    0    0 -0.25113071870E+02  0.28188595173E+00 -0.30352056315E+01  0.25297397335E+02  0.51100000000E-03 0.  1.
        -12    1    3    3    0    0 -0.47706513756E+01  0.24921443155E+01 -0.48734446331E+01  0.72608787643E+01  0.00000000000E+00 0.  1.
</event>
<event>
 7    1  0.4818508E-009  0.4778727E+02  0.7816164E-02  0.1312668E+00
        -11   -1    0    0    0    0  0.00000000000E+00  0.00000000000E+00  0.45593999997E+02  0.45594000000E+02  0.51100000000E-03 0.  1.
         11   -1    0    0    0    0 -0.00000000000E+00 -0.00000000000E+00 -0.45593999997E+02  0.45594000000E+02  0.51100000000E-03 0. -1.
    9900012    2    1    2    0    0  0.23716149860E+02 -0.39052122743E+01  0.36137471738E+02  0.47787270620E+02  0.19999998065E+02 0.  0.
         12    1    1    2    0    0 -0.23716149860E+02  0.39052122743E+01 -0.36137471738E+02  0.43400729380E+02  0.00000000000E+00 0. -1.
         11    1    3    3    0    0  0.58822009819E+01  0.66233487767E+01  0.12217077496E+02  0.15090593766E+02  0.51100000000E-03 0. -1.
        -11    1    3    3    0    0  0.84906317581E+01 -0.63313541605E+01  0.63224928190E+01  0.12334941786E+02  0.51100000000E-03 0.  1.
        -12    1    3    3    0    0  0.93433171197E+01 -0.41972068905E+01  0.17597901423E+02  0.20361735068E+02  0.00000000000E+00 0.  1.
</event>
<event>
 7    1  0.4818508E-009  0.4778727E+02  0.7816164E-02  0.1312668E+00
        -11   -1    0    0    0    0  0.00000000000E+00  0.00000000000E+00  0.45593999997E+02  0.45594000000E+02  0.51100000000E-03 0. -1.
         11   -1    0    0    0    0 -0.00000000000E+00 -0.00000000000E+00 -0.45593999997E+02  0.45594000000E+02  0.51100000000E-03 0.  1.
    9900012    2    1    2    0    0 -0.10586438066E+02 -0.16236222997E+02 -0.38832146616E+02  0.47787271677E+02  0.20000002885E+02 0.  0.
         12    1    1    2    0    0  0.10586438066E+02  0.16236222997E+02  0.38832146616E+02  0.43400728323E+02  0.00000000000E+00 0. -1.
         11    1    3    3    0    0  0.31804592757E+01 -0.53569831376E+01 -0.19746241912E+02  0.20705715623E+02  0.51100000000E-03 0. -1.
        -11    1    3    3    0    0 -0.26963144759E+01 -0.42501405585E+01 -0.10320234114E+02  0.11482205317E+02  0.51100000000E-03 0.  1.
         12    1    3    3    0    0 -0.11070582866E+02 -0.66290993010E+01 -0.87656705903E+01  0.15599350737E+02  0.00000000000E+00 0. -1.
</event>
<event>
 7    1  0.4818508E-009  0.4778727E+02  0.7816164E-02  0.1312668E+00
        -11   -1    0    0    0    0  0.00000000000E+00  0.00000000000E+00  0.45593999997E+02  0.45594000000E+02  0.51100000000E-03 0. -1.
         11   -1    0    0    0    0 -0.00000000000E+00 -0.00000000000E+00 -0.45593999997E+02  0.45594000000E+02  0.51100000000E-03 0.  1.
    9900012    2    1    2    0    0  0.41181551536E+01 -0.42502075276E+02  0.77612945642E+01  0.47787270767E+02  0.19999998735E+02 0.  0.
         12    1    1    2    0    0 -0.41181551536E+01  0.42502075276E+02 -0.77612945642E+01  0.43400729233E+02  0.00000000000E+00 0. -1.
         11    1    3    3    0    0 -0.12364236756E+01 -0.41023688616E+01  0.68629520884E+01  0.80906294818E+01  0.51100000000E-03 0. -1.
        -11    1    3    3    0    0  0.23731560925E+00 -0.47730493745E+01  0.29583629118E+01  0.56205186957E+01  0.51100000000E-03 0.  1.
         12    1    3    3    0    0  0.51172632199E+01 -0.33626657040E+02 -0.20600204360E+01  0.34076122590E+02  0.00000000000E+00 0. -1.
</event>
<event>
 7    1  0.4818508E-009  0.4778727E+02  0.7816164E-02  0.1312668E+00
        -11   -1    0    0    0    0  0.00000000000E+00  0.00000000000E+00  0.45593999997E+02  0.45594000000E+02  0.51100000000E-03 0. -1.
         11   -1    0    0    0    0 -0.00000000000E+00 -0.00000000000E+00 -0.45593999997E+02  0.45594000000E+02  0.51100000000E-03 0.  1.
    9900012    2    1    2    0    0 -0.14826640306E+02 -0.35250996872E+02  0.20522215591E+02  0.47787269868E+02  0.19999994634E+02 0.  0.
         12    1    1    2    0    0  0.14826640306E+02  0.35250996872E+02 -0.20522215591E+02  0.43400730132E+02  0.00000000000E+00 0. -1.
         11    1    3    3    0    0 -0.10168595411E+02 -0.20273883623E+02  0.56673828205E+01  0.23378407090E+02  0.51100000000E-03 0.  1.
        -11    1    3    3    0    0 -0.58804235541E+00 -0.12284458726E+01  0.86988087004E+01  0.88047797327E+01  0.51100000000E-03 0. -1.
        -12    1    3    3    0    0 -0.40700025403E+01 -0.13748667377E+02  0.61560240701E+01  0.15604083045E+02  0.00000000000E+00 0.  1.
</event>
<event>
 7    1  0.4818508E-009  0.4778727E+02  0.7816164E-02  0.1312668E+00
        -11   -1    0    0    0    0  0.00000000000E+00  0.00000000000E+00  0.45593999997E+02  0.45594000000E+02  0.51100000000E-03 0.  1.
         11   -1    0    0    0    0 -0.00000000000E+00 -0.00000000000E+00 -0.45593999997E+02  0.45594000000E+02  0.51100000000E-03 0. -1.
    9900012    2    1    2    0    0  0.15284107282E+02  0.33074771810E+02  0.23581322978E+02  0.47787271215E+02  0.20000000778E+02 0.  0.
         12    1    1    2    0    0 -0.15284107282E+02 -0.33074771810E+02 -0.23581322978E+02  0.43400728785E+02  0.00000000000E+00 0. -1.
         11    1    3    3    0    0  0.89976298748E+01  0.61831795735E+01 -0.68267680125E-01  0.10917587359E+02  0.51100000000E-03 0. -1.
        -11    1    3    3    0    0 -0.62605649065E+00  0.38258512520E+01  0.54411761188E+01  0.66809791460E+01  0.51100000000E-03 0.  1.
         12    1    3    3    0    0  0.69125338978E+01  0.23065740984E+02  0.18208414539E+02  0.30188704710E+02  0.00000000000E+00 0. -1.
</event>
<event>
 7    1  0.4818508E-009  0.4778727E+02  0.7816164E-02  0.1312668E+00
        -11   -1    0    0    0    0  0.00000000000E+00  0.00000000000E+00  0.45593999997E+02  0.45594000000E+02  0.51100000000E-03 0. -1.
         11   -1    0    0    0    0 -0.00000000000E+00 -0.00000000000E+00 -0.45593999997E+02  0.45594000000E+02  0.51100000000E-03 0.  1.
    9900012    2    1    2    0    0  0.36687652136E+01 -0.37684219276E+02 -0.21214691114E+02  0.47787270286E+02  0.19999996541E+02 0.  0.
         12    1    1    2    0    0 -0.36687652136E+01  0.37684219276E+02  0.21214691114E+02  0.43400729714E+02  0.00000000000E+00 0. -1.
         11    1    3    3    0    0  0.40399138927E+01 -0.30518703285E+00  0.25890294872E+00  0.40596889515E+01  0.51100000000E-03 0. -1.
        -11    1    3    3    0    0  0.53184234596E+00 -0.28997110779E+02 -0.13025793680E+02  0.31792870130E+02  0.51100000000E-03 0.  1.
         12    1    3    3    0    0 -0.90299102504E+00 -0.83819214639E+01 -0.84478003832E+01  0.11934711204E+02  0.00000000000E+00 0. -1.
</event>
<event>
 7    1  0.4818508E-009  0.4778727E+02  0.7816164E-02  0.1312668E+00
        -11   -1    0    0    0    0  0.00000000000E+00  0.00000000000E+00  0.45593999997E+02  0.45594000000E+02  0.51100000000E-03 0.  1.
         11   -1    0    0    0    0 -0.00000000000E+00 -0.00000000000E+00 -0.45593999997E+02  0.45594000000E+02  0.51100000000E-03 0. -1.
    9900012    2    1    2    0    0 -0.27743626198E+02 -0.16489520224E+02  0.29017410526E+02  0.47787272063E+02  0.20000004643E+02 0.  0.
         12    1    1    2    0    0  0.27743626198E+02  0.16489520224E+02 -0.29017410526E+02  0.43400727937E+02  0.00000000000E+00 0. -1.
         11    1    3    3    0    0 -0.36872699588E+01  0.43083927599E+01  0.69007605536E+01  0.89318925432E+01  0.51100000000E-03 0. -1.
        -11    1    3    3    0    0 -0.14976157447E+02 -0.11143339703E+02  0.13702471361E+02  0.23156360536E+02  0.51100000000E-03 0.  1.
         12    1    3    3    0    0 -0.90801987920E+01 -0.96545732809E+01  0.84141786119E+01  0.15699018984E+02  0.00000000000E+00 0. -1.
</event>
<event>
 7    1  0.4818508E-009  0.4778732E+02  0.7816164E-02  0.1312668E+00
        -11   -1    0    0    0    0  0.00000000000E+00  0.00000000000E+00  0.45593999997E+02  0.45594000000E+02  0.51100000000E-03 0. -1.
         11   -1    0    0    0    0 -0.00000000000E+00 -0.00000000000E+00 -0.45593999997E+02  0.45594000000E+02  0.51100000000E-03 0.  1.
    9900012    2    1    2    0    0 -0.39223146750E+02 -0.18058756720E+02  0.43640325515E+01  0.47787323561E+02  0.20000239444E+02 0.  0.
         12    1    1    2    0    0  0.39223146750E+02  0.18058756720E+02 -0.43640325515E+01  0.43400676439E+02  0.00000000000E+00 0. -1.
         11    1    3    3    0    0 -0.16624953102E+02 -0.73476201929E+00  0.26796011985E+01  0.16855539259E+02  0.51100000000E-03 0. -1.
        -11    1    3    3    0    0 -0.23600378365E+02 -0.17985027763E+02  0.17930688472E+01  0.29726321312E+02  0.51100000000E-03 0.  1.
         12    1    3    3    0    0  0.10021847169E+01  0.66103306215E+00 -0.10863749420E+00  0.12054629904E+01  0.00000000000E+00 0. -1.
</event>
<event>
 7    1  0.4818508E-009  0.4778727E+02  0.7816164E-02  0.1312668E+00
        -11   -1    0    0    0    0  0.00000000000E+00  0.00000000000E+00  0.45593999997E+02  0.45594000000E+02  0.51100000000E-03 0. -1.
         11   -1    0    0    0    0 -0.00000000000E+00 -0.00000000000E+00 -0.45593999997E+02  0.45594000000E+02  0.51100000000E-03 0.  1.
    9900012    2    1    2    0    0 -0.38127082247E+02 -0.23742940906E+00 -0.20733855716E+02  0.47787267907E+02  0.19999985694E+02 0.  0.
         12    1    1    2    0    0  0.38127082247E+02  0.23742940906E+00  0.20733855716E+02  0.43400732093E+02  0.00000000000E+00 0. -1.
         11    1    3    3    0    0 -0.81755699122E+01  0.62924915209E+01 -0.32781755033E+01  0.10825055557E+02  0.51100000000E-03 0. -1.
        -11    1    3    3    0    0 -0.28982677547E+02 -0.62681303580E+01 -0.12969233894E+02  0.32364889681E+02  0.51100000000E-03 0.  1.
         12    1    3    3    0    0 -0.96883478750E+00 -0.26179057200E+00 -0.44864463186E+01  0.45973226685E+01  0.00000000000E+00 0. -1.
</event>
<event>
 7    1  0.4818508E-009  0.4778727E+02  0.7816164E-02  0.1312668E+00
        -11   -1    0    0    0    0  0.00000000000E+00  0.00000000000E+00  0.45593999997E+02  0.45594000000E+02  0.51100000000E-03 0. -1.
         11   -1    0    0    0    0 -0.00000000000E+00 -0.00000000000E+00 -0.45593999997E+02  0.45594000000E+02  0.51100000000E-03 0.  1.
    9900012    2    1    2    0    0  0.19964258208E+02 -0.21645936574E+01 -0.38475530889E+02  0.47787267878E+02  0.19999985564E+02 0.  0.
         12    1    1    2    0    0 -0.19964258208E+02  0.21645936574E+01  0.38475530889E+02  0.43400732122E+02  0.00000000000E+00 0. -1.
         11    1    3    3    0    0  0.12161936937E+01  0.64821917909E+00 -0.57636391491E+01  0.59261160727E+01  0.51100000000E-03 0. -1.
        -11    1    3    3    0    0  0.13613085837E+02 -0.94049839203E+01 -0.27244631848E+02  0.31875379109E+02  0.51100000000E-03 0.  1.
        -12    1    3    3    0    0  0.51349786775E+01  0.65921710838E+01 -0.54672598918E+01  0.99857726962E+01  0.00000000000E+00 0.  1.
</event>
<event>
 7    1  0.4818508E-009  0.4778727E+02  0.7816164E-02  0.1312668E+00
        -11   -1    0    0    0    0  0.00000000000E+00  0.00000000000E+00  0.45593999997E+02  0.45594000000E+02  0.51100000000E-03 0.  1.
         11   -1    0    0    0    0 -0.00000000000E+00 -0.00000000000E+00 -0.45593999997E+02  0.45594000000E+02  0.51100000000E-03 0. -1.
    9900012    2    1    2    0    0 -0.17453321906E+02 -0.14079908049E+02  0.37158594284E+02  0.47787269760E+02  0.19999994142E+02 0.  0.
         12    1    1    2    0    0  0.17453321906E+02  0.14079908049E+02 -0.37158594284E+02  0.43400730240E+02  0.00000000000E+00 0. -1.
         11    1    3    3    0    0  0.53252002386E+00 -0.93624616817E+01  0.62459456749E+01  0.11267258049E+02  0.51100000000E-03 0. -1.
        -11    1    3    3    0    0 -0.17418430541E+02 -0.39910103047E+01  0.26173077133E+02  0.31691636951E+02  0.51100000000E-03 0.  1.
         12    1    3    3    0    0 -0.56741138949E+00 -0.72643606227E+00  0.47395714760E+01  0.48283747590E+01  0.00000000000E+00 0. -1.
</event>
<event>
 7    1  0.4818508E-009  0.4778727E+02  0.7816164E-02  0.1312668E+00
        -11   -1    0    0    0    0  0.00000000000E+00  0.00000000000E+00  0.45593999997E+02  0.45594000000E+02  0.51100000000E-03 0.  1.
         11   -1    0    0    0    0 -0.00000000000E+00 -0.00000000000E+00 -0.45593999997E+02  0.45594000000E+02  0.51100000000E-03 0. -1.
    9900012    2    1    2    0    0 -0.12521301700E+02 -0.23077534536E+01  0.41491141980E+02  0.47787267459E+02  0.19999983653E+02 0.  0.
         12    1    1    2    0    0  0.12521301700E+02  0.23077534536E+01 -0.41491141980E+02  0.43400732541E+02  0.00000000000E+00 0. -1.
         11    1    3    3    0    0 -0.56353522354E+01 -0.79048726070E+01  0.10014404840E+02  0.13947491183E+02  0.51100000000E-03 0. -1.
        -11    1    3    3    0    0 -0.75235252972E+01  0.77969869006E+00  0.19042431922E+02  0.20489645598E+02  0.51100000000E-03 0.  1.
         12    1    3    3    0    0  0.63757583271E+00  0.48174204633E+01  0.12434305218E+02  0.13350130678E+02  0.00000000000E+00 0. -1.
</event>
<event>
 7    1  0.4947818E-009  0.4778727E+02  0.7816164E-02  0.1312668E+00
        -11   -1    0    0    0    0  0.00000000000E+00  0.00000000000E+00  0.45593999997E+02  0.45594000000E+02  0.51100000000E-03 0. -1.
         11   -1    0    0    0    0 -0.00000000000E+00 -0.00000000000E+00 -0.45593999997E+02  0.45594000000E+02  0.51100000000E-03 0.  1.
    9900012    2    1    2    0    0 -0.27791116663E+01 -0.30282268728E+02 -0.30965852349E+02  0.47787271058E+02  0.20000000063E+02 0.  0.
         12    1    1    2    0    0  0.27791116663E+01  0.30282268728E+02  0.30965852349E+02  0.43400728942E+02  0.00000000000E+00 0. -1.
         11    1    3    3    0    0  0.14399517744E+01 -0.69729097307E+01  0.32355392949E+00  0.71273851188E+01  0.51100000000E-03 0. -1.
        -11    1    3    3    0    0 -0.74008592779E+01 -0.20189301458E+02 -0.25583296505E+02  0.33419839493E+02  0.51100000000E-03 0.  1.
        -12    1    3    3    0    0  0.31817958373E+01 -0.31200575392E+01 -0.57061097740E+01  0.72400464467E+01  0.00000000000E+00 0.  1.
</event>
<event>
 7    1  0.4818508E-009  0.4778727E+02  0.7816164E-02  0.1312668E+00
        -11   -1    0    0    0    0  0.00000000000E+00  0.00000000000E+00  0.45593999997E+02  0.45594000000E+02  0.51100000000E-03 0. -1.
         11   -1    0    0    0    0 -0.00000000000E+00 -0.00000000000E+00 -0.45593999997E+02  0.45594000000E+02  0.51100000000E-03 0.  1.
    9900012    2    1    2    0    0  0.55075187550E+01  0.27108715164E+02 -0.33442608461E+02  0.47787271188E+02  0.20000000655E+02 0.  0.
         12    1    1    2    0    0 -0.55075187550E+01 -0.27108715164E+02  0.33442608461E+02  0.43400728812E+02  0.00000000000E+00 0. -1.
         11    1    3    3    0    0  0.74133344381E+01  0.99501321428E+01 -0.61081791355E+01  0.13830130504E+02  0.51100000000E-03 0. -1.
        -11    1    3    3    0    0 -0.46266736737E+01  0.16627568362E+02 -0.22174288289E+02  0.28099487545E+02  0.51100000000E-03 0.  1.
        -12    1    3    3    0    0  0.27208579906E+01  0.53101465973E+00 -0.51601410373E+01  0.58576531392E+01  0.00000000000E+00 0.  1.
</event>
<event>
 7    1  0.4818508E-009  0.4778727E+02  0.7816164E-02  0.1312668E+00
        -11   -1    0    0    0    0  0.00000000000E+00  0.00000000000E+00  0.45593999997E+02  0.45594000000E+02  0.51100000000E-03 0. -1.
         11   -1    0    0    0    0 -0.00000000000E+00 -0.00000000000E+00 -0.45593999997E+02  0.45594000000E+02  0.51100000000E-03 0.  1.
    9900012    2    1    2    0    0  0.31860271213E+02 -0.17175508868E+02  0.23948866963E+02  0.47787271717E+02  0.20000003069E+02 0.  0.
         12    1    1    2    0    0 -0.31860271213E+02  0.17175508868E+02 -0.23948866963E+02  0.43400728283E+02  0.00000000000E+00 0. -1.
         11    1    3    3    0    0 -0.33652617533E+00 -0.44009771169E+01 -0.12869145887E+01  0.45976079509E+01  0.51100000000E-03 0. -1.
        -11    1    3    3    0    0  0.22136907540E+02 -0.91635324102E+01  0.20362719763E+02  0.31442858618E+02  0.51100000000E-03 0.  1.
         12    1    3    3    0    0  0.10059889849E+02 -0.36109993409E+01  0.48730617890E+01  0.11746805149E+02  0.00000000000E+00 0. -1.
</event>
<event>
 7    1  0.4818508E-009  0.4778727E+02  0.7816164E-02  0.1312668E+00
        -11   -1    0    0    0    0  0.00000000000E+00  0.00000000000E+00  0.45593999997E+02  0.45594000000E+02  0.51100000000E-03 0. -1.
         11   -1    0    0    0    0 -0.00000000000E+00 -0.00000000000E+00 -0.45593999997E+02  0.45594000000E+02  0.51100000000E-03 0.  1.
    9900012    2    1    2    0    0 -0.13912984660E+02 -0.17734737686E+02 -0.37088157504E+02  0.47787268555E+02  0.19999988650E+02 0.  0.
         12    1    1    2    0    0  0.13912984660E+02  0.17734737686E+02  0.37088157504E+02  0.43400731445E+02  0.00000000000E+00 0. -1.
         11    1    3    3    0    0 -0.74139649280E+01 -0.29212745572E+01 -0.44975121059E+01  0.91503189232E+01  0.51100000000E-03 0. -1.
        -11    1    3    3    0    0 -0.48637791237E+01 -0.12606558430E+02 -0.33181613437E+02  0.35827379661E+02  0.51100000000E-03 0.  1.
        -12    1    3    3    0    0 -0.16352406080E+01 -0.22069046993E+01  0.59096803960E+00  0.28095699709E+01  0.00000000000E+00 0.  1.
</event>
<event>
 7    1  0.4900572E-009  0.4778727E+02  0.7816164E-02  0.1312668E+00
        -11   -1    0    0    0    0  0.00000000000E+00  0.00000000000E+00  0.45593999997E+02  0.45594000000E+02  0.51100000000E-03 0. -1.
         11   -1    0    0    0    0 -0.00000000000E+00 -0.00000000000E+00 -0.45593999997E+02  0.45594000000E+02  0.51100000000E-03 0.  1.
    9900012    2    1    2    0    0 -0.60787754768E+01 -0.14236935201E+02 -0.40546041989E+02  0.47787270096E+02  0.19999995677E+02 0.  0.
         12    1    1    2    0    0  0.60787754768E+01  0.14236935201E+02  0.40546041989E+02  0.43400729904E+02  0.00000000000E+00 0. -1.
         11    1    3    3    0    0 -0.50412139320E+01  0.80154743898E+00 -0.28567164265E+01  0.58495423075E+01  0.51100000000E-03 0. -1.
        -11    1    3    3    0    0  0.17598182441E+01 -0.12414382875E+02 -0.18369045723E+02  0.22240406998E+02  0.51100000000E-03 0.  1.
        -12    1    3    3    0    0 -0.27973797889E+01 -0.26240997653E+01 -0.19320279839E+02  0.19697320791E+02  0.00000000000E+00 0.  1.
</event>
<event>
 7    1  0.4818508E-009  0.4778727E+02  0.7816164E-02  0.1312668E+00
        -11   -1    0    0    0    0  0.00000000000E+00  0.00000000000E+00  0.45593999997E+02  0.45594000000E+02  0.51100000000E-03 0.  1.
         11   -1    0    0    0    0 -0.00000000000E+00 -0.00000000000E+00 -0.45593999997E+02  0.45594000000E+02  0.51100000000E-03 0. -1.
    9900012    2    1    2    0    0  0.76811705355E+01  0.10515138648E+02  0.41401144537E+02  0.47787270852E+02  0.19999999123E+02 0.  0.
         12    1    1    2    0    0 -0.76811705355E+01 -0.10515138648E+02 -0.41401144537E+02  0.43400729148E+02  0.00000000000E+00 0. -1.
         11    1    3    3    0    0 -0.15079172057E+01  0.64848957695E+01  0.15596692548E+02  0.16958316725E+02  0.51100000000E-03 0. -1.
        -11    1    3    3    0    0  0.11097587131E+02  0.11792105180E+01  0.11140070862E+02  0.15768581314E+02  0.51100000000E-03 0.  1.
        -12    1    3    3    0    0 -0.19084993899E+01  0.28510323605E+01  0.14664381127E+02  0.15060372813E+02  0.00000000000E+00 0.  1.
</event>
<event>
 7    1  0.4818508E-009  0.4778727E+02  0.7816164E-02  0.1312668E+00
        -11   -1    0    0    0    0  0.00000000000E+00  0.00000000000E+00  0.45593999997E+02  0.45594000000E+02  0.51100000000E-03 0.  1.
         11   -1    0    0    0    0 -0.00000000000E+00 -0.00000000000E+00 -0.45593999997E+02  0.45594000000E+02  0.51100000000E-03 0. -1.
    9900012    2    1    2    0    0  0.42211394382E+01 -0.28137290775E+02  0.32773431294E+02  0.47787274786E+02  0.20000017060E+02 0.  0.
         12    1    1    2    0    0 -0.42211394382E+01  0.28137290775E+02 -0.32773431294E+02  0.43400725214E+02  0.00000000000E+00 0. -1.
         11    1    3    3    0    0 -0.75652452492E+00  0.20192894385E+01  0.55155447147E+00  0.22257744246E+01  0.51100000000E-03 0. -1.
        -11    1    3    3    0    0 -0.11003736257E+01 -0.56710867281E+01  0.11669206769E+02  0.13020846120E+02  0.51100000000E-03 0.  1.
         12    1    3    3    0    0  0.60780375888E+01 -0.24485493485E+02  0.20552670053E+02  0.32540654242E+02  0.00000000000E+00 0. -1.
</event>
<event>
 7    1  0.4818508E-009  0.4778727E+02  0.7816164E-02  0.1312668E+00
        -11   -1    0    0    0    0  0.00000000000E+00  0.00000000000E+00  0.45593999997E+02  0.45594000000E+02  0.51100000000E-03 0.  1.
         11   -1    0    0    0    0 -0.00000000000E+00 -0.00000000000E+00 -0.45593999997E+02  0.45594000000E+02  0.51100000000E-03 0. -1.
    9900012    2    1    2    0    0  0.50363680668E+00  0.43008093561E+02  0.58028790207E+01  0.47787272279E+02  0.20000005630E+02 0.  0.
         12    1    1    2    0    0 -0.50363680668E+00 -0.43008093561E+02 -0.58028790207E+01  0.43400727721E+02  0.00000000000E+00 0. -1.
         11    1    3    3    0    0 -0.42204587920E+00  0.75284080823E+01  0.91520341123E+01  0.11858110289E+02  0.51100000000E-03 0. -1.
        -11    1    3    3    0    0 -0.14332657899E+01  0.13186213968E+02 -0.24845144245E+01  0.13494565640E+02  0.51100000000E-03 0.  1.
         12    1    3    3    0    0  0.23589484758E+01  0.22293471511E+02 -0.86464066704E+00  0.22434596350E+02  0.00000000000E+00 0. -1.
</event>
<event>
 7    1  0.4818508E-009  0.4778727E+02  0.7816164E-02  0.1312668E+00
        -11   -1    0    0    0    0  0.00000000000E+00  0.00000000000E+00  0.45593999997E+02  0.45594000000E+02  0.51100000000E-03 0. -1.
         11   -1    0    0    0    0 -0.00000000000E+00 -0.00000000000E+00 -0.45593999997E+02  0.45594000000E+02  0.51100000000E-03 0.  1.
    9900012    2    1    2    0    0 -0.30163478020E+02 -0.12375153878E+02 -0.28646871380E+02  0.47787273282E+02  0.20000010203E+02 0.  0.
         12    1    1    2    0    0  0.30163478020E+02  0.12375153878E+02  0.28646871380E+02  0.43400726718E+02  0.00000000000E+00 0. -1.
         11    1    3    3    0    0 -0.23059368262E+01 -0.58010234862E+01 -0.57968279150E+01  0.85189454906E+01  0.51100000000E-03 0. -1.
        -11    1    3    3    0    0 -0.20917082889E+02 -0.17017877461E+01 -0.85874121902E+01  0.22675186582E+02  0.51100000000E-03 0.  1.
        -12    1    3    3    0    0 -0.69404583046E+01 -0.48723426452E+01 -0.14262631275E+02  0.16593141210E+02  0.00000000000E+00 0.  1.
</event>
<event>
 7    1  0.4818508E-009  0.4778728E+02  0.7816164E-02  0.1312668E+00
        -11   -1    0    0    0    0  0.00000000000E+00  0.00000000000E+00  0.45593999997E+02  0.45594000000E+02  0.51100000000E-03 0.  1.
         11   -1    0    0    0    0 -0.00000000000E+00 -0.00000000000E+00 -0.45593999997E+02  0.45594000000E+02  0.51100000000E-03 0. -1.
    9900012    2    1    2    0    0 -0.11206960623E+02 -0.19940708077E+02  0.36883527543E+02  0.47787281008E+02  0.20000045428E+02 0.  0.
         12    1    1    2    0    0  0.11206960623E+02  0.19940708077E+02 -0.36883527543E+02  0.43400718992E+02  0.00000000000E+00 0. -1.
         11    1    3    3    0    0 -0.42194764541E+01  0.36080601463E+01  0.85086496673E+01  0.10159684985E+02  0.51100000000E-03 0. -1.
        -11    1    3    3    0    0 -0.42271498203E+01 -0.18298048517E+02  0.21648210911E+02  0.28658897589E+02  0.51100000000E-03 0.  1.
         12    1    3    3    0    0 -0.27603343483E+01 -0.52507197059E+01  0.67266669652E+01  0.89686984343E+01  0.00000000000E+00 0. -1.
</event>
<event>
 7    1  0.4818508E-009  0.4778726E+02  0.7816164E-02  0.1312668E+00
        -11   -1    0    0    0    0  0.00000000000E+00  0.00000000000E+00  0.45593999997E+02  0.45594000000E+02  0.51100000000E-03 0.  1.
         11   -1    0    0    0    0 -0.00000000000E+00 -0.00000000000E+00 -0.45593999997E+02  0.45594000000E+02  0.51100000000E-03 0. -1.
    9900012    2    1    2    0    0  0.35675669453E+02 -0.16648086485E+01  0.24659666317E+02  0.47787261278E+02  0.19999955469E+02 0.  0.
         12    1    1    2    0    0 -0.35675669453E+02  0.16648086485E+01 -0.24659666317E+02  0.43400738722E+02  0.00000000000E+00 0. -1.
         11    1    3    3    0    0  0.63597625670E+01  0.31509937965E+01  0.62463642967E+00  0.71249921225E+01  0.51100000000E-03 0. -1.
        -11    1    3    3    0    0  0.12134134185E+02 -0.12542890963E+01  0.18690883522E+02  0.22319488808E+02  0.51100000000E-03 0.  1.
        -12    1    3    3    0    0  0.17181772701E+02 -0.35615133487E+01  0.53441463662E+01  0.18342780348E+02  0.00000000000E+00 0.  1.
</event>
<event>
 7    1  0.4818508E-009  0.4778727E+02  0.7816164E-02  0.1312668E+00
        -11   -1    0    0    0    0  0.00000000000E+00  0.00000000000E+00  0.45593999997E+02  0.45594000000E+02  0.51100000000E-03 0.  1.
         11   -1    0    0    0    0 -0.00000000000E+00 -0.00000000000E+00 -0.45593999997E+02  0.45594000000E+02  0.51100000000E-03 0. -1.
    9900012    2    1    2    0    0  0.25199313737E+02 -0.12832155514E+02  0.32923451566E+02  0.47787270847E+02  0.19999999101E+02 0.  0.
         12    1    1    2    0    0 -0.25199313737E+02  0.12832155514E+02 -0.32923451566E+02  0.43400729153E+02  0.00000000000E+00 0. -1.
         11    1    3    3    0    0  0.31282889611E+01  0.30676895642E+01  0.11601313475E+01  0.45324183490E+01  0.51100000000E-03 0. -1.
        -11    1    3    3    0    0  0.21957358386E+02 -0.17298869176E+02  0.30081460008E+02  0.41064226506E+02  0.51100000000E-03 0.  1.
        -12    1    3    3    0    0  0.11366639018E+00  0.13990240969E+01  0.16818602099E+01  0.21906259922E+01  0.00000000000E+00 0.  1.
</event>
<event>
 7    1  0.4818508E-009  0.4778727E+02  0.7816164E-02  0.1312668E+00
        -11   -1    0    0    0    0  0.00000000000E+00  0.00000000000E+00  0.45593999997E+02  0.45594000000E+02  0.51100000000E-03 0.  1.
         11   -1    0    0    0    0 -0.00000000000E+00 -0.00000000000E+00 -0.45593999997E+02  0.45594000000E+02  0.51100000000E-03 0. -1.
    9900012    2    1    2    0    0 -0.41967858401E+02  0.11051093445E+02 -0.44233097720E+00  0.47787268879E+02  0.19999990127E+02 0.  0.
         12    1    1    2    0    0  0.41967858401E+02 -0.11051093445E+02  0.44233097720E+00  0.43400731121E+02  0.00000000000E+00 0. -1.
         11    1    3    3    0    0 -0.27654704833E+01 -0.18879994376E+01 -0.27875149497E+01  0.43569035710E+01  0.51100000000E-03 0. -1.
        -11    1    3    3    0    0 -0.26532880343E+02  0.14993446198E+02  0.26553629005E+01  0.30591634814E+02  0.51100000000E-03 0.  1.
        -12    1    3    3    0    0 -0.12669507575E+02 -0.20543533151E+01 -0.31017892797E+00  0.12838730494E+02  0.00000000000E+00 0.  1.
</event>
<event>
 7    1  0.4818508E-009  0.4778727E+02  0.7816164E-02  0.1312668E+00
        -11   -1    0    0    0    0  0.00000000000E+00  0.00000000000E+00  0.45593999997E+02  0.45594000000E+02  0.51100000000E-03 0.  1.
         11   -1    0    0    0    0 -0.00000000000E+00 -0.00000000000E+00 -0.45593999997E+02  0.45594000000E+02  0.51100000000E-03 0. -1.
    9900012    2    1    2    0    0 -0.17045515691E+01 -0.10735241873E+02  0.42017526860E+02  0.47787268698E+02  0.19999989300E+02 0.  0.
         12    1    1    2    0    0  0.17045515691E+01  0.10735241873E+02 -0.42017526860E+02  0.43400731302E+02  0.00000000000E+00 0. -1.
         11    1    3    3    0    0  0.56935802733E+01 -0.74147427715E+01  0.82368006476E+01  0.12459540596E+02  0.51100000000E-03 0. -1.
        -11    1    3    3    0    0 -0.67461764808E+01 -0.34110385320E+01  0.17867140534E+02  0.19400535871E+02  0.51100000000E-03 0.  1.
         12    1    3    3    0    0 -0.65195536163E+00  0.90539430309E-01  0.15913585679E+02  0.15927192230E+02  0.00000000000E+00 0. -1.
</event>
<event>
 7    1  0.4818508E-009  0.4778727E+02  0.7816164E-02  0.1312668E+00
        -11   -1    0    0    0    0  0.00000000000E+00  0.00000000000E+00  0.45593999997E+02  0.45594000000E+02  0.51100000000E-03 0.  1.
         11   -1    0    0    0    0 -0.00000000000E+00 -0.00000000000E+00 -0.45593999997E+02  0.45594000000E+02  0.51100000000E-03 0. -1.
    9900012    2    1    2    0    0 -0.22636948292E+02 -0.33589229390E+02  0.15587027960E+02  0.47787271900E+02  0.20000003901E+02 0.  0.
         12    1    1    2    0    0  0.22636948292E+02  0.33589229390E+02 -0.15587027960E+02  0.43400728100E+02  0.00000000000E+00 0. -1.
         11    1    3    3    0    0 -0.24469846666E+01 -0.75434772851E+01 -0.24086925426E+01  0.82881592368E+01  0.51100000000E-03 0. -1.
        -11    1    3    3    0    0 -0.13708233219E+02 -0.20541527834E+02  0.18685030834E+02  0.30967731613E+02  0.51100000000E-03 0.  1.
        -12    1    3    3    0    0 -0.64817304067E+01 -0.55042242713E+01 -0.68931033121E+00  0.85313810504E+01  0.00000000000E+00 0.  1.
</event>
<event>
 7    1  0.4818508E-009  0.4778724E+02  0.7816164E-02  0.1312668E+00
        -11   -1    0    0    0    0  0.00000000000E+00  0.00000000000E+00  0.45593999997E+02  0.45594000000E+02  0.51100000000E-03 0.  1.
         11   -1    0    0    0    0 -0.00000000000E+00 -0.00000000000E+00 -0.45593999997E+02  0.45594000000E+02  0.51100000000E-03 0. -1.
    9900012    2    1    2    0    0 -0.35983922267E+01  0.27364843535E+02  0.33493916636E+02  0.47787244938E+02  0.19999880970E+02 0.  0.
         12    1    1    2    0    0  0.35983922267E+01 -0.27364843535E+02 -0.33493916636E+02  0.43400755062E+02  0.00000000000E+00 0. -1.
         11    1    3    3    0    0 -0.32709835451E+01 -0.15167546666E+01  0.11622976101E+01  0.37882468328E+01  0.51100000000E-03 0. -1.
        -11    1    3    3    0    0 -0.14572210238E+01  0.21563632225E+02  0.28167292333E+02  0.35503662987E+02  0.51100000000E-03 0.  1.
         12    1    3    3    0    0  0.11298123422E+01  0.73179659765E+01  0.41643266930E+01  0.84953351181E+01  0.00000000000E+00 0. -1.
</event>
<event>
 7    1  0.4818508E-009  0.4778727E+02  0.7816164E-02  0.1312668E+00
        -11   -1    0    0    0    0  0.00000000000E+00  0.00000000000E+00  0.45593999997E+02  0.45594000000E+02  0.51100000000E-03 0.  1.
         11   -1    0    0    0    0 -0.00000000000E+00 -0.00000000000E+00 -0.45593999997E+02  0.45594000000E+02  0.51100000000E-03 0. -1.
    9900012    2    1    2    0    0 -0.38386809344E+02  0.16467692529E+02  0.11785213225E+02  0.47787270979E+02  0.19999999701E+02 0.  0.
         12    1    1    2    0    0  0.38386809344E+02 -0.16467692529E+02 -0.11785213225E+02  0.43400729021E+02  0.00000000000E+00 0. -1.
         11    1    3    3    0    0 -0.10480246751E+02  0.11289485332E+02  0.30912059655E+01  0.15711257289E+02  0.51100000000E-03 0. -1.
        -11    1    3    3    0    0 -0.19596143014E+02  0.13196152427E+01  0.11156971898E+02  0.22588232060E+02  0.51100000000E-03 0.  1.
        -12    1    3    3    0    0 -0.83104195786E+01  0.38585919541E+01 -0.24629646386E+01  0.94877816297E+01  0.00000000000E+00 0.  1.
</event>
<event>
 7    1  0.4818508E-009  0.4778727E+02  0.7816164E-02  0.1312668E+00
        -11   -1    0    0    0    0  0.00000000000E+00  0.00000000000E+00  0.45593999997E+02  0.45594000000E+02  0.51100000000E-03 0. -1.
         11   -1    0    0    0    0 -0.00000000000E+00 -0.00000000000E+00 -0.45593999997E+02  0.45594000000E+02  0.51100000000E-03 0.  1.
    9900012    2    1    2    0    0  0.30518333334E+02  0.96788775237E+01 -0.29301434757E+02  0.47787269379E+02  0.19999992406E+02 0.  0.
         12    1    1    2    0    0 -0.30518333334E+02 -0.96788775237E+01  0.29301434757E+02  0.43400730621E+02  0.00000000000E+00 0. -1.
         11    1    3    3    0    0  0.15237952026E+02 -0.34405337371E+01 -0.16667247867E+02  0.22843590043E+02  0.51100000000E-03 0. -1.
        -11    1    3    3    0    0  0.79522366079E+01  0.10005935506E+02 -0.10893259100E+02  0.16793448321E+02  0.51100000000E-03 0.  1.
        -12    1    3    3    0    0  0.73281447008E+01  0.31134757549E+01 -0.17409277899E+01  0.81502310153E+01  0.00000000000E+00 0.  1.
</event>
<event>
 7    1  0.4818508E-009  0.4778727E+02  0.7816164E-02  0.1312668E+00
        -11   -1    0    0    0    0  0.00000000000E+00  0.00000000000E+00  0.45593999997E+02  0.45594000000E+02  0.51100000000E-03 0.  1.
         11   -1    0    0    0    0 -0.00000000000E+00 -0.00000000000E+00 -0.45593999997E+02  0.45594000000E+02  0.51100000000E-03 0. -1.
    9900012    2    1    2    0    0 -0.14413770442E+02 -0.29244172386E+02  0.28646898320E+02  0.47787272123E+02  0.20000004918E+02 0.  0.
         12    1    1    2    0    0  0.14413770442E+02  0.29244172386E+02 -0.28646898320E+02  0.43400727877E+02  0.00000000000E+00 0. -1.
         11    1    3    3    0    0  0.38796087270E+01 -0.11482929345E+02  0.82792435844E+01  0.14678382227E+02  0.51100000000E-03 0. -1.
        -11    1    3    3    0    0 -0.95795334540E+01 -0.56144664759E+01  0.97008162387E+01  0.14744338946E+02  0.51100000000E-03 0.  1.
         12    1    3    3    0    0 -0.87138457149E+01 -0.12146776566E+02  0.10666838497E+02  0.18364550950E+02  0.00000000000E+00 0. -1.
</event>
<event>
 7    1  0.4818508E-009  0.4778727E+02  0.7816164E-02  0.1312668E+00
        -11   -1    0    0    0    0  0.00000000000E+00  0.00000000000E+00  0.45593999997E+02  0.45594000000E+02  0.51100000000E-03 0.  1.
         11   -1    0    0    0    0 -0.00000000000E+00 -0.00000000000E+00 -0.45593999997E+02  0.45594000000E+02  0.51100000000E-03 0. -1.
    9900012    2    1    2    0    0 -0.19540518770E+01  0.36725366886E+02  0.23044574991E+02  0.47787270419E+02  0.19999997149E+02 0.  0.
         12    1    1    2    0    0  0.19540518770E+01 -0.36725366886E+02 -0.23044574991E+02  0.43400729581E+02  0.00000000000E+00 0. -1.
         11    1    3    3    0    0  0.12905686112E+01  0.28688033304E+01  0.11220305595E+02  0.11652933442E+02  0.51100000000E-03 0. -1.
        -11    1    3    3    0    0  0.52138018992E+00  0.24263803275E+01  0.10674459598E+01  0.27015921110E+01  0.51100000000E-03 0.  1.
         12    1    3    3    0    0 -0.37660006782E+01  0.31430183228E+02  0.10756823436E+02  0.33432744866E+02  0.00000000000E+00 0. -1.
</event>
<event>
 7    1  0.4818508E-009  0.4778727E+02  0.7816164E-02  0.1312668E+00
        -11   -1    0    0    0    0  0.00000000000E+00  0.00000000000E+00  0.45593999997E+02  0.45594000000E+02  0.51100000000E-03 0.  1.
         11   -1    0    0    0    0 -0.00000000000E+00 -0.00000000000E+00 -0.45593999997E+02  0.45594000000E+02  0.51100000000E-03 0. -1.
    9900012    2    1    2    0    0  0.23638464380E+02  0.22248079798E+02  0.28807459034E+02  0.47787265571E+02  0.19999975046E+02 0.  0.
         12    1    1    2    0    0 -0.23638464380E+02 -0.22248079798E+02 -0.28807459034E+02  0.43400734429E+02  0.00000000000E+00 0. -1.
         11    1    3    3    0    0  0.14529960954E+02  0.68668237006E+01  0.43235461367E+01  0.16642298054E+02  0.51100000000E-03 0. -1.
        -11    1    3    3    0    0  0.47185679328E+01  0.93164726232E+01  0.83942632077E+01  0.13398701450E+02  0.51100000000E-03 0.  1.
         12    1    3    3    0    0  0.43899354934E+01  0.60647834745E+01  0.16089649689E+02  0.17746266068E+02  0.00000000000E+00 0. -1.
</event>
<event>
 7    1  0.4818508E-009  0.4778727E+02  0.7816164E-02  0.1312668E+00
        -11   -1    0    0    0    0  0.00000000000E+00  0.00000000000E+00  0.45593999997E+02  0.45594000000E+02  0.51100000000E-03 0.  1.
         11   -1    0    0    0    0 -0.00000000000E+00 -0.00000000000E+00 -0.45593999997E+02  0.45594000000E+02  0.51100000000E-03 0. -1.
    9900012    2    1    2    0    0 -0.24838073706E+02 -0.55939674328E+01  0.35148267880E+02  0.47787272909E+02  0.20000008502E+02 0.  0.
         12    1    1    2    0    0  0.24838073706E+02  0.55939674328E+01 -0.35148267880E+02  0.43400727091E+02  0.00000000000E+00 0. -1.
         11    1    3    3    0    0 -0.10215176655E+02 -0.42604024515E+00  0.31992646744E+01  0.10712919262E+02  0.51100000000E-03 0. -1.
        -11    1    3    3    0    0 -0.15139939041E+02 -0.21175770110E+01  0.29087484750E+02  0.32860061715E+02  0.51100000000E-03 0.  1.
        -12    1    3    3    0    0  0.51704199042E+00 -0.30503501767E+01  0.28615184553E+01  0.42142919323E+01  0.00000000000E+00 0.  1.
</event>
<event>
 7    1  0.4818508E-009  0.4778727E+02  0.7816164E-02  0.1312668E+00
        -11   -1    0    0    0    0  0.00000000000E+00  0.00000000000E+00  0.45593999997E+02  0.45594000000E+02  0.51100000000E-03 0.  1.
         11   -1    0    0    0    0 -0.00000000000E+00 -0.00000000000E+00 -0.45593999997E+02  0.45594000000E+02  0.51100000000E-03 0. -1.
    9900012    2    1    2    0    0 -0.16824622128E+00  0.16576039913E+02  0.40110220655E+02  0.47787271815E+02  0.20000003513E+02 0.  0.
         12    1    1    2    0    0  0.16824622128E+00 -0.16576039913E+02 -0.40110220655E+02  0.43400728185E+02  0.00000000000E+00 0. -1.
         11    1    3    3    0    0 -0.35280969095E+01 -0.18578663546E+01  0.14486599947E+01  0.42423756594E+01  0.51100000000E-03 0. -1.
        -11    1    3    3    0    0  0.26300655973E+01  0.15211687922E+02  0.36408170830E+02  0.39545765866E+02  0.51100000000E-03 0.  1.
         12    1    3    3    0    0  0.72978509086E+00  0.32222183456E+01  0.22533898309E+01  0.39991302899E+01  0.00000000000E+00 0. -1.
</event>
<event>
 7    1  0.4818508E-009  0.4778727E+02  0.7816164E-02  0.1312668E+00
        -11   -1    0    0    0    0  0.00000000000E+00  0.00000000000E+00  0.45593999997E+02  0.45594000000E+02  0.51100000000E-03 0.  1.
         11   -1    0    0    0    0 -0.00000000000E+00 -0.00000000000E+00 -0.45593999997E+02  0.45594000000E+02  0.51100000000E-03 0. -1.
    9900012    2    1    2    0    0  0.32255300844E+02 -0.27291453566E+01  0.28909699866E+02  0.47787269439E+02  0.19999992681E+02 0.  0.
         12    1    1    2    0    0 -0.32255300844E+02  0.27291453566E+01 -0.28909699866E+02  0.43400730561E+02  0.00000000000E+00 0. -1.
         11    1    3    3    0    0  0.19610656889E+02 -0.25369268491E+01  0.26508843892E+02  0.33071629325E+02  0.51100000000E-03 0. -1.
        -11    1    3    3    0    0  0.66019523647E+01  0.33129594634E+01  0.19219662633E+00  0.73890740446E+01  0.51100000000E-03 0.  1.
        -12    1    3    3    0    0  0.60426915900E+01 -0.35051779709E+01  0.22086593474E+01  0.73265660695E+01  0.00000000000E+00 0.  1.
</event>
<event>
 7    1  0.4818508E-009  0.4778727E+02  0.7816164E-02  0.1312668E+00
        -11   -1    0    0    0    0  0.00000000000E+00  0.00000000000E+00  0.45593999997E+02  0.45594000000E+02  0.51100000000E-03 0. -1.
         11   -1    0    0    0    0 -0.00000000000E+00 -0.00000000000E+00 -0.45593999997E+02  0.45594000000E+02  0.51100000000E-03 0.  1.
    9900012    2    1    2    0    0  0.25977371559E+02  0.34763054384E+02  0.57411468313E+00  0.47787269696E+02  0.19999993853E+02 0.  0.
         12    1    1    2    0    0 -0.25977371559E+02 -0.34763054384E+02 -0.57411468313E+00  0.43400730304E+02  0.00000000000E+00 0. -1.
         11    1    3    3    0    0  0.29835281137E+01  0.13934471589E+02 -0.33463860796E+01  0.14637938329E+02  0.51100000000E-03 0. -1.
        -11    1    3    3    0    0  0.17653154531E+02  0.18364713971E+02  0.71253489718E+01  0.26451222701E+02  0.51100000000E-03 0.  1.
        -12    1    3    3    0    0  0.53406889139E+01  0.24638688240E+01 -0.32048482090E+01  0.66981086658E+01  0.00000000000E+00 0.  1.
</event>
<event>
 7    1  0.4818508E-009  0.4778727E+02  0.7816164E-02  0.1312668E+00
        -11   -1    0    0    0    0  0.00000000000E+00  0.00000000000E+00  0.45593999997E+02  0.45594000000E+02  0.51100000000E-03 0.  1.
         11   -1    0    0    0    0 -0.00000000000E+00 -0.00000000000E+00 -0.45593999997E+02  0.45594000000E+02  0.51100000000E-03 0. -1.
    9900012    2    1    2    0    0  0.13251045215E+02  0.16935889796E+02  0.37698922532E+02  0.47787270484E+02  0.19999997443E+02 0.  0.
         12    1    1    2    0    0 -0.13251045215E+02 -0.16935889796E+02 -0.37698922532E+02  0.43400729516E+02  0.00000000000E+00 0. -1.
         11    1    3    3    0    0  0.16320167780E+01 -0.44435012972E+01  0.60825892131E+01  0.77075336093E+01  0.51100000000E-03 0. -1.
        -11    1    3    3    0    0  0.77855738342E+01  0.16806961402E+02  0.25678504415E+02  0.31661880879E+02  0.51100000000E-03 0.  1.
         12    1    3    3    0    0  0.38334546029E+01  0.45724296916E+01  0.59378289034E+01  0.84178559957E+01  0.00000000000E+00 0. -1.
</event>
<event>
 7    1  0.4818508E-009  0.4778727E+02  0.7816164E-02  0.1312668E+00
        -11   -1    0    0    0    0  0.00000000000E+00  0.00000000000E+00  0.45593999997E+02  0.45594000000E+02  0.51100000000E-03 0.  1.
         11   -1    0    0    0    0 -0.00000000000E+00 -0.00000000000E+00 -0.45593999997E+02  0.45594000000E+02  0.51100000000E-03 0. -1.
    9900012    2    1    2    0    0 -0.31958474836E+02 -0.26987651878E+02  0.11573487983E+02  0.47787273141E+02  0.20000009561E+02 0.  0.
         12    1    1    2    0    0  0.31958474836E+02  0.26987651878E+02 -0.11573487983E+02  0.43400726859E+02  0.00000000000E+00 0. -1.
         11    1    3    3    0    0 -0.55599009852E+01 -0.11640024810E+01 -0.35289531556E+01  0.66873695409E+01  0.51100000000E-03 0. -1.
        -11    1    3    3    0    0 -0.20571632629E+02 -0.13580401387E+02  0.91813519525E+01  0.26304307533E+02  0.51100000000E-03 0.  1.
         12    1    3    3    0    0 -0.58269412226E+01 -0.12243248010E+02  0.59210891861E+01  0.14795596068E+02  0.00000000000E+00 0. -1.
</event>
<event>
 7    1  0.4818508E-009  0.4778727E+02  0.7816164E-02  0.1312668E+00
        -11   -1    0    0    0    0  0.00000000000E+00  0.00000000000E+00  0.45593999997E+02  0.45594000000E+02  0.51100000000E-03 0.  1.
         11   -1    0    0    0    0 -0.00000000000E+00 -0.00000000000E+00 -0.45593999997E+02  0.45594000000E+02  0.51100000000E-03 0. -1.
    9900012    2    1    2    0    0 -0.17764872482E+02 -0.23350805265E+01  0.39529481402E+02  0.47787271950E+02  0.20000004128E+02 0.  0.
         12    1    1    2    0    0  0.17764872482E+02  0.23350805265E+01 -0.39529481402E+02  0.43400728050E+02  0.00000000000E+00 0. -1.
         11    1    3    3    0    0  0.32248495636E+01 -0.18499860701E+01  0.85024168336E+01  0.92797195777E+01  0.51100000000E-03 0. -1.
        -11    1    3    3    0    0 -0.19785388664E+02 -0.30055147672E+01  0.27350759441E+02  0.33890393415E+02  0.51100000000E-03 0.  1.
        -12    1    3    3    0    0 -0.12043333812E+01  0.25204203108E+01  0.36763051280E+01  0.46171589566E+01  0.00000000000E+00 0.  1.
</event>
<event>
 7    1  0.4818508E-009  0.4778727E+02  0.7816164E-02  0.1312668E+00
        -11   -1    0    0    0    0  0.00000000000E+00  0.00000000000E+00  0.45593999997E+02  0.45594000000E+02  0.51100000000E-03 0. -1.
         11   -1    0    0    0    0 -0.00000000000E+00 -0.00000000000E+00 -0.45593999997E+02  0.45594000000E+02  0.51100000000E-03 0.  1.
    9900012    2    1    2    0    0  0.23510854764E+02  0.27866724248E+02 -0.23543760280E+02  0.47787271203E+02  0.20000000721E+02 0.  0.
         12    1    1    2    0    0 -0.23510854764E+02 -0.27866724248E+02  0.23543760280E+02  0.43400728797E+02  0.00000000000E+00 0. -1.
         11    1    3    3    0    0  0.10308425555E+02  0.13918755790E+01 -0.12341629612E+02  0.16140532110E+02  0.51100000000E-03 0. -1.
        -11    1    3    3    0    0  0.10572105507E+02  0.21304094399E+02 -0.93805198247E+01  0.25566149602E+02  0.51100000000E-03 0.  1.
         12    1    3    3    0    0  0.26303237020E+01  0.51707542697E+01 -0.18216108430E+01  0.60805894910E+01  0.00000000000E+00 0. -1.
</event>
<event>
 7    1  0.4818508E-009  0.4778727E+02  0.7816164E-02  0.1312668E+00
        -11   -1    0    0    0    0  0.00000000000E+00  0.00000000000E+00  0.45593999997E+02  0.45594000000E+02  0.51100000000E-03 0.  1.
         11   -1    0    0    0    0 -0.00000000000E+00 -0.00000000000E+00 -0.45593999997E+02  0.45594000000E+02  0.51100000000E-03 0. -1.
    9900012    2    1    2    0    0 -0.18424968359E+02 -0.69862885696E+01  0.38669567860E+02  0.47787272293E+02  0.20000005692E+02 0.  0.
         12    1    1    2    0    0  0.18424968359E+02  0.69862885696E+01 -0.38669567860E+02  0.43400727707E+02  0.00000000000E+00 0. -1.
         11    1    3    3    0    0 -0.30693802309E+01 -0.85146651724E+01  0.14830675544E+02  0.17374393669E+02  0.51100000000E-03 0. -1.
        -11    1    3    3    0    0 -0.49363030413E+01  0.43825934890E+01  0.37203148322E+01  0.75772657415E+01  0.51100000000E-03 0.  1.
         12    1    3    3    0    0 -0.10419285087E+02 -0.28542168862E+01  0.20118577484E+02  0.22835612883E+02  0.00000000000E+00 0. -1.
</event>
<event>
 7    1  0.4818508E-009  0.4778728E+02  0.7816164E-02  0.1312668E+00
        -11   -1    0    0    0    0  0.00000000000E+00  0.00000000000E+00  0.45593999997E+02  0.45594000000E+02  0.51100000000E-03 0. -1.
         11   -1    0    0    0    0 -0.00000000000E+00 -0.00000000000E+00 -0.45593999997E+02  0.45594000000E+02  0.51100000000E-03 0.  1.
    9900012    2    1    2    0    0 -0.28393393862E+02 -0.21519750841E+02 -0.24785847589E+02  0.47787277288E+02  0.20000028465E+02 0.  0.
         12    1    1    2    0    0  0.28393393862E+02  0.21519750841E+02  0.24785847589E+02  0.43400722712E+02  0.00000000000E+00 0. -1.
         11    1    3    3    0    0 -0.15553222274E+02 -0.20187481393E+02 -0.21614412314E+02  0.33415863718E+02  0.51100000000E-03 0. -1.
        -11    1    3    3    0    0 -0.40593579191E+01  0.21228702972E+01 -0.10532790039E+01  0.47004640128E+01  0.51100000000E-03 0.  1.
        -12    1    3    3    0    0 -0.87808136682E+01 -0.34551397455E+01 -0.21181562713E+01  0.96709495566E+01  0.00000000000E+00 0.  1.
</event>
<event>
 7    1  0.4818508E-009  0.4778727E+02  0.7816164E-02  0.1312668E+00
        -11   -1    0    0    0    0  0.00000000000E+00  0.00000000000E+00  0.45593999997E+02  0.45594000000E+02  0.51100000000E-03 0.  1.
         11   -1    0    0    0    0 -0.00000000000E+00 -0.00000000000E+00 -0.45593999997E+02  0.45594000000E+02  0.51100000000E-03 0. -1.
    9900012    2    1    2    0    0 -0.10486115094E+01  0.33390907287E+02  0.27705077921E+02  0.47787267078E+02  0.19999981916E+02 0.  0.
         12    1    1    2    0    0  0.10486115094E+01 -0.33390907287E+02 -0.27705077921E+02  0.43400732922E+02  0.00000000000E+00 0. -1.
         11    1    3    3    0    0  0.15915363030E+01  0.47982359168E+01  0.11228988422E+02  0.12314472663E+02  0.51100000000E-03 0. -1.
        -11    1    3    3    0    0 -0.33970148389E+01  0.26154684077E+02  0.18499386987E+02  0.32215439282E+02  0.51100000000E-03 0.  1.
        -12    1    3    3    0    0  0.75686702647E+00  0.24379872930E+01 -0.20232974882E+01  0.32573551330E+01  0.00000000000E+00 0.  1.
</event>
<event>
 7    1  0.4818508E-009  0.4778725E+02  0.7816164E-02  0.1312668E+00
        -11   -1    0    0    0    0  0.00000000000E+00  0.00000000000E+00  0.45593999997E+02  0.45594000000E+02  0.51100000000E-03 0.  1.
         11   -1    0    0    0    0 -0.00000000000E+00 -0.00000000000E+00 -0.45593999997E+02  0.45594000000E+02  0.51100000000E-03 0. -1.
    9900012    2    1    2    0    0 -0.23026802299E+01  0.26855497127E+02  0.34016242081E+02  0.47787253607E+02  0.19999920496E+02 0.  0.
         12    1    1    2    0    0  0.23026802299E+01 -0.26855497127E+02 -0.34016242081E+02  0.43400746393E+02  0.00000000000E+00 0. -1.
         11    1    3    3    0    0  0.13546595866E+01  0.11445949268E+02  0.34787397093E+01  0.12039372387E+02  0.51100000000E-03 0. -1.
        -11    1    3    3    0    0  0.23166344453E+01  0.10564621164E+02  0.16223717173E+02  0.19498384925E+02  0.51100000000E-03 0.  1.
         12    1    3    3    0    0 -0.59739742618E+01  0.48449266950E+01  0.14313785198E+02  0.16249496295E+02  0.00000000000E+00 0. -1.
</event>
<event>
 7    1  0.4818508E-009  0.4778727E+02  0.7816164E-02  0.1312668E+00
        -11   -1    0    0    0    0  0.00000000000E+00  0.00000000000E+00  0.45593999997E+02  0.45594000000E+02  0.51100000000E-03 0.  1.
         11   -1    0    0    0    0 -0.00000000000E+00 -0.00000000000E+00 -0.45593999997E+02  0.45594000000E+02  0.51100000000E-03 0. -1.
    9900012    2    1    2    0    0  0.31021912510E+02  0.22153030198E+02  0.20748672525E+02  0.47787271731E+02  0.20000003130E+02 0.  0.
         12    1    1    2    0    0 -0.31021912510E+02 -0.22153030198E+02 -0.20748672525E+02  0.43400728269E+02  0.00000000000E+00 0. -1.
         11    1    3    3    0    0  0.42539046547E+01  0.52755374325E+01 -0.24910073897E+01  0.72202574809E+01  0.51100000000E-03 0. -1.
        -11    1    3    3    0    0  0.26033023680E+01  0.54000466200E+01  0.72239774321E+01  0.93874137502E+01  0.51100000000E-03 0.  1.
         12    1    3    3    0    0  0.24164705487E+02  0.11477446145E+02  0.16015702483E+02  0.31179600500E+02  0.00000000000E+00 0. -1.
</event>
<event>
 7    1  0.4818508E-009  0.4778727E+02  0.7816164E-02  0.1312668E+00
        -11   -1    0    0    0    0  0.00000000000E+00  0.00000000000E+00  0.45593999997E+02  0.45594000000E+02  0.51100000000E-03 0. -1.
         11   -1    0    0    0    0 -0.00000000000E+00 -0.00000000000E+00 -0.45593999997E+02  0.45594000000E+02  0.51100000000E-03 0.  1.
    9900012    2    1    2    0    0  0.38277489957E+02  0.13313687995E+02 -0.15530713631E+02  0.47787267387E+02  0.19999983324E+02 0.  0.
         12    1    1    2    0    0 -0.38277489957E+02 -0.13313687995E+02  0.15530713631E+02  0.43400732613E+02  0.00000000000E+00 0. -1.
         11    1    3    3    0    0 -0.13143909758E+01  0.52137054257E+00 -0.17355775937E+01  0.22386783433E+01  0.51100000000E-03 0. -1.
        -11    1    3    3    0    0  0.31074386461E+02  0.98080364618E+01 -0.50370612876E+01  0.32972519768E+02  0.51100000000E-03 0.  1.
        -12    1    3    3    0    0  0.85174944722E+01  0.29842809906E+01 -0.87580747493E+01  0.12576069276E+02  0.00000000000E+00 0.  1.
</event>
<event>
 7    1  0.4818508E-009  0.4778727E+02  0.7816164E-02  0.1312668E+00
        -11   -1    0    0    0    0  0.00000000000E+00  0.00000000000E+00  0.45593999997E+02  0.45594000000E+02  0.51100000000E-03 0. -1.
         11   -1    0    0    0    0 -0.00000000000E+00 -0.00000000000E+00 -0.45593999997E+02  0.45594000000E+02  0.51100000000E-03 0.  1.
    9900012    2    1    2    0    0  0.33303266323E+02 -0.25938628426E+02 -0.10084796500E+02  0.47787272899E+02  0.20000008456E+02 0.  0.
         12    1    1    2    0    0 -0.33303266323E+02  0.25938628426E+02  0.10084796500E+02  0.43400727101E+02  0.00000000000E+00 0. -1.
         11    1    3    3    0    0  0.24710373713E+01  0.27898786113E+01 -0.10409221669E+01  0.38694919014E+01  0.51100000000E-03 0. -1.
        -11    1    3    3    0    0  0.25779372935E+02 -0.27349621463E+02 -0.66879135950E+01  0.38174678147E+02  0.51100000000E-03 0.  1.
        -12    1    3    3    0    0  0.50528560165E+01 -0.13788855746E+01 -0.23559607383E+01  0.57431028505E+01  0.00000000000E+00 0.  1.
</event>
<event>
 7    1  0.4818508E-009  0.4778727E+02  0.7816164E-02  0.1312668E+00
        -11   -1    0    0    0    0  0.00000000000E+00  0.00000000000E+00  0.45593999997E+02  0.45594000000E+02  0.51100000000E-03 0.  1.
         11   -1    0    0    0    0 -0.00000000000E+00 -0.00000000000E+00 -0.45593999997E+02  0.45594000000E+02  0.51100000000E-03 0. -1.
    9900012    2    1    2    0    0  0.28738982916E+02 -0.22643520372E+02  0.23344481423E+02  0.47787274582E+02  0.20000016128E+02 0.  0.
         12    1    1    2    0    0 -0.28738982916E+02  0.22643520372E+02 -0.23344481423E+02  0.43400725418E+02  0.00000000000E+00 0. -1.
         11    1    3    3    0    0  0.49735046983E+01 -0.41369191696E+01 -0.25880397287E+01  0.69676250688E+01  0.51100000000E-03 0. -1.
        -11    1    3    3    0    0  0.78194685797E+01 -0.10838152159E+02  0.14672004360E+02  0.19846343323E+02  0.51100000000E-03 0.  1.
        -12    1    3    3    0    0  0.15946009638E+02 -0.76684490433E+01  0.11260516792E+02  0.20973306190E+02  0.00000000000E+00 0.  1.
</event>
<event>
 7    1  0.4818508E-009  0.4778727E+02  0.7816164E-02  0.1312668E+00
        -11   -1    0    0    0    0  0.00000000000E+00  0.00000000000E+00  0.45593999997E+02  0.45594000000E+02  0.51100000000E-03 0. -1.
         11   -1    0    0    0    0 -0.00000000000E+00 -0.00000000000E+00 -0.45593999997E+02  0.45594000000E+02  0.51100000000E-03 0.  1.
    9900012    2    1    2    0    0  0.31980247111E+02 -0.29231170010E+02  0.25348485906E+01  0.47787274628E+02  0.20000016340E+02 0.  0.
         12    1    1    2    0    0 -0.31980247111E+02  0.29231170010E+02 -0.25348485906E+01  0.43400725372E+02  0.00000000000E+00 0. -1.
         11    1    3    3    0    0 -0.12998548907E+01 -0.35821606957E+01  0.32196312965E+01  0.49887397139E+01  0.51100000000E-03 0. -1.
        -11    1    3    3    0    0  0.25634989758E+02 -0.23488583965E+02 -0.15743527069E+01  0.34804379944E+02  0.51100000000E-03 0.  1.
         12    1    3    3    0    0  0.76451122434E+01 -0.21604253490E+01  0.88957000104E+00  0.79941549703E+01  0.00000000000E+00 0. -1.
</event>
<event>
 7    1  0.4818508E-009  0.4778727E+02  0.7816164E-02  0.1312668E+00
        -11   -1    0    0    0    0  0.00000000000E+00  0.00000000000E+00  0.45593999997E+02  0.45594000000E+02  0.51100000000E-03 0.  1.
         11   -1    0    0    0    0 -0.00000000000E+00 -0.00000000000E+00 -0.45593999997E+02  0.45594000000E+02  0.51100000000E-03 0. -1.
    9900012    2    1    2    0    0 -0.18906994649E+02  0.23634213468E+01  0.38994398427E+02  0.47787270562E+02  0.19999997799E+02 0.  0.
         12    1    1    2    0    0  0.18906994649E+02 -0.23634213468E+01 -0.38994398427E+02  0.43400729438E+02  0.00000000000E+00 0. -1.
         11    1    3    3    0    0 -0.18897262401E+01  0.17431485669E+01  0.25786872461E+02  0.25914714425E+02  0.51100000000E-03 0. -1.
        -11    1    3    3    0    0 -0.92404407062E+01 -0.12885997885E+01  0.59518776932E+01  0.11066665360E+02  0.51100000000E-03 0.  1.
         12    1    3    3    0    0 -0.77768277030E+01  0.19088725684E+01  0.72556482728E+01  0.10805890776E+02  0.00000000000E+00 0. -1.
</event>
<event>
 7    1  0.4818508E-009  0.4778727E+02  0.7816164E-02  0.1312668E+00
        -11   -1    0    0    0    0  0.00000000000E+00  0.00000000000E+00  0.45593999997E+02  0.45594000000E+02  0.51100000000E-03 0.  1.
         11   -1    0    0    0    0 -0.00000000000E+00 -0.00000000000E+00 -0.45593999997E+02  0.45594000000E+02  0.51100000000E-03 0. -1.
    9900012    2    1    2    0    0 -0.76360139868E+01  0.42722304457E+02 -0.34558003155E+00  0.47787269208E+02  0.19999991628E+02 0.  0.
         12    1    1    2    0    0  0.76360139868E+01 -0.42722304457E+02  0.34558003155E+00  0.43400730792E+02  0.00000000000E+00 0. -1.
         11    1    3    3    0    0 -0.65515891507E+01  0.18293340610E+02 -0.39480399180E+01  0.19828178195E+02  0.51100000000E-03 0. -1.
        -11    1    3    3    0    0  0.45693590517E+01  0.27749745955E+01  0.72967464829E+00  0.53955492309E+01  0.51100000000E-03 0.  1.
        -12    1    3    3    0    0 -0.56537838878E+01  0.21653989251E+02  0.28727852381E+01  0.22563541782E+02  0.00000000000E+00 0.  1.
</event>
<event>
 7    1  0.4818508E-009  0.4778727E+02  0.7816164E-02  0.1312668E+00
        -11   -1    0    0    0    0  0.00000000000E+00  0.00000000000E+00  0.45593999997E+02  0.45594000000E+02  0.51100000000E-03 0.  1.
         11   -1    0    0    0    0 -0.00000000000E+00 -0.00000000000E+00 -0.45593999997E+02  0.45594000000E+02  0.51100000000E-03 0. -1.
    9900012    2    1    2    0    0 -0.42311210748E+01  0.98685366257E+01  0.42051549160E+02  0.47787272040E+02  0.20000004539E+02 0.  0.
         12    1    1    2    0    0  0.42311210748E+01 -0.98685366257E+01 -0.42051549160E+02  0.43400727960E+02  0.00000000000E+00 0. -1.
         11    1    3    3    0    0  0.50902080237E+01 -0.14451211952E+01  0.12455376327E+02  0.13532737812E+02  0.51100000000E-03 0. -1.
        -11    1    3    3    0    0  0.13233115960E+01 -0.27477060986E+00  0.12878930553E+01  0.18669015108E+01  0.51100000000E-03 0.  1.
         12    1    3    3    0    0 -0.10644640695E+02  0.11588428431E+02  0.28308279778E+02  0.32387632717E+02  0.00000000000E+00 0. -1.
</event>
<event>
 7    1  0.4818508E-009  0.4778728E+02  0.7816164E-02  0.1312668E+00
        -11   -1    0    0    0    0  0.00000000000E+00  0.00000000000E+00  0.45593999997E+02  0.45594000000E+02  0.51100000000E-03 0. -1.
         11   -1    0    0    0    0 -0.00000000000E+00 -0.00000000000E+00 -0.45593999997E+02  0.45594000000E+02  0.51100000000E-03 0.  1.
    9900012    2    1    2    0    0  0.23791759919E+02 -0.30527356551E+02 -0.19638109154E+02  0.47787278011E+02  0.20000031765E+02 0.  0.
         12    1    1    2    0    0 -0.23791759919E+02  0.30527356551E+02  0.19638109154E+02  0.43400721989E+02  0.00000000000E+00 0. -1.
         11    1    3    3    0    0  0.21846584684E+02 -0.14263035676E+02 -0.10892739427E+02  0.28272941509E+02  0.51100000000E-03 0. -1.
        -11    1    3    3    0    0  0.39974924492E+01 -0.11588584803E+02 -0.70085149568E+01  0.14120712651E+02  0.51100000000E-03 0.  1.
         12    1    3    3    0    0 -0.20523172145E+01 -0.46757360713E+01 -0.17368547699E+01  0.53936238513E+01  0.00000000000E+00 0. -1.
</event>
<event>
 7    1  0.4818508E-009  0.4778727E+02  0.7816164E-02  0.1312668E+00
        -11   -1    0    0    0    0  0.00000000000E+00  0.00000000000E+00  0.45593999997E+02  0.45594000000E+02  0.51100000000E-03 0.  1.
         11   -1    0    0    0    0 -0.00000000000E+00 -0.00000000000E+00 -0.45593999997E+02  0.45594000000E+02  0.51100000000E-03 0. -1.
    9900012    2    1    2    0    0  0.13931337775E+02 -0.35543674216E+02  0.20644326166E+02  0.47787272451E+02  0.20000006411E+02 0.  0.
         12    1    1    2    0    0 -0.13931337775E+02  0.35543674216E+02 -0.20644326166E+02  0.43400727549E+02  0.00000000000E+00 0. -1.
         11    1    3    3    0    0  0.17888055706E+01  0.97583937900E+00 -0.11188895205E+01  0.23246509164E+01  0.51100000000E-03 0. -1.
        -11    1    3    3    0    0  0.99050708296E+01 -0.28620199522E+02  0.11680674119E+02  0.32460197119E+02  0.51100000000E-03 0.  1.
        -12    1    3    3    0    0  0.22374613748E+01 -0.78993140727E+01  0.10082541567E+02  0.13002424415E+02  0.00000000000E+00 0.  1.
</event>
<event>
 7    1  0.4818508E-009  0.4778727E+02  0.7816164E-02  0.1312668E+00
        -11   -1    0    0    0    0  0.00000000000E+00  0.00000000000E+00  0.45593999997E+02  0.45594000000E+02  0.51100000000E-03 0.  1.
         11   -1    0    0    0    0 -0.00000000000E+00 -0.00000000000E+00 -0.45593999997E+02  0.45594000000E+02  0.51100000000E-03 0. -1.
    9900012    2    1    2    0    0  0.12607700208E+02  0.29157106291E+02  0.29572488393E+02  0.47787273951E+02  0.20000013252E+02 0.  0.
         12    1    1    2    0    0 -0.12607700208E+02 -0.29157106291E+02 -0.29572488393E+02  0.43400726049E+02  0.00000000000E+00 0. -1.
         11    1    3    3    0    0 -0.18241560108E+00  0.10448499467E+02  0.21726611574E+01  0.10673559544E+02  0.51100000000E-03 0. -1.
        -11    1    3    3    0    0  0.83665355902E+01  0.11305734384E+02  0.87445139734E+01  0.16561554053E+02  0.51100000000E-03 0.  1.
         12    1    3    3    0    0  0.44235802186E+01  0.74028724400E+01  0.18655313262E+02  0.20552160354E+02  0.00000000000E+00 0. -1.
</event>
<event>
 7    1  0.4818508E-009  0.4778728E+02  0.7816164E-02  0.1312668E+00
        -11   -1    0    0    0    0  0.00000000000E+00  0.00000000000E+00  0.45593999997E+02  0.45594000000E+02  0.51100000000E-03 0.  1.
         11   -1    0    0    0    0 -0.00000000000E+00 -0.00000000000E+00 -0.45593999997E+02  0.45594000000E+02  0.51100000000E-03 0. -1.
    9900012    2    1    2    0    0  0.24200028999E+02  0.24572225713E+02  0.26347429037E+02  0.47787277691E+02  0.20000030306E+02 0.  0.
         12    1    1    2    0    0 -0.24200028999E+02 -0.24572225713E+02 -0.26347429037E+02  0.43400722309E+02  0.00000000000E+00 0. -1.
         11    1    3    3    0    0  0.63303555861E+01 -0.12982799638E+01  0.17716392384E+01  0.67005700177E+01  0.51100000000E-03 0. -1.
        -11    1    3    3    0    0  0.15331583243E+02  0.23310505165E+02  0.16934157663E+02  0.32637444627E+02  0.51100000000E-03 0.  1.
        -12    1    3    3    0    0  0.25380901697E+01  0.25600005121E+01  0.76416321356E+01  0.84492630464E+01  0.00000000000E+00 0.  1.
</event>
<event>
 7    1  0.4818508E-009  0.4778727E+02  0.7816164E-02  0.1312668E+00
        -11   -1    0    0    0    0  0.00000000000E+00  0.00000000000E+00  0.45593999997E+02  0.45594000000E+02  0.51100000000E-03 0. -1.
         11   -1    0    0    0    0 -0.00000000000E+00 -0.00000000000E+00 -0.45593999997E+02  0.45594000000E+02  0.51100000000E-03 0.  1.
    9900012    2    1    2    0    0 -0.20987390956E+02 -0.85682774553E+01 -0.37009961890E+02  0.47787271472E+02  0.20000001949E+02 0.  0.
         12    1    1    2    0    0  0.20987390956E+02  0.85682774553E+01  0.37009961890E+02  0.43400728528E+02  0.00000000000E+00 0. -1.
         11    1    3    3    0    0 -0.32661435741E+01 -0.22504644195E+00 -0.21863105197E+02  0.22106870173E+02  0.51100000000E-03 0. -1.
        -11    1    3    3    0    0 -0.75244607990E+01 -0.55822408867E+01 -0.36175452786E+01  0.10043184641E+02  0.51100000000E-03 0.  1.
         12    1    3    3    0    0 -0.10196786583E+02 -0.27609901267E+01 -0.11529311414E+02  0.15637216657E+02  0.00000000000E+00 0. -1.
</event>
<event>
 7    1  0.4818508E-009  0.4778726E+02  0.7816164E-02  0.1312668E+00
        -11   -1    0    0    0    0  0.00000000000E+00  0.00000000000E+00  0.45593999997E+02  0.45594000000E+02  0.51100000000E-03 0.  1.
         11   -1    0    0    0    0 -0.00000000000E+00 -0.00000000000E+00 -0.45593999997E+02  0.45594000000E+02  0.51100000000E-03 0. -1.
    9900012    2    1    2    0    0  0.20040161140E+02  0.37878248158E+02 -0.68742074259E+01  0.47787257267E+02  0.19999937183E+02 0.  0.
         12    1    1    2    0    0 -0.20040161140E+02 -0.37878248158E+02  0.68742074259E+01  0.43400742733E+02  0.00000000000E+00 0. -1.
         11    1    3    3    0    0 -0.12142240227E+01  0.15579690288E+01  0.26011164841E+01  0.32661008399E+01  0.51100000000E-03 0. -1.
        -11    1    3    3    0    0  0.16061517568E+02  0.32055046554E+02 -0.44478455334E+01  0.36128682322E+02  0.51100000000E-03 0.  1.
        -12    1    3    3    0    0  0.51928675949E+01  0.42652325749E+01 -0.50274783766E+01  0.83924741050E+01  0.00000000000E+00 0.  1.
</event>
<event>
 7    1  0.4818508E-009  0.4778727E+02  0.7816164E-02  0.1312668E+00
        -11   -1    0    0    0    0  0.00000000000E+00  0.00000000000E+00  0.45593999997E+02  0.45594000000E+02  0.51100000000E-03 0.  1.
         11   -1    0    0    0    0 -0.00000000000E+00 -0.00000000000E+00 -0.45593999997E+02  0.45594000000E+02  0.51100000000E-03 0. -1.
    9900012    2    1    2    0    0 -0.21617048038E+02  0.84245872532E+01  0.36679051402E+02  0.47787271342E+02  0.20000001356E+02 0.  0.
         12    1    1    2    0    0  0.21617048038E+02 -0.84245872532E+01 -0.36679051402E+02  0.43400728658E+02  0.00000000000E+00 0. -1.
         11    1    3    3    0    0 -0.78659936094E+01  0.11140448380E+02  0.17498318662E+02  0.22185008493E+02  0.51100000000E-03 0. -1.
        -11    1    3    3    0    0 -0.92148218634E+01 -0.23751076400E+01  0.50823655840E+01  0.10788165667E+02  0.51100000000E-03 0.  1.
        -12    1    3    3    0    0 -0.45362325656E+01 -0.34075348687E+00  0.14098367157E+02  0.14814097182E+02  0.00000000000E+00 0.  1.
</event>
<event>
 7    1  0.4818508E-009  0.4778726E+02  0.7816164E-02  0.1312668E+00
        -11   -1    0    0    0    0  0.00000000000E+00  0.00000000000E+00  0.45593999997E+02  0.45594000000E+02  0.51100000000E-03 0.  1.
         11   -1    0    0    0    0 -0.00000000000E+00 -0.00000000000E+00 -0.45593999997E+02  0.45594000000E+02  0.51100000000E-03 0. -1.
    9900012    2    1    2    0    0 -0.16791263481E+02 -0.27898488074E+02  0.28694107835E+02  0.47787262788E+02  0.19999962355E+02 0.  0.
         12    1    1    2    0    0  0.16791263481E+02  0.27898488074E+02 -0.28694107835E+02  0.43400737212E+02  0.00000000000E+00 0. -1.
         11    1    3    3    0    0  0.44373090077E+00  0.18542953020E+01  0.28961924098E+01  0.34674542413E+01  0.51100000000E-03 0. -1.
        -11    1    3    3    0    0 -0.18250211503E+02 -0.29797886840E+02  0.24521518551E+02  0.42688278864E+02  0.51100000000E-03 0.  1.
        -12    1    3    3    0    0  0.10152171211E+01  0.45103463863E-01  0.12763968744E+01  0.16315296830E+01  0.00000000000E+00 0.  1.
</event>
<event>
 7    1  0.4818508E-009  0.4778728E+02  0.7816164E-02  0.1312668E+00
        -11   -1    0    0    0    0  0.00000000000E+00  0.00000000000E+00  0.45593999997E+02  0.45594000000E+02  0.51100000000E-03 0.  1.
         11   -1    0    0    0    0 -0.00000000000E+00 -0.00000000000E+00 -0.45593999997E+02  0.45594000000E+02  0.51100000000E-03 0. -1.
    9900012    2    1    2    0    0  0.35578420758E+02  0.22810416428E+02  0.98733874504E+01  0.47787275340E+02  0.20000019586E+02 0.  0.
         12    1    1    2    0    0 -0.35578420758E+02 -0.22810416428E+02 -0.98733874504E+01  0.43400724660E+02  0.00000000000E+00 0. -1.
         11    1    3    3    0    0  0.11284573690E+02  0.26840664790E+01  0.10482252024E+01  0.11646655854E+02  0.51100000000E-03 0. -1.
        -11    1    3    3    0    0  0.17244570883E+02  0.19132792722E+02  0.11915444339E+02  0.28379866038E+02  0.51100000000E-03 0.  1.
        -12    1    3    3    0    0  0.70492761847E+01  0.99355722780E+00 -0.30902820913E+01  0.77607534491E+01  0.00000000000E+00 0.  1.
</event>
<event>
 7    1  0.4818508E-009  0.4778727E+02  0.7816164E-02  0.1312668E+00
        -11   -1    0    0    0    0  0.00000000000E+00  0.00000000000E+00  0.45593999997E+02  0.45594000000E+02  0.51100000000E-03 0.  1.
         11   -1    0    0    0    0 -0.00000000000E+00 -0.00000000000E+00 -0.45593999997E+02  0.45594000000E+02  0.51100000000E-03 0. -1.
    9900012    2    1    2    0    0  0.29489874442E+02  0.20469306543E+02 -0.24392174888E+02  0.47787269583E+02  0.19999993337E+02 0.  0.
         12    1    1    2    0    0 -0.29489874442E+02 -0.20469306543E+02  0.24392174888E+02  0.43400730417E+02  0.00000000000E+00 0. -1.
         11    1    3    3    0    0  0.78825361307E+01  0.13144115705E+01 -0.11321642214E+02  0.13857908800E+02  0.51100000000E-03 0. -1.
        -11    1    3    3    0    0  0.10989751578E+02  0.16124449332E+02 -0.46941971779E+01  0.20070077065E+02  0.51100000000E-03 0.  1.
         12    1    3    3    0    0  0.10617586733E+02  0.30304456406E+01 -0.83763354958E+01  0.13859283717E+02  0.00000000000E+00 0. -1.
</event>
<event>
 7    1  0.4818508E-009  0.4778727E+02  0.7816164E-02  0.1312668E+00
        -11   -1    0    0    0    0  0.00000000000E+00  0.00000000000E+00  0.45593999997E+02  0.45594000000E+02  0.51100000000E-03 0.  1.
         11   -1    0    0    0    0 -0.00000000000E+00 -0.00000000000E+00 -0.45593999997E+02  0.45594000000E+02  0.51100000000E-03 0. -1.
    9900012    2    1    2    0    0 -0.58613563114E+01 -0.42725751657E+02 -0.48762385755E+01  0.47787273565E+02  0.20000011491E+02 0.  0.
         12    1    1    2    0    0  0.58613563114E+01  0.42725751657E+02  0.48762385755E+01  0.43400726435E+02  0.00000000000E+00 0. -1.
         11    1    3    3    0    0  0.19175478719E+01 -0.14853143043E+02 -0.78310386969E+01  0.16900237141E+02  0.51100000000E-03 0. -1.
        -11    1    3    3    0    0 -0.28247483716E+01 -0.14904150123E+02  0.65859754890E+01  0.16537471623E+02  0.51100000000E-03 0.  1.
         12    1    3    3    0    0 -0.49541558117E+01 -0.12968458491E+02 -0.36311753676E+01  0.14349564801E+02  0.00000000000E+00 0. -1.
</event>
<event>
 7    1  0.4818508E-009  0.4778726E+02  0.7816164E-02  0.1312668E+00
        -11   -1    0    0    0    0  0.00000000000E+00  0.00000000000E+00  0.45593999997E+02  0.45594000000E+02  0.51100000000E-03 0.  1.
         11   -1    0    0    0    0 -0.00000000000E+00 -0.00000000000E+00 -0.45593999997E+02  0.45594000000E+02  0.51100000000E-03 0. -1.
    9900012    2    1    2    0    0  0.81001771088E+01 -0.41254026443E+01  0.42438095995E+02  0.47787264893E+02  0.19999971953E+02 0.  0.
         12    1    1    2    0    0 -0.81001771088E+01  0.41254026443E+01 -0.42438095995E+02  0.43400735107E+02  0.00000000000E+00 0. -1.
         11    1    3    3    0    0  0.49338673360E+01  0.72921862713E+01  0.13326759586E+02  0.15972524811E+02  0.51100000000E-03 0. -1.
        -11    1    3    3    0    0  0.14953735496E+01 -0.77163129242E+01  0.12929189732E+02  0.15130815397E+02  0.51100000000E-03 0.  1.
         12    1    3    3    0    0  0.16709362232E+01 -0.37012759913E+01  0.16182146677E+02  0.16683924685E+02  0.00000000000E+00 0. -1.
</event>
<event>
 7    1  0.4818508E-009  0.4778727E+02  0.7816164E-02  0.1312668E+00
        -11   -1    0    0    0    0  0.00000000000E+00  0.00000000000E+00  0.45593999997E+02  0.45594000000E+02  0.51100000000E-03 0. -1.
         11   -1    0    0    0    0 -0.00000000000E+00 -0.00000000000E+00 -0.45593999997E+02  0.45594000000E+02  0.51100000000E-03 0.  1.
    9900012    2    1    2    0    0  0.19717876002E+02  0.35312093888E+02 -0.15744349282E+02  0.47787272551E+02  0.20000006870E+02 0.  0.
         12    1    1    2    0    0 -0.19717876002E+02 -0.35312093888E+02  0.15744349282E+02  0.43400727449E+02  0.00000000000E+00 0. -1.
         11    1    3    3    0    0  0.16617799786E+02  0.27460349157E+02 -0.10701924546E+02  0.33834202145E+02  0.51100000000E-03 0.  1.
        -11    1    3    3    0    0 -0.36068471537E+01  0.33822258249E+01 -0.17161758671E+01  0.52339332999E+01  0.51100000000E-03 0. -1.
        -12    1    3    3    0    0  0.67069233700E+01  0.44695189061E+01 -0.33262488693E+01  0.87191371066E+01  0.00000000000E+00 0.  1.
</event>
<event>
 7    1  0.4818508E-009  0.4778727E+02  0.7816164E-02  0.1312668E+00
        -11   -1    0    0    0    0  0.00000000000E+00  0.00000000000E+00  0.45593999997E+02  0.45594000000E+02  0.51100000000E-03 0. -1.
         11   -1    0    0    0    0 -0.00000000000E+00 -0.00000000000E+00 -0.45593999997E+02  0.45594000000E+02  0.51100000000E-03 0.  1.
    9900012    2    1    2    0    0  0.36644786701E+02  0.57030662506E+01  0.22544573125E+02  0.47787272651E+02  0.20000007327E+02 0.  0.
         12    1    1    2    0    0 -0.36644786701E+02 -0.57030662506E+01 -0.22544573125E+02  0.43400727349E+02  0.00000000000E+00 0. -1.
         11    1    3    3    0    0  0.89149108047E+01 -0.26997359877E+01  0.32697292373E+00  0.93204678323E+01  0.51100000000E-03 0. -1.
        -11    1    3    3    0    0  0.24442443686E+02  0.28766289971E+01  0.19836435356E+02  0.31610001829E+02  0.51100000000E-03 0.  1.
        -12    1    3    3    0    0  0.32874322098E+01  0.55261732412E+01  0.23811648453E+01  0.68568029902E+01  0.00000000000E+00 0.  1.
</event>
<event>
 7    1  0.4818508E-009  0.4778728E+02  0.7816164E-02  0.1312668E+00
        -11   -1    0    0    0    0  0.00000000000E+00  0.00000000000E+00  0.45593999997E+02  0.45594000000E+02  0.51100000000E-03 0.  1.
         11   -1    0    0    0    0 -0.00000000000E+00 -0.00000000000E+00 -0.45593999997E+02  0.45594000000E+02  0.51100000000E-03 0. -1.
    9900012    2    1    2    0    0 -0.33132009145E+02 -0.14990803709E+02  0.23688985380E+02  0.47787282793E+02  0.20000053565E+02 0.  0.
         12    1    1    2    0    0  0.33132009145E+02  0.14990803709E+02 -0.23688985380E+02  0.43400717207E+02  0.00000000000E+00 0. -1.
         11    1    3    3    0    0 -0.47068905359E+01  0.93779090712E+00 -0.73726346600E+00  0.48557005655E+01  0.51100000000E-03 0. -1.
        -11    1    3    3    0    0 -0.16765006356E+02 -0.10708986741E+02  0.22464616109E+02  0.30006779439E+02  0.51100000000E-03 0.  1.
        -12    1    3    3    0    0 -0.11660112253E+02 -0.52196078750E+01  0.19616327366E+01  0.12924802788E+02  0.00000000000E+00 0.  1.
</event>
<event>
 7    1  0.4818508E-009  0.4778728E+02  0.7816164E-02  0.1312668E+00
        -11   -1    0    0    0    0  0.00000000000E+00  0.00000000000E+00  0.45593999997E+02  0.45594000000E+02  0.51100000000E-03 0.  1.
         11   -1    0    0    0    0 -0.00000000000E+00 -0.00000000000E+00 -0.45593999997E+02  0.45594000000E+02  0.51100000000E-03 0. -1.
    9900012    2    1    2    0    0 -0.34162215231E+02 -0.16996694709E+02  0.20680368686E+02  0.47787283076E+02  0.20000054857E+02 0.  0.
         12    1    1    2    0    0  0.34162215231E+02  0.16996694709E+02 -0.20680368686E+02  0.43400716924E+02  0.00000000000E+00 0. -1.
         11    1    3    3    0    0 -0.13675928296E+02 -0.18817966635E+01  0.27285858615E+01  0.14071863931E+02  0.51100000000E-03 0. -1.
        -11    1    3    3    0    0 -0.13405729880E+02 -0.16133308063E+02  0.10772241458E+02  0.23580466683E+02  0.51100000000E-03 0.  1.
        -12    1    3    3    0    0 -0.70805570553E+01  0.10184100184E+01  0.71795413659E+01  0.10134952462E+02  0.00000000000E+00 0.  1.
</event>
<event>
 7    1  0.4818508E-009  0.4778727E+02  0.7816164E-02  0.1312668E+00
        -11   -1    0    0    0    0  0.00000000000E+00  0.00000000000E+00  0.45593999997E+02  0.45594000000E+02  0.51100000000E-03 0. -1.
         11   -1    0    0    0    0 -0.00000000000E+00 -0.00000000000E+00 -0.45593999997E+02  0.45594000000E+02  0.51100000000E-03 0.  1.
    9900012    2    1    2    0    0  0.20275759023E+02  0.11226054008E+01 -0.38356960186E+02  0.47787273721E+02  0.20000012204E+02 0.  0.
         12    1    1    2    0    0 -0.20275759023E+02 -0.11226054008E+01  0.38356960186E+02  0.43400726279E+02  0.00000000000E+00 0. -1.
         11    1    3    3    0    0  0.94374962667E-01  0.29905203271E+01 -0.93198567161E+01  0.97883526668E+01  0.51100000000E-03 0. -1.
        -11    1    3    3    0    0  0.20734681674E+02 -0.29610260908E+00 -0.29685301643E+02  0.36210935293E+02  0.51100000000E-03 0.  1.
        -12    1    3    3    0    0 -0.55329761401E+00 -0.15718123172E+01  0.64819817347E+00  0.17879857612E+01  0.00000000000E+00 0.  1.
</event>
<event>
 7    1  0.4818508E-009  0.4778727E+02  0.7816164E-02  0.1312668E+00
        -11   -1    0    0    0    0  0.00000000000E+00  0.00000000000E+00  0.45593999997E+02  0.45594000000E+02  0.51100000000E-03 0. -1.
         11   -1    0    0    0    0 -0.00000000000E+00 -0.00000000000E+00 -0.45593999997E+02  0.45594000000E+02  0.51100000000E-03 0.  1.
    9900012    2    1    2    0    0  0.24671037209E+02  0.34616110025E+02  0.87571826644E+01  0.47787269609E+02  0.19999993456E+02 0.  0.
         12    1    1    2    0    0 -0.24671037209E+02 -0.34616110025E+02 -0.87571826644E+01  0.43400730391E+02  0.00000000000E+00 0. -1.
         11    1    3    3    0    0  0.23533761253E+01 -0.64881090465E+00 -0.47978603010E+00  0.24878765389E+01  0.51100000000E-03 0. -1.
        -11    1    3    3    0    0  0.13303268123E+02  0.20520462778E+02  0.12877044047E+02  0.27638462313E+02  0.51100000000E-03 0.  1.
        -12    1    3    3    0    0  0.90143929612E+01  0.14744458152E+02 -0.36400753526E+01  0.17660930757E+02  0.00000000000E+00 0.  1.
</event>
<event>
 7    1  0.4818508E-009  0.4778727E+02  0.7816164E-02  0.1312668E+00
        -11   -1    0    0    0    0  0.00000000000E+00  0.00000000000E+00  0.45593999997E+02  0.45594000000E+02  0.51100000000E-03 0.  1.
         11   -1    0    0    0    0 -0.00000000000E+00 -0.00000000000E+00 -0.45593999997E+02  0.45594000000E+02  0.51100000000E-03 0. -1.
    9900012    2    1    2    0    0 -0.37529775480E+02 -0.76808598544E+01  0.20399604748E+02  0.47787268099E+02  0.19999986569E+02 0.  0.
         12    1    1    2    0    0  0.37529775480E+02  0.76808598544E+01 -0.20399604748E+02  0.43400731901E+02  0.00000000000E+00 0. -1.
         11    1    3    3    0    0 -0.20420864587E+02  0.29854605519E+01  0.14335800782E+02  0.25128467313E+02  0.51100000000E-03 0. -1.
        -11    1    3    3    0    0 -0.16180214907E+02 -0.77165124436E+01  0.72634741565E+01  0.19341715948E+02  0.51100000000E-03 0.  1.
         12    1    3    3    0    0 -0.92869598559E+00 -0.29498079627E+01 -0.11996701905E+01  0.33170848371E+01  0.00000000000E+00 0. -1.
</event>
<event>
 7    1  0.4818508E-009  0.4778728E+02  0.7816164E-02  0.1312668E+00
        -11   -1    0    0    0    0  0.00000000000E+00  0.00000000000E+00  0.45593999997E+02  0.45594000000E+02  0.51100000000E-03 0.  1.
         11   -1    0    0    0    0 -0.00000000000E+00 -0.00000000000E+00 -0.45593999997E+02  0.45594000000E+02  0.51100000000E-03 0. -1.
    9900012    2    1    2    0    0  0.31551031636E+02 -0.19191768011E+02  0.22799804499E+02  0.47787278325E+02  0.20000033196E+02 0.  0.
         12    1    1    2    0    0 -0.31551031636E+02  0.19191768011E+02 -0.22799804499E+02  0.43400721675E+02  0.00000000000E+00 0. -1.
         11    1    3    3    0    0  0.86083139490E+01 -0.40176136489E+01  0.15256629287E+02  0.17972451862E+02  0.51100000000E-03 0. -1.
        -11    1    3    3    0    0  0.72773686980E+01 -0.31148227584E+01  0.60984643631E+01  0.99926715063E+01  0.51100000000E-03 0.  1.
         12    1    3    3    0    0  0.15665348989E+02 -0.12059331604E+02  0.14447108488E+01  0.19822154957E+02  0.00000000000E+00 0. -1.
</event>
<event>
 7    1  0.4818508E-009  0.4778729E+02  0.7816164E-02  0.1312668E+00
        -11   -1    0    0    0    0  0.00000000000E+00  0.00000000000E+00  0.45593999997E+02  0.45594000000E+02  0.51100000000E-03 0.  1.
         11   -1    0    0    0    0 -0.00000000000E+00 -0.00000000000E+00 -0.45593999997E+02  0.45594000000E+02  0.51100000000E-03 0. -1.
    9900012    2    1    2    0    0 -0.29234003023E+02  0.27685940911E+02  0.16201325551E+02  0.47787294862E+02  0.20000108593E+02 0.  0.
         12    1    1    2    0    0  0.29234003023E+02 -0.27685940911E+02 -0.16201325551E+02  0.43400705138E+02  0.00000000000E+00 0. -1.
         11    1    3    3    0    0 -0.46582007360E+00  0.13980197434E+01 -0.12264822957E+01  0.19172132449E+01  0.51100000000E-03 0. -1.
        -11    1    3    3    0    0  0.11379234630E+01  0.40368761286E+01 -0.96461038809E+00  0.43036858793E+01  0.51100000000E-03 0.  1.
        -12    1    3    3    0    0 -0.29906106412E+02  0.22251045039E+02  0.18392418235E+02  0.41566395738E+02  0.00000000000E+00 0.  1.
</event>
<event>
 7    1  0.4818508E-009  0.4778728E+02  0.7816164E-02  0.1312668E+00
        -11   -1    0    0    0    0  0.00000000000E+00  0.00000000000E+00  0.45593999997E+02  0.45594000000E+02  0.51100000000E-03 0. -1.
         11   -1    0    0    0    0 -0.00000000000E+00 -0.00000000000E+00 -0.45593999997E+02  0.45594000000E+02  0.51100000000E-03 0.  1.
    9900012    2    1    2    0    0 -0.20090100856E+02  0.92482561666E+01 -0.37342743801E+02  0.47787275247E+02  0.20000019161E+02 0.  0.
         12    1    1    2    0    0  0.20090100856E+02 -0.92482561666E+01  0.37342743801E+02  0.43400724753E+02  0.00000000000E+00 0. -1.
         11    1    3    3    0    0 -0.41512829598E+01 -0.49990559453E+01 -0.11230727147E+02  0.12975089328E+02  0.51100000000E-03 0. -1.
        -11    1    3    3    0    0 -0.14341444508E+02  0.12723885959E+02 -0.26355755025E+02  0.32591411870E+02  0.51100000000E-03 0.  1.
         12    1    3    3    0    0 -0.15973733885E+01  0.15234261533E+01  0.24373837079E+00  0.22207740498E+01  0.00000000000E+00 0. -1.
</event>
<event>
 7    1  0.4818508E-009  0.4778725E+02  0.7816164E-02  0.1312668E+00
        -11   -1    0    0    0    0  0.00000000000E+00  0.00000000000E+00  0.45593999997E+02  0.45594000000E+02  0.51100000000E-03 0.  1.
         11   -1    0    0    0    0 -0.00000000000E+00 -0.00000000000E+00 -0.45593999997E+02  0.45594000000E+02  0.51100000000E-03 0. -1.
    9900012    2    1    2    0    0 -0.10908559033E+02 -0.85997592936E+00  0.41998673556E+02  0.47787253471E+02  0.19999919877E+02 0.  0.
         12    1    1    2    0    0  0.10908559033E+02  0.85997592936E+00 -0.41998673556E+02  0.43400746529E+02  0.00000000000E+00 0. -1.
         11    1    3    3    0    0 -0.49823640620E+01  0.20261442724E+01  0.93103151120E+01  0.10752263948E+02  0.51100000000E-03 0. -1.
        -11    1    3    3    0    0 -0.16217912955E+01  0.49305441924E+01  0.24090848510E+02  0.24643649389E+02  0.51100000000E-03 0.  1.
        -12    1    3    3    0    0 -0.43044036758E+01 -0.78166643941E+01  0.85975099341E+01  0.12391340134E+02  0.00000000000E+00 0.  1.
</event>
<event>
 7    1  0.4818508E-009  0.4778727E+02  0.7816164E-02  0.1312668E+00
        -11   -1    0    0    0    0  0.00000000000E+00  0.00000000000E+00  0.45593999997E+02  0.45594000000E+02  0.51100000000E-03 0.  1.
         11   -1    0    0    0    0 -0.00000000000E+00 -0.00000000000E+00 -0.45593999997E+02  0.45594000000E+02  0.51100000000E-03 0. -1.
    9900012    2    1    2    0    0  0.23735479381E+02  0.23283534511E+02  0.27894935468E+02  0.47787269758E+02  0.19999994135E+02 0.  0.
         12    1    1    2    0    0 -0.23735479381E+02 -0.23283534511E+02 -0.27894935468E+02  0.43400730242E+02  0.00000000000E+00 0. -1.
         11    1    3    3    0    0  0.10962086514E+01  0.14039706746E+01  0.14564903313E+00  0.17871824094E+01  0.51100000000E-03 0. -1.
        -11    1    3    3    0    0  0.79265272321E+01  0.15206499557E+02  0.23860147341E+02  0.29383228109E+02  0.51100000000E-03 0.  1.
        -12    1    3    3    0    0  0.14712743497E+02  0.66730642796E+01  0.38891390947E+01  0.16616859240E+02  0.00000000000E+00 0.  1.
</event>
<event>
 7    1  0.4818508E-009  0.4778727E+02  0.7816164E-02  0.1312668E+00
        -11   -1    0    0    0    0  0.00000000000E+00  0.00000000000E+00  0.45593999997E+02  0.45594000000E+02  0.51100000000E-03 0.  1.
         11   -1    0    0    0    0 -0.00000000000E+00 -0.00000000000E+00 -0.45593999997E+02  0.45594000000E+02  0.51100000000E-03 0. -1.
    9900012    2    1    2    0    0 -0.24411090369E+02 -0.76144076383E+01  0.35067693662E+02  0.47787266418E+02  0.19999978906E+02 0.  0.
         12    1    1    2    0    0  0.24411090369E+02  0.76144076383E+01 -0.35067693662E+02  0.43400733582E+02  0.00000000000E+00 0. -1.
         11    1    3    3    0    0 -0.41052404109E+01 -0.42454973890E+01 -0.34123586827E+00  0.59155463898E+01  0.51100000000E-03 0. -1.
        -11    1    3    3    0    0 -0.81689858354E+01  0.29246094028E+01  0.13706592590E+02  0.16222094515E+02  0.51100000000E-03 0.  1.
         12    1    3    3    0    0 -0.12136864122E+02 -0.62935196521E+01  0.21702336940E+02  0.25649625514E+02  0.00000000000E+00 0. -1.
</event>
<event>
 7    1  0.4818508E-009  0.4778727E+02  0.7816164E-02  0.1312668E+00
        -11   -1    0    0    0    0  0.00000000000E+00  0.00000000000E+00  0.45593999997E+02  0.45594000000E+02  0.51100000000E-03 0.  1.
         11   -1    0    0    0    0 -0.00000000000E+00 -0.00000000000E+00 -0.45593999997E+02  0.45594000000E+02  0.51100000000E-03 0. -1.
    9900012    2    1    2    0    0 -0.39167850771E+02  0.10908839801E+02  0.15182218804E+02  0.47787273191E+02  0.20000009785E+02 0.  0.
         12    1    1    2    0    0  0.39167850771E+02 -0.10908839801E+02 -0.15182218804E+02  0.43400726809E+02  0.00000000000E+00 0. -1.
         11    1    3    3    0    0 -0.82016050801E+01 -0.13521318454E+01 -0.36816484785E+01  0.90911562630E+01  0.51100000000E-03 0. -1.
        -11    1    3    3    0    0 -0.12389027937E+02  0.46577757189E+01  0.10726748975E+02  0.17036608574E+02  0.51100000000E-03 0.  1.
         12    1    3    3    0    0 -0.18577217753E+02  0.76031959277E+01  0.81371183073E+01  0.21659508354E+02  0.00000000000E+00 0. -1.
</event>
<event>
 7    1  0.4818508E-009  0.4778727E+02  0.7816164E-02  0.1312668E+00
        -11   -1    0    0    0    0  0.00000000000E+00  0.00000000000E+00  0.45593999997E+02  0.45594000000E+02  0.51100000000E-03 0. -1.
         11   -1    0    0    0    0 -0.00000000000E+00 -0.00000000000E+00 -0.45593999997E+02  0.45594000000E+02  0.51100000000E-03 0.  1.
    9900012    2    1    2    0    0 -0.34272802653E+02  0.87347837002E+01  0.25153574864E+02  0.47787265255E+02  0.19999973603E+02 0.  0.
         12    1    1    2    0    0  0.34272802653E+02 -0.87347837002E+01 -0.25153574864E+02  0.43400734745E+02  0.00000000000E+00 0. -1.
         11    1    3    3    0    0 -0.16166211168E+02 -0.11083465667E+01  0.15728787410E+02  0.22582505824E+02  0.51100000000E-03 0. -1.
        -11    1    3    3    0    0 -0.15379065035E+02  0.32732796736E+01  0.89101096569E+01  0.18072632778E+02  0.51100000000E-03 0.  1.
         12    1    3    3    0    0 -0.27275264508E+01  0.65698505933E+01  0.51467779621E+00  0.71321266528E+01  0.00000000000E+00 0. -1.
</event>
<event>
 7    1  0.4818508E-009  0.4778727E+02  0.7816164E-02  0.1312668E+00
        -11   -1    0    0    0    0  0.00000000000E+00  0.00000000000E+00  0.45593999997E+02  0.45594000000E+02  0.51100000000E-03 0.  1.
         11   -1    0    0    0    0 -0.00000000000E+00 -0.00000000000E+00 -0.45593999997E+02  0.45594000000E+02  0.51100000000E-03 0. -1.
    9900012    2    1    2    0    0 -0.13521865752E+02 -0.11406001596E+02  0.39631875507E+02  0.47787270951E+02  0.19999999574E+02 0.  0.
         12    1    1    2    0    0  0.13521865752E+02  0.11406001596E+02 -0.39631875507E+02  0.43400729049E+02  0.00000000000E+00 0. -1.
         11    1    3    3    0    0  0.22143219869E+01 -0.79971365222E+01  0.69864071217E+01  0.10847455884E+02  0.51100000000E-03 0. -1.
        -11    1    3    3    0    0 -0.11878069639E+02 -0.43398272766E+01  0.28607273248E+02  0.31277767217E+02  0.51100000000E-03 0.  1.
         12    1    3    3    0    0 -0.38581180998E+01  0.93096220299E+00  0.40381951374E+01  0.56620478507E+01  0.00000000000E+00 0. -1.
</event>
<event>
 7    1  0.4818508E-009  0.4778724E+02  0.7816164E-02  0.1312668E+00
        -11   -1    0    0    0    0  0.00000000000E+00  0.00000000000E+00  0.45593999997E+02  0.45594000000E+02  0.51100000000E-03 0.  1.
         11   -1    0    0    0    0 -0.00000000000E+00 -0.00000000000E+00 -0.45593999997E+02  0.45594000000E+02  0.51100000000E-03 0. -1.
    9900012    2    1    2    0    0 -0.35694784778E+02  0.23994092753E+02  0.58130880565E+01  0.47787238023E+02  0.19999849443E+02 0.  0.
         12    1    1    2    0    0  0.35694784778E+02 -0.23994092753E+02 -0.58130880565E+01  0.43400761977E+02  0.00000000000E+00 0. -1.
         11    1    3    3    0    0 -0.24420461206E+02  0.21546393568E+02 -0.34949930056E+01  0.32753945986E+02  0.51100000000E-03 0. -1.
        -11    1    3    3    0    0 -0.78284333802E+01  0.50780686949E+00  0.64089042636E+01  0.10129969947E+02  0.51100000000E-03 0.  1.
         12    1    3    3    0    0 -0.34458901922E+01  0.19398923157E+01  0.28991767985E+01  0.49033220904E+01  0.00000000000E+00 0. -1.
</event>
<event>
 7    1  0.4818508E-009  0.4778727E+02  0.7816164E-02  0.1312668E+00
        -11   -1    0    0    0    0  0.00000000000E+00  0.00000000000E+00  0.45593999997E+02  0.45594000000E+02  0.51100000000E-03 0.  1.
         11   -1    0    0    0    0 -0.00000000000E+00 -0.00000000000E+00 -0.45593999997E+02  0.45594000000E+02  0.51100000000E-03 0. -1.
    9900012    2    1    2    0    0  0.14798647382E+02  0.24211637155E+02  0.32839309149E+02  0.47787267708E+02  0.19999984789E+02 0.  0.
         12    1    1    2    0    0 -0.14798647382E+02 -0.24211637155E+02 -0.32839309149E+02  0.43400732292E+02  0.00000000000E+00 0. -1.
         11    1    3    3    0    0  0.19576502013E+01  0.55182477998E+01  0.24315084030E+01  0.63400068190E+01  0.51100000000E-03 0. -1.
        -11    1    3    3    0    0 -0.29793434036E+01  0.82685469320E+01  0.13166470865E+02  0.15830391997E+02  0.51100000000E-03 0.  1.
        -12    1    3    3    0    0  0.15820340584E+02  0.10424842423E+02  0.17241329881E+02  0.25616868892E+02  0.00000000000E+00 0.  1.
</event>
<event>
 7    1  0.4818508E-009  0.4778727E+02  0.7816164E-02  0.1312668E+00
        -11   -1    0    0    0    0  0.00000000000E+00  0.00000000000E+00  0.45593999997E+02  0.45594000000E+02  0.51100000000E-03 0.  1.
         11   -1    0    0    0    0 -0.00000000000E+00 -0.00000000000E+00 -0.45593999997E+02  0.45594000000E+02  0.51100000000E-03 0. -1.
    9900012    2    1    2    0    0  0.57193946603E+01  0.27719191141E+02  0.32902253561E+02  0.47787270488E+02  0.19999997464E+02 0.  0.
         12    1    1    2    0    0 -0.57193946603E+01 -0.27719191141E+02 -0.32902253561E+02  0.43400729512E+02  0.00000000000E+00 0. -1.
         11    1    3    3    0    0 -0.46884452951E+01  0.14025102729E+02  0.19497447573E+02  0.24471115380E+02  0.51100000000E-03 0. -1.
        -11    1    3    3    0    0  0.49920844393E+00  0.44286372990E+01  0.70385738022E+01  0.83308798351E+01  0.51100000000E-03 0.  1.
         12    1    3    3    0    0  0.99086315114E+01  0.92654511133E+01  0.63662321858E+01  0.14985275273E+02  0.00000000000E+00 0. -1.
</event>
<event>
 7    1  0.4818508E-009  0.4778728E+02  0.7816164E-02  0.1312668E+00
        -11   -1    0    0    0    0  0.00000000000E+00  0.00000000000E+00  0.45593999997E+02  0.45594000000E+02  0.51100000000E-03 0.  1.
         11   -1    0    0    0    0 -0.00000000000E+00 -0.00000000000E+00 -0.45593999997E+02  0.45594000000E+02  0.51100000000E-03 0. -1.
    9900012    2    1    2    0    0 -0.14745416595E+02 -0.93282744548E+01  0.39738878616E+02  0.47787280092E+02  0.20000041250E+02 0.  0.
         12    1    1    2    0    0  0.14745416595E+02  0.93282744548E+01 -0.39738878616E+02  0.43400719908E+02  0.00000000000E+00 0. -1.
         11    1    3    3    0    0  0.33934232633E+01 -0.22629403739E-01  0.14603723669E+01  0.36943905106E+01  0.51100000000E-03 0. -1.
        -11    1    3    3    0    0 -0.14458664686E+02 -0.92674317982E+01  0.25120642943E+02  0.30430001294E+02  0.51100000000E-03 0.  1.
        -12    1    3    3    0    0 -0.36801751730E+01 -0.38213252919E-01  0.13157863306E+02  0.13662888287E+02  0.00000000000E+00 0.  1.
</event>
<event>
 7    1  0.4818508E-009  0.4778727E+02  0.7816164E-02  0.1312668E+00
        -11   -1    0    0    0    0  0.00000000000E+00  0.00000000000E+00  0.45593999997E+02  0.45594000000E+02  0.51100000000E-03 0. -1.
         11   -1    0    0    0    0 -0.00000000000E+00 -0.00000000000E+00 -0.45593999997E+02  0.45594000000E+02  0.51100000000E-03 0.  1.
    9900012    2    1    2    0    0  0.24510046641E+02  0.26050828118E+02 -0.24581203656E+02  0.47787267228E+02  0.19999982598E+02 0.  0.
         12    1    1    2    0    0 -0.24510046641E+02 -0.26050828118E+02  0.24581203656E+02  0.43400732772E+02  0.00000000000E+00 0. -1.
         11    1    3    3    0    0  0.25436393972E+01 -0.22232155545E+01 -0.15174686412E+01  0.37034443594E+01  0.51100000000E-03 0. -1.
        -11    1    3    3    0    0  0.21708558823E+02  0.24210663304E+02 -0.23302456317E+02  0.40005277333E+02  0.51100000000E-03 0.  1.
        -12    1    3    3    0    0  0.25784842149E+00  0.40633803684E+01  0.23872130212E+00  0.40785455357E+01  0.00000000000E+00 0.  1.
</event>
<event>
 7    1  0.4818508E-009  0.4778727E+02  0.7816164E-02  0.1312668E+00
        -11   -1    0    0    0    0  0.00000000000E+00  0.00000000000E+00  0.45593999997E+02  0.45594000000E+02  0.51100000000E-03 0.  1.
         11   -1    0    0    0    0 -0.00000000000E+00 -0.00000000000E+00 -0.45593999997E+02  0.45594000000E+02  0.51100000000E-03 0. -1.
    9900012    2    1    2    0    0  0.85049744665E+01 -0.37931527211E+02  0.19299944825E+02  0.47787271695E+02  0.20000002964E+02 0.  0.
         12    1    1    2    0    0 -0.85049744665E+01  0.37931527211E+02 -0.19299944825E+02  0.43400728305E+02  0.00000000000E+00 0. -1.
         11    1    3    3    0    0  0.24536909845E+01 -0.27232778087E+02  0.20496803931E+02  0.34172558778E+02  0.51100000000E-03 0. -1.
        -11    1    3    3    0    0  0.32637302764E+01 -0.77563346077E+01  0.17606386551E+01  0.85972385450E+01  0.51100000000E-03 0.  1.
         12    1    3    3    0    0  0.27875532055E+01 -0.29424145164E+01 -0.29574977618E+01  0.50174743718E+01  0.00000000000E+00 0. -1.
</event>
<event>
 7    1  0.4818508E-009  0.4778727E+02  0.7816164E-02  0.1312668E+00
        -11   -1    0    0    0    0  0.00000000000E+00  0.00000000000E+00  0.45593999997E+02  0.45594000000E+02  0.51100000000E-03 0.  1.
         11   -1    0    0    0    0 -0.00000000000E+00 -0.00000000000E+00 -0.45593999997E+02  0.45594000000E+02  0.51100000000E-03 0. -1.
    9900012    2    1    2    0    0 -0.30060712279E+02  0.75639931504E+01  0.30377012518E+02  0.47787270691E+02  0.19999998386E+02 0.  0.
         12    1    1    2    0    0  0.30060712279E+02 -0.75639931504E+01 -0.30377012518E+02  0.43400729309E+02  0.00000000000E+00 0. -1.
         11    1    3    3    0    0  0.10603404756E+01  0.13244091018E+01  0.54879620955E+00  0.17831317769E+01  0.51100000000E-03 0. -1.
        -11    1    3    3    0    0 -0.20733369388E+02  0.11007425488E+02  0.18239746727E+02  0.29727502131E+02  0.51100000000E-03 0.  1.
        -12    1    3    3    0    0 -0.10387683366E+02 -0.47678414389E+01  0.11588469581E+02  0.16276636782E+02  0.00000000000E+00 0.  1.
</event>
<event>
 7    1  0.4818508E-009  0.4778727E+02  0.7816164E-02  0.1312668E+00
        -11   -1    0    0    0    0  0.00000000000E+00  0.00000000000E+00  0.45593999997E+02  0.45594000000E+02  0.51100000000E-03 0.  1.
         11   -1    0    0    0    0 -0.00000000000E+00 -0.00000000000E+00 -0.45593999997E+02  0.45594000000E+02  0.51100000000E-03 0. -1.
    9900012    2    1    2    0    0  0.96751888798E+01  0.15243090651E+02  0.39467229391E+02  0.47787270878E+02  0.19999999243E+02 0.  0.
         12    1    1    2    0    0 -0.96751888798E+01 -0.15243090651E+02 -0.39467229391E+02  0.43400729122E+02  0.00000000000E+00 0. -1.
         11    1    3    3    0    0 -0.12622935126E+01  0.62947858892E+01  0.12895759673E+02  0.14405496593E+02  0.51100000000E-03 0.  1.
        -11    1    3    3    0    0  0.43882854711E+01 -0.22278986695E+01  0.15755362108E+02  0.16506120600E+02  0.51100000000E-03 0. -1.
        -12    1    3    3    0    0  0.65491969213E+01  0.11176203431E+02  0.10816107611E+02  0.16875653685E+02  0.00000000000E+00 0.  1.
</event>
<event>
 7    1  0.4818508E-009  0.4778728E+02  0.7816164E-02  0.1312668E+00
        -11   -1    0    0    0    0  0.00000000000E+00  0.00000000000E+00  0.45593999997E+02  0.45594000000E+02  0.51100000000E-03 0.  1.
         11   -1    0    0    0    0 -0.00000000000E+00 -0.00000000000E+00 -0.45593999997E+02  0.45594000000E+02  0.51100000000E-03 0. -1.
    9900012    2    1    2    0    0  0.21685474579E+02  0.32108625259E+02  0.19555030650E+02  0.47787275957E+02  0.20000022397E+02 0.  0.
         12    1    1    2    0    0 -0.21685474579E+02 -0.32108625259E+02 -0.19555030650E+02  0.43400724043E+02  0.00000000000E+00 0. -1.
         11    1    3    3    0    0 -0.14657638976E+01  0.43813409023E+01 -0.23371727861E+00  0.46259308180E+01  0.51100000000E-03 0. -1.
        -11    1    3    3    0    0  0.20738050435E+02  0.24900957571E+02  0.12044602620E+02  0.34571619521E+02  0.51100000000E-03 0.  1.
        -12    1    3    3    0    0  0.24131880419E+01  0.28263267860E+01  0.77441453084E+01  0.85897256175E+01  0.00000000000E+00 0.  1.
</event>
<event>
 7    1  0.4818508E-009  0.4778727E+02  0.7816164E-02  0.1312668E+00
        -11   -1    0    0    0    0  0.00000000000E+00  0.00000000000E+00  0.45593999997E+02  0.45594000000E+02  0.51100000000E-03 0. -1.
         11   -1    0    0    0    0 -0.00000000000E+00 -0.00000000000E+00 -0.45593999997E+02  0.45594000000E+02  0.51100000000E-03 0.  1.
    9900012    2    1    2    0    0  0.23182160335E+02  0.26594957835E+02 -0.25276849148E+02  0.47787269097E+02  0.19999991120E+02 0.  0.
         12    1    1    2    0    0 -0.23182160335E+02 -0.26594957835E+02  0.25276849148E+02  0.43400730903E+02  0.00000000000E+00 0. -1.
         11    1    3    3    0    0 -0.48563935275E+00  0.57049217716E+01  0.10287593597E+01  0.58172436843E+01  0.51100000000E-03 0. -1.
        -11    1    3    3    0    0  0.19661226410E+02  0.13129153936E+02 -0.16452905033E+02  0.28803412841E+02  0.51100000000E-03 0.  1.
        -12    1    3    3    0    0  0.40065732777E+01  0.77608821280E+01 -0.98527034748E+01  0.13166612571E+02  0.00000000000E+00 0.  1.
</event>
<event>
 7    1  0.4818508E-009  0.4778727E+02  0.7816164E-02  0.1312668E+00
        -11   -1    0    0    0    0  0.00000000000E+00  0.00000000000E+00  0.45593999997E+02  0.45594000000E+02  0.51100000000E-03 0.  1.
         11   -1    0    0    0    0 -0.00000000000E+00 -0.00000000000E+00 -0.45593999997E+02  0.45594000000E+02  0.51100000000E-03 0. -1.
    9900012    2    1    2    0    0  0.26385104652E+02  0.23582992612E+02  0.25125521571E+02  0.47787272791E+02  0.20000007963E+02 0.  0.
         12    1    1    2    0    0 -0.26385104652E+02 -0.23582992612E+02 -0.25125521571E+02  0.43400727209E+02  0.00000000000E+00 0. -1.
         11    1    3    3    0    0  0.56317824599E+01  0.99281865224E+01  0.14005896816E+02  0.18067955257E+02  0.51100000000E-03 0. -1.
        -11    1    3    3    0    0  0.91368056456E+01  0.10467112523E+02  0.90129909146E+00  0.13923146278E+02  0.51100000000E-03 0.  1.
         12    1    3    3    0    0  0.11616516547E+02  0.31876935668E+01  0.10218325664E+02  0.15796171255E+02  0.00000000000E+00 0. -1.
</event>
<event>
 7    1  0.4818508E-009  0.4778727E+02  0.7816164E-02  0.1312668E+00
        -11   -1    0    0    0    0  0.00000000000E+00  0.00000000000E+00  0.45593999997E+02  0.45594000000E+02  0.51100000000E-03 0. -1.
         11   -1    0    0    0    0 -0.00000000000E+00 -0.00000000000E+00 -0.45593999997E+02  0.45594000000E+02  0.51100000000E-03 0.  1.
    9900012    2    1    2    0    0 -0.29021811828E+02 -0.14764477759E+02 -0.28694394402E+02  0.47787266880E+02  0.19999981013E+02 0.  0.
         12    1    1    2    0    0  0.29021811828E+02  0.14764477759E+02  0.28694394402E+02  0.43400733120E+02  0.00000000000E+00 0. -1.
         11    1    3    3    0    0 -0.40421547111E+01 -0.69016503439E+01 -0.12826678631E+02  0.15116066854E+02  0.51100000000E-03 0.  1.
        -11    1    3    3    0    0 -0.25820395011E+02 -0.76810273955E+01 -0.13459418443E+02  0.30113899207E+02  0.51100000000E-03 0. -1.
         12    1    3    3    0    0  0.84073789481E+00 -0.18180001955E+00 -0.24082973283E+01  0.25573008185E+01  0.00000000000E+00 0. -1.
</event>
<event>
 7    1  0.4818508E-009  0.4778729E+02  0.7816164E-02  0.1312668E+00
        -11   -1    0    0    0    0  0.00000000000E+00  0.00000000000E+00  0.45593999997E+02  0.45594000000E+02  0.51100000000E-03 0.  1.
         11   -1    0    0    0    0 -0.00000000000E+00 -0.00000000000E+00 -0.45593999997E+02  0.45594000000E+02  0.51100000000E-03 0. -1.
    9900012    2    1    2    0    0 -0.26600029777E+02  0.28827643815E+02  0.18574911057E+02  0.47787286263E+02  0.20000069389E+02 0.  0.
         12    1    1    2    0    0  0.26600029777E+02 -0.28827643815E+02 -0.18574911057E+02  0.43400713737E+02  0.00000000000E+00 0. -1.
         11    1    3    3    0    0 -0.53044382058E+01 -0.47606379096E+00  0.41238085081E+01  0.67356884047E+01  0.51100000000E-03 0. -1.
        -11    1    3    3    0    0 -0.22177386655E+02  0.22638892593E+02  0.11573321513E+02  0.33738667843E+02  0.51100000000E-03 0.  1.
        -12    1    3    3    0    0  0.88179508388E+00  0.66648150126E+01  0.28777810365E+01  0.73129300158E+01  0.00000000000E+00 0.  1.
</event>
<event>
 7    1  0.4818508E-009  0.4778727E+02  0.7816164E-02  0.1312668E+00
        -11   -1    0    0    0    0  0.00000000000E+00  0.00000000000E+00  0.45593999997E+02  0.45594000000E+02  0.51100000000E-03 0.  1.
         11   -1    0    0    0    0 -0.00000000000E+00 -0.00000000000E+00 -0.45593999997E+02  0.45594000000E+02  0.51100000000E-03 0. -1.
    9900012    2    1    2    0    0  0.20146150654E+02 -0.35444433223E+02  0.14881126019E+02  0.47787272538E+02  0.20000006809E+02 0.  0.
         12    1    1    2    0    0 -0.20146150654E+02  0.35444433223E+02 -0.14881126019E+02  0.43400727462E+02  0.00000000000E+00 0. -1.
         11    1    3    3    0    0  0.70712484401E+01 -0.13415587543E+02  0.53992452200E+00  0.15174717868E+02  0.51100000000E-03 0. -1.
        -11    1    3    3    0    0  0.30379655172E+01 -0.13548621749E+02  0.13624761706E+02  0.19453239256E+02  0.51100000000E-03 0.  1.
        -12    1    3    3    0    0  0.10036936697E+02 -0.84802239313E+01  0.71643979162E+00  0.13159315414E+02  0.00000000000E+00 0.  1.
</event>
<event>
 7    1  0.4818508E-009  0.4778727E+02  0.7816164E-02  0.1312668E+00
        -11   -1    0    0    0    0  0.00000000000E+00  0.00000000000E+00  0.45593999997E+02  0.45594000000E+02  0.51100000000E-03 0. -1.
         11   -1    0    0    0    0 -0.00000000000E+00 -0.00000000000E+00 -0.45593999997E+02  0.45594000000E+02  0.51100000000E-03 0.  1.
    9900012    2    1    2    0    0 -0.20819066277E+02 -0.36310626518E+02 -0.11477292390E+02  0.47787270059E+02  0.19999995509E+02 0.  0.
         12    1    1    2    0    0  0.20819066277E+02  0.36310626518E+02  0.11477292390E+02  0.43400729941E+02  0.00000000000E+00 0. -1.
         11    1    3    3    0    0 -0.11792866801E+01 -0.75029896811E+01 -0.90802831609E+01  0.11837952263E+02  0.51100000000E-03 0. -1.
        -11    1    3    3    0    0 -0.85594503153E+01 -0.76259361442E+01 -0.35957371422E+01  0.12014508630E+02  0.51100000000E-03 0.  1.
         12    1    3    3    0    0 -0.11080329282E+02 -0.21181700693E+02  0.11987279127E+01  0.23934809166E+02  0.00000000000E+00 0. -1.
</event>
<event>
 7    1  0.4818508E-009  0.4778727E+02  0.7816164E-02  0.1312668E+00
        -11   -1    0    0    0    0  0.00000000000E+00  0.00000000000E+00  0.45593999997E+02  0.45594000000E+02  0.51100000000E-03 0. -1.
         11   -1    0    0    0    0 -0.00000000000E+00 -0.00000000000E+00 -0.45593999997E+02  0.45594000000E+02  0.51100000000E-03 0.  1.
    9900012    2    1    2    0    0  0.33312411517E+02 -0.13766285689E+02 -0.24174285268E+02  0.47787269005E+02  0.19999990700E+02 0.  0.
         12    1    1    2    0    0 -0.33312411517E+02  0.13766285689E+02  0.24174285268E+02  0.43400730995E+02  0.00000000000E+00 0. -1.
         11    1    3    3    0    0  0.49305589827E+01  0.13831412466E+01 -0.36926836938E+01  0.63134305027E+01  0.51100000000E-03 0. -1.
        -11    1    3    3    0    0  0.26131170778E+02 -0.64597859070E+01 -0.17053291081E+02  0.31865053855E+02  0.51100000000E-03 0.  1.
        -12    1    3    3    0    0  0.22506817561E+01 -0.86896410283E+01 -0.34283104925E+01  0.96087846474E+01  0.00000000000E+00 0.  1.
</event>
<event>
 7    1  0.4818508E-009  0.4778726E+02  0.7816164E-02  0.1312668E+00
        -11   -1    0    0    0    0  0.00000000000E+00  0.00000000000E+00  0.45593999997E+02  0.45594000000E+02  0.51100000000E-03 0. -1.
         11   -1    0    0    0    0 -0.00000000000E+00 -0.00000000000E+00 -0.45593999997E+02  0.45594000000E+02  0.51100000000E-03 0.  1.
    9900012    2    1    2    0    0  0.33071075293E+02  0.28103908155E+02 -0.31429562612E+00  0.47787257421E+02  0.19999937887E+02 0.  0.
         12    1    1    2    0    0 -0.33071075293E+02 -0.28103908155E+02  0.31429562612E+00  0.43400742579E+02  0.00000000000E+00 0. -1.
         11    1    3    3    0    0  0.13146477587E+01 -0.22189970086E+01 -0.17877298295E+01  0.31381881171E+01  0.51100000000E-03 0. -1.
        -11    1    3    3    0    0  0.10770104272E+02  0.10648642652E+02 -0.32691927808E+01  0.15494397634E+02  0.51100000000E-03 0.  1.
         12    1    3    3    0    0  0.20986323263E+02  0.19674262512E+02  0.47426269842E+01  0.29154671670E+02  0.00000000000E+00 0. -1.
</event>
<event>
 7    1  0.4818508E-009  0.4778727E+02  0.7816164E-02  0.1312668E+00
        -11   -1    0    0    0    0  0.00000000000E+00  0.00000000000E+00  0.45593999997E+02  0.45594000000E+02  0.51100000000E-03 0. -1.
         11   -1    0    0    0    0 -0.00000000000E+00 -0.00000000000E+00 -0.45593999997E+02  0.45594000000E+02  0.51100000000E-03 0.  1.
    9900012    2    1    2    0    0 -0.12514045469E+02  0.17567270514E+02 -0.37661823590E+02  0.47787270934E+02  0.19999999497E+02 0.  0.
         12    1    1    2    0    0  0.12514045469E+02 -0.17567270514E+02  0.37661823590E+02  0.43400729066E+02  0.00000000000E+00 0. -1.
         11    1    3    3    0    0 -0.35768289431E+01 -0.15947454412E+01 -0.15594069266E+01  0.42152898518E+01  0.51100000000E-03 0. -1.
        -11    1    3    3    0    0 -0.69038753266E+01  0.20035439380E+02 -0.35385425164E+02  0.41245734810E+02  0.51100000000E-03 0.  1.
        -12    1    3    3    0    0 -0.20333411993E+01 -0.87342342486E+00 -0.71699149926E+00  0.23262462728E+01  0.00000000000E+00 0.  1.
</event>
<event>
 7    1  0.4818508E-009  0.4778727E+02  0.7816164E-02  0.1312668E+00
        -11   -1    0    0    0    0  0.00000000000E+00  0.00000000000E+00  0.45593999997E+02  0.45594000000E+02  0.51100000000E-03 0.  1.
         11   -1    0    0    0    0 -0.00000000000E+00 -0.00000000000E+00 -0.45593999997E+02  0.45594000000E+02  0.51100000000E-03 0. -1.
    9900012    2    1    2    0    0  0.37728665340E+02  0.21437483366E+02  0.77835502450E+00  0.47787265929E+02  0.19999976676E+02 0.  0.
         12    1    1    2    0    0 -0.37728665340E+02 -0.21437483366E+02 -0.77835502450E+00  0.43400734071E+02  0.00000000000E+00 0. -1.
         11    1    3    3    0    0  0.21245631846E+02  0.17848581248E+02 -0.74184474356E+01  0.28722501418E+02  0.51100000000E-03 0. -1.
        -11    1    3    3    0    0  0.14986413359E+02  0.42195594475E+01  0.76811529218E+01  0.17360800032E+02  0.51100000000E-03 0.  1.
         12    1    3    3    0    0  0.14966201347E+01 -0.63065733000E+00  0.51564953828E+00  0.17039644779E+01  0.00000000000E+00 0. -1.
</event>
<event>
 7    1  0.4818508E-009  0.4778727E+02  0.7816164E-02  0.1312668E+00
        -11   -1    0    0    0    0  0.00000000000E+00  0.00000000000E+00  0.45593999997E+02  0.45594000000E+02  0.51100000000E-03 0. -1.
         11   -1    0    0    0    0 -0.00000000000E+00 -0.00000000000E+00 -0.45593999997E+02  0.45594000000E+02  0.51100000000E-03 0.  1.
    9900012    2    1    2    0    0  0.24368311347E+02  0.18996178371E+02 -0.30478745737E+02  0.47787270371E+02  0.19999996929E+02 0.  0.
         12    1    1    2    0    0 -0.24368311347E+02 -0.18996178371E+02  0.30478745737E+02  0.43400729629E+02  0.00000000000E+00 0. -1.
         11    1    3    3    0    0  0.55661730487E+01  0.47176724224E+01 -0.51470425519E+01  0.89292084075E+01  0.51100000000E-03 0. -1.
        -11    1    3    3    0    0  0.21781185801E+01  0.89088146955E+01 -0.17406356444E+02  0.19674664539E+02  0.51100000000E-03 0.  1.
        -12    1    3    3    0    0  0.16624019718E+02  0.53696912532E+01 -0.79253467419E+01  0.19183397424E+02  0.00000000000E+00 0.  1.
</event>
<event>
 7    1  0.4818508E-009  0.4778727E+02  0.7816164E-02  0.1312668E+00
        -11   -1    0    0    0    0  0.00000000000E+00  0.00000000000E+00  0.45593999997E+02  0.45594000000E+02  0.51100000000E-03 0. -1.
         11   -1    0    0    0    0 -0.00000000000E+00 -0.00000000000E+00 -0.45593999997E+02  0.45594000000E+02  0.51100000000E-03 0.  1.
    9900012    2    1    2    0    0  0.15788299834E+02  0.13145181243E+02 -0.38230319114E+02  0.47787268427E+02  0.19999988065E+02 0.  0.
         12    1    1    2    0    0 -0.15788299834E+02 -0.13145181243E+02  0.38230319114E+02  0.43400731573E+02  0.00000000000E+00 0. -1.
         11    1    3    3    0    0  0.33444006400E+01 -0.35989063092E+01 -0.80226927347E+01  0.94074832575E+01  0.51100000000E-03 0. -1.
        -11    1    3    3    0    0  0.13821496206E+02  0.16937151569E+02 -0.26115031788E+02  0.34057242199E+02  0.51100000000E-03 0.  1.
        -12    1    3    3    0    0 -0.13775970124E+01 -0.19306401736E+00 -0.40925945908E+01  0.43225429701E+01  0.00000000000E+00 0.  1.
</event>
<event>
 7    1  0.4818508E-009  0.4778727E+02  0.7816164E-02  0.1312668E+00
        -11   -1    0    0    0    0  0.00000000000E+00  0.00000000000E+00  0.45593999997E+02  0.45594000000E+02  0.51100000000E-03 0.  1.
         11   -1    0    0    0    0 -0.00000000000E+00 -0.00000000000E+00 -0.45593999997E+02  0.45594000000E+02  0.51100000000E-03 0. -1.
    9900012    2    1    2    0    0 -0.13708916350E+02  0.14488973885E+02  0.38545543456E+02  0.47787266457E+02  0.19999979085E+02 0.  0.
         12    1    1    2    0    0  0.13708916350E+02 -0.14488973885E+02 -0.38545543456E+02  0.43400733543E+02  0.00000000000E+00 0. -1.
         11    1    3    3    0    0  0.46535041721E+00 -0.14622003071E-01  0.44603183002E+00  0.64475535538E+00  0.51100000000E-03 0. -1.
        -11    1    3    3    0    0 -0.10736710068E+02  0.18200038246E+02  0.35854285751E+02  0.41617882481E+02  0.51100000000E-03 0.  1.
        -12    1    3    3    0    0 -0.34375566992E+01 -0.36964423581E+01  0.22452258754E+01  0.55246286208E+01  0.00000000000E+00 0.  1.
</event>
<event>
 7    1  0.4818508E-009  0.4778727E+02  0.7816164E-02  0.1312668E+00
        -11   -1    0    0    0    0  0.00000000000E+00  0.00000000000E+00  0.45593999997E+02  0.45594000000E+02  0.51100000000E-03 0.  1.
         11   -1    0    0    0    0 -0.00000000000E+00 -0.00000000000E+00 -0.45593999997E+02  0.45594000000E+02  0.51100000000E-03 0. -1.
    9900012    2    1    2    0    0  0.32105034076E+02 -0.24688308117E+02  0.15600562773E+02  0.47787270403E+02  0.19999997076E+02 0.  0.
         12    1    1    2    0    0 -0.32105034076E+02  0.24688308117E+02 -0.15600562773E+02  0.43400729597E+02  0.00000000000E+00 0. -1.
         11    1    3    3    0    0  0.17796070152E+01  0.25398683160E+01  0.32604198398E+01  0.44998077719E+01  0.51100000000E-03 0. -1.
        -11    1    3    3    0    0  0.20663172840E+02 -0.14549054353E+02  0.51075733437E+01  0.25782338918E+02  0.51100000000E-03 0.  1.
         12    1    3    3    0    0  0.96622542214E+01 -0.12679122079E+02  0.72325695894E+01  0.17505123713E+02  0.00000000000E+00 0. -1.
</event>
<event>
 7    1  0.4818508E-009  0.4778727E+02  0.7816164E-02  0.1312668E+00
        -11   -1    0    0    0    0  0.00000000000E+00  0.00000000000E+00  0.45593999997E+02  0.45594000000E+02  0.51100000000E-03 0.  1.
         11   -1    0    0    0    0 -0.00000000000E+00 -0.00000000000E+00 -0.45593999997E+02  0.45594000000E+02  0.51100000000E-03 0. -1.
    9900012    2    1    2    0    0  0.33697082669E+02  0.20250906913E+02  0.18385612517E+02  0.47787270066E+02  0.19999995539E+02 0.  0.
         12    1    1    2    0    0 -0.33697082669E+02 -0.20250906913E+02 -0.18385612517E+02  0.43400729934E+02  0.00000000000E+00 0. -1.
         11    1    3    3    0    0  0.20263741377E+02  0.13678706982E+02  0.13309143983E+01  0.24484639526E+02  0.51100000000E-03 0. -1.
        -11    1    3    3    0    0  0.11515297031E+02  0.35919282092E+01  0.11209188461E+02  0.16466630505E+02  0.51100000000E-03 0.  1.
         12    1    3    3    0    0  0.19180442603E+01  0.29802717212E+01  0.58455096579E+01  0.68360000349E+01  0.00000000000E+00 0. -1.
</event>
<event>
 7    1  0.4818508E-009  0.4778727E+02  0.7816164E-02  0.1312668E+00
        -11   -1    0    0    0    0  0.00000000000E+00  0.00000000000E+00  0.45593999997E+02  0.45594000000E+02  0.51100000000E-03 0.  1.
         11   -1    0    0    0    0 -0.00000000000E+00 -0.00000000000E+00 -0.45593999997E+02  0.45594000000E+02  0.51100000000E-03 0. -1.
    9900012    2    1    2    0    0 -0.27356976864E+02  0.99749807806E+00  0.33678246560E+02  0.47787268705E+02  0.19999989333E+02 0.  0.
         12    1    1    2    0    0  0.27356976864E+02 -0.99749807806E+00 -0.33678246560E+02  0.43400731295E+02  0.00000000000E+00 0. -1.
         11    1    3    3    0    0 -0.61829583176E+01  0.36726250927E+01  0.92379677705E+01  0.11707143008E+02  0.51100000000E-03 0. -1.
        -11    1    3    3    0    0 -0.21659753536E+02 -0.41087521653E+01  0.15347223606E+02  0.26861944090E+02  0.51100000000E-03 0.  1.
        -12    1    3    3    0    0  0.48573498955E+00  0.14336251507E+01  0.90930551842E+01  0.92181816068E+01  0.00000000000E+00 0.  1.
</event>
<event>
 7    1  0.4818508E-009  0.4778727E+02  0.7816164E-02  0.1312668E+00
        -11   -1    0    0    0    0  0.00000000000E+00  0.00000000000E+00  0.45593999997E+02  0.45594000000E+02  0.51100000000E-03 0. -1.
         11   -1    0    0    0    0 -0.00000000000E+00 -0.00000000000E+00 -0.45593999997E+02  0.45594000000E+02  0.51100000000E-03 0.  1.
    9900012    2    1    2    0    0  0.37478598372E+01  0.17747195432E+02 -0.39428590537E+02  0.47787272463E+02  0.20000006466E+02 0.  0.
         12    1    1    2    0    0 -0.37478598372E+01 -0.17747195432E+02  0.39428590537E+02  0.43400727537E+02  0.00000000000E+00 0. -1.
         11    1    3    3    0    0  0.17359534922E+01 -0.11465617476E+01 -0.32390875197E+01  0.38496527882E+01  0.51100000000E-03 0. -1.
        -11    1    3    3    0    0 -0.68899726544E+01  0.60182471161E+01 -0.11356744810E+02  0.14583095504E+02  0.51100000000E-03 0.  1.
        -12    1    3    3    0    0  0.89018789994E+01  0.12875510063E+02 -0.24832758207E+02  0.29354524171E+02  0.00000000000E+00 0.  1.
</event>
<event>
 7    1  0.4818508E-009  0.4778727E+02  0.7816164E-02  0.1312668E+00
        -11   -1    0    0    0    0  0.00000000000E+00  0.00000000000E+00  0.45593999997E+02  0.45594000000E+02  0.51100000000E-03 0. -1.
         11   -1    0    0    0    0 -0.00000000000E+00 -0.00000000000E+00 -0.45593999997E+02  0.45594000000E+02  0.51100000000E-03 0.  1.
    9900012    2    1    2    0    0 -0.36091288089E+02 -0.24103564291E+02 -0.24536699105E+00  0.47787273135E+02  0.20000009531E+02 0.  0.
         12    1    1    2    0    0  0.36091288089E+02  0.24103564291E+02  0.24536699105E+00  0.43400726865E+02  0.00000000000E+00 0. -1.
         11    1    3    3    0    0 -0.11610320703E+01 -0.46574286305E+01 -0.18741771342E+01  0.51528804671E+01  0.51100000000E-03 0. -1.
        -11    1    3    3    0    0 -0.11948576598E+02 -0.45583899755E+01  0.72213967068E+01  0.14686591590E+02  0.51100000000E-03 0.  1.
        -12    1    3    3    0    0 -0.22981679421E+02 -0.14887745685E+02 -0.55925865636E+01  0.27947801077E+02  0.00000000000E+00 0.  1.
</event>
<event>
 7    1  0.4818508E-009  0.4778727E+02  0.7816164E-02  0.1312668E+00
        -11   -1    0    0    0    0  0.00000000000E+00  0.00000000000E+00  0.45593999997E+02  0.45594000000E+02  0.51100000000E-03 0.  1.
         11   -1    0    0    0    0 -0.00000000000E+00 -0.00000000000E+00 -0.45593999997E+02  0.45594000000E+02  0.51100000000E-03 0. -1.
    9900012    2    1    2    0    0 -0.26141034714E+02  0.33423607453E+02  0.91176745682E+01  0.47787271658E+02  0.20000002799E+02 0.  0.
         12    1    1    2    0    0  0.26141034714E+02 -0.33423607453E+02 -0.91176745682E+01  0.43400728342E+02  0.00000000000E+00 0. -1.
         11    1    3    3    0    0 -0.21123330264E+01  0.30082737505E+01 -0.46152306075E+01  0.59001708106E+01  0.51100000000E-03 0. -1.
        -11    1    3    3    0    0 -0.13338494986E+02  0.15902468259E+02  0.11487480884E+02  0.23722692986E+02  0.51100000000E-03 0.  1.
         12    1    3    3    0    0 -0.10690206702E+02  0.14512865444E+02  0.22454242914E+01  0.18164407861E+02  0.00000000000E+00 0. -1.
</event>
<event>
 7    1  0.4818508E-009  0.4778728E+02  0.7816164E-02  0.1312668E+00
        -11   -1    0    0    0    0  0.00000000000E+00  0.00000000000E+00  0.45593999997E+02  0.45594000000E+02  0.51100000000E-03 0. -1.
         11   -1    0    0    0    0 -0.00000000000E+00 -0.00000000000E+00 -0.45593999997E+02  0.45594000000E+02  0.51100000000E-03 0.  1.
    9900012    2    1    2    0    0 -0.38497461287E+02 -0.14989231431E+02  0.13300030469E+02  0.47787281171E+02  0.20000046170E+02 0.  0.
         12    1    1    2    0    0  0.38497461287E+02  0.14989231431E+02 -0.13300030469E+02  0.43400718829E+02  0.00000000000E+00 0. -1.
         11    1    3    3    0    0 -0.17952390601E+02  0.88916139851E+00  0.86867036806E+01  0.19963410464E+02  0.51100000000E-03 0. -1.
        -11    1    3    3    0    0 -0.50228513540E+01 -0.92758979558E+01  0.12320426520E+01  0.10620228245E+02  0.51100000000E-03 0.  1.
         12    1    3    3    0    0 -0.15522219332E+02 -0.66024948733E+01  0.33812841363E+01  0.17203642462E+02  0.00000000000E+00 0. -1.
</event>
<event>
 7    1  0.4818508E-009  0.4778727E+02  0.7816164E-02  0.1312668E+00
        -11   -1    0    0    0    0  0.00000000000E+00  0.00000000000E+00  0.45593999997E+02  0.45594000000E+02  0.51100000000E-03 0. -1.
         11   -1    0    0    0    0 -0.00000000000E+00 -0.00000000000E+00 -0.45593999997E+02  0.45594000000E+02  0.51100000000E-03 0.  1.
    9900012    2    1    2    0    0  0.74316226064E+00  0.24242561537E+02 -0.35991236291E+02  0.47787272244E+02  0.20000005470E+02 0.  0.
         12    1    1    2    0    0 -0.74316226064E+00 -0.24242561537E+02  0.35991236291E+02  0.43400727756E+02  0.00000000000E+00 0. -1.
         11    1    3    3    0    0 -0.67915495740E+01  0.59703193625E+01 -0.72296503359E+01  0.11577465316E+02  0.51100000000E-03 0. -1.
        -11    1    3    3    0    0  0.22058624286E+01  0.15888217351E+02 -0.19342799198E+02  0.25128572596E+02  0.51100000000E-03 0.  1.
         12    1    3    3    0    0  0.53288494060E+01  0.23840248235E+01 -0.94187867568E+01  0.11081234332E+02  0.00000000000E+00 0. -1.
</event>
<event>
 7    1  0.4818508E-009  0.4778727E+02  0.7816164E-02  0.1312668E+00
        -11   -1    0    0    0    0  0.00000000000E+00  0.00000000000E+00  0.45593999997E+02  0.45594000000E+02  0.51100000000E-03 0.  1.
         11   -1    0    0    0    0 -0.00000000000E+00 -0.00000000000E+00 -0.45593999997E+02  0.45594000000E+02  0.51100000000E-03 0. -1.
    9900012    2    1    2    0    0  0.37122237309E+02  0.37111363789E+01  0.22176337034E+02  0.47787274657E+02  0.20000016473E+02 0.  0.
         12    1    1    2    0    0 -0.37122237309E+02 -0.37111363789E+01 -0.22176337034E+02  0.43400725343E+02  0.00000000000E+00 0. -1.
         11    1    3    3    0    0  0.13628033170E-01  0.88632469903E+00 -0.34479855456E+00  0.95112748870E+00  0.51100000000E-03 0. -1.
        -11    1    3    3    0    0  0.18280048909E+02  0.97284906197E+01  0.14283083523E+02  0.25155718893E+02  0.51100000000E-03 0.  1.
        -12    1    3    3    0    0  0.18828560366E+02 -0.69036789398E+01  0.82380520653E+01  0.21680428275E+02  0.00000000000E+00 0.  1.
</event>
<event>
 7    1  0.4818508E-009  0.4778727E+02  0.7816164E-02  0.1312668E+00
        -11   -1    0    0    0    0  0.00000000000E+00  0.00000000000E+00  0.45593999997E+02  0.45594000000E+02  0.51100000000E-03 0. -1.
         11   -1    0    0    0    0 -0.00000000000E+00 -0.00000000000E+00 -0.45593999997E+02  0.45594000000E+02  0.51100000000E-03 0.  1.
    9900012    2    1    2    0    0 -0.18499100569E+02 -0.39230289744E+02  0.15462068848E+01  0.47787272921E+02  0.20000008556E+02 0.  0.
         12    1    1    2    0    0  0.18499100569E+02  0.39230289744E+02 -0.15462068848E+01  0.43400727079E+02  0.00000000000E+00 0. -1.
         11    1    3    3    0    0 -0.41997942310E+01 -0.68241191483E+01  0.84275240978E+01  0.11628845016E+02  0.51100000000E-03 0. -1.
        -11    1    3    3    0    0 -0.11668493669E+02 -0.24691011148E+02 -0.59893520304E+01  0.27958399704E+02  0.51100000000E-03 0.  1.
         12    1    3    3    0    0 -0.26308126691E+01 -0.77151594476E+01 -0.89196518262E+00  0.82000282005E+01  0.00000000000E+00 0. -1.
</event>
<event>
 7    1  0.4818508E-009  0.4778727E+02  0.7816164E-02  0.1312668E+00
        -11   -1    0    0    0    0  0.00000000000E+00  0.00000000000E+00  0.45593999997E+02  0.45594000000E+02  0.51100000000E-03 0.  1.
         11   -1    0    0    0    0 -0.00000000000E+00 -0.00000000000E+00 -0.45593999997E+02  0.45594000000E+02  0.51100000000E-03 0. -1.
    9900012    2    1    2    0    0 -0.14973604447E+02  0.25038966675E+02  0.32131991033E+02  0.47787268093E+02  0.19999986542E+02 0.  0.
         12    1    1    2    0    0  0.14973604447E+02 -0.25038966675E+02 -0.32131991033E+02  0.43400731907E+02  0.00000000000E+00 0. -1.
         11    1    3    3    0    0 -0.22957952922E+01  0.11984477013E+02  0.22765840027E+01  0.12412944867E+02  0.51100000000E-03 0. -1.
        -11    1    3    3    0    0 -0.10543900557E+02  0.12519773796E+02  0.23417463146E+02  0.28570896999E+02  0.51100000000E-03 0.  1.
         12    1    3    3    0    0 -0.21339085983E+01  0.53471586667E+00  0.64379438846E+01  0.68034262269E+01  0.00000000000E+00 0. -1.
</event>
<event>
 7    1  0.4818508E-009  0.4778727E+02  0.7816164E-02  0.1312668E+00
        -11   -1    0    0    0    0  0.00000000000E+00  0.00000000000E+00  0.45593999997E+02  0.45594000000E+02  0.51100000000E-03 0.  1.
         11   -1    0    0    0    0 -0.00000000000E+00 -0.00000000000E+00 -0.45593999997E+02  0.45594000000E+02  0.51100000000E-03 0. -1.
    9900012    2    1    2    0    0  0.36968028597E+01  0.18066054760E+02  0.39288350855E+02  0.47787271908E+02  0.20000003939E+02 0.  0.
         12    1    1    2    0    0 -0.36968028597E+01 -0.18066054760E+02 -0.39288350855E+02  0.43400728092E+02  0.00000000000E+00 0. -1.
         11    1    3    3    0    0 -0.32940086082E+01  0.15908943698E+01  0.12961975598E+02  0.13468268236E+02  0.51100000000E-03 0.  1.
        -11    1    3    3    0    0  0.94389257555E+01  0.16979836953E+02  0.24231908601E+02  0.31057906837E+02  0.51100000000E-03 0. -1.
         12    1    3    3    0    0 -0.24481142876E+01 -0.50467656289E+00  0.20944666552E+01  0.32610968351E+01  0.00000000000E+00 0. -1.
</event>
<event>
 7    1  0.4818508E-009  0.4778728E+02  0.7816164E-02  0.1312668E+00
        -11   -1    0    0    0    0  0.00000000000E+00  0.00000000000E+00  0.45593999997E+02  0.45594000000E+02  0.51100000000E-03 0.  1.
         11   -1    0    0    0    0 -0.00000000000E+00 -0.00000000000E+00 -0.45593999997E+02  0.45594000000E+02  0.51100000000E-03 0. -1.
    9900012    2    1    2    0    0  0.77704632568E+01  0.59324373566E+01  0.42285326509E+02  0.47787277077E+02  0.20000027506E+02 0.  0.
         12    1    1    2    0    0 -0.77704632568E+01 -0.59324373566E+01 -0.42285326509E+02  0.43400722923E+02  0.00000000000E+00 0. -1.
         11    1    3    3    0    0  0.82777458633E+00  0.42147111218E+01  0.26638861189E+01  0.50542348700E+01  0.51100000000E-03 0. -1.
        -11    1    3    3    0    0 -0.33637161461E+01 -0.29398179129E+01  0.14731980800E+02  0.15394426726E+02  0.51100000000E-03 0.  1.
        -12    1    3    3    0    0  0.10306404816E+02  0.46575441477E+01  0.24889459591E+02  0.27338615482E+02  0.00000000000E+00 0.  1.
</event>
<event>
 7    1  0.4818508E-009  0.4778727E+02  0.7816164E-02  0.1312668E+00
        -11   -1    0    0    0    0  0.00000000000E+00  0.00000000000E+00  0.45593999997E+02  0.45594000000E+02  0.51100000000E-03 0.  1.
         11   -1    0    0    0    0 -0.00000000000E+00 -0.00000000000E+00 -0.45593999997E+02  0.45594000000E+02  0.51100000000E-03 0. -1.
    9900012    2    1    2    0    0 -0.37812363635E+02 -0.16088735893E+02  0.13964274343E+02  0.47787271616E+02  0.20000002606E+02 0.  0.
         12    1    1    2    0    0  0.37812363635E+02  0.16088735893E+02 -0.13964274343E+02  0.43400728384E+02  0.00000000000E+00 0. -1.
         11    1    3    3    0    0 -0.18055902194E+02 -0.13763190455E+01  0.87369516457E+01  0.20105824591E+02  0.51100000000E-03 0.  1.
        -11    1    3    3    0    0 -0.16069367956E+02 -0.16530665293E+02  0.40690996245E+01  0.23410362098E+02  0.51100000000E-03 0. -1.
         12    1    3    3    0    0 -0.36870934848E+01  0.18182484447E+01  0.11582230726E+01  0.42710849275E+01  0.00000000000E+00 0. -1.
</event>
<event>
 7    1  0.4818508E-009  0.4778727E+02  0.7816164E-02  0.1312668E+00
        -11   -1    0    0    0    0  0.00000000000E+00  0.00000000000E+00  0.45593999997E+02  0.45594000000E+02  0.51100000000E-03 0.  1.
         11   -1    0    0    0    0 -0.00000000000E+00 -0.00000000000E+00 -0.45593999997E+02  0.45594000000E+02  0.51100000000E-03 0. -1.
    9900012    2    1    2    0    0 -0.39247919240E+01  0.34575410903E+02  0.25937624946E+02  0.47787269378E+02  0.19999992400E+02 0.  0.
         12    1    1    2    0    0  0.39247919240E+01 -0.34575410903E+02 -0.25937624946E+02  0.43400730622E+02  0.00000000000E+00 0. -1.
         11    1    3    3    0    0 -0.64313443500E+01  0.13638048337E+01  0.58567415032E+01  0.88047473030E+01  0.51100000000E-03 0. -1.
        -11    1    3    3    0    0  0.17181172557E+01  0.21398122122E+02  0.14408047598E+02  0.25853885454E+02  0.51100000000E-03 0.  1.
        -12    1    3    3    0    0  0.78843517037E+00  0.11813483947E+02  0.56728358447E+01  0.13128636621E+02  0.00000000000E+00 0.  1.
</event>
<event>
 7    1  0.4818508E-009  0.4778728E+02  0.7816164E-02  0.1312668E+00
        -11   -1    0    0    0    0  0.00000000000E+00  0.00000000000E+00  0.45593999997E+02  0.45594000000E+02  0.51100000000E-03 0. -1.
         11   -1    0    0    0    0 -0.00000000000E+00 -0.00000000000E+00 -0.45593999997E+02  0.45594000000E+02  0.51100000000E-03 0.  1.
    9900012    2    1    2    0    0  0.17678795527E+02 -0.15102629719E+02 -0.36646869051E+02  0.47787282875E+02  0.20000053940E+02 0.  0.
         12    1    1    2    0    0 -0.17678795527E+02  0.15102629719E+02  0.36646869051E+02  0.43400717125E+02  0.00000000000E+00 0. -1.
         11    1    3    3    0    0 -0.25265409143E+01 -0.23605412270E+01 -0.24314486475E+00  0.34662203568E+01  0.51100000000E-03 0. -1.
        -11    1    3    3    0    0  0.14447540022E+02 -0.71812788554E+01 -0.30026772459E+02  0.34086789864E+02  0.51100000000E-03 0.  1.
         12    1    3    3    0    0  0.57577964199E+01 -0.55608096364E+01 -0.63769517272E+01  0.10234272654E+02  0.00000000000E+00 0. -1.
</event>
<event>
 7    1  0.4818508E-009  0.4778727E+02  0.7816164E-02  0.1312668E+00
        -11   -1    0    0    0    0  0.00000000000E+00  0.00000000000E+00  0.45593999997E+02  0.45594000000E+02  0.51100000000E-03 0. -1.
         11   -1    0    0    0    0 -0.00000000000E+00 -0.00000000000E+00 -0.45593999997E+02  0.45594000000E+02  0.51100000000E-03 0.  1.
    9900012    2    1    2    0    0  0.13308113730E+02 -0.33257538473E+02  0.24504146220E+02  0.47787274910E+02  0.20000017625E+02 0.  0.
         12    1    1    2    0    0 -0.13308113730E+02  0.33257538473E+02 -0.24504146220E+02  0.43400725090E+02  0.00000000000E+00 0. -1.
         11    1    3    3    0    0 -0.30112617870E+01 -0.16310885290E+01  0.21262997873E+01  0.40310418487E+01  0.51100000000E-03 0. -1.
        -11    1    3    3    0    0  0.11479278470E+02 -0.14032696177E+02  0.56186895717E+01  0.18980518143E+02  0.51100000000E-03 0.  1.
         12    1    3    3    0    0  0.48400970469E+01 -0.17593753767E+02  0.16759156861E+02  0.24775714919E+02  0.00000000000E+00 0. -1.
</event>
<event>
 7    1  0.4818508E-009  0.4778727E+02  0.7816164E-02  0.1312668E+00
        -11   -1    0    0    0    0  0.00000000000E+00  0.00000000000E+00  0.45593999997E+02  0.45594000000E+02  0.51100000000E-03 0.  1.
         11   -1    0    0    0    0 -0.00000000000E+00 -0.00000000000E+00 -0.45593999997E+02  0.45594000000E+02  0.51100000000E-03 0. -1.
    9900012    2    1    2    0    0 -0.65299143356E+01 -0.37930329552E+02  0.20056765901E+02  0.47787267983E+02  0.19999986043E+02 0.  0.
         12    1    1    2    0    0  0.65299143356E+01  0.37930329552E+02 -0.20056765901E+02  0.43400732017E+02  0.00000000000E+00 0. -1.
         11    1    3    3    0    0  0.25028203599E+01 -0.99724653396E+01 -0.24874322433E+01  0.10578350256E+02  0.51100000000E-03 0. -1.
        -11    1    3    3    0    0 -0.69449083014E+01 -0.22886678523E+02  0.16552736645E+02  0.29086507110E+02  0.51100000000E-03 0.  1.
         12    1    3    3    0    0 -0.20878263941E+01 -0.50711856894E+01  0.59914614996E+01  0.81224106181E+01  0.00000000000E+00 0. -1.
</event>
<event>
 7    1  0.4818508E-009  0.4778727E+02  0.7816164E-02  0.1312668E+00
        -11   -1    0    0    0    0  0.00000000000E+00  0.00000000000E+00  0.45593999997E+02  0.45594000000E+02  0.51100000000E-03 0.  1.
         11   -1    0    0    0    0 -0.00000000000E+00 -0.00000000000E+00 -0.45593999997E+02  0.45594000000E+02  0.51100000000E-03 0. -1.
    9900012    2    1    2    0    0 -0.38437897310E+02  0.15743355822E+02  0.12581664169E+02  0.47787268723E+02  0.19999989414E+02 0.  0.
         12    1    1    2    0    0  0.38437897310E+02 -0.15743355822E+02 -0.12581664169E+02  0.43400731277E+02  0.00000000000E+00 0. -1.
         11    1    3    3    0    0 -0.91483920114E+01 -0.10481309746E+01 -0.36439820111E+01  0.99030429713E+01  0.51100000000E-03 0. -1.
        -11    1    3    3    0    0 -0.15863320408E+02  0.58688413881E+01  0.85107785004E+01  0.18934666212E+02  0.51100000000E-03 0.  1.
         12    1    3    3    0    0 -0.13426184891E+02  0.10922645408E+02  0.77148676797E+01  0.18949559540E+02  0.00000000000E+00 0. -1.
</event>
<event>
 7    1  0.4818508E-009  0.4778726E+02  0.7816164E-02  0.1312668E+00
        -11   -1    0    0    0    0  0.00000000000E+00  0.00000000000E+00  0.45593999997E+02  0.45594000000E+02  0.51100000000E-03 0.  1.
         11   -1    0    0    0    0 -0.00000000000E+00 -0.00000000000E+00 -0.45593999997E+02  0.45594000000E+02  0.51100000000E-03 0. -1.
    9900012    2    1    2    0    0 -0.17438662925E+02 -0.33031823965E+01  0.39605632488E+02  0.47787261489E+02  0.19999956432E+02 0.  0.
         12    1    1    2    0    0  0.17438662925E+02  0.33031823965E+01 -0.39605632488E+02  0.43400738511E+02  0.00000000000E+00 0. -1.
         11    1    3    3    0    0  0.25329277351E+01  0.18156528579E+01  0.49689163964E+00  0.31558231532E+01  0.51100000000E-03 0. -1.
        -11    1    3    3    0    0 -0.90674137059E+01  0.71845982400E+00  0.15222930834E+02  0.17733352736E+02  0.51100000000E-03 0.  1.
         12    1    3    3    0    0 -0.10904176955E+02 -0.58372950784E+01  0.23885810014E+02  0.26898085600E+02  0.00000000000E+00 0. -1.
</event>
<event>
 7    1  0.4818508E-009  0.4778727E+02  0.7816164E-02  0.1312668E+00
        -11   -1    0    0    0    0  0.00000000000E+00  0.00000000000E+00  0.45593999997E+02  0.45594000000E+02  0.51100000000E-03 0.  1.
         11   -1    0    0    0    0 -0.00000000000E+00 -0.00000000000E+00 -0.45593999997E+02  0.45594000000E+02  0.51100000000E-03 0. -1.
    9900012    2    1    2    0    0  0.13069909933E+02 -0.71241065159E+01  0.40768225876E+02  0.47787266361E+02  0.19999978648E+02 0.  0.
         12    1    1    2    0    0 -0.13069909933E+02  0.71241065159E+01 -0.40768225876E+02  0.43400733639E+02  0.00000000000E+00 0. -1.
         11    1    3    3    0    0  0.10200270795E+01 -0.99572849898E+01  0.10360248656E+02  0.14405649311E+02  0.51100000000E-03 0. -1.
        -11    1    3    3    0    0  0.33321449167E+01  0.17326402475E+01  0.16564337412E+02  0.16984772773E+02  0.51100000000E-03 0.  1.
         12    1    3    3    0    0  0.87177379370E+01  0.11005382264E+01  0.13843639807E+02  0.16396844277E+02  0.00000000000E+00 0. -1.
</event>
<event>
 7    1  0.4818508E-009  0.4778728E+02  0.7816164E-02  0.1312668E+00
        -11   -1    0    0    0    0  0.00000000000E+00  0.00000000000E+00  0.45593999997E+02  0.45594000000E+02  0.51100000000E-03 0.  1.
         11   -1    0    0    0    0 -0.00000000000E+00 -0.00000000000E+00 -0.45593999997E+02  0.45594000000E+02  0.51100000000E-03 0. -1.
    9900012    2    1    2    0    0 -0.35500475524E+02  0.10950338543E+02  0.22437226223E+02  0.47787276536E+02  0.20000025039E+02 0.  0.
         12    1    1    2    0    0  0.35500475524E+02 -0.10950338543E+02 -0.22437226223E+02  0.43400723464E+02  0.00000000000E+00 0. -1.
         11    1    3    3    0    0  0.33470853581E-01 -0.73893036172E+00  0.14311920162E+01  0.16110397965E+01  0.51100000000E-03 0. -1.
        -11    1    3    3    0    0 -0.77761610088E+01 -0.40976367514E+01  0.73008955717E+01  0.11426389779E+02  0.51100000000E-03 0.  1.
        -12    1    3    3    0    0 -0.27757785369E+02  0.15786905656E+02  0.13705138635E+02  0.34749846960E+02  0.00000000000E+00 0.  1.
</event>
<event>
 7    1  0.4818508E-009  0.4778727E+02  0.7816164E-02  0.1312668E+00
        -11   -1    0    0    0    0  0.00000000000E+00  0.00000000000E+00  0.45593999997E+02  0.45594000000E+02  0.51100000000E-03 0.  1.
         11   -1    0    0    0    0 -0.00000000000E+00 -0.00000000000E+00 -0.45593999997E+02  0.45594000000E+02  0.51100000000E-03 0. -1.
    9900012    2    1    2    0    0 -0.27284764502E+02 -0.23069201242E+01  0.33672582621E+02  0.47787273338E+02  0.20000010459E+02 0.  0.
         12    1    1    2    0    0  0.27284764502E+02  0.23069201242E+01 -0.33672582621E+02  0.43400726662E+02  0.00000000000E+00 0. -1.
         11    1    3    3    0    0 -0.26251295007E+01  0.64451164300E+00 -0.17894979034E+00  0.27090078335E+01  0.51100000000E-03 0. -1.
        -11    1    3    3    0    0 -0.36125828741E+01  0.53666126482E+01  0.11927948416E+02  0.13569349285E+02  0.51100000000E-03 0.  1.
        -12    1    3    3    0    0 -0.21047052128E+02 -0.83180444154E+01  0.21923583995E+02  0.31508916220E+02  0.00000000000E+00 0.  1.
</event>
<event>
 7    1  0.4818508E-009  0.4778727E+02  0.7816164E-02  0.1312668E+00
        -11   -1    0    0    0    0  0.00000000000E+00  0.00000000000E+00  0.45593999997E+02  0.45594000000E+02  0.51100000000E-03 0. -1.
         11   -1    0    0    0    0 -0.00000000000E+00 -0.00000000000E+00 -0.45593999997E+02  0.45594000000E+02  0.51100000000E-03 0.  1.
    9900012    2    1    2    0    0  0.66436079336E+01 -0.20874603428E+02 -0.37466476575E+02  0.47787268882E+02  0.19999990141E+02 0.  0.
         12    1    1    2    0    0 -0.66436079336E+01  0.20874603428E+02  0.37466476575E+02  0.43400731118E+02  0.00000000000E+00 0. -1.
         11    1    3    3    0    0 -0.56182966405E+01 -0.85789064317E+01 -0.19168490949E+02  0.21739225797E+02  0.51100000000E-03 0. -1.
        -11    1    3    3    0    0  0.69638728506E+01 -0.48207172500E+01 -0.48029748551E+01  0.97367041448E+01  0.51100000000E-03 0.  1.
         12    1    3    3    0    0  0.52980317235E+01 -0.74749797463E+01 -0.13495010770E+02  0.16311338941E+02  0.00000000000E+00 0. -1.
</event>
<event>
 7    1  0.4818508E-009  0.4778727E+02  0.7816164E-02  0.1312668E+00
        -11   -1    0    0    0    0  0.00000000000E+00  0.00000000000E+00  0.45593999997E+02  0.45594000000E+02  0.51100000000E-03 0. -1.
         11   -1    0    0    0    0 -0.00000000000E+00 -0.00000000000E+00 -0.45593999997E+02  0.45594000000E+02  0.51100000000E-03 0.  1.
    9900012    2    1    2    0    0  0.42329737338E+02  0.75832534394E+01 -0.58575410796E+01  0.47787272087E+02  0.20000004755E+02 0.  0.
         12    1    1    2    0    0 -0.42329737338E+02 -0.75832534394E+01  0.58575410796E+01  0.43400727913E+02  0.00000000000E+00 0. -1.
         11    1    3    3    0    0  0.26386068370E+01  0.31660719404E+01 -0.52118679694E+00  0.41542620897E+01  0.51100000000E-03 0. -1.
        -11    1    3    3    0    0  0.29607679675E+02  0.82145677739E+01 -0.93776140416E+01  0.32125277661E+02  0.51100000000E-03 0.  1.
        -12    1    3    3    0    0  0.10083450826E+02 -0.37973862749E+01  0.40412597589E+01  0.11507732336E+02  0.00000000000E+00 0.  1.
</event>
<event>
 7    1  0.4818508E-009  0.4778726E+02  0.7816164E-02  0.1312668E+00
        -11   -1    0    0    0    0  0.00000000000E+00  0.00000000000E+00  0.45593999997E+02  0.45594000000E+02  0.51100000000E-03 0.  1.
         11   -1    0    0    0    0 -0.00000000000E+00 -0.00000000000E+00 -0.45593999997E+02  0.45594000000E+02  0.51100000000E-03 0. -1.
    9900012    2    1    2    0    0 -0.33745374004E+02  0.11507684381E+02  0.24747663891E+02  0.47787263433E+02  0.19999965295E+02 0.  0.
         12    1    1    2    0    0  0.33745374004E+02 -0.11507684381E+02 -0.24747663891E+02  0.43400736567E+02  0.00000000000E+00 0. -1.
         11    1    3    3    0    0 -0.13224587507E+02 -0.88805680453E+00  0.44526270000E+01  0.13982283328E+02  0.51100000000E-03 0. -1.
        -11    1    3    3    0    0 -0.21573707714E+02  0.11272245763E+02  0.20965676176E+02  0.32125503371E+02  0.51100000000E-03 0.  1.
        -12    1    3    3    0    0  0.10529212159E+01  0.11234954218E+01 -0.67063928422E+00  0.16794767337E+01  0.00000000000E+00 0.  1.
</event>
<event>
 7    1  0.4818508E-009  0.4778727E+02  0.7816164E-02  0.1312668E+00
        -11   -1    0    0    0    0  0.00000000000E+00  0.00000000000E+00  0.45593999997E+02  0.45594000000E+02  0.51100000000E-03 0.  1.
         11   -1    0    0    0    0 -0.00000000000E+00 -0.00000000000E+00 -0.45593999997E+02  0.45594000000E+02  0.51100000000E-03 0. -1.
    9900012    2    1    2    0    0 -0.34482259548E+02  0.52319009180E+01 -0.25830690881E+02  0.47787267263E+02  0.19999982757E+02 0.  0.
         12    1    1    2    0    0  0.34482259548E+02 -0.52319009180E+01  0.25830690881E+02  0.43400732737E+02  0.00000000000E+00 0. -1.
         11    1    3    3    0    0 -0.20005242138E+00  0.78282410292E-01 -0.20282200663E+01  0.20395651511E+01  0.51100000000E-03 0. -1.
        -11    1    3    3    0    0 -0.24670609952E+02  0.89109955938E+01 -0.23813498615E+02  0.35427779417E+02  0.51100000000E-03 0.  1.
        -12    1    3    3    0    0 -0.96115971740E+01 -0.37573770861E+01  0.11027800141E-01  0.10319922694E+02  0.00000000000E+00 0.  1.
</event>
<event>
 7    1  0.4818508E-009  0.4778727E+02  0.7816164E-02  0.1312668E+00
        -11   -1    0    0    0    0  0.00000000000E+00  0.00000000000E+00  0.45593999997E+02  0.45594000000E+02  0.51100000000E-03 0.  1.
         11   -1    0    0    0    0 -0.00000000000E+00 -0.00000000000E+00 -0.45593999997E+02  0.45594000000E+02  0.51100000000E-03 0. -1.
    9900012    2    1    2    0    0  0.37977866347E+02  0.18654704690E+02  0.96595714739E+01  0.47787266591E+02  0.19999979696E+02 0.  0.
         12    1    1    2    0    0 -0.37977866347E+02 -0.18654704690E+02 -0.96595714739E+01  0.43400733409E+02  0.00000000000E+00 0. -1.
         11    1    3    3    0    0  0.21487085337E+02  0.49793857342E+01  0.72436742290E+00  0.22068389769E+02  0.51100000000E-03 0. -1.
        -11    1    3    3    0    0  0.59127487114E-01  0.58900152720E+01  0.28615080903E+01  0.65485879987E+01  0.51100000000E-03 0.  1.
        -12    1    3    3    0    0  0.16431653523E+02  0.77853036836E+01  0.60736959607E+01  0.19170288824E+02  0.00000000000E+00 0.  1.
</event>
<event>
 7    1  0.4818508E-009  0.4778727E+02  0.7816164E-02  0.1312668E+00
        -11   -1    0    0    0    0  0.00000000000E+00  0.00000000000E+00  0.45593999997E+02  0.45594000000E+02  0.51100000000E-03 0.  1.
         11   -1    0    0    0    0 -0.00000000000E+00 -0.00000000000E+00 -0.45593999997E+02  0.45594000000E+02  0.51100000000E-03 0. -1.
    9900012    2    1    2    0    0  0.26971307125E+02  0.11744477402E+02  0.31909863093E+02  0.47787268208E+02  0.19999987068E+02 0.  0.
         12    1    1    2    0    0 -0.26971307125E+02 -0.11744477402E+02 -0.31909863093E+02  0.43400731792E+02  0.00000000000E+00 0. -1.
         11    1    3    3    0    0  0.25197383014E+02  0.10351209207E+02  0.21563227641E+02  0.34742314681E+02  0.51100000000E-03 0. -1.
        -11    1    3    3    0    0  0.40269478183E+01  0.26512596575E+01  0.42593342096E+01  0.64333051127E+01  0.51100000000E-03 0.  1.
         12    1    3    3    0    0 -0.22530237077E+01 -0.12579914622E+01  0.60873012422E+01  0.66116484148E+01  0.00000000000E+00 0. -1.
</event>
<event>
 7    1  0.4818508E-009  0.4778728E+02  0.7816164E-02  0.1312668E+00
        -11   -1    0    0    0    0  0.00000000000E+00  0.00000000000E+00  0.45593999997E+02  0.45594000000E+02  0.51100000000E-03 0. -1.
         11   -1    0    0    0    0 -0.00000000000E+00 -0.00000000000E+00 -0.45593999997E+02  0.45594000000E+02  0.51100000000E-03 0.  1.
    9900012    2    1    2    0    0 -0.30619084748E+02  0.11286999388E+02 -0.28612890715E+02  0.47787283173E+02  0.20000055301E+02 0.  0.
         12    1    1    2    0    0  0.30619084748E+02 -0.11286999388E+02  0.28612890715E+02  0.43400716827E+02  0.00000000000E+00 0. -1.
         11    1    3    3    0    0 -0.23456303150E+02  0.89354814703E+01 -0.25790921605E+02  0.35989062562E+02  0.51100000000E-03 0.  1.
        -11    1    3    3    0    0 -0.30069768820E+01 -0.18671442645E+01  0.20846530775E+01  0.41077872861E+01  0.51100000000E-03 0. -1.
         12    1    3    3    0    0 -0.41558047159E+01  0.42186621820E+01 -0.49066221877E+01  0.76904333255E+01  0.00000000000E+00 0. -1.
</event>
<event>
 7    1  0.4818508E-009  0.4778727E+02  0.7816164E-02  0.1312668E+00
        -11   -1    0    0    0    0  0.00000000000E+00  0.00000000000E+00  0.45593999997E+02  0.45594000000E+02  0.51100000000E-03 0.  1.
         11   -1    0    0    0    0 -0.00000000000E+00 -0.00000000000E+00 -0.45593999997E+02  0.45594000000E+02  0.51100000000E-03 0. -1.
    9900012    2    1    2    0    0  0.91896075368E+00  0.42465736480E+02  0.89129134957E+01  0.47787270852E+02  0.19999999121E+02 0.  0.
         12    1    1    2    0    0 -0.91896075368E+00 -0.42465736480E+02 -0.89129134957E+01  0.43400729148E+02  0.00000000000E+00 0. -1.
         11    1    3    3    0    0  0.32848756579E+01  0.14102911556E+02 -0.25325208442E+01  0.14700210357E+02  0.51100000000E-03 0. -1.
        -11    1    3    3    0    0 -0.72405650760E+01  0.19446672942E+02  0.62346986148E+01  0.21667264207E+02  0.51100000000E-03 0.  1.
        -12    1    3    3    0    0  0.48746501718E+01  0.89161519813E+01  0.52107357252E+01  0.11419796288E+02  0.00000000000E+00 0.  1.
</event>
<event>
 7    1  0.4818508E-009  0.4778727E+02  0.7816164E-02  0.1312668E+00
        -11   -1    0    0    0    0  0.00000000000E+00  0.00000000000E+00  0.45593999997E+02  0.45594000000E+02  0.51100000000E-03 0.  1.
         11   -1    0    0    0    0 -0.00000000000E+00 -0.00000000000E+00 -0.45593999997E+02  0.45594000000E+02  0.51100000000E-03 0. -1.
    9900012    2    1    2    0    0  0.77352906209E+01 -0.16135727459E+02  0.39540189166E+02  0.47787274419E+02  0.20000015388E+02 0.  0.
         12    1    1    2    0    0 -0.77352906209E+01  0.16135727459E+02 -0.39540189166E+02  0.43400725581E+02  0.00000000000E+00 0. -1.
         11    1    3    3    0    0 -0.36845739177E+01 -0.69065360616E+01  0.27545172571E+02  0.28635866628E+02  0.51100000000E-03 0. -1.
        -11    1    3    3    0    0  0.96888411951E+01 -0.66631456579E+01  0.10243508193E+02  0.15594890642E+02  0.51100000000E-03 0.  1.
         12    1    3    3    0    0  0.17310233435E+01 -0.25660457392E+01  0.17515084023E+01  0.35565171495E+01  0.00000000000E+00 0. -1.
</event>
<event>
 7    1  0.4818508E-009  0.4778727E+02  0.7816164E-02  0.1312668E+00
        -11   -1    0    0    0    0  0.00000000000E+00  0.00000000000E+00  0.45593999997E+02  0.45594000000E+02  0.51100000000E-03 0.  1.
         11   -1    0    0    0    0 -0.00000000000E+00 -0.00000000000E+00 -0.45593999997E+02  0.45594000000E+02  0.51100000000E-03 0. -1.
    9900012    2    1    2    0    0  0.64467901538E+01  0.18891821984E+02  0.38537786066E+02  0.47787274245E+02  0.20000014594E+02 0.  0.
         12    1    1    2    0    0 -0.64467901538E+01 -0.18891821984E+02 -0.38537786066E+02  0.43400725755E+02  0.00000000000E+00 0. -1.
         11    1    3    3    0    0  0.96544779296E+01  0.46321965207E+01  0.15264459993E+02  0.18645909145E+02  0.51100000000E-03 0. -1.
        -11    1    3    3    0    0 -0.59121685668E+01  0.67656775702E+01  0.16017648345E+02  0.18365543523E+02  0.51100000000E-03 0.  1.
         12    1    3    3    0    0  0.27044807910E+01  0.74939478928E+01  0.72556777287E+01  0.10775821578E+02  0.00000000000E+00 0. -1.
</event>
<event>
 7    1  0.4818508E-009  0.4778727E+02  0.7816164E-02  0.1312668E+00
        -11   -1    0    0    0    0  0.00000000000E+00  0.00000000000E+00  0.45593999997E+02  0.45594000000E+02  0.51100000000E-03 0. -1.
         11   -1    0    0    0    0 -0.00000000000E+00 -0.00000000000E+00 -0.45593999997E+02  0.45594000000E+02  0.51100000000E-03 0.  1.
    9900012    2    1    2    0    0  0.10930209171E+02  0.41841010038E+02 -0.36720026937E+01  0.47787271927E+02  0.20000004023E+02 0.  0.
         12    1    1    2    0    0 -0.10930209171E+02 -0.41841010038E+02  0.36720026937E+01  0.43400728073E+02  0.00000000000E+00 0. -1.
         11    1    3    3    0    0  0.28198558682E+01  0.60509325671E+01  0.24528062422E+01  0.71120764037E+01  0.51100000000E-03 0. -1.
        -11    1    3    3    0    0  0.12661922952E+02  0.31268204361E+02 -0.43189763674E+01  0.34009975800E+02  0.51100000000E-03 0.  1.
        -12    1    3    3    0    0 -0.45515696492E+01  0.45218731101E+01 -0.18058325685E+01  0.66652197234E+01  0.00000000000E+00 0.  1.
</event>
<event>
 7    1  0.4818508E-009  0.4778727E+02  0.7816164E-02  0.1312668E+00
        -11   -1    0    0    0    0  0.00000000000E+00  0.00000000000E+00  0.45593999997E+02  0.45594000000E+02  0.51100000000E-03 0.  1.
         11   -1    0    0    0    0 -0.00000000000E+00 -0.00000000000E+00 -0.45593999997E+02  0.45594000000E+02  0.51100000000E-03 0. -1.
    9900012    2    1    2    0    0  0.11611443156E+02  0.21972839501E+02  0.35580785298E+02  0.47787267630E+02  0.19999984430E+02 0.  0.
         12    1    1    2    0    0 -0.11611443156E+02 -0.21972839501E+02 -0.35580785298E+02  0.43400732370E+02  0.00000000000E+00 0. -1.
         11    1    3    3    0    0  0.11397707805E+02  0.13314248129E+02  0.11689078592E+02  0.21066834243E+02  0.51100000000E-03 0. -1.
        -11    1    3    3    0    0  0.36247328395E+01  0.75099862245E+01  0.15841972005E+02  0.17902699755E+02  0.51100000000E-03 0.  1.
         12    1    3    3    0    0 -0.34109974875E+01  0.11486051471E+01  0.80497347004E+01  0.88177336312E+01  0.00000000000E+00 0. -1.
</event>
<event>
 7    1  0.4818508E-009  0.4778727E+02  0.7816164E-02  0.1312668E+00
        -11   -1    0    0    0    0  0.00000000000E+00  0.00000000000E+00  0.45593999997E+02  0.45594000000E+02  0.51100000000E-03 0. -1.
         11   -1    0    0    0    0 -0.00000000000E+00 -0.00000000000E+00 -0.45593999997E+02  0.45594000000E+02  0.51100000000E-03 0.  1.
    9900012    2    1    2    0    0 -0.36983238982E+02 -0.16767354314E+02  0.15320558895E+02  0.47787266582E+02  0.19999979656E+02 0.  0.
         12    1    1    2    0    0  0.36983238982E+02  0.16767354314E+02 -0.15320558895E+02  0.43400733418E+02  0.00000000000E+00 0. -1.
         11    1    3    3    0    0 -0.45121115493E+01  0.12012407530E+01  0.68551081672E+01  0.82942533253E+01  0.51100000000E-03 0. -1.
        -11    1    3    3    0    0 -0.19255604453E+02 -0.69092990935E+01  0.38796547008E+00  0.20461359541E+02  0.51100000000E-03 0.  1.
         12    1    3    3    0    0 -0.13215522980E+02 -0.11059295974E+02  0.80774852577E+01  0.19031653716E+02  0.00000000000E+00 0. -1.
</event>
<event>
 7    1  0.4818508E-009  0.4778727E+02  0.7816164E-02  0.1312668E+00
        -11   -1    0    0    0    0  0.00000000000E+00  0.00000000000E+00  0.45593999997E+02  0.45594000000E+02  0.51100000000E-03 0.  1.
         11   -1    0    0    0    0 -0.00000000000E+00 -0.00000000000E+00 -0.45593999997E+02  0.45594000000E+02  0.51100000000E-03 0. -1.
    9900012    2    1    2    0    0 -0.26856168766E+02 -0.22810425625E+02  0.25338786207E+02  0.47787269541E+02  0.19999993145E+02 0.  0.
         12    1    1    2    0    0  0.26856168766E+02  0.22810425625E+02 -0.25338786207E+02  0.43400730459E+02  0.00000000000E+00 0. -1.
         11    1    3    3    0    0 -0.44972122405E+01 -0.57018208166E+01 -0.12353736455E+01  0.73662627475E+01  0.51100000000E-03 0. -1.
        -11    1    3    3    0    0 -0.20061491873E+02 -0.18882511361E+02  0.23824368912E+02  0.36422702341E+02  0.51100000000E-03 0.  1.
         12    1    3    3    0    0 -0.22974646521E+01  0.17739065525E+01  0.27497909399E+01  0.39983044529E+01  0.00000000000E+00 0. -1.
</event>
<event>
 7    1  0.4818508E-009  0.4778726E+02  0.7816164E-02  0.1312668E+00
        -11   -1    0    0    0    0  0.00000000000E+00  0.00000000000E+00  0.45593999997E+02  0.45594000000E+02  0.51100000000E-03 0.  1.
         11   -1    0    0    0    0 -0.00000000000E+00 -0.00000000000E+00 -0.45593999997E+02  0.45594000000E+02  0.51100000000E-03 0. -1.
    9900012    2    1    2    0    0  0.10627119887E+02 -0.29604766575E+02  0.29903952427E+02  0.47787259778E+02  0.19999948632E+02 0.  0.
         12    1    1    2    0    0 -0.10627119887E+02  0.29604766575E+02 -0.29903952427E+02  0.43400740222E+02  0.00000000000E+00 0. -1.
         11    1    3    3    0    0 -0.26946560210E+01 -0.91220141553E+01  0.15661269412E+02  0.18323418708E+02  0.51100000000E-03 0. -1.
        -11    1    3    3    0    0  0.10403941890E+02 -0.18469500126E+02  0.14829763936E+02  0.25870569001E+02  0.51100000000E-03 0.  1.
        -12    1    3    3    0    0  0.29178340178E+01 -0.20132522938E+01 -0.58708092048E+00  0.35932720689E+01  0.00000000000E+00 0.  1.
</event>
<event>
 7    1  0.4818508E-009  0.4778727E+02  0.7816164E-02  0.1312668E+00
        -11   -1    0    0    0    0  0.00000000000E+00  0.00000000000E+00  0.45593999997E+02  0.45594000000E+02  0.51100000000E-03 0.  1.
         11   -1    0    0    0    0 -0.00000000000E+00 -0.00000000000E+00 -0.45593999997E+02  0.45594000000E+02  0.51100000000E-03 0. -1.
    9900012    2    1    2    0    0  0.11569654975E+02  0.39981897963E+02  0.12296908186E+02  0.47787273832E+02  0.20000012708E+02 0.  0.
         12    1    1    2    0    0 -0.11569654975E+02 -0.39981897963E+02 -0.12296908186E+02  0.43400726168E+02  0.00000000000E+00 0. -1.
         11    1    3    3    0    0 -0.15921361872E+01  0.21276777571E+00  0.37789701243E+01  0.41061884061E+01  0.51100000000E-03 0. -1.
        -11    1    3    3    0    0  0.86950634186E+01  0.26220782032E+02  0.99077741055E+01  0.29347870897E+02  0.51100000000E-03 0.  1.
         12    1    3    3    0    0  0.44667277436E+01  0.13548348156E+02 -0.13898360439E+01  0.14333214528E+02  0.00000000000E+00 0. -1.
</event>
<event>
 7    1  0.4818508E-009  0.4778727E+02  0.7816164E-02  0.1312668E+00
        -11   -1    0    0    0    0  0.00000000000E+00  0.00000000000E+00  0.45593999997E+02  0.45594000000E+02  0.51100000000E-03 0.  1.
         11   -1    0    0    0    0 -0.00000000000E+00 -0.00000000000E+00 -0.45593999997E+02  0.45594000000E+02  0.51100000000E-03 0. -1.
    9900012    2    1    2    0    0  0.34032834209E+01 -0.84320226005E+01  0.42437506658E+02  0.47787270577E+02  0.19999997867E+02 0.  0.
         12    1    1    2    0    0 -0.34032834209E+01  0.84320226005E+01 -0.42437506658E+02  0.43400729423E+02  0.00000000000E+00 0. -1.
         11    1    3    3    0    0 -0.21402785864E+01  0.11002501829E+01  0.44095826135E+01  0.50235208747E+01  0.51100000000E-03 0. -1.
        -11    1    3    3    0    0  0.52611985779E+01 -0.13420925593E+01  0.19538263991E+01  0.57705165083E+01  0.51100000000E-03 0.  1.
        -12    1    3    3    0    0  0.28236342948E+00 -0.81901802241E+01  0.36074097645E+02  0.36993233194E+02  0.00000000000E+00 0.  1.
</event>
<event>
 7    1  0.4818508E-009  0.4778727E+02  0.7816164E-02  0.1312668E+00
        -11   -1    0    0    0    0  0.00000000000E+00  0.00000000000E+00  0.45593999997E+02  0.45594000000E+02  0.51100000000E-03 0.  1.
         11   -1    0    0    0    0 -0.00000000000E+00 -0.00000000000E+00 -0.45593999997E+02  0.45594000000E+02  0.51100000000E-03 0. -1.
    9900012    2    1    2    0    0 -0.30460294695E+02 -0.98774073470E+00  0.30900125706E+02  0.47787274737E+02  0.20000016836E+02 0.  0.
         12    1    1    2    0    0  0.30460294695E+02  0.98774073470E+00 -0.30900125706E+02  0.43400725263E+02  0.00000000000E+00 0. -1.
         11    1    3    3    0    0  0.93849040962E+00  0.30722362785E+00 -0.82537493245E-01  0.99094061647E+00  0.51100000000E-03 0. -1.
        -11    1    3    3    0    0 -0.83602766828E+01  0.53458658384E+01  0.14984718805E+02  0.17972598746E+02  0.51100000000E-03 0.  1.
        -12    1    3    3    0    0 -0.23038508422E+02 -0.66408302009E+01  0.15997944395E+02  0.28823735374E+02  0.00000000000E+00 0.  1.
</event>
<event>
 7    1  0.4818508E-009  0.4778727E+02  0.7816164E-02  0.1312668E+00
        -11   -1    0    0    0    0  0.00000000000E+00  0.00000000000E+00  0.45593999997E+02  0.45594000000E+02  0.51100000000E-03 0.  1.
         11   -1    0    0    0    0 -0.00000000000E+00 -0.00000000000E+00 -0.45593999997E+02  0.45594000000E+02  0.51100000000E-03 0. -1.
    9900012    2    1    2    0    0 -0.18306459048E+02 -0.15523685385E+02  0.36159535335E+02  0.47787271361E+02  0.20000001442E+02 0.  0.
         12    1    1    2    0    0  0.18306459048E+02  0.15523685385E+02 -0.36159535335E+02  0.43400728639E+02  0.00000000000E+00 0. -1.
         11    1    3    3    0    0 -0.10562065261E+02 -0.15298715122E+02  0.32024564000E+02  0.37029455932E+02  0.51100000000E-03 0.  1.
        -11    1    3    3    0    0 -0.72847313372E+01  0.20359855519E+01  0.26530743054E+01  0.80156940656E+01  0.51100000000E-03 0. -1.
         12    1    3    3    0    0 -0.45966244917E+00 -0.22609558151E+01  0.14818970295E+01  0.27421213633E+01  0.00000000000E+00 0. -1.
</event>
<event>
 7    1  0.4818508E-009  0.4778726E+02  0.7816164E-02  0.1312668E+00
        -11   -1    0    0    0    0  0.00000000000E+00  0.00000000000E+00  0.45593999997E+02  0.45594000000E+02  0.51100000000E-03 0. -1.
         11   -1    0    0    0    0 -0.00000000000E+00 -0.00000000000E+00 -0.45593999997E+02  0.45594000000E+02  0.51100000000E-03 0.  1.
    9900012    2    1    2    0    0 -0.33928340124E+02  0.10588323691E+02 -0.24907410415E+02  0.47787263189E+02  0.19999964184E+02 0.  0.
         12    1    1    2    0    0  0.33928340124E+02 -0.10588323691E+02  0.24907410415E+02  0.43400736811E+02  0.00000000000E+00 0. -1.
         11    1    3    3    0    0 -0.32895877316E+02  0.10677966935E+02 -0.18749057144E+02  0.39340626156E+02  0.51100000000E-03 0.  1.
        -11    1    3    3    0    0 -0.65009621442E+00 -0.28796757460E+01 -0.28709014696E+01  0.41179160991E+01  0.51100000000E-03 0. -1.
        -12    1    3    3    0    0 -0.38236659284E+00  0.27900325027E+01 -0.32874518019E+01  0.43287209343E+01  0.00000000000E+00 0.  1.
</event>
<event>
 7    1  0.4818508E-009  0.4778727E+02  0.7816164E-02  0.1312668E+00
        -11   -1    0    0    0    0  0.00000000000E+00  0.00000000000E+00  0.45593999997E+02  0.45594000000E+02  0.51100000000E-03 0.  1.
         11   -1    0    0    0    0 -0.00000000000E+00 -0.00000000000E+00 -0.45593999997E+02  0.45594000000E+02  0.51100000000E-03 0. -1.
    9900012    2    1    2    0    0 -0.33724166026E+02 -0.10010368886E+02  0.25418427407E+02  0.47787270614E+02  0.19999998039E+02 0.  0.
         12    1    1    2    0    0  0.33724166026E+02  0.10010368886E+02 -0.25418427407E+02  0.43400729386E+02  0.00000000000E+00 0. -1.
         11    1    3    3    0    0 -0.11239273757E+02 -0.59522756085E+01  0.26268603222E+01  0.12986579801E+02  0.51100000000E-03 0.  1.
        -11    1    3    3    0    0 -0.19750948454E+01  0.33409392312E+01  0.65470191761E+01  0.76109352216E+01  0.51100000000E-03 0. -1.
        -12    1    3    3    0    0 -0.20509797423E+02 -0.73990325087E+01  0.16244547909E+02  0.27189755592E+02  0.00000000000E+00 0.  1.
</event>
<event>
 7    1  0.4818508E-009  0.4778727E+02  0.7816164E-02  0.1312668E+00
        -11   -1    0    0    0    0  0.00000000000E+00  0.00000000000E+00  0.45593999997E+02  0.45594000000E+02  0.51100000000E-03 0.  1.
         11   -1    0    0    0    0 -0.00000000000E+00 -0.00000000000E+00 -0.45593999997E+02  0.45594000000E+02  0.51100000000E-03 0. -1.
    9900012    2    1    2    0    0 -0.60648063435E+00  0.43008418891E+02 -0.57906197632E+01  0.47787271993E+02  0.20000004326E+02 0.  0.
         12    1    1    2    0    0  0.60648063435E+00 -0.43008418891E+02  0.57906197632E+01  0.43400728007E+02  0.00000000000E+00 0. -1.
         11    1    3    3    0    0  0.54513374325E+01  0.35953172495E+02 -0.23959905464E+01  0.36442948059E+02  0.51100000000E-03 0. -1.
        -11    1    3    3    0    0 -0.59974321019E+01  0.49550048769E+01 -0.44822440492E+01  0.89784061573E+01  0.51100000000E-03 0.  1.
         12    1    3    3    0    0 -0.60385964940E-01  0.21002415193E+01  0.10876148324E+01  0.23659177770E+01  0.00000000000E+00 0. -1.
</event>
<event>
 7    1  0.4818508E-009  0.4778727E+02  0.7816164E-02  0.1312668E+00
        -11   -1    0    0    0    0  0.00000000000E+00  0.00000000000E+00  0.45593999997E+02  0.45594000000E+02  0.51100000000E-03 0. -1.
         11   -1    0    0    0    0 -0.00000000000E+00 -0.00000000000E+00 -0.45593999997E+02  0.45594000000E+02  0.51100000000E-03 0.  1.
    9900012    2    1    2    0    0 -0.38949988808E+02 -0.10476121859E+02 -0.16024114795E+02  0.47787274057E+02  0.20000013737E+02 0.  0.
         12    1    1    2    0    0  0.38949988808E+02  0.10476121859E+02  0.16024114795E+02  0.43400725943E+02  0.00000000000E+00 0. -1.
         11    1    3    3    0    0 -0.14214566358E+02  0.34197665598E+01 -0.23680547391E+01  0.14810684778E+02  0.51100000000E-03 0. -1.
        -11    1    3    3    0    0 -0.75569607975E+01 -0.93160598806E+01 -0.34730301923E+01  0.12488337246E+02  0.51100000000E-03 0.  1.
        -12    1    3    3    0    0 -0.17178461653E+02 -0.45798285379E+01 -0.10183029864E+02  0.20488252034E+02  0.00000000000E+00 0.  1.
</event>
<event>
 7    1  0.4818508E-009  0.4778727E+02  0.7816164E-02  0.1312668E+00
        -11   -1    0    0    0    0  0.00000000000E+00  0.00000000000E+00  0.45593999997E+02  0.45594000000E+02  0.51100000000E-03 0.  1.
         11   -1    0    0    0    0 -0.00000000000E+00 -0.00000000000E+00 -0.45593999997E+02  0.45594000000E+02  0.51100000000E-03 0. -1.
    9900012    2    1    2    0    0  0.25060812751E+02  0.33411515066E+02  0.11800402895E+02  0.47787272089E+02  0.20000004761E+02 0.  0.
         12    1    1    2    0    0 -0.25060812751E+02 -0.33411515066E+02 -0.11800402895E+02  0.43400727911E+02  0.00000000000E+00 0. -1.
         11    1    3    3    0    0  0.13847839106E+02  0.20864647314E+02 -0.18329209820E+01  0.25108878012E+02  0.51100000000E-03 0. -1.
        -11    1    3    3    0    0  0.14554445102E+01  0.46108587797E+01  0.11761450219E+01  0.49761083973E+01  0.51100000000E-03 0.  1.
         12    1    3    3    0    0  0.97575291353E+01  0.79360089722E+01  0.12457178855E+02  0.17702285679E+02  0.00000000000E+00 0. -1.
</event>
<event>
 7    1  0.4818508E-009  0.4778727E+02  0.7816164E-02  0.1312668E+00
        -11   -1    0    0    0    0  0.00000000000E+00  0.00000000000E+00  0.45593999997E+02  0.45594000000E+02  0.51100000000E-03 0.  1.
         11   -1    0    0    0    0 -0.00000000000E+00 -0.00000000000E+00 -0.45593999997E+02  0.45594000000E+02  0.51100000000E-03 0. -1.
    9900012    2    1    2    0    0 -0.27501541405E+02  0.24953025400E+02  0.22464085297E+02  0.47787269770E+02  0.19999994189E+02 0.  0.
         12    1    1    2    0    0  0.27501541405E+02 -0.24953025400E+02 -0.22464085297E+02  0.43400730230E+02  0.00000000000E+00 0. -1.
         11    1    3    3    0    0 -0.15495459478E+02  0.20562300984E+02  0.78059491781E+01  0.26904466712E+02  0.51100000000E-03 0. -1.
        -11    1    3    3    0    0 -0.12836823844E+02  0.32519253452E+01  0.14161350140E+02  0.19388215568E+02  0.51100000000E-03 0.  1.
        -12    1    3    3    0    0  0.83074191754E+00  0.11387990709E+01  0.49678597902E+00  0.14945874904E+01  0.00000000000E+00 0.  1.
</event>
<event>
 7    1  0.4818508E-009  0.4778727E+02  0.7816164E-02  0.1312668E+00
        -11   -1    0    0    0    0  0.00000000000E+00  0.00000000000E+00  0.45593999997E+02  0.45594000000E+02  0.51100000000E-03 0.  1.
         11   -1    0    0    0    0 -0.00000000000E+00 -0.00000000000E+00 -0.45593999997E+02  0.45594000000E+02  0.51100000000E-03 0. -1.
    9900012    2    1    2    0    0 -0.22836170170E+02 -0.24095444212E+02  0.27956072079E+02  0.47787273441E+02  0.20000010926E+02 0.  0.
         12    1    1    2    0    0  0.22836170170E+02  0.24095444212E+02 -0.27956072079E+02  0.43400726559E+02  0.00000000000E+00 0. -1.
         11    1    3    3    0    0 -0.77150794339E+01 -0.13829987923E+02  0.22093700203E+01  0.15989757120E+02  0.51100000000E-03 0. -1.
        -11    1    3    3    0    0 -0.12011144440E+02 -0.98243808300E+01  0.21560941567E+02  0.26564266430E+02  0.51100000000E-03 0.  1.
         12    1    3    3    0    0 -0.31099462959E+01 -0.44107545907E+00  0.41857604919E+01  0.52332498907E+01  0.00000000000E+00 0. -1.
</event>
<event>
 7    1  0.4818508E-009  0.4778727E+02  0.7816164E-02  0.1312668E+00
        -11   -1    0    0    0    0  0.00000000000E+00  0.00000000000E+00  0.45593999997E+02  0.45594000000E+02  0.51100000000E-03 0.  1.
         11   -1    0    0    0    0 -0.00000000000E+00 -0.00000000000E+00 -0.45593999997E+02  0.45594000000E+02  0.51100000000E-03 0. -1.
    9900012    2    1    2    0    0 -0.23486214971E+02 -0.31110764858E+02 -0.19082485739E+02  0.47787271370E+02  0.20000001483E+02 0.  0.
         12    1    1    2    0    0  0.23486214971E+02  0.31110764858E+02  0.19082485739E+02  0.43400728630E+02  0.00000000000E+00 0. -1.
         11    1    3    3    0    0 -0.12825970524E+02 -0.11036494391E+02 -0.17971643651E+02  0.24683794362E+02  0.51100000000E-03 0. -1.
        -11    1    3    3    0    0 -0.95442188535E+01 -0.14375377142E+02 -0.11846509232E+01  0.17295865968E+02  0.51100000000E-03 0.  1.
         12    1    3    3    0    0 -0.11160255931E+01 -0.56988933243E+01  0.73808835295E-01  0.58076110399E+01  0.00000000000E+00 0. -1.
</event>
<event>
 7    1  0.4818508E-009  0.4778725E+02  0.7816164E-02  0.1312668E+00
        -11   -1    0    0    0    0  0.00000000000E+00  0.00000000000E+00  0.45593999997E+02  0.45594000000E+02  0.51100000000E-03 0.  1.
         11   -1    0    0    0    0 -0.00000000000E+00 -0.00000000000E+00 -0.45593999997E+02  0.45594000000E+02  0.51100000000E-03 0. -1.
    9900012    2    1    2    0    0 -0.37497016567E+01 -0.24804366340E+02  0.35416209644E+02  0.47787253951E+02  0.19999922065E+02 0.  0.
         12    1    1    2    0    0  0.37497016567E+01  0.24804366340E+02 -0.35416209644E+02  0.43400746049E+02  0.00000000000E+00 0. -1.
         11    1    3    3    0    0 -0.49348609290E+01 -0.36878373756E+01  0.15204765620E+02  0.16405422723E+02  0.51100000000E-03 0. -1.
        -11    1    3    3    0    0  0.44239388984E+01 -0.71200939304E+01  0.28647063515E+01  0.88585278516E+01  0.51100000000E-03 0.  1.
        -12    1    3    3    0    0 -0.32387796262E+01 -0.13996435034E+02  0.17346737672E+02  0.22523303377E+02  0.00000000000E+00 0.  1.
</event>
<event>
 7    1  0.4818508E-009  0.4778726E+02  0.7816164E-02  0.1312668E+00
        -11   -1    0    0    0    0  0.00000000000E+00  0.00000000000E+00  0.45593999997E+02  0.45594000000E+02  0.51100000000E-03 0.  1.
         11   -1    0    0    0    0 -0.00000000000E+00 -0.00000000000E+00 -0.45593999997E+02  0.45594000000E+02  0.51100000000E-03 0. -1.
    9900012    2    1    2    0    0  0.99463680329E+01  0.12963638389E+02  0.40207439781E+02  0.47787258404E+02  0.19999942369E+02 0.  0.
         12    1    1    2    0    0 -0.99463680329E+01 -0.12963638389E+02 -0.40207439781E+02  0.43400741596E+02  0.00000000000E+00 0. -1.
         11    1    3    3    0    0  0.12782859025E+01  0.12921423817E+02  0.16186894004E+02  0.20751210713E+02  0.51100000000E-03 0. -1.
        -11    1    3    3    0    0  0.32921127459E+01  0.32427565867E+01  0.41752021599E+01  0.62278238535E+01  0.51100000000E-03 0.  1.
         12    1    3    3    0    0  0.53759693845E+01 -0.32005420145E+01  0.19845343617E+02  0.20808223838E+02  0.00000000000E+00 0. -1.
</event>
<event>
 7    1  0.4818508E-009  0.4778727E+02  0.7816164E-02  0.1312668E+00
        -11   -1    0    0    0    0  0.00000000000E+00  0.00000000000E+00  0.45593999997E+02  0.45594000000E+02  0.51100000000E-03 0.  1.
         11   -1    0    0    0    0 -0.00000000000E+00 -0.00000000000E+00 -0.45593999997E+02  0.45594000000E+02  0.51100000000E-03 0. -1.
    9900012    2    1    2    0    0 -0.17299983948E+02 -0.17534318090E+02  0.35733478922E+02  0.47787271073E+02  0.20000000132E+02 0.  0.
         12    1    1    2    0    0  0.17299983948E+02  0.17534318090E+02 -0.35733478922E+02  0.43400728927E+02  0.00000000000E+00 0. -1.
         11    1    3    3    0    0 -0.61777297032E+01  0.11985821786E+01  0.12603769968E+02  0.14087439838E+02  0.51100000000E-03 0. -1.
        -11    1    3    3    0    0 -0.91817935357E+01 -0.18566600715E+02  0.23881226546E+02  0.31612291537E+02  0.51100000000E-03 0.  1.
         12    1    3    3    0    0 -0.19404607086E+01 -0.16629955426E+00 -0.75151759138E+00  0.20875396986E+01  0.00000000000E+00 0. -1.
</event>
<event>
 7    1  0.4818508E-009  0.4778727E+02  0.7816164E-02  0.1312668E+00
        -11   -1    0    0    0    0  0.00000000000E+00  0.00000000000E+00  0.45593999997E+02  0.45594000000E+02  0.51100000000E-03 0. -1.
         11   -1    0    0    0    0 -0.00000000000E+00 -0.00000000000E+00 -0.45593999997E+02  0.45594000000E+02  0.51100000000E-03 0.  1.
    9900012    2    1    2    0    0  0.34834676634E+02  0.15495887067E+02 -0.20737551870E+02  0.47787271092E+02  0.20000000219E+02 0.  0.
         12    1    1    2    0    0 -0.34834676634E+02 -0.15495887067E+02  0.20737551870E+02  0.43400728908E+02  0.00000000000E+00 0. -1.
         11    1    3    3    0    0  0.29121522634E+01  0.36504242118E+01 -0.34080641588E-01  0.46698382715E+01  0.51100000000E-03 0. -1.
        -11    1    3    3    0    0  0.27344604636E+02  0.15142811208E+02 -0.13710182010E+02  0.34132114276E+02  0.51100000000E-03 0.  1.
        -12    1    3    3    0    0  0.45779197346E+01 -0.32973483533E+01 -0.69932892180E+01  0.89853185445E+01  0.00000000000E+00 0.  1.
</event>
<event>
 7    1  0.4818508E-009  0.4778727E+02  0.7816164E-02  0.1312668E+00
        -11   -1    0    0    0    0  0.00000000000E+00  0.00000000000E+00  0.45593999997E+02  0.45594000000E+02  0.51100000000E-03 0.  1.
         11   -1    0    0    0    0 -0.00000000000E+00 -0.00000000000E+00 -0.45593999997E+02  0.45594000000E+02  0.51100000000E-03 0. -1.
    9900012    2    1    2    0    0 -0.31089812512E+02  0.27631902134E+02 -0.12390531386E+02  0.47787265840E+02  0.19999976272E+02 0.  0.
         12    1    1    2    0    0  0.31089812512E+02 -0.27631902134E+02  0.12390531386E+02  0.43400734160E+02  0.00000000000E+00 0. -1.
         11    1    3    3    0    0  0.17980094597E+01  0.11236286379E+00 -0.37993680714E+00  0.18411452058E+01  0.51100000000E-03 0. -1.
        -11    1    3    3    0    0 -0.20656937674E+02  0.11654033295E+02 -0.10245094480E+02  0.25835779982E+02  0.51100000000E-03 0.  1.
        -12    1    3    3    0    0 -0.12230884298E+02  0.15865505975E+02 -0.17655000984E+01  0.20110340653E+02  0.00000000000E+00 0.  1.
</event>
<event>
 7    1  0.4818508E-009  0.4778727E+02  0.7816164E-02  0.1312668E+00
        -11   -1    0    0    0    0  0.00000000000E+00  0.00000000000E+00  0.45593999997E+02  0.45594000000E+02  0.51100000000E-03 0. -1.
         11   -1    0    0    0    0 -0.00000000000E+00 -0.00000000000E+00 -0.45593999997E+02  0.45594000000E+02  0.51100000000E-03 0.  1.
    9900012    2    1    2    0    0  0.36320860288E+02 -0.19403435758E+02 -0.13708574292E+02  0.47787271660E+02  0.20000002808E+02 0.  0.
         12    1    1    2    0    0 -0.36320860288E+02  0.19403435758E+02  0.13708574292E+02  0.43400728340E+02  0.00000000000E+00 0. -1.
         11    1    3    3    0    0  0.27175410862E+02 -0.14930461774E+02 -0.14006751805E+02  0.34023679117E+02  0.51100000000E-03 0. -1.
        -11    1    3    3    0    0  0.10113677930E+02 -0.11256258667E+01 -0.50138590002E+00  0.10188469117E+02  0.51100000000E-03 0.  1.
         12    1    3    3    0    0 -0.96822850374E+00 -0.33473481181E+01  0.79956341369E+00  0.35751234261E+01  0.00000000000E+00 0. -1.
</event>
<event>
 7    1  0.4818508E-009  0.4778727E+02  0.7816164E-02  0.1312668E+00
        -11   -1    0    0    0    0  0.00000000000E+00  0.00000000000E+00  0.45593999997E+02  0.45594000000E+02  0.51100000000E-03 0. -1.
         11   -1    0    0    0    0 -0.00000000000E+00 -0.00000000000E+00 -0.45593999997E+02  0.45594000000E+02  0.51100000000E-03 0.  1.
    9900012    2    1    2    0    0  0.17817523354E+02 -0.20192443238E+02 -0.34035640219E+02  0.47787266049E+02  0.19999977222E+02 0.  0.
         12    1    1    2    0    0 -0.17817523354E+02  0.20192443238E+02  0.34035640219E+02  0.43400733951E+02  0.00000000000E+00 0. -1.
         11    1    3    3    0    0  0.19354772929E+02 -0.17842112882E+02 -0.26417338758E+02  0.37293753023E+02  0.51100000000E-03 0. -1.
        -11    1    3    3    0    0 -0.13370104132E+01 -0.44027238972E+01 -0.69321175145E+01  0.83202060104E+01  0.51100000000E-03 0.  1.
         12    1    3    3    0    0 -0.20023916136E+00  0.20523935419E+01 -0.68618394671E+00  0.21733070150E+01  0.00000000000E+00 0. -1.
</event>
<event>
 7    1  0.4818508E-009  0.4778727E+02  0.7816164E-02  0.1312668E+00
        -11   -1    0    0    0    0  0.00000000000E+00  0.00000000000E+00  0.45593999997E+02  0.45594000000E+02  0.51100000000E-03 0. -1.
         11   -1    0    0    0    0 -0.00000000000E+00 -0.00000000000E+00 -0.45593999997E+02  0.45594000000E+02  0.51100000000E-03 0.  1.
    9900012    2    1    2    0    0  0.13784953341E+02  0.24491031884E+02 -0.33072461432E+02  0.47787270899E+02  0.19999999338E+02 0.  0.
         12    1    1    2    0    0 -0.13784953341E+02 -0.24491031884E+02  0.33072461432E+02  0.43400729101E+02  0.00000000000E+00 0. -1.
         11    1    3    3    0    0 -0.18128464881E+01  0.10088190870E+02 -0.35912961085E+01  0.10860728126E+02  0.51100000000E-03 0. -1.
        -11    1    3    3    0    0  0.11691377439E+02  0.10940846200E+02 -0.16776521603E+02  0.23191422970E+02  0.51100000000E-03 0.  1.
         12    1    3    3    0    0  0.39064223899E+01  0.34619948138E+01 -0.12704643720E+02  0.13735119804E+02  0.00000000000E+00 0. -1.
</event>
<event>
 7    1  0.4818508E-009  0.4778727E+02  0.7816164E-02  0.1312668E+00
        -11   -1    0    0    0    0  0.00000000000E+00  0.00000000000E+00  0.45593999997E+02  0.45594000000E+02  0.51100000000E-03 0.  1.
         11   -1    0    0    0    0 -0.00000000000E+00 -0.00000000000E+00 -0.45593999997E+02  0.45594000000E+02  0.51100000000E-03 0. -1.
    9900012    2    1    2    0    0 -0.21189871176E+02 -0.37641094015E+02  0.42143298865E+01  0.47787272178E+02  0.20000005166E+02 0.  0.
         12    1    1    2    0    0  0.21189871176E+02  0.37641094015E+02 -0.42143298865E+01  0.43400727822E+02  0.00000000000E+00 0. -1.
         11    1    3    3    0    0 -0.49774862455E+01 -0.22022192801E+02 -0.30135929751E+01  0.22777929844E+02  0.51100000000E-03 0. -1.
        -11    1    3    3    0    0 -0.14768794225E+02 -0.92837634250E+01  0.53135503151E+01  0.18235661858E+02  0.51100000000E-03 0.  1.
        -12    1    3    3    0    0 -0.14435907048E+01 -0.63351377893E+01  0.19143725464E+01  0.67736804752E+01  0.00000000000E+00 0.  1.
</event>
<event>
 7    1  0.4818508E-009  0.4778727E+02  0.7816164E-02  0.1312668E+00
        -11   -1    0    0    0    0  0.00000000000E+00  0.00000000000E+00  0.45593999997E+02  0.45594000000E+02  0.51100000000E-03 0.  1.
         11   -1    0    0    0    0 -0.00000000000E+00 -0.00000000000E+00 -0.45593999997E+02  0.45594000000E+02  0.51100000000E-03 0. -1.
    9900012    2    1    2    0    0 -0.84718260618E+01  0.15865478633E+02  0.39498583503E+02  0.47787270192E+02  0.19999996114E+02 0.  0.
         12    1    1    2    0    0  0.84718260618E+01 -0.15865478633E+02 -0.39498583503E+02  0.43400729808E+02  0.00000000000E+00 0. -1.
         11    1    3    3    0    0 -0.22193614583E+01  0.41245387270E+01 -0.26986247889E+00  0.46915041310E+01  0.51100000000E-03 0. -1.
        -11    1    3    3    0    0 -0.15279185798E+01  0.66026595853E+01  0.76177668439E+01  0.10196078694E+02  0.51100000000E-03 0.  1.
         12    1    3    3    0    0 -0.47245460237E+01  0.51382803209E+01  0.32150679138E+02  0.32899687367E+02  0.00000000000E+00 0. -1.
</event>
<event>
 7    1  0.4818508E-009  0.4778727E+02  0.7816164E-02  0.1312668E+00
        -11   -1    0    0    0    0  0.00000000000E+00  0.00000000000E+00  0.45593999997E+02  0.45594000000E+02  0.51100000000E-03 0. -1.
         11   -1    0    0    0    0 -0.00000000000E+00 -0.00000000000E+00 -0.45593999997E+02  0.45594000000E+02  0.51100000000E-03 0.  1.
    9900012    2    1    2    0    0 -0.45534807683E+01 -0.43155431436E+02 -0.70544118954E+00  0.47787273084E+02  0.20000009300E+02 0.  0.
         12    1    1    2    0    0  0.45534807683E+01  0.43155431436E+02  0.70544118954E+00  0.43400726916E+02  0.00000000000E+00 0. -1.
         11    1    3    3    0    0  0.52845302241E+01 -0.89814781579E+01 -0.11743619011E+01  0.10486769556E+02  0.51100000000E-03 0. -1.
        -11    1    3    3    0    0  0.23004222486E+00 -0.14665335867E+01 -0.25447980373E+01  0.29461224512E+01  0.51100000000E-03 0.  1.
         12    1    3    3    0    0 -0.10068053217E+02 -0.32707419692E+02  0.30137187488E+01  0.34354381077E+02  0.00000000000E+00 0. -1.
</event>
<event>
 7    1  0.4818508E-009  0.4778727E+02  0.7816164E-02  0.1312668E+00
        -11   -1    0    0    0    0  0.00000000000E+00  0.00000000000E+00  0.45593999997E+02  0.45594000000E+02  0.51100000000E-03 0. -1.
         11   -1    0    0    0    0 -0.00000000000E+00 -0.00000000000E+00 -0.45593999997E+02  0.45594000000E+02  0.51100000000E-03 0.  1.
    9900012    2    1    2    0    0 -0.32439784199E+02 -0.22540135514E+02  0.17978488269E+02  0.47787270187E+02  0.19999996090E+02 0.  0.
         12    1    1    2    0    0  0.32439784199E+02  0.22540135514E+02 -0.17978488269E+02  0.43400729813E+02  0.00000000000E+00 0. -1.
         11    1    3    3    0    0 -0.33459197822E+00  0.10619767635E+01 -0.40207622622E+00  0.11838124813E+01  0.51100000000E-03 0. -1.
        -11    1    3    3    0    0 -0.13757632502E+02 -0.21447815033E+01  0.22986996792E+01  0.14112284019E+02  0.51100000000E-03 0.  1.
        -12    1    3    3    0    0 -0.18347559719E+02 -0.21457330774E+02  0.16081864816E+02  0.32491173687E+02  0.00000000000E+00 0.  1.
</event>
<event>
 7    1  0.4818508E-009  0.4778726E+02  0.7816164E-02  0.1312668E+00
        -11   -1    0    0    0    0  0.00000000000E+00  0.00000000000E+00  0.45593999997E+02  0.45594000000E+02  0.51100000000E-03 0. -1.
         11   -1    0    0    0    0 -0.00000000000E+00 -0.00000000000E+00 -0.45593999997E+02  0.45594000000E+02  0.51100000000E-03 0.  1.
    9900012    2    1    2    0    0 -0.15698681163E+02  0.27088254417E+02 -0.30056643942E+02  0.47787263109E+02  0.19999963819E+02 0.  0.
         12    1    1    2    0    0  0.15698681163E+02 -0.27088254417E+02  0.30056643942E+02  0.43400736891E+02  0.00000000000E+00 0. -1.
         11    1    3    3    0    0 -0.12644099458E+00  0.68916702080E+01 -0.44165089351E+01  0.81863701978E+01  0.51100000000E-03 0. -1.
        -11    1    3    3    0    0 -0.12624106325E+02  0.20324015574E+02 -0.14278550323E+02  0.27862352182E+02  0.51100000000E-03 0.  1.
        -12    1    3    3    0    0 -0.29481338432E+01 -0.12743136434E+00 -0.11361584684E+02  0.11738540729E+02  0.00000000000E+00 0.  1.
</event>
<event>
 7    1  0.4818508E-009  0.4778730E+02  0.7816164E-02  0.1312668E+00
        -11   -1    0    0    0    0  0.00000000000E+00  0.00000000000E+00  0.45593999997E+02  0.45594000000E+02  0.51100000000E-03 0.  1.
         11   -1    0    0    0    0 -0.00000000000E+00 -0.00000000000E+00 -0.45593999997E+02  0.45594000000E+02  0.51100000000E-03 0. -1.
    9900012    2    1    2    0    0 -0.55917315262E+01  0.37042430564E+02  0.21913731863E+02  0.47787299917E+02  0.20000131640E+02 0.  0.
         12    1    1    2    0    0  0.55917315262E+01 -0.37042430564E+02 -0.21913731863E+02  0.43400700083E+02  0.00000000000E+00 0. -1.
         11    1    3    3    0    0 -0.53978646709E+01  0.89478335591E+01  0.10291296269E+02  0.14666678137E+02  0.51100000000E-03 0. -1.
        -11    1    3    3    0    0  0.31813474661E+01  0.25440658515E+02  0.12816880625E+02  0.28663923433E+02  0.51100000000E-03 0.  1.
         12    1    3    3    0    0 -0.33752143213E+01  0.26539384897E+01 -0.11944450308E+01  0.44566983467E+01  0.00000000000E+00 0. -1.
</event>
<event>
 7    1  0.4818508E-009  0.4778728E+02  0.7816164E-02  0.1312668E+00
        -11   -1    0    0    0    0  0.00000000000E+00  0.00000000000E+00  0.45593999997E+02  0.45594000000E+02  0.51100000000E-03 0.  1.
         11   -1    0    0    0    0 -0.00000000000E+00 -0.00000000000E+00 -0.45593999997E+02  0.45594000000E+02  0.51100000000E-03 0. -1.
    9900012    2    1    2    0    0 -0.41081962944E+02  0.59099032230E+01  0.12687314202E+02  0.47787279071E+02  0.20000036597E+02 0.  0.
         12    1    1    2    0    0  0.41081962944E+02 -0.59099032230E+01 -0.12687314202E+02  0.43400720929E+02  0.00000000000E+00 0. -1.
         11    1    3    3    0    0  0.45889095467E+00  0.16410233746E+00 -0.21633268186E+00  0.53320781670E+00  0.51100000000E-03 0.  1.
        -11    1    3    3    0    0 -0.38749743664E+01 -0.39095230565E+01 -0.16334493823E+01  0.57417727241E+01  0.51100000000E-03 0. -1.
        -12    1    3    3    0    0 -0.37665879533E+02  0.96553239420E+01  0.14537096267E+02  0.41512298530E+02  0.00000000000E+00 0.  1.
</event>
<event>
 7    1  0.4818508E-009  0.4778727E+02  0.7816164E-02  0.1312668E+00
        -11   -1    0    0    0    0  0.00000000000E+00  0.00000000000E+00  0.45593999997E+02  0.45594000000E+02  0.51100000000E-03 0.  1.
         11   -1    0    0    0    0 -0.00000000000E+00 -0.00000000000E+00 -0.45593999997E+02  0.45594000000E+02  0.51100000000E-03 0. -1.
    9900012    2    1    2    0    0  0.19437859787E+01 -0.31279621376E+02  0.30023831277E+02  0.47787268878E+02  0.19999990124E+02 0.  0.
         12    1    1    2    0    0 -0.19437859787E+01  0.31279621376E+02 -0.30023831277E+02  0.43400731122E+02  0.00000000000E+00 0. -1.
         11    1    3    3    0    0 -0.44606122843E+01 -0.23397168956E+02  0.18410447707E+02  0.30104304711E+02  0.51100000000E-03 0. -1.
        -11    1    3    3    0    0  0.67019980141E+00 -0.64759576536E+01  0.92764396150E+01  0.11333116407E+02  0.51100000000E-03 0.  1.
         12    1    3    3    0    0  0.57341984616E+01 -0.14064947655E+01  0.23369439555E+01  0.63498477599E+01  0.00000000000E+00 0. -1.
</event>
<event>
 7    1  0.4818508E-009  0.4778727E+02  0.7816164E-02  0.1312668E+00
        -11   -1    0    0    0    0  0.00000000000E+00  0.00000000000E+00  0.45593999997E+02  0.45594000000E+02  0.51100000000E-03 0. -1.
         11   -1    0    0    0    0 -0.00000000000E+00 -0.00000000000E+00 -0.45593999997E+02  0.45594000000E+02  0.51100000000E-03 0.  1.
    9900012    2    1    2    0    0  0.21628881447E+02 -0.24217864546E+02 -0.28797743786E+02  0.47787268175E+02  0.19999986915E+02 0.  0.
         12    1    1    2    0    0 -0.21628881447E+02  0.24217864546E+02  0.28797743786E+02  0.43400731825E+02  0.00000000000E+00 0. -1.
         11    1    3    3    0    0  0.16570768993E+02 -0.12913310504E+02 -0.79445059876E+01  0.22460168050E+02  0.51100000000E-03 0. -1.
        -11    1    3    3    0    0  0.26803041956E+01 -0.20977667366E+01 -0.11484461017E+02  0.11978209423E+02  0.51100000000E-03 0.  1.
         12    1    3    3    0    0  0.23778082593E+01 -0.92067873055E+01 -0.93687767816E+01  0.13348890703E+02  0.00000000000E+00 0. -1.
</event>
<event>
 7    1  0.4818508E-009  0.4778727E+02  0.7816164E-02  0.1312668E+00
        -11   -1    0    0    0    0  0.00000000000E+00  0.00000000000E+00  0.45593999997E+02  0.45594000000E+02  0.51100000000E-03 0.  1.
         11   -1    0    0    0    0 -0.00000000000E+00 -0.00000000000E+00 -0.45593999997E+02  0.45594000000E+02  0.51100000000E-03 0. -1.
    9900012    2    1    2    0    0 -0.17954966674E+02  0.59347102757E+01  0.39064326636E+02  0.47787271552E+02  0.20000002314E+02 0.  0.
         12    1    1    2    0    0  0.17954966674E+02 -0.59347102757E+01 -0.39064326636E+02  0.43400728448E+02  0.00000000000E+00 0. -1.
         11    1    3    3    0    0  0.23926343254E+01 -0.28062151747E+01  0.57500355161E+01  0.68309919718E+01  0.51100000000E-03 0. -1.
        -11    1    3    3    0    0 -0.12064056950E+02  0.62494122292E+00  0.14723896912E+02  0.19045344895E+02  0.51100000000E-03 0.  1.
         12    1    3    3    0    0 -0.82835440492E+01  0.81159842274E+01  0.18590394208E+02  0.21910934685E+02  0.00000000000E+00 0. -1.
</event>
<event>
 7    1  0.4818508E-009  0.4778727E+02  0.7816164E-02  0.1312668E+00
        -11   -1    0    0    0    0  0.00000000000E+00  0.00000000000E+00  0.45593999997E+02  0.45594000000E+02  0.51100000000E-03 0. -1.
         11   -1    0    0    0    0 -0.00000000000E+00 -0.00000000000E+00 -0.45593999997E+02  0.45594000000E+02  0.51100000000E-03 0.  1.
    9900012    2    1    2    0    0  0.42895906597E+02 -0.62362064828E+01 -0.21620103389E+01  0.47787270020E+02  0.19999995329E+02 0.  0.
         12    1    1    2    0    0 -0.42895906597E+02  0.62362064828E+01  0.21620103389E+01  0.43400729980E+02  0.00000000000E+00 0. -1.
         11    1    3    3    0    0  0.70724718714E+01  0.30070459222E+01 -0.20172447719E+01  0.79455308369E+01  0.51100000000E-03 0. -1.
        -11    1    3    3    0    0  0.24157622345E+02 -0.13111471545E+02  0.94890059822E+00  0.27502760153E+02  0.51100000000E-03 0.  1.
        -12    1    3    3    0    0  0.11665812381E+02  0.38682191397E+01 -0.10936661651E+01  0.12338979030E+02  0.00000000000E+00 0.  1.
</event>
<event>
 7    1  0.4818508E-009  0.4778727E+02  0.7816164E-02  0.1312668E+00
        -11   -1    0    0    0    0  0.00000000000E+00  0.00000000000E+00  0.45593999997E+02  0.45594000000E+02  0.51100000000E-03 0.  1.
         11   -1    0    0    0    0 -0.00000000000E+00 -0.00000000000E+00 -0.45593999997E+02  0.45594000000E+02  0.51100000000E-03 0. -1.
    9900012    2    1    2    0    0 -0.42567473122E+02  0.26219866787E+01 -0.80472847347E+01  0.47787269894E+02  0.19999994753E+02 0.  0.
         12    1    1    2    0    0  0.42567473122E+02 -0.26219866787E+01  0.80472847347E+01  0.43400730106E+02  0.00000000000E+00 0. -1.
         11    1    3    3    0    0 -0.23922442443E+02  0.97435945708E+00 -0.14479121977E+02  0.27979950004E+02  0.51100000000E-03 0. -1.
        -11    1    3    3    0    0 -0.11888211635E+02  0.13924660522E+01  0.42755565092E+01  0.12710189665E+02  0.51100000000E-03 0.  1.
         12    1    3    3    0    0 -0.67568190443E+01  0.25516116942E+00  0.21562807327E+01  0.70971302241E+01  0.00000000000E+00 0. -1.
</event>
<event>
 7    1  0.4818508E-009  0.4778727E+02  0.7816164E-02  0.1312668E+00
        -11   -1    0    0    0    0  0.00000000000E+00  0.00000000000E+00  0.45593999997E+02  0.45594000000E+02  0.51100000000E-03 0. -1.
         11   -1    0    0    0    0 -0.00000000000E+00 -0.00000000000E+00 -0.45593999997E+02  0.45594000000E+02  0.51100000000E-03 0.  1.
    9900012    2    1    2    0    0 -0.60227925485E+01  0.39129831122E+02 -0.17782172058E+02  0.47787270089E+02  0.19999995643E+02 0.  0.
         12    1    1    2    0    0  0.60227925485E+01 -0.39129831122E+02  0.17782172058E+02  0.43400729911E+02  0.00000000000E+00 0. -1.
         11    1    3    3    0    0 -0.42195743808E+01  0.96124306381E+01  0.28046105727E+01  0.10865977704E+02  0.51100000000E-03 0. -1.
        -11    1    3    3    0    0 -0.19431353329E+00  0.27512135823E+02 -0.16464421177E+02  0.32062946531E+02  0.51100000000E-03 0.  1.
        -12    1    3    3    0    0 -0.16089046345E+01  0.20052646608E+01 -0.41223614541E+01  0.48583458544E+01  0.00000000000E+00 0.  1.
</event>
<event>
 7    1  0.4818508E-009  0.4778727E+02  0.7816164E-02  0.1312668E+00
        -11   -1    0    0    0    0  0.00000000000E+00  0.00000000000E+00  0.45593999997E+02  0.45594000000E+02  0.51100000000E-03 0.  1.
         11   -1    0    0    0    0 -0.00000000000E+00 -0.00000000000E+00 -0.45593999997E+02  0.45594000000E+02  0.51100000000E-03 0. -1.
    9900012    2    1    2    0    0  0.25661700324E+02 -0.50082701206E+01  0.34641271461E+02  0.47787270495E+02  0.19999997494E+02 0.  0.
         12    1    1    2    0    0 -0.25661700324E+02  0.50082701206E+01 -0.34641271461E+02  0.43400729505E+02  0.00000000000E+00 0. -1.
         11    1    3    3    0    0  0.13558606942E+01  0.47996740809E+01  0.37088112406E+01  0.62153447680E+01  0.51100000000E-03 0. -1.
        -11    1    3    3    0    0  0.17806589710E+02 -0.70354151455E+01  0.28003586983E+02  0.33923039184E+02  0.51100000000E-03 0.  1.
         12    1    3    3    0    0  0.64992499203E+01 -0.27725290560E+01  0.29288732380E+01  0.76488865423E+01  0.00000000000E+00 0. -1.
</event>
<event>
 7    1  0.4818508E-009  0.4778728E+02  0.7816164E-02  0.1312668E+00
        -11   -1    0    0    0    0  0.00000000000E+00  0.00000000000E+00  0.45593999997E+02  0.45594000000E+02  0.51100000000E-03 0.  1.
         11   -1    0    0    0    0 -0.00000000000E+00 -0.00000000000E+00 -0.45593999997E+02  0.45594000000E+02  0.51100000000E-03 0. -1.
    9900012    2    1    2    0    0  0.22100005377E+02 -0.22983511350E+02  0.29444366457E+02  0.47787277107E+02  0.20000027640E+02 0.  0.
         12    1    1    2    0    0 -0.22100005377E+02  0.22983511350E+02 -0.29444366457E+02  0.43400722893E+02  0.00000000000E+00 0. -1.
         11    1    3    3    0    0  0.82529577504E+01 -0.22546193002E+01  0.59274599371E+01  0.10408141111E+02  0.51100000000E-03 0. -1.
        -11    1    3    3    0    0  0.14931782840E+02 -0.13470446663E+02  0.11138505182E+02  0.22988635671E+02  0.51100000000E-03 0.  1.
        -12    1    3    3    0    0 -0.10847352131E+01 -0.72584453868E+01  0.12378401337E+02  0.14390500324E+02  0.00000000000E+00 0.  1.
</event>
<event>
 7    1  0.4818508E-009  0.4778727E+02  0.7816164E-02  0.1312668E+00
        -11   -1    0    0    0    0  0.00000000000E+00  0.00000000000E+00  0.45593999997E+02  0.45594000000E+02  0.51100000000E-03 0.  1.
         11   -1    0    0    0    0 -0.00000000000E+00 -0.00000000000E+00 -0.45593999997E+02  0.45594000000E+02  0.51100000000E-03 0. -1.
    9900012    2    1    2    0    0  0.31384850388E+02 -0.62659895762E+01  0.29314704059E+02  0.47787270360E+02  0.19999996878E+02 0.  0.
         12    1    1    2    0    0 -0.31384850388E+02  0.62659895762E+01 -0.29314704059E+02  0.43400729640E+02  0.00000000000E+00 0. -1.
         11    1    3    3    0    0  0.54599616532E+01 -0.73609555252E+00  0.15563616064E+02  0.16509971628E+02  0.51100000000E-03 0. -1.
        -11    1    3    3    0    0  0.19558900727E+02 -0.33349510815E+00  0.74913973177E+01  0.20947144213E+02  0.51100000000E-03 0.  1.
        -12    1    3    3    0    0  0.63659880070E+01 -0.51963989156E+01  0.62596906782E+01  0.10330154519E+02  0.00000000000E+00 0.  1.
</event>
<event>
 7    1  0.4818508E-009  0.4778727E+02  0.7816164E-02  0.1312668E+00
        -11   -1    0    0    0    0  0.00000000000E+00  0.00000000000E+00  0.45593999997E+02  0.45594000000E+02  0.51100000000E-03 0. -1.
         11   -1    0    0    0    0 -0.00000000000E+00 -0.00000000000E+00 -0.45593999997E+02  0.45594000000E+02  0.51100000000E-03 0.  1.
    9900012    2    1    2    0    0 -0.87006631563E+01  0.40426949744E+02 -0.13175101293E+02  0.47787273059E+02  0.20000009185E+02 0.  0.
         12    1    1    2    0    0  0.87006631563E+01 -0.40426949744E+02  0.13175101293E+02  0.43400726941E+02  0.00000000000E+00 0. -1.
         11    1    3    3    0    0  0.22932274844E+01  0.15527619969E+02  0.26280020499E+01  0.15914530129E+02  0.51100000000E-03 0. -1.
        -11    1    3    3    0    0 -0.38191360494E+01  0.10310573963E+02 -0.91580095470E+01  0.14309537894E+02  0.51100000000E-03 0.  1.
         12    1    3    3    0    0 -0.71747545914E+01  0.14588755812E+02 -0.66450937955E+01  0.17563205036E+02  0.00000000000E+00 0. -1.
</event>
<event>
 7    1  0.4818508E-009  0.4778727E+02  0.7816164E-02  0.1312668E+00
        -11   -1    0    0    0    0  0.00000000000E+00  0.00000000000E+00  0.45593999997E+02  0.45594000000E+02  0.51100000000E-03 0. -1.
         11   -1    0    0    0    0 -0.00000000000E+00 -0.00000000000E+00 -0.45593999997E+02  0.45594000000E+02  0.51100000000E-03 0.  1.
    9900012    2    1    2    0    0  0.22024596030E+02  0.37142410822E+02  0.43568265857E+01  0.47787269017E+02  0.19999990756E+02 0.  0.
         12    1    1    2    0    0 -0.22024596030E+02 -0.37142410822E+02 -0.43568265857E+01  0.43400730983E+02  0.00000000000E+00 0. -1.
         11    1    3    3    0    0  0.18049550970E+02  0.15349901012E+02 -0.41277933325E+01  0.24050871696E+02  0.51100000000E-03 0. -1.
        -11    1    3    3    0    0  0.28529814029E+01  0.13835240229E+02  0.56694824070E+01  0.15221576991E+02  0.51100000000E-03 0.  1.
         12    1    3    3    0    0  0.11220636577E+01  0.79572695811E+01  0.28151375112E+01  0.85148203296E+01  0.00000000000E+00 0. -1.
</event>
<event>
 7    1  0.4818508E-009  0.4778728E+02  0.7816164E-02  0.1312668E+00
        -11   -1    0    0    0    0  0.00000000000E+00  0.00000000000E+00  0.45593999997E+02  0.45594000000E+02  0.51100000000E-03 0.  1.
         11   -1    0    0    0    0 -0.00000000000E+00 -0.00000000000E+00 -0.45593999997E+02  0.45594000000E+02  0.51100000000E-03 0. -1.
    9900012    2    1    2    0    0  0.52455137480E+01  0.38589753163E+02  0.19155636927E+02  0.47787275470E+02  0.20000020176E+02 0.  0.
         12    1    1    2    0    0 -0.52455137480E+01 -0.38589753163E+02 -0.19155636927E+02  0.43400724530E+02  0.00000000000E+00 0. -1.
         11    1    3    3    0    0  0.40255487521E+01  0.24119413093E+01 -0.84191831758E+00  0.47677384943E+01  0.51100000000E-03 0. -1.
        -11    1    3    3    0    0 -0.51887257311E+01  0.16790871901E+02  0.10776244051E+02  0.20615132549E+02  0.51100000000E-03 0.  1.
        -12    1    3    3    0    0  0.64086907269E+01  0.19386939953E+02  0.92213111941E+01  0.22404404427E+02  0.00000000000E+00 0.  1.
</event>
<event>
 7    1  0.4818508E-009  0.4778727E+02  0.7816164E-02  0.1312668E+00
        -11   -1    0    0    0    0  0.00000000000E+00  0.00000000000E+00  0.45593999997E+02  0.45594000000E+02  0.51100000000E-03 0.  1.
         11   -1    0    0    0    0 -0.00000000000E+00 -0.00000000000E+00 -0.45593999997E+02  0.45594000000E+02  0.51100000000E-03 0. -1.
    9900012    2    1    2    0    0 -0.18008101298E+01  0.15846044123E+01  0.43334388119E+02  0.47787273256E+02  0.20000010085E+02 0.  0.
         12    1    1    2    0    0  0.18008101298E+01 -0.15846044123E+01 -0.43334388119E+02  0.43400726744E+02  0.00000000000E+00 0. -1.
         11    1    3    3    0    0 -0.51446458678E+01  0.91280700002E+01  0.25002968838E+02  0.27109730615E+02  0.51100000000E-03 0.  1.
        -11    1    3    3    0    0  0.26884181972E+01 -0.69812528465E+01  0.11044619962E+02  0.13339756897E+02  0.51100000000E-03 0. -1.
        -12    1    3    3    0    0  0.65541754080E+00 -0.56221274130E+00  0.72867993188E+01  0.73377857445E+01  0.00000000000E+00 0.  1.
</event>
<event>
 7    1  0.4818508E-009  0.4778725E+02  0.7816164E-02  0.1312668E+00
        -11   -1    0    0    0    0  0.00000000000E+00  0.00000000000E+00  0.45593999997E+02  0.45594000000E+02  0.51100000000E-03 0. -1.
         11   -1    0    0    0    0 -0.00000000000E+00 -0.00000000000E+00 -0.45593999997E+02  0.45594000000E+02  0.51100000000E-03 0.  1.
    9900012    2    1    2    0    0 -0.12919486568E+02 -0.29753802432E+02 -0.28834416515E+02  0.47787245766E+02  0.19999884744E+02 0.  0.
         12    1    1    2    0    0  0.12919486568E+02  0.29753802432E+02  0.28834416515E+02  0.43400754234E+02  0.00000000000E+00 0. -1.
         11    1    3    3    0    0  0.34541840957E+00 -0.38138572336E+01 -0.35765903611E+01  0.52399255479E+01  0.51100000000E-03 0. -1.
        -11    1    3    3    0    0 -0.52964127147E+01 -0.20025069377E+02 -0.25203697299E+02  0.32623331359E+02  0.51100000000E-03 0.  1.
        -12    1    3    3    0    0 -0.79684922627E+01 -0.59148758220E+01 -0.54128854713E-01  0.99239888585E+01  0.00000000000E+00 0.  1.
</event>
<event>
 7    1  0.4818508E-009  0.4778728E+02  0.7816164E-02  0.1312668E+00
        -11   -1    0    0    0    0  0.00000000000E+00  0.00000000000E+00  0.45593999997E+02  0.45594000000E+02  0.51100000000E-03 0. -1.
         11   -1    0    0    0    0 -0.00000000000E+00 -0.00000000000E+00 -0.45593999997E+02  0.45594000000E+02  0.51100000000E-03 0.  1.
    9900012    2    1    2    0    0 -0.70061755715E+01 -0.20227126085E+02 -0.37754456408E+02  0.47787284517E+02  0.20000061426E+02 0.  0.
         12    1    1    2    0    0  0.70061755715E+01  0.20227126085E+02  0.37754456408E+02  0.43400715483E+02  0.00000000000E+00 0. -1.
         11    1    3    3    0    0 -0.34707062914E+01 -0.11030616374E+02 -0.43864736738E+01  0.12367758540E+02  0.51100000000E-03 0. -1.
        -11    1    3    3    0    0 -0.54733955602E+01 -0.60676370599E+01 -0.21862925812E+02  0.23340132900E+02  0.51100000000E-03 0.  1.
         12    1    3    3    0    0  0.19379262800E+01 -0.31288726513E+01 -0.11505056922E+02  0.12079393077E+02  0.00000000000E+00 0. -1.
</event>
<event>
 7    1  0.4818508E-009  0.4778726E+02  0.7816164E-02  0.1312668E+00
        -11   -1    0    0    0    0  0.00000000000E+00  0.00000000000E+00  0.45593999997E+02  0.45594000000E+02  0.51100000000E-03 0.  1.
         11   -1    0    0    0    0 -0.00000000000E+00 -0.00000000000E+00 -0.45593999997E+02  0.45594000000E+02  0.51100000000E-03 0. -1.
    9900012    2    1    2    0    0 -0.44620703541E+01 -0.29591075779E+02  0.31433774664E+02  0.47787262366E+02  0.19999960429E+02 0.  0.
         12    1    1    2    0    0  0.44620703541E+01  0.29591075779E+02 -0.31433774664E+02  0.43400737634E+02  0.00000000000E+00 0. -1.
         11    1    3    3    0    0 -0.62494149923E+01 -0.23865430673E+02  0.20270052611E+02  0.31929437860E+02  0.51100000000E-03 0. -1.
        -11    1    3    3    0    0  0.52919508178E+01 -0.40369721763E+01  0.41682515912E+01  0.78534202358E+01  0.51100000000E-03 0.  1.
         12    1    3    3    0    0 -0.35046061796E+01 -0.16886729301E+01  0.69954704612E+01  0.80044042697E+01  0.00000000000E+00 0. -1.
</event>
<event>
 7    1  0.4818508E-009  0.4778727E+02  0.7816164E-02  0.1312668E+00
        -11   -1    0    0    0    0  0.00000000000E+00  0.00000000000E+00  0.45593999997E+02  0.45594000000E+02  0.51100000000E-03 0.  1.
         11   -1    0    0    0    0 -0.00000000000E+00 -0.00000000000E+00 -0.45593999997E+02  0.45594000000E+02  0.51100000000E-03 0. -1.
    9900012    2    1    2    0    0 -0.39433308959E+02  0.15315530390E+01  0.18063556129E+02  0.47787267631E+02  0.19999984435E+02 0.  0.
         12    1    1    2    0    0  0.39433308959E+02 -0.15315530390E+01 -0.18063556129E+02  0.43400732369E+02  0.00000000000E+00 0. -1.
         11    1    3    3    0    0 -0.11716227687E+00 -0.16637319493E+01 -0.21420274713E+01  0.27147767766E+01  0.51100000000E-03 0. -1.
        -11    1    3    3    0    0 -0.25932724021E+02  0.34442504922E+00  0.92216496240E+01  0.27525690288E+02  0.51100000000E-03 0.  1.
         12    1    3    3    0    0 -0.13383422661E+02  0.28508599390E+01  0.10983933976E+02  0.17546800566E+02  0.00000000000E+00 0. -1.
</event>
<event>
 7    1  0.4818508E-009  0.4778728E+02  0.7816164E-02  0.1312668E+00
        -11   -1    0    0    0    0  0.00000000000E+00  0.00000000000E+00  0.45593999997E+02  0.45594000000E+02  0.51100000000E-03 0. -1.
         11   -1    0    0    0    0 -0.00000000000E+00 -0.00000000000E+00 -0.45593999997E+02  0.45594000000E+02  0.51100000000E-03 0.  1.
    9900012    2    1    2    0    0 -0.42774274756E+02  0.28484989306E+01 -0.67727649387E+01  0.47787275674E+02  0.20000021109E+02 0.  0.
         12    1    1    2    0    0  0.42774274756E+02 -0.28484989306E+01  0.67727649387E+01  0.43400724326E+02  0.00000000000E+00 0. -1.
         11    1    3    3    0    0 -0.12191145518E+02  0.56025396295E+01 -0.84476587041E+01  0.15854823152E+02  0.51100000000E-03 0. -1.
        -11    1    3    3    0    0 -0.28423102887E+02 -0.13476614392E+00  0.21486269339E+01  0.28504517845E+02  0.51100000000E-03 0.  1.
         12    1    3    3    0    0 -0.21600263519E+01 -0.26192745550E+01 -0.47373316851E+00  0.34279346771E+01  0.00000000000E+00 0. -1.
</event>
<event>
 7    1  0.4818508E-009  0.4778727E+02  0.7816164E-02  0.1312668E+00
        -11   -1    0    0    0    0  0.00000000000E+00  0.00000000000E+00  0.45593999997E+02  0.45594000000E+02  0.51100000000E-03 0. -1.
         11   -1    0    0    0    0 -0.00000000000E+00 -0.00000000000E+00 -0.45593999997E+02  0.45594000000E+02  0.51100000000E-03 0.  1.
    9900012    2    1    2    0    0  0.49156764457E+01 -0.40397170542E+02  0.15084028679E+02  0.47787272080E+02  0.20000004723E+02 0.  0.
         12    1    1    2    0    0 -0.49156764457E+01  0.40397170542E+02 -0.15084028679E+02  0.43400727920E+02  0.00000000000E+00 0. -1.
         11    1    3    3    0    0 -0.12540796110E+01 -0.76202942933E+01  0.85201197420E+01  0.11499306130E+02  0.51100000000E-03 0. -1.
        -11    1    3    3    0    0  0.63538328809E+01 -0.20486289086E+02 -0.16370262168E+01  0.21511371130E+02  0.51100000000E-03 0.  1.
        -12    1    3    3    0    0 -0.18407682421E+00 -0.12290587163E+02  0.82009351542E+01  0.14776594821E+02  0.00000000000E+00 0.  1.
</event>
<event>
 7    1  0.4818508E-009  0.4778727E+02  0.7816164E-02  0.1312668E+00
        -11   -1    0    0    0    0  0.00000000000E+00  0.00000000000E+00  0.45593999997E+02  0.45594000000E+02  0.51100000000E-03 0.  1.
         11   -1    0    0    0    0 -0.00000000000E+00 -0.00000000000E+00 -0.45593999997E+02  0.45594000000E+02  0.51100000000E-03 0. -1.
    9900012    2    1    2    0    0  0.23389073872E+02 -0.36557059315E+02 -0.39488639921E+00  0.47787270771E+02  0.19999998753E+02 0.  0.
         12    1    1    2    0    0 -0.23389073872E+02  0.36557059315E+02  0.39488639921E+00  0.43400729229E+02  0.00000000000E+00 0. -1.
         11    1    3    3    0    0  0.12789679191E+02 -0.13850032854E+02 -0.32358870320E+01  0.19127735595E+02  0.51100000000E-03 0. -1.
        -11    1    3    3    0    0 -0.70221896248E+00 -0.40572968322E+01  0.53032568010E+01  0.67141121538E+01  0.51100000000E-03 0.  1.
        -12    1    3    3    0    0  0.11301613644E+02 -0.18649729629E+02 -0.24622561682E+01  0.21945423022E+02  0.00000000000E+00 0.  1.
</event>
<event>
 7    1  0.4818508E-009  0.4778727E+02  0.7816164E-02  0.1312668E+00
        -11   -1    0    0    0    0  0.00000000000E+00  0.00000000000E+00  0.45593999997E+02  0.45594000000E+02  0.51100000000E-03 0. -1.
         11   -1    0    0    0    0 -0.00000000000E+00 -0.00000000000E+00 -0.45593999997E+02  0.45594000000E+02  0.51100000000E-03 0.  1.
    9900012    2    1    2    0    0 -0.16799049450E+02  0.23563041680E+02 -0.32344986427E+02  0.47787272557E+02  0.20000006896E+02 0.  0.
         12    1    1    2    0    0  0.16799049450E+02 -0.23563041680E+02  0.32344986427E+02  0.43400727443E+02  0.00000000000E+00 0. -1.
         11    1    3    3    0    0 -0.97362427890E+01  0.97320764313E+01 -0.47587274186E+01  0.14565480501E+02  0.51100000000E-03 0. -1.
        -11    1    3    3    0    0 -0.65375261944E+01  0.14260877641E+02 -0.19137561251E+02  0.24745870983E+02  0.51100000000E-03 0.  1.
         12    1    3    3    0    0 -0.52528046706E+00 -0.42991239249E+00 -0.84486977576E+01  0.84759210729E+01  0.00000000000E+00 0. -1.
</event>
<event>
 7    1  0.4818508E-009  0.4778728E+02  0.7816164E-02  0.1312668E+00
        -11   -1    0    0    0    0  0.00000000000E+00  0.00000000000E+00  0.45593999997E+02  0.45594000000E+02  0.51100000000E-03 0.  1.
         11   -1    0    0    0    0 -0.00000000000E+00 -0.00000000000E+00 -0.45593999997E+02  0.45594000000E+02  0.51100000000E-03 0. -1.
    9900012    2    1    2    0    0 -0.24459168722E+02  0.32111197604E+02  0.15944993930E+02  0.47787276762E+02  0.20000026068E+02 0.  0.
         12    1    1    2    0    0  0.24459168722E+02 -0.32111197604E+02 -0.15944993930E+02  0.43400723238E+02  0.00000000000E+00 0. -1.
         11    1    3    3    0    0 -0.15426670894E+02  0.18933971910E+02  0.17490485652E+02  0.30039882752E+02  0.51100000000E-03 0.  1.
        -11    1    3    3    0    0 -0.78620858996E+01  0.63968700022E+01 -0.32769277129E+01  0.10652257790E+02  0.51100000000E-03 0. -1.
         12    1    3    3    0    0 -0.11704119279E+01  0.67803556919E+01  0.17314359917E+01  0.70951362202E+01  0.00000000000E+00 0. -1.
</event>
<event>
 7    1  0.4818508E-009  0.4778728E+02  0.7816164E-02  0.1312668E+00
        -11   -1    0    0    0    0  0.00000000000E+00  0.00000000000E+00  0.45593999997E+02  0.45594000000E+02  0.51100000000E-03 0.  1.
         11   -1    0    0    0    0 -0.00000000000E+00 -0.00000000000E+00 -0.45593999997E+02  0.45594000000E+02  0.51100000000E-03 0. -1.
    9900012    2    1    2    0    0 -0.38570697053E+02 -0.92617415368E+01  0.17610905808E+02  0.47787279605E+02  0.20000039032E+02 0.  0.
         12    1    1    2    0    0  0.38570697053E+02  0.92617415368E+01 -0.17610905808E+02  0.43400720395E+02  0.00000000000E+00 0. -1.
         11    1    3    3    0    0 -0.81768495237E+01 -0.76031160120E+01  0.83493868824E+01  0.13942040841E+02  0.51100000000E-03 0. -1.
        -11    1    3    3    0    0 -0.29824989603E+02  0.24511059638E+00  0.10361056130E+02  0.31574381520E+02  0.51100000000E-03 0.  1.
         12    1    3    3    0    0 -0.56885792605E+00 -0.19037361212E+01 -0.10995372048E+01  0.22708572443E+01  0.00000000000E+00 0. -1.
</event>
<event>
 7    1  0.4818508E-009  0.4778727E+02  0.7816164E-02  0.1312668E+00
        -11   -1    0    0    0    0  0.00000000000E+00  0.00000000000E+00  0.45593999997E+02  0.45594000000E+02  0.51100000000E-03 0. -1.
         11   -1    0    0    0    0 -0.00000000000E+00 -0.00000000000E+00 -0.45593999997E+02  0.45594000000E+02  0.51100000000E-03 0.  1.
    9900012    2    1    2    0    0 -0.20048761847E+01  0.11258929359E+00 -0.43354256632E+02  0.47787265295E+02  0.19999973785E+02 0.  0.
         12    1    1    2    0    0  0.20048761847E+01 -0.11258929359E+00  0.43354256632E+02  0.43400734705E+02  0.00000000000E+00 0. -1.
         11    1    3    3    0    0 -0.34385443907E+01  0.40576435983E+01 -0.15649397202E+02  0.16528511492E+02  0.51100000000E-03 0. -1.
        -11    1    3    3    0    0  0.32737761245E+01 -0.58480942404E-01 -0.53203040590E-01  0.32747306696E+01  0.51100000000E-03 0.  1.
        -12    1    3    3    0    0 -0.18401079185E+01 -0.38865733623E+01 -0.27651656389E+02  0.27984023133E+02  0.00000000000E+00 0.  1.
</event>
<event>
 7    1  0.4818508E-009  0.4778727E+02  0.7816164E-02  0.1312668E+00
        -11   -1    0    0    0    0  0.00000000000E+00  0.00000000000E+00  0.45593999997E+02  0.45594000000E+02  0.51100000000E-03 0. -1.
         11   -1    0    0    0    0 -0.00000000000E+00 -0.00000000000E+00 -0.45593999997E+02  0.45594000000E+02  0.51100000000E-03 0.  1.
    9900012    2    1    2    0    0 -0.32120155604E+01  0.35208429213E+02 -0.25172855269E+02  0.47787272195E+02  0.20000005246E+02 0.  0.
         12    1    1    2    0    0  0.32120155604E+01 -0.35208429213E+02  0.25172855269E+02  0.43400727805E+02  0.00000000000E+00 0. -1.
         11    1    3    3    0    0 -0.29057873038E+01  0.28212776329E+00  0.10246470722E+01  0.30940423096E+01  0.51100000000E-03 0. -1.
        -11    1    3    3    0    0 -0.43883488875E+01  0.16470286962E+02 -0.15117779063E+02  0.22783221954E+02  0.51100000000E-03 0.  1.
         12    1    3    3    0    0  0.40821206309E+01  0.18456014488E+02 -0.11079723278E+02  0.21910007931E+02  0.00000000000E+00 0. -1.
</event>
<event>
 7    1  0.4818508E-009  0.4778727E+02  0.7816164E-02  0.1312668E+00
        -11   -1    0    0    0    0  0.00000000000E+00  0.00000000000E+00  0.45593999997E+02  0.45594000000E+02  0.51100000000E-03 0.  1.
         11   -1    0    0    0    0 -0.00000000000E+00 -0.00000000000E+00 -0.45593999997E+02  0.45594000000E+02  0.51100000000E-03 0. -1.
    9900012    2    1    2    0    0  0.28788832742E+02 -0.31474358335E+01  0.32325220741E+02  0.47787272599E+02  0.20000007089E+02 0.  0.
         12    1    1    2    0    0 -0.28788832742E+02  0.31474358335E+01 -0.32325220741E+02  0.43400727401E+02  0.00000000000E+00 0. -1.
         11    1    3    3    0    0  0.64965636172E+01  0.26924371395E+01  0.19497054132E+02  0.20726545218E+02  0.51100000000E-03 0.  1.
        -11    1    3    3    0    0  0.15942815696E+02 -0.62631372423E+01  0.72561501259E+01  0.18602472291E+02  0.51100000000E-03 0. -1.
        -12    1    3    3    0    0  0.63494534282E+01  0.42326426931E+00  0.55720164831E+01  0.84582550899E+01  0.00000000000E+00 0.  1.
</event>
<event>
 7    1  0.4818508E-009  0.4778727E+02  0.7816164E-02  0.1312668E+00
        -11   -1    0    0    0    0  0.00000000000E+00  0.00000000000E+00  0.45593999997E+02  0.45594000000E+02  0.51100000000E-03 0.  1.
         11   -1    0    0    0    0 -0.00000000000E+00 -0.00000000000E+00 -0.45593999997E+02  0.45594000000E+02  0.51100000000E-03 0. -1.
    9900012    2    1    2    0    0 -0.28484011959E+02  0.68943665354E+01  0.32011750676E+02  0.47787269493E+02  0.19999992925E+02 0.  0.
         12    1    1    2    0    0  0.28484011959E+02 -0.68943665354E+01 -0.32011750676E+02  0.43400730507E+02  0.00000000000E+00 0. -1.
         11    1    3    3    0    0 -0.12118764400E+02 -0.55480480961E+01  0.16718968430E+02  0.21381515238E+02  0.51100000000E-03 0. -1.
        -11    1    3    3    0    0 -0.14976029178E+02  0.96864670728E+01  0.10474902953E+02  0.20684116767E+02  0.51100000000E-03 0.  1.
         12    1    3    3    0    0 -0.13892183817E+01  0.27559475587E+01  0.48178792931E+01  0.57216374878E+01  0.00000000000E+00 0. -1.
</event>
<event>
 7    1  0.4818508E-009  0.4778728E+02  0.7816164E-02  0.1312668E+00
        -11   -1    0    0    0    0  0.00000000000E+00  0.00000000000E+00  0.45593999997E+02  0.45594000000E+02  0.51100000000E-03 0. -1.
         11   -1    0    0    0    0 -0.00000000000E+00 -0.00000000000E+00 -0.45593999997E+02  0.45594000000E+02  0.51100000000E-03 0.  1.
    9900012    2    1    2    0    0 -0.59376087420E+01 -0.11905021853E+02 -0.41311469542E+02  0.47787282741E+02  0.20000053330E+02 0.  0.
         12    1    1    2    0    0  0.59376087420E+01  0.11905021853E+02  0.41311469542E+02  0.43400717259E+02  0.00000000000E+00 0. -1.
         11    1    3    3    0    0  0.37496394700E+01  0.35722261284E+01 -0.70297895919E+01  0.87314682405E+01  0.51100000000E-03 0. -1.
        -11    1    3    3    0    0 -0.93236235682E+01 -0.12171878803E+02 -0.29243328930E+02  0.33019038102E+02  0.51100000000E-03 0.  1.
         12    1    3    3    0    0 -0.36362464385E+00 -0.33053691781E+01 -0.50383510200E+01  0.60367763985E+01  0.00000000000E+00 0. -1.
</event>
<event>
 7    1  0.4818508E-009  0.4778727E+02  0.7816164E-02  0.1312668E+00
        -11   -1    0    0    0    0  0.00000000000E+00  0.00000000000E+00  0.45593999997E+02  0.45594000000E+02  0.51100000000E-03 0.  1.
         11   -1    0    0    0    0 -0.00000000000E+00 -0.00000000000E+00 -0.45593999997E+02  0.45594000000E+02  0.51100000000E-03 0. -1.
    9900012    2    1    2    0    0 -0.19023711678E+02 -0.24922225607E+02  0.30010073021E+02  0.47787269384E+02  0.19999992430E+02 0.  0.
         12    1    1    2    0    0  0.19023711678E+02  0.24922225607E+02 -0.30010073021E+02  0.43400730616E+02  0.00000000000E+00 0. -1.
         11    1    3    3    0    0 -0.60169525258E+01 -0.33830520752E+00  0.11011868419E+02  0.12553063946E+02  0.51100000000E-03 0. -1.
        -11    1    3    3    0    0 -0.13931841177E+02 -0.17234217720E+02  0.15488331302E+02  0.27037064667E+02  0.51100000000E-03 0.  1.
         12    1    3    3    0    0  0.92508202501E+00 -0.73497026799E+01  0.35098733009E+01  0.81971407713E+01  0.00000000000E+00 0. -1.
</event>
<event>
 7    1  0.4818508E-009  0.4778726E+02  0.7816164E-02  0.1312668E+00
        -11   -1    0    0    0    0  0.00000000000E+00  0.00000000000E+00  0.45593999997E+02  0.45594000000E+02  0.51100000000E-03 0.  1.
         11   -1    0    0    0    0 -0.00000000000E+00 -0.00000000000E+00 -0.45593999997E+02  0.45594000000E+02  0.51100000000E-03 0. -1.
    9900012    2    1    2    0    0  0.10965231007E+02 -0.30490442803E+02 -0.28874220866E+02  0.47787262403E+02  0.19999960601E+02 0.  0.
         12    1    1    2    0    0 -0.10965231007E+02  0.30490442803E+02  0.28874220866E+02  0.43400737597E+02  0.00000000000E+00 0. -1.
         11    1    3    3    0    0  0.15042711067E+01 -0.43107848273E+01 -0.13319052986E+02  0.14079874648E+02  0.51100000000E-03 0. -1.
        -11    1    3    3    0    0  0.11759949169E+02 -0.19183341640E+02 -0.12443759454E+02  0.25712723515E+02  0.51100000000E-03 0.  1.
        -12    1    3    3    0    0 -0.22989892686E+01 -0.69963163352E+01 -0.31114084249E+01  0.79946642397E+01  0.00000000000E+00 0.  1.
</event>
<event>
 7    1  0.4818508E-009  0.4778727E+02  0.7816164E-02  0.1312668E+00
        -11   -1    0    0    0    0  0.00000000000E+00  0.00000000000E+00  0.45593999997E+02  0.45594000000E+02  0.51100000000E-03 0.  1.
         11   -1    0    0    0    0 -0.00000000000E+00 -0.00000000000E+00 -0.45593999997E+02  0.45594000000E+02  0.51100000000E-03 0. -1.
    9900012    2    1    2    0    0 -0.24490267169E+02  0.33251590817E+02  0.13348482223E+02  0.47787268952E+02  0.19999990459E+02 0.  0.
         12    1    1    2    0    0  0.24490267169E+02 -0.33251590817E+02 -0.13348482223E+02  0.43400731048E+02  0.00000000000E+00 0. -1.
         11    1    3    3    0    0 -0.41827642001E+01  0.91279029908E+01 -0.50158428545E+01  0.11223760919E+02  0.51100000000E-03 0. -1.
        -11    1    3    3    0    0 -0.13181269358E+02  0.14770683912E+02  0.10408187470E+02  0.22366254308E+02  0.51100000000E-03 0.  1.
         12    1    3    3    0    0 -0.71262336111E+01  0.93530039145E+01  0.79561376072E+01  0.14197253725E+02  0.00000000000E+00 0. -1.
</event>
<event>
 7    1  0.4818508E-009  0.4778727E+02  0.7816164E-02  0.1312668E+00
        -11   -1    0    0    0    0  0.00000000000E+00  0.00000000000E+00  0.45593999997E+02  0.45594000000E+02  0.51100000000E-03 0.  1.
         11   -1    0    0    0    0 -0.00000000000E+00 -0.00000000000E+00 -0.45593999997E+02  0.45594000000E+02  0.51100000000E-03 0. -1.
    9900012    2    1    2    0    0  0.38241718024E+02  0.19960967886E+02 -0.47701163920E+01  0.47787271357E+02  0.20000001425E+02 0.  0.
         12    1    1    2    0    0 -0.38241718024E+02 -0.19960967886E+02  0.47701163920E+01  0.43400728643E+02  0.00000000000E+00 0. -1.
         11    1    3    3    0    0 -0.31739938117E-01  0.29987544996E+01 -0.42785716983E+01  0.52249126319E+01  0.51100000000E-03 0. -1.
        -11    1    3    3    0    0  0.37489001892E+02  0.16622905423E+02 -0.17438835711E+01  0.41046161547E+02  0.51100000000E-03 0.  1.
         12    1    3    3    0    0  0.78445606958E+00  0.33930796347E+00  0.12523388774E+01  0.15161971782E+01  0.00000000000E+00 0. -1.
</event>
<event>
 7    1  0.4818508E-009  0.4778728E+02  0.7816164E-02  0.1312668E+00
        -11   -1    0    0    0    0  0.00000000000E+00  0.00000000000E+00  0.45593999997E+02  0.45594000000E+02  0.51100000000E-03 0.  1.
         11   -1    0    0    0    0 -0.00000000000E+00 -0.00000000000E+00 -0.45593999997E+02  0.45594000000E+02  0.51100000000E-03 0. -1.
    9900012    2    1    2    0    0 -0.21091017737E+02 -0.15796814156E+02  0.34485539461E+02  0.47787276520E+02  0.20000024967E+02 0.  0.
         12    1    1    2    0    0  0.21091017737E+02  0.15796814156E+02 -0.34485539461E+02  0.43400723480E+02  0.00000000000E+00 0. -1.
         11    1    3    3    0    0 -0.20345411971E+00 -0.16943991309E+01  0.77403115588E+00  0.18739014075E+01  0.51100000000E-03 0. -1.
        -11    1    3    3    0    0 -0.67276976733E+01 -0.51568444281E+01  0.26236973029E+02  0.27572336035E+02  0.51100000000E-03 0.  1.
        -12    1    3    3    0    0 -0.14159865944E+02 -0.89455705972E+01  0.74745352757E+01  0.18341039078E+02  0.00000000000E+00 0.  1.
</event>
<event>
 7    1  0.4818508E-009  0.4778728E+02  0.7816164E-02  0.1312668E+00
        -11   -1    0    0    0    0  0.00000000000E+00  0.00000000000E+00  0.45593999997E+02  0.45594000000E+02  0.51100000000E-03 0. -1.
         11   -1    0    0    0    0 -0.00000000000E+00 -0.00000000000E+00 -0.45593999997E+02  0.45594000000E+02  0.51100000000E-03 0.  1.
    9900012    2    1    2    0    0 -0.49134927927E+00  0.18059119887E+02 -0.39461999311E+02  0.47787278522E+02  0.20000034092E+02 0.  0.
         12    1    1    2    0    0  0.49134927927E+00 -0.18059119887E+02  0.39461999311E+02  0.43400721478E+02  0.00000000000E+00 0. -1.
         11    1    3    3    0    0 -0.17069147104E+01 -0.33824098061E+01 -0.34757404069E+01  0.51415003222E+01  0.51100000000E-03 0. -1.
        -11    1    3    3    0    0 -0.12721382485E+00  0.32197531578E+01 -0.12392118338E+02  0.12804202080E+02  0.51100000000E-03 0.  1.
         12    1    3    3    0    0  0.13427792560E+01  0.18221776535E+02 -0.23594140567E+02  0.29841576119E+02  0.00000000000E+00 0. -1.
</event>
<event>
 7    1  0.4818508E-009  0.4778726E+02  0.7816164E-02  0.1312668E+00
        -11   -1    0    0    0    0  0.00000000000E+00  0.00000000000E+00  0.45593999997E+02  0.45594000000E+02  0.51100000000E-03 0. -1.
         11   -1    0    0    0    0 -0.00000000000E+00 -0.00000000000E+00 -0.45593999997E+02  0.45594000000E+02  0.51100000000E-03 0.  1.
    9900012    2    1    2    0    0  0.22533705516E+02 -0.33539970816E+02 -0.15840656969E+02  0.47787263372E+02  0.19999965017E+02 0.  0.
         12    1    1    2    0    0 -0.22533705516E+02  0.33539970816E+02  0.15840656969E+02  0.43400736628E+02  0.00000000000E+00 0. -1.
         11    1    3    3    0    0  0.21822130213E+02 -0.22807817710E+02 -0.84025514042E+01  0.32665039202E+02  0.51100000000E-03 0. -1.
        -11    1    3    3    0    0 -0.29055656835E+01 -0.82424466438E+01 -0.54694550824E+01  0.10309955275E+02  0.51100000000E-03 0.  1.
         12    1    3    3    0    0  0.36171409868E+01 -0.24897064627E+01 -0.19686504827E+01  0.48122688944E+01  0.00000000000E+00 0. -1.
</event>
<event>
 7    1  0.4818508E-009  0.4778727E+02  0.7816164E-02  0.1312668E+00
        -11   -1    0    0    0    0  0.00000000000E+00  0.00000000000E+00  0.45593999997E+02  0.45594000000E+02  0.51100000000E-03 0.  1.
         11   -1    0    0    0    0 -0.00000000000E+00 -0.00000000000E+00 -0.45593999997E+02  0.45594000000E+02  0.51100000000E-03 0. -1.
    9900012    2    1    2    0    0  0.14426566827E+01  0.37463755805E+02  0.21863414454E+02  0.47787272484E+02  0.20000006564E+02 0.  0.
         12    1    1    2    0    0 -0.14426566827E+01 -0.37463755805E+02 -0.21863414454E+02  0.43400727516E+02  0.00000000000E+00 0. -1.
         11    1    3    3    0    0  0.23708914077E+01  0.24095742779E+01  0.94715889780E+01  0.10056747600E+02  0.51100000000E-03 0. -1.
        -11    1    3    3    0    0 -0.35767555916E+01  0.19728587149E+02  0.78014423790E+01  0.21514479657E+02  0.51100000000E-03 0.  1.
         12    1    3    3    0    0  0.26485208666E+01  0.15325594377E+02  0.45903830974E+01  0.16216045226E+02  0.00000000000E+00 0. -1.
</event>
<event>
 7    1  0.4818508E-009  0.4778727E+02  0.7816164E-02  0.1312668E+00
        -11   -1    0    0    0    0  0.00000000000E+00  0.00000000000E+00  0.45593999997E+02  0.45594000000E+02  0.51100000000E-03 0.  1.
         11   -1    0    0    0    0 -0.00000000000E+00 -0.00000000000E+00 -0.45593999997E+02  0.45594000000E+02  0.51100000000E-03 0. -1.
    9900012    2    1    2    0    0 -0.39530018449E+02 -0.61613243419E+01  0.16823765687E+02  0.47787269959E+02  0.19999995052E+02 0.  0.
         12    1    1    2    0    0  0.39530018449E+02  0.61613243419E+01 -0.16823765687E+02  0.43400730041E+02  0.00000000000E+00 0. -1.
         11    1    3    3    0    0 -0.86067781098E+01 -0.33969549492E+01  0.96836205781E+01  0.13393596982E+02  0.51100000000E-03 0. -1.
        -11    1    3    3    0    0 -0.22807821053E+02 -0.45241932168E+00 -0.77311537563E+00  0.22825404532E+02  0.51100000000E-03 0.  1.
        -12    1    3    3    0    0 -0.81154192861E+01 -0.23119500710E+01  0.79132604844E+01  0.11568268445E+02  0.00000000000E+00 0.  1.
</event>
<event>
 7    1  0.4818508E-009  0.4778727E+02  0.7816164E-02  0.1312668E+00
        -11   -1    0    0    0    0  0.00000000000E+00  0.00000000000E+00  0.45593999997E+02  0.45594000000E+02  0.51100000000E-03 0. -1.
         11   -1    0    0    0    0 -0.00000000000E+00 -0.00000000000E+00 -0.45593999997E+02  0.45594000000E+02  0.51100000000E-03 0.  1.
    9900012    2    1    2    0    0 -0.75133659999E+01 -0.39547064366E+02 -0.16223512574E+02  0.47787270411E+02  0.19999997113E+02 0.  0.
         12    1    1    2    0    0  0.75133659999E+01  0.39547064366E+02  0.16223512574E+02  0.43400729589E+02  0.00000000000E+00 0. -1.
         11    1    3    3    0    0 -0.10977670486E+02 -0.20822012493E+02 -0.44390782281E+01  0.23953514759E+02  0.51100000000E-03 0. -1.
        -11    1    3    3    0    0 -0.23466899593E+01 -0.71670908568E+01 -0.26345663733E+01  0.79884344744E+01  0.51100000000E-03 0.  1.
         12    1    3    3    0    0  0.58109944455E+01 -0.11557961016E+02 -0.91498679726E+01  0.15845321177E+02  0.00000000000E+00 0. -1.
</event>
<event>
 7    1  0.4818508E-009  0.4778725E+02  0.7816164E-02  0.1312668E+00
        -11   -1    0    0    0    0  0.00000000000E+00  0.00000000000E+00  0.45593999997E+02  0.45594000000E+02  0.51100000000E-03 0. -1.
         11   -1    0    0    0    0 -0.00000000000E+00 -0.00000000000E+00 -0.45593999997E+02  0.45594000000E+02  0.51100000000E-03 0.  1.
    9900012    2    1    2    0    0 -0.34057835428E+01  0.14210518476E+02 -0.40866696088E+02  0.47787250628E+02  0.19999906913E+02 0.  0.
         12    1    1    2    0    0  0.34057835428E+01 -0.14210518476E+02  0.40866696088E+02  0.43400749372E+02  0.00000000000E+00 0. -1.
         11    1    3    3    0    0  0.10178441837E+01  0.65892108708E+01 -0.31306729021E+02  0.32008826735E+02  0.51100000000E-03 0. -1.
        -11    1    3    3    0    0  0.17728354115E+00  0.11935241703E+01 -0.75179925702E+01  0.76142065868E+01  0.51100000000E-03 0.  1.
         12    1    3    3    0    0 -0.46009112676E+01  0.64277834347E+01 -0.20419744967E+01  0.81642173061E+01  0.00000000000E+00 0. -1.
</event>
<event>
 7    1  0.4818508E-009  0.4778728E+02  0.7816164E-02  0.1312668E+00
        -11   -1    0    0    0    0  0.00000000000E+00  0.00000000000E+00  0.45593999997E+02  0.45594000000E+02  0.51100000000E-03 0.  1.
         11   -1    0    0    0    0 -0.00000000000E+00 -0.00000000000E+00 -0.45593999997E+02  0.45594000000E+02  0.51100000000E-03 0. -1.
    9900012    2    1    2    0    0 -0.16836883159E+02 -0.24461156730E+02  0.31651131119E+02  0.47787275073E+02  0.20000018367E+02 0.  0.
         12    1    1    2    0    0  0.16836883159E+02  0.24461156730E+02 -0.31651131119E+02  0.43400724927E+02  0.00000000000E+00 0. -1.
         11    1    3    3    0    0 -0.54340334222E+01 -0.12577898074E+02  0.24775810774E+02  0.28312065254E+02  0.51100000000E-03 0.  1.
        -11    1    3    3    0    0 -0.80984291871E+01 -0.12447473785E+02  0.59490038136E+01  0.15997337453E+02  0.51100000000E-03 0. -1.
        -12    1    3    3    0    0 -0.33044205493E+01  0.56421512890E+00  0.92631653191E+00  0.34778723662E+01  0.00000000000E+00 0.  1.
</event>
<event>
 7    1  0.4818508E-009  0.4778727E+02  0.7816164E-02  0.1312668E+00
        -11   -1    0    0    0    0  0.00000000000E+00  0.00000000000E+00  0.45593999997E+02  0.45594000000E+02  0.51100000000E-03 0.  1.
         11   -1    0    0    0    0 -0.00000000000E+00 -0.00000000000E+00 -0.45593999997E+02  0.45594000000E+02  0.51100000000E-03 0. -1.
    9900012    2    1    2    0    0  0.30705842170E+02  0.11001229316E+02  0.28631235205E+02  0.47787269371E+02  0.19999992368E+02 0.  0.
         12    1    1    2    0    0 -0.30705842170E+02 -0.11001229316E+02 -0.28631235205E+02  0.43400730629E+02  0.00000000000E+00 0. -1.
         11    1    3    3    0    0  0.22755702301E+02  0.78924589982E+00  0.10579773101E+02  0.25107299644E+02  0.51100000000E-03 0. -1.
        -11    1    3    3    0    0  0.59534593894E+01  0.74588128976E+01  0.16214600386E+02  0.18814644150E+02  0.51100000000E-03 0.  1.
        -12    1    3    3    0    0  0.19966804790E+01  0.27531705187E+01  0.18368617183E+01  0.38653255765E+01  0.00000000000E+00 0.  1.
</event>
<event>
 7    1  0.4818508E-009  0.4778727E+02  0.7816164E-02  0.1312668E+00
        -11   -1    0    0    0    0  0.00000000000E+00  0.00000000000E+00  0.45593999997E+02  0.45594000000E+02  0.51100000000E-03 0.  1.
         11   -1    0    0    0    0 -0.00000000000E+00 -0.00000000000E+00 -0.45593999997E+02  0.45594000000E+02  0.51100000000E-03 0. -1.
    9900012    2    1    2    0    0  0.17795427015E+00  0.21911284603E+01  0.43345017400E+02  0.47787271376E+02  0.20000001513E+02 0.  0.
         12    1    1    2    0    0 -0.17795427015E+00 -0.21911284603E+01 -0.43345017400E+02  0.43400728624E+02  0.00000000000E+00 0. -1.
         11    1    3    3    0    0  0.19598802609E+01 -0.19463662564E+01  0.53633942106E+01  0.60328658166E+01  0.51100000000E-03 0. -1.
        -11    1    3    3    0    0  0.11527386227E+01 -0.41319064012E+01  0.20269090504E+01  0.47444512222E+01  0.51100000000E-03 0.  1.
        -12    1    3    3    0    0 -0.29346646134E+01  0.82694011180E+01  0.35954714139E+02  0.37009954338E+02  0.00000000000E+00 0.  1.
</event>
<event>
 7    1  0.4818508E-009  0.4778727E+02  0.7816164E-02  0.1312668E+00
        -11   -1    0    0    0    0  0.00000000000E+00  0.00000000000E+00  0.45593999997E+02  0.45594000000E+02  0.51100000000E-03 0.  1.
         11   -1    0    0    0    0 -0.00000000000E+00 -0.00000000000E+00 -0.45593999997E+02  0.45594000000E+02  0.51100000000E-03 0. -1.
    9900012    2    1    2    0    0  0.24961826056E+02 -0.35503869587E+02 -0.75412141539E-01  0.47787271865E+02  0.20000003740E+02 0.  0.
         12    1    1    2    0    0 -0.24961826056E+02  0.35503869587E+02  0.75412141539E-01  0.43400728135E+02  0.00000000000E+00 0. -1.
         11    1    3    3    0    0 -0.81528273935E+00 -0.60653022647E+00  0.48302698947E+00  0.11251134140E+01  0.51100000000E-03 0. -1.
        -11    1    3    3    0    0  0.11888198281E+02 -0.59267701033E+01  0.47326989844E+01  0.14101570911E+02  0.51100000000E-03 0.  1.
        -12    1    3    3    0    0  0.13888910514E+02 -0.28970569257E+02 -0.52911381154E+01  0.32560587539E+02  0.00000000000E+00 0.  1.
</event>
<event>
 7    1  0.4818508E-009  0.4778729E+02  0.7816164E-02  0.1312668E+00
        -11   -1    0    0    0    0  0.00000000000E+00  0.00000000000E+00  0.45593999997E+02  0.45594000000E+02  0.51100000000E-03 0. -1.
         11   -1    0    0    0    0 -0.00000000000E+00 -0.00000000000E+00 -0.45593999997E+02  0.45594000000E+02  0.51100000000E-03 0.  1.
    9900012    2    1    2    0    0 -0.27325326818E+02  0.27228645734E+02 -0.19888409746E+02  0.47787291751E+02  0.20000094410E+02 0.  0.
         12    1    1    2    0    0  0.27325326818E+02 -0.27228645734E+02  0.19888409746E+02  0.43400708249E+02  0.00000000000E+00 0. -1.
         11    1    3    3    0    0 -0.65434218186E+01  0.38445043565E+01  0.24954009215E+01  0.79889679473E+01  0.51100000000E-03 0. -1.
        -11    1    3    3    0    0 -0.53139590700E+01  0.76791473136E+01 -0.12595036691E+02  0.15679362677E+02  0.51100000000E-03 0.  1.
        -12    1    3    3    0    0 -0.15467945930E+02  0.15704994064E+02 -0.97887739769E+01  0.24118961126E+02  0.00000000000E+00 0.  1.
</event>
<event>
 7    1  0.4818508E-009  0.4778727E+02  0.7816164E-02  0.1312668E+00
        -11   -1    0    0    0    0  0.00000000000E+00  0.00000000000E+00  0.45593999997E+02  0.45594000000E+02  0.51100000000E-03 0. -1.
         11   -1    0    0    0    0 -0.00000000000E+00 -0.00000000000E+00 -0.45593999997E+02  0.45594000000E+02  0.51100000000E-03 0.  1.
    9900012    2    1    2    0    0 -0.27504042745E+02  0.78261369252E+01 -0.32648159427E+02  0.47787273042E+02  0.20000009109E+02 0.  0.
         12    1    1    2    0    0  0.27504042745E+02 -0.78261369252E+01  0.32648159427E+02  0.43400726958E+02  0.00000000000E+00 0. -1.
         11    1    3    3    0    0 -0.58105004713E+00 -0.87221131627E+00 -0.91349363590E+01  0.91948591225E+01  0.51100000000E-03 0. -1.
        -11    1    3    3    0    0 -0.23273472107E+02  0.25093891929E+01 -0.17588255231E+02  0.29279656084E+02  0.51100000000E-03 0.  1.
         12    1    3    3    0    0 -0.36495205908E+01  0.61889590486E+01 -0.59249678368E+01  0.93127578361E+01  0.00000000000E+00 0. -1.
</event>
<event>
 7    1  0.4818508E-009  0.4778727E+02  0.7816164E-02  0.1312668E+00
        -11   -1    0    0    0    0  0.00000000000E+00  0.00000000000E+00  0.45593999997E+02  0.45594000000E+02  0.51100000000E-03 0. -1.
         11   -1    0    0    0    0 -0.00000000000E+00 -0.00000000000E+00 -0.45593999997E+02  0.45594000000E+02  0.51100000000E-03 0.  1.
    9900012    2    1    2    0    0  0.41408679585E+02  0.11012664777E+01 -0.12951141704E+02  0.47787267238E+02  0.19999982647E+02 0.  0.
         12    1    1    2    0    0 -0.41408679585E+02 -0.11012664777E+01  0.12951141704E+02  0.43400732762E+02  0.00000000000E+00 0. -1.
         11    1    3    3    0    0  0.56033179652E+01 -0.22588685905E+01 -0.41554960722E+00  0.60557692546E+01  0.51100000000E-03 0. -1.
        -11    1    3    3    0    0  0.17579770305E+02  0.42887358229E+01  0.22627566815E+01  0.18236272837E+02  0.51100000000E-03 0.  1.
        -12    1    3    3    0    0  0.18225591315E+02 -0.92860075477E+00 -0.14798348778E+02  0.23495225147E+02  0.00000000000E+00 0.  1.
</event>
<event>
 7    1  0.4818508E-009  0.4778727E+02  0.7816164E-02  0.1312668E+00
        -11   -1    0    0    0    0  0.00000000000E+00  0.00000000000E+00  0.45593999997E+02  0.45594000000E+02  0.51100000000E-03 0. -1.
         11   -1    0    0    0    0 -0.00000000000E+00 -0.00000000000E+00 -0.45593999997E+02  0.45594000000E+02  0.51100000000E-03 0.  1.
    9900012    2    1    2    0    0  0.10407519294E+02 -0.24962145463E+02  0.33944042312E+02  0.47787272213E+02  0.20000005329E+02 0.  0.
         12    1    1    2    0    0 -0.10407519294E+02  0.24962145463E+02 -0.33944042312E+02  0.43400727787E+02  0.00000000000E+00 0. -1.
         11    1    3    3    0    0 -0.10793969292E+01 -0.15715286718E+02  0.20567473512E+02  0.25906684490E+02  0.51100000000E-03 0. -1.
        -11    1    3    3    0    0  0.65681154630E+01 -0.32148555016E+01  0.11728996181E+01  0.74061549002E+01  0.51100000000E-03 0.  1.
        -12    1    3    3    0    0  0.49188007598E+01 -0.60320032436E+01  0.12203669182E+02  0.14474432823E+02  0.00000000000E+00 0.  1.
</event>
<event>
 7    1  0.4818508E-009  0.4778727E+02  0.7816164E-02  0.1312668E+00
        -11   -1    0    0    0    0  0.00000000000E+00  0.00000000000E+00  0.45593999997E+02  0.45594000000E+02  0.51100000000E-03 0. -1.
         11   -1    0    0    0    0 -0.00000000000E+00 -0.00000000000E+00 -0.45593999997E+02  0.45594000000E+02  0.51100000000E-03 0.  1.
    9900012    2    1    2    0    0 -0.27646872549E+02  0.25895722785E+01 -0.33355177162E+02  0.47787270860E+02  0.19999999159E+02 0.  0.
         12    1    1    2    0    0  0.27646872549E+02 -0.25895722785E+01  0.33355177162E+02  0.43400729140E+02  0.00000000000E+00 0. -1.
         11    1    3    3    0    0  0.99669304643E+00  0.31171488772E+01 -0.89246317322E+00  0.33921239553E+01  0.51100000000E-03 0. -1.
        -11    1    3    3    0    0 -0.19561232816E+02  0.66947479800E+00 -0.28109630518E+02  0.34252610907E+02  0.51100000000E-03 0.  1.
         12    1    3    3    0    0 -0.90823327797E+01 -0.11970513967E+01 -0.43530834710E+01  0.10142535998E+02  0.00000000000E+00 0. -1.
</event>
<event>
 7    1  0.4818508E-009  0.4778727E+02  0.7816164E-02  0.1312668E+00
        -11   -1    0    0    0    0  0.00000000000E+00  0.00000000000E+00  0.45593999997E+02  0.45594000000E+02  0.51100000000E-03 0.  1.
         11   -1    0    0    0    0 -0.00000000000E+00 -0.00000000000E+00 -0.45593999997E+02  0.45594000000E+02  0.51100000000E-03 0. -1.
    9900012    2    1    2    0    0  0.40995393053E+02  0.96924052277E+01  0.10443097088E+02  0.47787271348E+02  0.20000001386E+02 0.  0.
         12    1    1    2    0    0 -0.40995393053E+02 -0.96924052277E+01 -0.10443097088E+02  0.43400728652E+02  0.00000000000E+00 0. -1.
         11    1    3    3    0    0  0.78984811462E+01  0.43474577103E+01  0.74404959754E+01  0.11689626751E+02  0.51100000000E-03 0. -1.
        -11    1    3    3    0    0  0.22133725781E+02  0.24243269190E+01 -0.42002484093E+01  0.22658801047E+02  0.51100000000E-03 0.  1.
        -12    1    3    3    0    0  0.10963186126E+02  0.29206205984E+01  0.72028495218E+01  0.13438843550E+02  0.00000000000E+00 0.  1.
</event>
<event>
 7    1  0.4818508E-009  0.4778727E+02  0.7816164E-02  0.1312668E+00
        -11   -1    0    0    0    0  0.00000000000E+00  0.00000000000E+00  0.45593999997E+02  0.45594000000E+02  0.51100000000E-03 0. -1.
         11   -1    0    0    0    0 -0.00000000000E+00 -0.00000000000E+00 -0.45593999997E+02  0.45594000000E+02  0.51100000000E-03 0.  1.
    9900012    2    1    2    0    0  0.36565105493E+02 -0.14928320351E+02 -0.17993370697E+02  0.47787273310E+02  0.20000010328E+02 0.  0.
         12    1    1    2    0    0 -0.36565105493E+02  0.14928320351E+02  0.17993370697E+02  0.43400726690E+02  0.00000000000E+00 0. -1.
         11    1    3    3    0    0  0.17995700361E+01  0.40186694021E+01 -0.28817943023E+01  0.52624038937E+01  0.51100000000E-03 0. -1.
        -11    1    3    3    0    0  0.27048058402E+02 -0.15372941121E+02 -0.10409760337E+02  0.32806826920E+02  0.51100000000E-03 0.  1.
         12    1    3    3    0    0  0.77174770545E+01 -0.35740486326E+01 -0.47018160573E+01  0.97180424958E+01  0.00000000000E+00 0. -1.
</event>
<event>
 7    1  0.4818508E-009  0.4778727E+02  0.7816164E-02  0.1312668E+00
        -11   -1    0    0    0    0  0.00000000000E+00  0.00000000000E+00  0.45593999997E+02  0.45594000000E+02  0.51100000000E-03 0.  1.
         11   -1    0    0    0    0 -0.00000000000E+00 -0.00000000000E+00 -0.45593999997E+02  0.45594000000E+02  0.51100000000E-03 0. -1.
    9900012    2    1    2    0    0  0.52481165876E+01 -0.38567941707E+02  0.19198815251E+02  0.47787270026E+02  0.19999995356E+02 0.  0.
         12    1    1    2    0    0 -0.52481165876E+01  0.38567941707E+02 -0.19198815251E+02  0.43400729974E+02  0.00000000000E+00 0. -1.
         11    1    3    3    0    0 -0.42638676384E+01 -0.13626234829E+02  0.25106445122E+01  0.14496833412E+02  0.51100000000E-03 0. -1.
        -11    1    3    3    0    0 -0.76759009359E+00 -0.12492574745E+02  0.56451808658E+01  0.13730319937E+02  0.51100000000E-03 0.  1.
         12    1    3    3    0    0  0.10279574320E+02 -0.12449132133E+02  0.11042989873E+02  0.19560116677E+02  0.00000000000E+00 0. -1.
</event>
<event>
 7    1  0.4818508E-009  0.4778725E+02  0.7816164E-02  0.1312668E+00
        -11   -1    0    0    0    0  0.00000000000E+00  0.00000000000E+00  0.45593999997E+02  0.45594000000E+02  0.51100000000E-03 0.  1.
         11   -1    0    0    0    0 -0.00000000000E+00 -0.00000000000E+00 -0.45593999997E+02  0.45594000000E+02  0.51100000000E-03 0. -1.
    9900012    2    1    2    0    0 -0.12565579065E+02  0.38829714316E+02  0.14764316290E+02  0.47787245091E+02  0.19999881668E+02 0.  0.
         12    1    1    2    0    0  0.12565579065E+02 -0.38829714316E+02 -0.14764316290E+02  0.43400754909E+02  0.00000000000E+00 0. -1.
         11    1    3    3    0    0  0.29200872478E+01  0.27462385579E+01  0.36460980368E+01  0.54187421886E+01  0.51100000000E-03 0. -1.
        -11    1    3    3    0    0 -0.11146767818E+02  0.30933852437E+02  0.49781806469E+01  0.33255615198E+02  0.51100000000E-03 0.  1.
        -12    1    3    3    0    0 -0.43388984948E+01  0.51496233214E+01  0.61400376068E+01  0.91128877044E+01  0.00000000000E+00 0.  1.
</event>
<event>
 7    1  0.4818508E-009  0.4778726E+02  0.7816164E-02  0.1312668E+00
        -11   -1    0    0    0    0  0.00000000000E+00  0.00000000000E+00  0.45593999997E+02  0.45594000000E+02  0.51100000000E-03 0.  1.
         11   -1    0    0    0    0 -0.00000000000E+00 -0.00000000000E+00 -0.45593999997E+02  0.45594000000E+02  0.51100000000E-03 0. -1.
    9900012    2    1    2    0    0 -0.41723045629E+02 -0.10416708858E+02  0.58569279040E+01  0.47787263088E+02  0.19999963725E+02 0.  0.
         12    1    1    2    0    0  0.41723045629E+02  0.10416708858E+02 -0.58569279040E+01  0.43400736912E+02  0.00000000000E+00 0. -1.
         11    1    3    3    0    0 -0.10058530399E+01  0.37451518037E+01 -0.37013365601E+00  0.38954976004E+01  0.51100000000E-03 0. -1.
        -11    1    3    3    0    0 -0.29291403180E+02 -0.10619487316E+02  0.68949522614E+01  0.31910816004E+02  0.51100000000E-03 0.  1.
         12    1    3    3    0    0 -0.11425789410E+02 -0.35423733452E+01 -0.66789070140E+00  0.11980949484E+02  0.00000000000E+00 0. -1.
</event>
<event>
 7    1  0.4818508E-009  0.4778727E+02  0.7816164E-02  0.1312668E+00
        -11   -1    0    0    0    0  0.00000000000E+00  0.00000000000E+00  0.45593999997E+02  0.45594000000E+02  0.51100000000E-03 0.  1.
         11   -1    0    0    0    0 -0.00000000000E+00 -0.00000000000E+00 -0.45593999997E+02  0.45594000000E+02  0.51100000000E-03 0. -1.
    9900012    2    1    2    0    0 -0.38911224167E+02 -0.18778249186E+02  0.41130630523E+01  0.47787270786E+02  0.19999998819E+02 0.  0.
         12    1    1    2    0    0  0.38911224167E+02  0.18778249186E+02 -0.41130630523E+01  0.43400729214E+02  0.00000000000E+00 0. -1.
         11    1    3    3    0    0 -0.31441386320E+02 -0.96677491511E+01  0.25245650624E+01  0.32990901418E+02  0.51100000000E-03 0. -1.
        -11    1    3    3    0    0 -0.18243464080E+01 -0.82580133460E+01  0.28957204192E+01  0.89391398494E+01  0.51100000000E-03 0.  1.
        -12    1    3    3    0    0 -0.56454914398E+01 -0.85248668848E+00 -0.13072224293E+01  0.58572295183E+01  0.00000000000E+00 0.  1.
</event>
<event>
 7    1  0.4818508E-009  0.4778727E+02  0.7816164E-02  0.1312668E+00
        -11   -1    0    0    0    0  0.00000000000E+00  0.00000000000E+00  0.45593999997E+02  0.45594000000E+02  0.51100000000E-03 0.  1.
         11   -1    0    0    0    0 -0.00000000000E+00 -0.00000000000E+00 -0.45593999997E+02  0.45594000000E+02  0.51100000000E-03 0. -1.
    9900012    2    1    2    0    0  0.34460169723E+01  0.42904537482E+02  0.55631752526E+01  0.47787270877E+02  0.19999999237E+02 0.  0.
         12    1    1    2    0    0 -0.34460169723E+01 -0.42904537482E+02 -0.55631752526E+01  0.43400729123E+02  0.00000000000E+00 0. -1.
         11    1    3    3    0    0  0.37518316775E+01  0.21653802889E+01  0.32946061336E+01  0.54423839049E+01  0.51100000000E-03 0.  1.
        -11    1    3    3    0    0 -0.26158679232E+01  0.37863576328E+02  0.41925949529E+01  0.38184696281E+02  0.51100000000E-03 0. -1.
         12    1    3    3    0    0  0.23100532180E+01  0.28755808646E+01 -0.19240258338E+01  0.41601906913E+01  0.00000000000E+00 0. -1.
</event>
<event>
 7    1  0.4818508E-009  0.4778727E+02  0.7816164E-02  0.1312668E+00
        -11   -1    0    0    0    0  0.00000000000E+00  0.00000000000E+00  0.45593999997E+02  0.45594000000E+02  0.51100000000E-03 0.  1.
         11   -1    0    0    0    0 -0.00000000000E+00 -0.00000000000E+00 -0.45593999997E+02  0.45594000000E+02  0.51100000000E-03 0. -1.
    9900012    2    1    2    0    0 -0.41400505309E+02 -0.38222929865E-01 -0.13023834869E+02  0.47787267569E+02  0.19999984155E+02 0.  0.
         12    1    1    2    0    0  0.41400505309E+02  0.38222929865E-01  0.13023834869E+02  0.43400732431E+02  0.00000000000E+00 0. -1.
         11    1    3    3    0    0 -0.22156745433E+02 -0.73340408746E+01 -0.48323718263E+01  0.23834037456E+02  0.51100000000E-03 0. -1.
        -11    1    3    3    0    0 -0.13759120813E+01  0.34102916381E+01  0.49296987872E+00  0.37102887589E+01  0.51100000000E-03 0.  1.
         12    1    3    3    0    0 -0.17867847795E+02  0.38855263067E+01 -0.86844329211E+01  0.20242941354E+02  0.00000000000E+00 0. -1.
</event>
<event>
 7    1  0.4818508E-009  0.4778727E+02  0.7816164E-02  0.1312668E+00
        -11   -1    0    0    0    0  0.00000000000E+00  0.00000000000E+00  0.45593999997E+02  0.45594000000E+02  0.51100000000E-03 0. -1.
         11   -1    0    0    0    0 -0.00000000000E+00 -0.00000000000E+00 -0.45593999997E+02  0.45594000000E+02  0.51100000000E-03 0.  1.
    9900012    2    1    2    0    0 -0.41905076875E+02  0.98839188301E+01  0.54677439848E+01  0.47787267936E+02  0.19999985830E+02 0.  0.
         12    1    1    2    0    0  0.41905076875E+02 -0.98839188301E+01 -0.54677439848E+01  0.43400732064E+02  0.00000000000E+00 0. -1.
         11    1    3    3    0    0 -0.28242616655E+02 -0.29394041874E+01  0.50451587691E+01  0.28839887652E+02  0.51100000000E-03 0. -1.
        -11    1    3    3    0    0 -0.55831948299E+01  0.61177421752E+01  0.14098341526E+01  0.84015752350E+01  0.51100000000E-03 0.  1.
         12    1    3    3    0    0 -0.80792653900E+01  0.67055808424E+01 -0.98724893684E+00  0.10545805049E+02  0.00000000000E+00 0. -1.
</event>
<event>
 7    1  0.4818508E-009  0.4778728E+02  0.7816164E-02  0.1312668E+00
        -11   -1    0    0    0    0  0.00000000000E+00  0.00000000000E+00  0.45593999997E+02  0.45594000000E+02  0.51100000000E-03 0.  1.
         11   -1    0    0    0    0 -0.00000000000E+00 -0.00000000000E+00 -0.45593999997E+02  0.45594000000E+02  0.51100000000E-03 0. -1.
    9900012    2    1    2    0    0 -0.16534948955E+02  0.34728611381E+02  0.20103274869E+02  0.47787278279E+02  0.20000032987E+02 0.  0.
         12    1    1    2    0    0  0.16534948955E+02 -0.34728611381E+02 -0.20103274869E+02  0.43400721721E+02  0.00000000000E+00 0. -1.
         11    1    3    3    0    0 -0.90019653758E+01  0.21907358126E+01  0.10734723101E+01  0.93266846783E+01  0.51100000000E-03 0. -1.
        -11    1    3    3    0    0 -0.34359842974E+01  0.14791414292E+02  0.79232637558E+01  0.17128048157E+02  0.51100000000E-03 0.  1.
         12    1    3    3    0    0 -0.40969992816E+01  0.17746461276E+02  0.11106538803E+02  0.21332545444E+02  0.00000000000E+00 0. -1.
</event>
<event>
 7    1  0.4818508E-009  0.4778728E+02  0.7816164E-02  0.1312668E+00
        -11   -1    0    0    0    0  0.00000000000E+00  0.00000000000E+00  0.45593999997E+02  0.45594000000E+02  0.51100000000E-03 0.  1.
         11   -1    0    0    0    0 -0.00000000000E+00 -0.00000000000E+00 -0.45593999997E+02  0.45594000000E+02  0.51100000000E-03 0. -1.
    9900012    2    1    2    0    0  0.25922114396E+02 -0.14483537905E+01  0.34778859733E+02  0.47787276184E+02  0.20000023431E+02 0.  0.
         12    1    1    2    0    0 -0.25922114396E+02  0.14483537905E+01 -0.34778859733E+02  0.43400723816E+02  0.00000000000E+00 0. -1.
         11    1    3    3    0    0  0.11318016496E+02  0.69233495651E+01  0.22183214803E+02  0.25848119581E+02  0.51100000000E-03 0.  1.
        -11    1    3    3    0    0  0.14061715136E+02 -0.63953818333E+01  0.92197763344E+01  0.17989914321E+02  0.51100000000E-03 0. -1.
        -12    1    3    3    0    0  0.54238276325E+00 -0.19763215223E+01  0.33758685955E+01  0.39492422812E+01  0.00000000000E+00 0.  1.
</event>
<event>
 7    1  0.4818508E-009  0.4778727E+02  0.7816164E-02  0.1312668E+00
        -11   -1    0    0    0    0  0.00000000000E+00  0.00000000000E+00  0.45593999997E+02  0.45594000000E+02  0.51100000000E-03 0. -1.
         11   -1    0    0    0    0 -0.00000000000E+00 -0.00000000000E+00 -0.45593999997E+02  0.45594000000E+02  0.51100000000E-03 0.  1.
    9900012    2    1    2    0    0 -0.37890806544E+02 -0.13461265312E+02 -0.16331083116E+02  0.47787272355E+02  0.20000005975E+02 0.  0.
         12    1    1    2    0    0  0.37890806544E+02  0.13461265312E+02  0.16331083116E+02  0.43400727645E+02  0.00000000000E+00 0. -1.
         11    1    3    3    0    0 -0.12562877060E+02  0.11434354011E+01 -0.43535627756E+01  0.13344917895E+02  0.51100000000E-03 0. -1.
        -11    1    3    3    0    0 -0.13934548095E+02 -0.32215073639E+01  0.11485328631E+00  0.14302549837E+02  0.51100000000E-03 0.  1.
        -12    1    3    3    0    0 -0.11393381390E+02 -0.11383193349E+02 -0.12092373626E+02  0.20139804623E+02  0.00000000000E+00 0.  1.
</event>
<event>
 7    1  0.4818508E-009  0.4778727E+02  0.7816164E-02  0.1312668E+00
        -11   -1    0    0    0    0  0.00000000000E+00  0.00000000000E+00  0.45593999997E+02  0.45594000000E+02  0.51100000000E-03 0.  1.
         11   -1    0    0    0    0 -0.00000000000E+00 -0.00000000000E+00 -0.45593999997E+02  0.45594000000E+02  0.51100000000E-03 0. -1.
    9900012    2    1    2    0    0  0.29690545230E+02 -0.31604415055E+02 -0.18043007590E+01  0.47787273874E+02  0.20000012901E+02 0.  0.
         12    1    1    2    0    0 -0.29690545230E+02  0.31604415055E+02  0.18043007590E+01  0.43400726126E+02  0.00000000000E+00 0. -1.
         11    1    3    3    0    0  0.65223732814E+01  0.46467463273E+00  0.34709681694E+01  0.74030328941E+01  0.51100000000E-03 0. -1.
        -11    1    3    3    0    0  0.17031969647E+02 -0.19486129218E+02 -0.51304810006E+01  0.26384068252E+02  0.51100000000E-03 0.  1.
         12    1    3    3    0    0  0.61362023019E+01 -0.12582960469E+02 -0.14478792779E+00  0.14000172728E+02  0.00000000000E+00 0. -1.
</event>
<event>
 7    1  0.4818508E-009  0.4778728E+02  0.7816164E-02  0.1312668E+00
        -11   -1    0    0    0    0  0.00000000000E+00  0.00000000000E+00  0.45593999997E+02  0.45594000000E+02  0.51100000000E-03 0.  1.
         11   -1    0    0    0    0 -0.00000000000E+00 -0.00000000000E+00 -0.45593999997E+02  0.45594000000E+02  0.51100000000E-03 0. -1.
    9900012    2    1    2    0    0  0.22836063532E+02  0.23051748221E+02  0.28822802765E+02  0.47787275894E+02  0.20000022111E+02 0.  0.
         12    1    1    2    0    0 -0.22836063532E+02 -0.23051748221E+02 -0.28822802765E+02  0.43400724106E+02  0.00000000000E+00 0. -1.
         11    1    3    3    0    0 -0.10610472397E+01  0.58951371613E+00  0.65364186730E+01  0.66481664387E+01  0.51100000000E-03 0.  1.
        -11    1    3    3    0    0  0.20226690898E+02  0.18671521900E+02  0.12964184822E+02  0.30427205641E+02  0.51100000000E-03 0. -1.
         12    1    3    3    0    0  0.36704198736E+01  0.37907126052E+01  0.93221992698E+01  0.10711903814E+02  0.00000000000E+00 0. -1.
</event>
<event>
 7    1  0.4818508E-009  0.4778725E+02  0.7816164E-02  0.1312668E+00
        -11   -1    0    0    0    0  0.00000000000E+00  0.00000000000E+00  0.45593999997E+02  0.45594000000E+02  0.51100000000E-03 0. -1.
         11   -1    0    0    0    0 -0.00000000000E+00 -0.00000000000E+00 -0.45593999997E+02  0.45594000000E+02  0.51100000000E-03 0.  1.
    9900012    2    1    2    0    0 -0.22168712321E+01  0.31602926697E+02 -0.29664221353E+02  0.47787245141E+02  0.19999881895E+02 0.  0.
         12    1    1    2    0    0  0.22168712321E+01 -0.31602926697E+02  0.29664221353E+02  0.43400754859E+02  0.00000000000E+00 0. -1.
         11    1    3    3    0    0  0.22202622050E+01 -0.14963946321E+01 -0.61061756591E+00  0.27462001433E+01  0.51100000000E-03 0. -1.
        -11    1    3    3    0    0 -0.45129099839E+01  0.32996128322E+02 -0.29553202450E+02  0.44525303099E+02  0.51100000000E-03 0.  1.
        -12    1    3    3    0    0  0.75776546812E-01  0.10319300707E+00  0.49959866310E+00  0.51574189856E+00  0.00000000000E+00 0.  1.
</event>
<event>
 7    1  0.4818508E-009  0.4778727E+02  0.7816164E-02  0.1312668E+00
        -11   -1    0    0    0    0  0.00000000000E+00  0.00000000000E+00  0.45593999997E+02  0.45594000000E+02  0.51100000000E-03 0.  1.
         11   -1    0    0    0    0 -0.00000000000E+00 -0.00000000000E+00 -0.45593999997E+02  0.45594000000E+02  0.51100000000E-03 0. -1.
    9900012    2    1    2    0    0 -0.19775202325E+01 -0.29527029699E+02  0.31746926165E+02  0.47787269706E+02  0.19999993899E+02 0.  0.
         12    1    1    2    0    0  0.19775202325E+01  0.29527029699E+02 -0.31746926165E+02  0.43400730294E+02  0.00000000000E+00 0. -1.
         11    1    3    3    0    0 -0.35754879606E+01 -0.13220810607E+02  0.39898151616E+01  0.14265082284E+02  0.51100000000E-03 0. -1.
        -11    1    3    3    0    0  0.48280577353E+01 -0.72276314101E+01  0.16910093480E+02  0.19013154895E+02  0.51100000000E-03 0.  1.
         12    1    3    3    0    0 -0.32300900072E+01 -0.90785876813E+01  0.10847017524E+02  0.14509032528E+02  0.00000000000E+00 0. -1.
</event>
<event>
 7    1  0.4818508E-009  0.4778726E+02  0.7816164E-02  0.1312668E+00
        -11   -1    0    0    0    0  0.00000000000E+00  0.00000000000E+00  0.45593999997E+02  0.45594000000E+02  0.51100000000E-03 0. -1.
         11   -1    0    0    0    0 -0.00000000000E+00 -0.00000000000E+00 -0.45593999997E+02  0.45594000000E+02  0.51100000000E-03 0.  1.
    9900012    2    1    2    0    0  0.41421521421E+01 -0.43025889443E+02 -0.39037769606E+01  0.47787261973E+02  0.19999958638E+02 0.  0.
         12    1    1    2    0    0 -0.41421521421E+01  0.43025889443E+02  0.39037769606E+01  0.43400738027E+02  0.00000000000E+00 0. -1.
         11    1    3    3    0    0 -0.31037558667E+01 -0.75321829909E+00 -0.15361760811E+01  0.35440761137E+01  0.51100000000E-03 0. -1.
        -11    1    3    3    0    0  0.52194418717E+01 -0.38734684791E+02  0.77966715531E+00  0.39092534587E+02  0.51100000000E-03 0.  1.
        -12    1    3    3    0    0  0.20264661372E+01 -0.35379863531E+01 -0.31472680348E+01  0.51506512717E+01  0.00000000000E+00 0.  1.
</event>
<event>
 7    1  0.4818508E-009  0.4778727E+02  0.7816164E-02  0.1312668E+00
        -11   -1    0    0    0    0  0.00000000000E+00  0.00000000000E+00  0.45593999997E+02  0.45594000000E+02  0.51100000000E-03 0.  1.
         11   -1    0    0    0    0 -0.00000000000E+00 -0.00000000000E+00 -0.45593999997E+02  0.45594000000E+02  0.51100000000E-03 0. -1.
    9900012    2    1    2    0    0  0.34183026103E+02  0.26742170227E+02 -0.16809114094E-01  0.47787271612E+02  0.20000002589E+02 0.  0.
         12    1    1    2    0    0 -0.34183026103E+02 -0.26742170227E+02  0.16809114094E-01  0.43400728388E+02  0.00000000000E+00 0. -1.
         11    1    3    3    0    0  0.97435211914E+00  0.96044425709E+00 -0.34946503076E+01  0.37529183653E+01  0.51100000000E-03 0. -1.
        -11    1    3    3    0    0  0.29450946052E+02  0.26921839193E+02  0.38650488435E+01  0.40088430397E+02  0.51100000000E-03 0.  1.
        -12    1    3    3    0    0  0.37577279324E+01 -0.11401132228E+01 -0.38720765005E+00  0.39459228501E+01  0.00000000000E+00 0.  1.
</event>
<event>
 7    1  0.4818508E-009  0.4778727E+02  0.7816164E-02  0.1312668E+00
        -11   -1    0    0    0    0  0.00000000000E+00  0.00000000000E+00  0.45593999997E+02  0.45594000000E+02  0.51100000000E-03 0. -1.
         11   -1    0    0    0    0 -0.00000000000E+00 -0.00000000000E+00 -0.45593999997E+02  0.45594000000E+02  0.51100000000E-03 0.  1.
    9900012    2    1    2    0    0  0.34817334452E+02 -0.97898028834E+01  0.23990333248E+02  0.47787272953E+02  0.20000008702E+02 0.  0.
         12    1    1    2    0    0 -0.34817334452E+02  0.97898028834E+01 -0.23990333248E+02  0.43400727047E+02  0.00000000000E+00 0. -1.
         11    1    3    3    0    0 -0.10523187436E+01 -0.93093720498E+00 -0.17161653881E+01  0.22179365902E+01  0.51100000000E-03 0. -1.
        -11    1    3    3    0    0  0.22355036536E+02 -0.61903247902E+01  0.11918991104E+02  0.26079304606E+02  0.51100000000E-03 0.  1.
         12    1    3    3    0    0  0.13514616659E+02 -0.26685408882E+01  0.13787507532E+02  0.19490031757E+02  0.00000000000E+00 0. -1.
</event>
<event>
 7    1  0.4818508E-009  0.4778726E+02  0.7816164E-02  0.1312668E+00
        -11   -1    0    0    0    0  0.00000000000E+00  0.00000000000E+00  0.45593999997E+02  0.45594000000E+02  0.51100000000E-03 0. -1.
         11   -1    0    0    0    0 -0.00000000000E+00 -0.00000000000E+00 -0.45593999997E+02  0.45594000000E+02  0.51100000000E-03 0.  1.
    9900012    2    1    2    0    0  0.43115118641E+02  0.23454857705E+01  0.43828604555E+01  0.47787260090E+02  0.19999950056E+02 0.  0.
         12    1    1    2    0    0 -0.43115118641E+02 -0.23454857705E+01 -0.43828604555E+01  0.43400739910E+02  0.00000000000E+00 0. -1.
         11    1    3    3    0    0  0.74820562226E+01  0.55472865992E+01  0.56851392366E+01  0.10912119974E+02  0.51100000000E-03 0. -1.
        -11    1    3    3    0    0  0.31677054574E+02 -0.81088224507E+00  0.10165488267E+01  0.31703733034E+02  0.51100000000E-03 0.  1.
        -12    1    3    3    0    0  0.39560078445E+01 -0.23909185836E+01 -0.23188276078E+01  0.51714070826E+01  0.00000000000E+00 0.  1.
</event>
<event>
 7    1  0.4818508E-009  0.4778728E+02  0.7816164E-02  0.1312668E+00
        -11   -1    0    0    0    0  0.00000000000E+00  0.00000000000E+00  0.45593999997E+02  0.45594000000E+02  0.51100000000E-03 0. -1.
         11   -1    0    0    0    0 -0.00000000000E+00 -0.00000000000E+00 -0.45593999997E+02  0.45594000000E+02  0.51100000000E-03 0.  1.
    9900012    2    1    2    0    0 -0.15636936616E+02  0.29968294299E+02 -0.27221504888E+02  0.47787276754E+02  0.20000026032E+02 0.  0.
         12    1    1    2    0    0  0.15636936616E+02 -0.29968294299E+02  0.27221504888E+02  0.43400723246E+02  0.00000000000E+00 0. -1.
         11    1    3    3    0    0 -0.52511266539E+01  0.93849198552E+01  0.31949491509E+00  0.10758862816E+02  0.51100000000E-03 0. -1.
        -11    1    3    3    0    0 -0.97597458623E+01  0.12799483315E+02 -0.22745004436E+02  0.27864217906E+02  0.51100000000E-03 0.  1.
         12    1    3    3    0    0 -0.62606409939E+00  0.77838911293E+01 -0.47959953662E+01  0.91641960325E+01  0.00000000000E+00 0. -1.
</event>
<event>
 7    1  0.4818508E-009  0.4778727E+02  0.7816164E-02  0.1312668E+00
        -11   -1    0    0    0    0  0.00000000000E+00  0.00000000000E+00  0.45593999997E+02  0.45594000000E+02  0.51100000000E-03 0. -1.
         11   -1    0    0    0    0 -0.00000000000E+00 -0.00000000000E+00 -0.45593999997E+02  0.45594000000E+02  0.51100000000E-03 0.  1.
    9900012    2    1    2    0    0 -0.13393910489E+00 -0.43069623672E+02 -0.53490747159E+01  0.47787273932E+02  0.20000013165E+02 0.  0.
         12    1    1    2    0    0  0.13393910489E+00  0.43069623672E+02  0.53490747159E+01  0.43400726068E+02  0.00000000000E+00 0. -1.
         11    1    3    3    0    0 -0.37622843199E+01 -0.65938548377E+01 -0.64660153149E+01  0.99721140806E+01  0.51100000000E-03 0. -1.
        -11    1    3    3    0    0  0.60331541272E+01 -0.32193677732E+02  0.20417713130E+01  0.32817688294E+02  0.51100000000E-03 0.  1.
        -12    1    3    3    0    0 -0.24048089122E+01 -0.42820911024E+01 -0.92483071411E+00  0.49974715570E+01  0.00000000000E+00 0.  1.
</event>
<event>
 7    1  0.4818508E-009  0.4778727E+02  0.7816164E-02  0.1312668E+00
        -11   -1    0    0    0    0  0.00000000000E+00  0.00000000000E+00  0.45593999997E+02  0.45594000000E+02  0.51100000000E-03 0.  1.
         11   -1    0    0    0    0 -0.00000000000E+00 -0.00000000000E+00 -0.45593999997E+02  0.45594000000E+02  0.51100000000E-03 0. -1.
    9900012    2    1    2    0    0 -0.10423892784E+02 -0.19076290392E+02  0.37564089085E+02  0.47787272072E+02  0.20000004684E+02 0.  0.
         12    1    1    2    0    0  0.10423892784E+02  0.19076290392E+02 -0.37564089085E+02  0.43400727928E+02  0.00000000000E+00 0. -1.
         11    1    3    3    0    0 -0.90682259376E+00  0.29989908488E+01  0.10183649619E+01  0.32944408910E+01  0.51100000000E-03 0. -1.
        -11    1    3    3    0    0  0.74931397328E+00 -0.36721057805E+01  0.94577809865E+01  0.10173271536E+02  0.51100000000E-03 0.  1.
         12    1    3    3    0    0 -0.10266384164E+02 -0.18403175461E+02  0.27087943137E+02  0.34319559645E+02  0.00000000000E+00 0. -1.
</event>
<event>
 7    1  0.4818508E-009  0.4778727E+02  0.7816164E-02  0.1312668E+00
        -11   -1    0    0    0    0  0.00000000000E+00  0.00000000000E+00  0.45593999997E+02  0.45594000000E+02  0.51100000000E-03 0.  1.
         11   -1    0    0    0    0 -0.00000000000E+00 -0.00000000000E+00 -0.45593999997E+02  0.45594000000E+02  0.51100000000E-03 0. -1.
    9900012    2    1    2    0    0  0.45347914087E+01 -0.35996558542E+02  0.23818199313E+02  0.47787272143E+02  0.20000005009E+02 0.  0.
         12    1    1    2    0    0 -0.45347914087E+01  0.35996558542E+02 -0.23818199313E+02  0.43400727857E+02  0.00000000000E+00 0. -1.
         11    1    3    3    0    0  0.18811871322E+01 -0.92110836850E+01  0.57386080987E+01  0.11014288486E+02  0.51100000000E-03 0.  1.
        -11    1    3    3    0    0 -0.56815495775E+01 -0.20763130600E+02  0.14170382272E+02  0.25771832141E+02  0.51100000000E-03 0. -1.
        -12    1    3    3    0    0  0.83351538540E+01 -0.60223442573E+01  0.39092089419E+01  0.11001151516E+02  0.00000000000E+00 0.  1.
</event>
<event>
 7    1  0.4818508E-009  0.4778727E+02  0.7816164E-02  0.1312668E+00
        -11   -1    0    0    0    0  0.00000000000E+00  0.00000000000E+00  0.45593999997E+02  0.45594000000E+02  0.51100000000E-03 0.  1.
         11   -1    0    0    0    0 -0.00000000000E+00 -0.00000000000E+00 -0.45593999997E+02  0.45594000000E+02  0.51100000000E-03 0. -1.
    9900012    2    1    2    0    0 -0.11128437698E+02  0.21327457696E+02  0.36123687021E+02  0.47787270267E+02  0.19999996455E+02 0.  0.
         12    1    1    2    0    0  0.11128437698E+02 -0.21327457696E+02 -0.36123687021E+02  0.43400729733E+02  0.00000000000E+00 0. -1.
         11    1    3    3    0    0  0.46849254103E+00 -0.53416245852E+00 -0.16294756232E+00  0.72894921790E+00  0.51100000000E-03 0. -1.
        -11    1    3    3    0    0 -0.65607664854E+01  0.14038105463E+02  0.83270499286E+01  0.17591242783E+02  0.51100000000E-03 0.  1.
        -12    1    3    3    0    0 -0.50361637535E+01  0.78235146913E+01  0.27959584655E+02  0.29467078266E+02  0.00000000000E+00 0.  1.
</event>
<event>
 7    1  0.4818508E-009  0.4778727E+02  0.7816164E-02  0.1312668E+00
        -11   -1    0    0    0    0  0.00000000000E+00  0.00000000000E+00  0.45593999997E+02  0.45594000000E+02  0.51100000000E-03 0. -1.
         11   -1    0    0    0    0 -0.00000000000E+00 -0.00000000000E+00 -0.45593999997E+02  0.45594000000E+02  0.51100000000E-03 0.  1.
    9900012    2    1    2    0    0 -0.41825418944E+02  0.11522094705E+02  0.12244521832E+01  0.47787267064E+02  0.19999981850E+02 0.  0.
         12    1    1    2    0    0  0.41825418944E+02 -0.11522094705E+02 -0.12244521832E+01  0.43400732936E+02  0.00000000000E+00 0. -1.
         11    1    3    3    0    0 -0.10377053537E+02  0.99419468250E+01  0.32948445277E+00  0.14374773287E+02  0.51100000000E-03 0. -1.
        -11    1    3    3    0    0 -0.32103210124E+02  0.14018157485E+01  0.19110644635E+01  0.32190578673E+02  0.51100000000E-03 0.  1.
         12    1    3    3    0    0  0.65484471614E+00  0.17833213130E+00 -0.10160967331E+01  0.12219151044E+01  0.00000000000E+00 0. -1.
</event>
<event>
 7    1  0.4818508E-009  0.4778727E+02  0.7816164E-02  0.1312668E+00
        -11   -1    0    0    0    0  0.00000000000E+00  0.00000000000E+00  0.45593999997E+02  0.45594000000E+02  0.51100000000E-03 0. -1.
         11   -1    0    0    0    0 -0.00000000000E+00 -0.00000000000E+00 -0.45593999997E+02  0.45594000000E+02  0.51100000000E-03 0.  1.
    9900012    2    1    2    0    0  0.18807782674E+02  0.11659320588E+01  0.39096435874E+02  0.47787269768E+02  0.19999994179E+02 0.  0.
         12    1    1    2    0    0 -0.18807782674E+02 -0.11659320588E+01 -0.39096435874E+02  0.43400730232E+02  0.00000000000E+00 0. -1.
         11    1    3    3    0    0  0.17746094730E+01 -0.10178551777E+01  0.82673748769E+01  0.85167338552E+01  0.51100000000E-03 0. -1.
        -11    1    3    3    0    0  0.11955673624E+02 -0.13130427782E+01  0.30843226823E+02  0.33105390109E+02  0.51100000000E-03 0.  1.
        -12    1    3    3    0    0  0.50774995771E+01  0.34968300148E+01 -0.14165826523E-01  0.61651458035E+01  0.00000000000E+00 0.  1.
</event>
<event>
 7    1  0.8841207E-009  0.4778728E+02  0.7816164E-02  0.1312668E+00
        -11   -1    0    0    0    0  0.00000000000E+00  0.00000000000E+00  0.45593999997E+02  0.45594000000E+02  0.51100000000E-03 0. -1.
         11   -1    0    0    0    0 -0.00000000000E+00 -0.00000000000E+00 -0.45593999997E+02  0.45594000000E+02  0.51100000000E-03 0.  1.
    9900012    2    1    2    0    0 -0.16628463455E+02  0.39682809351E+02  0.56913752016E+01  0.47787275276E+02  0.20000019294E+02 0.  0.
         12    1    1    2    0    0  0.16628463455E+02 -0.39682809351E+02 -0.56913752016E+01  0.43400724724E+02  0.00000000000E+00 0. -1.
         11    1    3    3    0    0 -0.59171500066E+01  0.10143501105E+01  0.22936700112E+01  0.64267015434E+01  0.51100000000E-03 0. -1.
        -11    1    3    3    0    0 -0.29303277881E+01  0.21660415862E+02 -0.18473084751E+01  0.21935655566E+02  0.51100000000E-03 0.  1.
        -12    1    3    3    0    0 -0.77809856600E+01  0.17008043379E+02  0.52450136656E+01  0.19424918166E+02  0.00000000000E+00 0.  1.
</event>
<event>
 7    1  0.4818508E-009  0.4778727E+02  0.7816164E-02  0.1312668E+00
        -11   -1    0    0    0    0  0.00000000000E+00  0.00000000000E+00  0.45593999997E+02  0.45594000000E+02  0.51100000000E-03 0.  1.
         11   -1    0    0    0    0 -0.00000000000E+00 -0.00000000000E+00 -0.45593999997E+02  0.45594000000E+02  0.51100000000E-03 0. -1.
    9900012    2    1    2    0    0 -0.30489781815E+02 -0.26535723361E+02  0.15806704259E+02  0.47787270640E+02  0.19999998158E+02 0.  0.
         12    1    1    2    0    0  0.30489781815E+02  0.26535723361E+02 -0.15806704259E+02  0.43400729360E+02  0.00000000000E+00 0. -1.
         11    1    3    3    0    0 -0.25809056531E+02 -0.19902843199E+02  0.98404340437E+01  0.34045039416E+02  0.51100000000E-03 0. -1.
        -11    1    3    3    0    0 -0.42382881054E+01  0.48600226744E+00  0.49547279080E+01  0.65382423611E+01  0.51100000000E-03 0.  1.
         12    1    3    3    0    0 -0.44243717863E+00 -0.71188824295E+01  0.10115423077E+01  0.72039888633E+01  0.00000000000E+00 0. -1.
</event>
<event>
 7    1  0.4818508E-009  0.4778727E+02  0.7816164E-02  0.1312668E+00
        -11   -1    0    0    0    0  0.00000000000E+00  0.00000000000E+00  0.45593999997E+02  0.45594000000E+02  0.51100000000E-03 0. -1.
         11   -1    0    0    0    0 -0.00000000000E+00 -0.00000000000E+00 -0.45593999997E+02  0.45594000000E+02  0.51100000000E-03 0.  1.
    9900012    2    1    2    0    0  0.41212419821E+02 -0.43449848713E+01 -0.12894986473E+02  0.47787272850E+02  0.20000008233E+02 0.  0.
         12    1    1    2    0    0 -0.41212419821E+02  0.43449848713E+01  0.12894986473E+02  0.43400727150E+02  0.00000000000E+00 0. -1.
         11    1    3    3    0    0  0.12062945698E+02 -0.81078021631E+00  0.50702457519E+01  0.13110279010E+02  0.51100000000E-03 0. -1.
        -11    1    3    3    0    0  0.28104654921E+02 -0.40958112900E+01 -0.17687061142E+02  0.33458622662E+02  0.51100000000E-03 0.  1.
        -12    1    3    3    0    0  0.10448192018E+01  0.56160663508E+00 -0.27817108299E+00  0.12183711784E+01  0.00000000000E+00 0.  1.
</event>
<event>
 7    1  0.4818508E-009  0.4778727E+02  0.7816164E-02  0.1312668E+00
        -11   -1    0    0    0    0  0.00000000000E+00  0.00000000000E+00  0.45593999997E+02  0.45594000000E+02  0.51100000000E-03 0.  1.
         11   -1    0    0    0    0 -0.00000000000E+00 -0.00000000000E+00 -0.45593999997E+02  0.45594000000E+02  0.51100000000E-03 0. -1.
    9900012    2    1    2    0    0  0.41749563673E+02  0.99413173611E+01 -0.64627684753E+01  0.47787271502E+02  0.20000002087E+02 0.  0.
         12    1    1    2    0    0 -0.41749563673E+02 -0.99413173611E+01  0.64627684753E+01  0.43400728498E+02  0.00000000000E+00 0. -1.
         11    1    3    3    0    0  0.18300464898E+02  0.59731255003E+01  0.24833820864E+01  0.19410111555E+02  0.51100000000E-03 0. -1.
        -11    1    3    3    0    0 -0.18214854040E+00  0.14054813239E+01 -0.38013629286E+01  0.40569589866E+01  0.51100000000E-03 0.  1.
        -12    1    3    3    0    0  0.23631247315E+02  0.25627105370E+01 -0.51447876331E+01  0.24320200960E+02  0.00000000000E+00 0.  1.
</event>
<event>
 7    1  0.4818508E-009  0.4778727E+02  0.7816164E-02  0.1312668E+00
        -11   -1    0    0    0    0  0.00000000000E+00  0.00000000000E+00  0.45593999997E+02  0.45594000000E+02  0.51100000000E-03 0. -1.
         11   -1    0    0    0    0 -0.00000000000E+00 -0.00000000000E+00 -0.45593999997E+02  0.45594000000E+02  0.51100000000E-03 0.  1.
    9900012    2    1    2    0    0  0.19321232212E+02  0.36020096521E+02 -0.14589922744E+02  0.47787271743E+02  0.20000003185E+02 0.  0.
         12    1    1    2    0    0 -0.19321232212E+02 -0.36020096521E+02  0.14589922744E+02  0.43400728257E+02  0.00000000000E+00 0. -1.
         11    1    3    3    0    0  0.20128559167E+02  0.23183050930E+02 -0.13433768026E+02  0.33512368884E+02  0.51100000000E-03 0.  1.
        -11    1    3    3    0    0 -0.20882671285E+01  0.12756859774E+02 -0.84479261191E+00  0.12954227330E+02  0.51100000000E-03 0. -1.
         12    1    3    3    0    0  0.12809401736E+01  0.80185816918E-01 -0.31136210565E+00  0.13206755295E+01  0.00000000000E+00 0. -1.
</event>
<event>
 7    1  0.4818508E-009  0.4778727E+02  0.7816164E-02  0.1312668E+00
        -11   -1    0    0    0    0  0.00000000000E+00  0.00000000000E+00  0.45593999997E+02  0.45594000000E+02  0.51100000000E-03 0. -1.
         11   -1    0    0    0    0 -0.00000000000E+00 -0.00000000000E+00 -0.45593999997E+02  0.45594000000E+02  0.51100000000E-03 0.  1.
    9900012    2    1    2    0    0 -0.22358115568E+02  0.24502530132E+02 -0.27988641969E+02  0.47787269662E+02  0.19999993697E+02 0.  0.
         12    1    1    2    0    0  0.22358115568E+02 -0.24502530132E+02  0.27988641969E+02  0.43400730338E+02  0.00000000000E+00 0. -1.
         11    1    3    3    0    0  0.86352343643E+00  0.51277070149E+01 -0.91088480750E+01  0.10488573090E+02  0.51100000000E-03 0. -1.
        -11    1    3    3    0    0 -0.12346289323E+02  0.33952854519E+01 -0.66926456904E+01  0.14448194695E+02  0.51100000000E-03 0.  1.
        -12    1    3    3    0    0 -0.10875349681E+02  0.15979537665E+02 -0.12187148204E+02  0.22850501876E+02  0.00000000000E+00 0.  1.
</event>
<event>
 7    1  0.4818508E-009  0.4778726E+02  0.7816164E-02  0.1312668E+00
        -11   -1    0    0    0    0  0.00000000000E+00  0.00000000000E+00  0.45593999997E+02  0.45594000000E+02  0.51100000000E-03 0. -1.
         11   -1    0    0    0    0 -0.00000000000E+00 -0.00000000000E+00 -0.45593999997E+02  0.45594000000E+02  0.51100000000E-03 0.  1.
    9900012    2    1    2    0    0  0.29879944535E+01 -0.41147553823E+02  0.13474976793E+02  0.47787259268E+02  0.19999946307E+02 0.  0.
         12    1    1    2    0    0 -0.29879944535E+01  0.41147553823E+02 -0.13474976793E+02  0.43400740732E+02  0.00000000000E+00 0. -1.
         11    1    3    3    0    0 -0.23468761525E+01 -0.19918817884E+02  0.12511200904E+02  0.23638893415E+02  0.51100000000E-03 0. -1.
        -11    1    3    3    0    0  0.66764442855E+01 -0.21593423299E+02  0.15152066798E+01  0.22652741326E+02  0.51100000000E-03 0.  1.
         12    1    3    3    0    0 -0.13415736794E+01  0.36468735971E+00 -0.55143079050E+00  0.14956245266E+01  0.00000000000E+00 0. -1.
</event>
<event>
 7    1  0.4818508E-009  0.4778727E+02  0.7816164E-02  0.1312668E+00
        -11   -1    0    0    0    0  0.00000000000E+00  0.00000000000E+00  0.45593999997E+02  0.45594000000E+02  0.51100000000E-03 0.  1.
         11   -1    0    0    0    0 -0.00000000000E+00 -0.00000000000E+00 -0.45593999997E+02  0.45594000000E+02  0.51100000000E-03 0. -1.
    9900012    2    1    2    0    0 -0.26835668124E+02  0.29341681689E+01  0.33983244553E+02  0.47787270319E+02  0.19999996692E+02 0.  0.
         12    1    1    2    0    0  0.26835668124E+02 -0.29341681689E+01 -0.33983244553E+02  0.43400729681E+02  0.00000000000E+00 0. -1.
         11    1    3    3    0    0 -0.24955014621E+02 -0.10432453101E+00  0.31906871863E+02  0.40506939044E+02  0.51100000000E-03 0.  1.
        -11    1    3    3    0    0 -0.26233086034E+01  0.34991258049E+01 -0.64635463034E+00  0.44207922363E+01  0.51100000000E-03 0. -1.
        -12    1    3    3    0    0  0.74265510017E+00 -0.46063310501E+00  0.27227273201E+01  0.28595390388E+01  0.00000000000E+00 0.  1.
</event>
<event>
 7    1  0.4818508E-009  0.4778727E+02  0.7816164E-02  0.1312668E+00
        -11   -1    0    0    0    0  0.00000000000E+00  0.00000000000E+00  0.45593999997E+02  0.45594000000E+02  0.51100000000E-03 0.  1.
         11   -1    0    0    0    0 -0.00000000000E+00 -0.00000000000E+00 -0.45593999997E+02  0.45594000000E+02  0.51100000000E-03 0. -1.
    9900012    2    1    2    0    0 -0.24605525440E+02  0.30567734797E+02  0.18541981505E+02  0.47787269926E+02  0.19999994901E+02 0.  0.
         12    1    1    2    0    0  0.24605525440E+02 -0.30567734797E+02 -0.18541981505E+02  0.43400730074E+02  0.00000000000E+00 0. -1.
         11    1    3    3    0    0  0.92242789420E+00 -0.19823741056E-02  0.55204244958E+00  0.10750015242E+01  0.51100000000E-03 0. -1.
        -11    1    3    3    0    0 -0.10671811367E+02  0.30184414774E+01  0.85956713831E+01  0.14031539958E+02  0.51100000000E-03 0.  1.
        -12    1    3    3    0    0 -0.14856141967E+02  0.27551275694E+02  0.93942676728E+01  0.32680728444E+02  0.00000000000E+00 0.  1.
</event>
<event>
 7    1  0.4818508E-009  0.4778727E+02  0.7816164E-02  0.1312668E+00
        -11   -1    0    0    0    0  0.00000000000E+00  0.00000000000E+00  0.45593999997E+02  0.45594000000E+02  0.51100000000E-03 0.  1.
         11   -1    0    0    0    0 -0.00000000000E+00 -0.00000000000E+00 -0.45593999997E+02  0.45594000000E+02  0.51100000000E-03 0. -1.
    9900012    2    1    2    0    0 -0.15278740276E+02 -0.40537274617E+02  0.26291785730E+01  0.47787272843E+02  0.20000008200E+02 0.  0.
         12    1    1    2    0    0  0.15278740276E+02  0.40537274617E+02 -0.26291785730E+01  0.43400727157E+02  0.00000000000E+00 0. -1.
         11    1    3    3    0    0 -0.12322773408E+01 -0.87842480138E+01  0.52345933824E+01  0.10299635370E+02  0.51100000000E-03 0. -1.
        -11    1    3    3    0    0 -0.13286054358E+02 -0.28777964662E+02 -0.66724681212E+01  0.32391547070E+02  0.51100000000E-03 0.  1.
        -12    1    3    3    0    0 -0.76040857772E+00 -0.29750619408E+01  0.40670533118E+01  0.50960904032E+01  0.00000000000E+00 0.  1.
</event>
<event>
 7    1  0.4818508E-009  0.4778730E+02  0.7816164E-02  0.1312668E+00
        -11   -1    0    0    0    0  0.00000000000E+00  0.00000000000E+00  0.45593999997E+02  0.45594000000E+02  0.51100000000E-03 0.  1.
         11   -1    0    0    0    0 -0.00000000000E+00 -0.00000000000E+00 -0.45593999997E+02  0.45594000000E+02  0.51100000000E-03 0. -1.
    9900012    2    1    2    0    0 -0.43130018818E+02 -0.32180048077E+01  0.36147363595E+01  0.47787304186E+02  0.20000151106E+02 0.  0.
         12    1    1    2    0    0  0.43130018818E+02  0.32180048077E+01 -0.36147363595E+01  0.43400695814E+02  0.00000000000E+00 0. -1.
         11    1    3    3    0    0 -0.20956955682E+02 -0.14784510649E+01 -0.35207585617E+01  0.21302008124E+02  0.51100000000E-03 0. -1.
        -11    1    3    3    0    0 -0.16696453306E+02  0.35779710631E+01  0.78985100227E+01  0.18813821801E+02  0.51100000000E-03 0.  1.
         12    1    3    3    0    0 -0.54766098305E+01 -0.53175248060E+01 -0.76301510148E+00  0.76714742614E+01  0.00000000000E+00 0. -1.
</event>
<event>
 7    1  0.4818508E-009  0.4778728E+02  0.7816164E-02  0.1312668E+00
        -11   -1    0    0    0    0  0.00000000000E+00  0.00000000000E+00  0.45593999997E+02  0.45594000000E+02  0.51100000000E-03 0.  1.
         11   -1    0    0    0    0 -0.00000000000E+00 -0.00000000000E+00 -0.45593999997E+02  0.45594000000E+02  0.51100000000E-03 0. -1.
    9900012    2    1    2    0    0 -0.72230610972E+01 -0.27975682802E+02  0.32385353253E+02  0.47787279440E+02  0.20000038278E+02 0.  0.
         12    1    1    2    0    0  0.72230610972E+01  0.27975682802E+02 -0.32385353253E+02  0.43400720560E+02  0.00000000000E+00 0. -1.
         11    1    3    3    0    0  0.15622743069E+01 -0.77304678675E+00 -0.74541718068E+00  0.18957714469E+01  0.51100000000E-03 0. -1.
        -11    1    3    3    0    0 -0.10498070008E+02 -0.26838989282E+02  0.26911851257E+02  0.39430807219E+02  0.51100000000E-03 0.  1.
        -12    1    3    3    0    0  0.17127346035E+01 -0.36364673280E+00  0.62189191767E+01  0.64607007743E+01  0.00000000000E+00 0.  1.
</event>
<event>
 7    1  0.4818508E-009  0.4778727E+02  0.7816164E-02  0.1312668E+00
        -11   -1    0    0    0    0  0.00000000000E+00  0.00000000000E+00  0.45593999997E+02  0.45594000000E+02  0.51100000000E-03 0.  1.
         11   -1    0    0    0    0 -0.00000000000E+00 -0.00000000000E+00 -0.45593999997E+02  0.45594000000E+02  0.51100000000E-03 0. -1.
    9900012    2    1    2    0    0  0.23458001256E+02 -0.19899675317E+02  0.30616142109E+02  0.47787273528E+02  0.20000011324E+02 0.  0.
         12    1    1    2    0    0 -0.23458001256E+02  0.19899675317E+02 -0.30616142109E+02  0.43400726472E+02  0.00000000000E+00 0. -1.
         11    1    3    3    0    0  0.50990803577E+00  0.74212812794E+00  0.34364694302E+01  0.35524755832E+01  0.51100000000E-03 0. -1.
        -11    1    3    3    0    0  0.45802957631E+01 -0.13421885036E+02  0.63449305943E+01  0.15536545681E+02  0.51100000000E-03 0.  1.
        -12    1    3    3    0    0  0.18367797457E+02 -0.72199184087E+01  0.20834742085E+02  0.28698252264E+02  0.00000000000E+00 0.  1.
</event>
<event>
 7    1  0.4818508E-009  0.4778727E+02  0.7816164E-02  0.1312668E+00
        -11   -1    0    0    0    0  0.00000000000E+00  0.00000000000E+00  0.45593999997E+02  0.45594000000E+02  0.51100000000E-03 0.  1.
         11   -1    0    0    0    0 -0.00000000000E+00 -0.00000000000E+00 -0.45593999997E+02  0.45594000000E+02  0.51100000000E-03 0. -1.
    9900012    2    1    2    0    0 -0.89034977219E+01 -0.32658631082E+02  0.27161827627E+02  0.47787270330E+02  0.19999996743E+02 0.  0.
         12    1    1    2    0    0  0.89034977219E+01  0.32658631082E+02 -0.27161827627E+02  0.43400729670E+02  0.00000000000E+00 0. -1.
         11    1    3    3    0    0  0.22260907428E+01 -0.53189620942E+01  0.18969818262E+00  0.57691267464E+01  0.51100000000E-03 0. -1.
        -11    1    3    3    0    0 -0.12841190707E+02 -0.16042213878E+02  0.19747644601E+02  0.28499443371E+02  0.51100000000E-03 0.  1.
        -12    1    3    3    0    0  0.17116022427E+01 -0.11297455110E+02  0.72244848434E+01  0.13518700213E+02  0.00000000000E+00 0.  1.
</event>
