<event>
 7    1  0.3305651E-013  0.7246156E+02  0.7816164E-02  0.1226708E+00
        -11   -1    0    0    0    0  0.00000000000E+00  0.00000000000E+00  0.45593999997E+02  0.45594000000E+02  0.51100000000E-03 0.  1.
         11   -1    0    0    0    0 -0.00000000000E+00 -0.00000000000E+00 -0.45593999997E+02  0.45594000000E+02  0.51100000000E-03 0. -1.
    9900012    2    1    2    0    0 -0.11232665469E+02  0.14982759913E+02  0.15377849449E+00  0.72461561044E+02  0.69999987950E+02 0.  0.
         12    1    1    2    0    0  0.11232665469E+02 -0.14982759913E+02 -0.15377849449E+00  0.18726438956E+02  0.00000000000E+00 0. -1.
         11    1    3    3    0    0 -0.20864799971E+02  0.20598609422E+02  0.68402084545E+01  0.30106993206E+02  0.51100000000E-03 0. -1.
        -11    1    3    3    0    0 -0.19841717836E+01 -0.33205202211E+00  0.16106828123E+02  0.16231977965E+02  0.51100000000E-03 0.  1.
        -12    1    3    3    0    0  0.11616306286E+02 -0.52837974863E+01 -0.22793258083E+02  0.26122589873E+02  0.00000000000E+00 0.  1.
</event>
<event>
 7    1  0.3305651E-013  0.7246156E+02  0.7816164E-02  0.1226708E+00
        -11   -1    0    0    0    0  0.00000000000E+00  0.00000000000E+00  0.45593999997E+02  0.45594000000E+02  0.51100000000E-03 0. -1.
         11   -1    0    0    0    0 -0.00000000000E+00 -0.00000000000E+00 -0.45593999997E+02  0.45594000000E+02  0.51100000000E-03 0.  1.
    9900012    2    1    2    0    0 -0.35218587703E+01 -0.18362400296E+02  0.10479194733E+01  0.72461564967E+02  0.69999993060E+02 0.  0.
         12    1    1    2    0    0  0.35218587703E+01  0.18362400296E+02 -0.10479194733E+01  0.18726435033E+02  0.00000000000E+00 0. -1.
         11    1    3    3    0    0 -0.44782526769E+01 -0.32510008538E+01  0.91147234990E+01  0.10663111099E+02  0.51100000000E-03 0. -1.
        -11    1    3    3    0    0  0.38240430914E+01 -0.32263453306E+02  0.12548101188E+02  0.34828272545E+02  0.51100000000E-03 0.  1.
        -12    1    3    3    0    0 -0.28676491847E+01  0.17152053864E+02 -0.20614905214E+02  0.26970181323E+02  0.00000000000E+00 0.  1.
</event>
<event>
 7    1  0.3305651E-013  0.7246153E+02  0.7816164E-02  0.1226708E+00
        -11   -1    0    0    0    0  0.00000000000E+00  0.00000000000E+00  0.45593999997E+02  0.45594000000E+02  0.51100000000E-03 0.  1.
         11   -1    0    0    0    0 -0.00000000000E+00 -0.00000000000E+00 -0.45593999997E+02  0.45594000000E+02  0.51100000000E-03 0. -1.
    9900012    2    1    2    0    0  0.12083219924E+02 -0.83635540002E+01  0.11607212635E+02  0.72461531449E+02  0.69999949396E+02 0.  0.
         12    1    1    2    0    0 -0.12083219924E+02  0.83635540002E+01 -0.11607212635E+02  0.18726468551E+02  0.00000000000E+00 0. -1.
         11    1    3    3    0    0 -0.74266441193E+01 -0.42577182908E+01 -0.26134932656E+02  0.27501234756E+02  0.51100000000E-03 0. -1.
        -11    1    3    3    0    0  0.57331291073E+00 -0.17859318946E+01 -0.73380274789E+00  0.20141268977E+01  0.51100000000E-03 0.  1.
        -12    1    3    3    0    0  0.18936551133E+02 -0.23199038148E+01  0.38475948039E+02  0.42946169795E+02  0.00000000000E+00 0.  1.
</event>
<event>
 7    1  0.3305651E-013  0.7246163E+02  0.7816164E-02  0.1226708E+00
        -11   -1    0    0    0    0  0.00000000000E+00  0.00000000000E+00  0.45593999997E+02  0.45594000000E+02  0.51100000000E-03 0.  1.
         11   -1    0    0    0    0 -0.00000000000E+00 -0.00000000000E+00 -0.45593999997E+02  0.45594000000E+02  0.51100000000E-03 0. -1.
    9900012    2    1    2    0    0 -0.30635135208E+01  0.10489636350E+02  0.15207214175E+02  0.72461629588E+02  0.70000077241E+02 0.  0.
         12    1    1    2    0    0  0.30635135208E+01 -0.10489636350E+02 -0.15207214175E+02  0.18726370412E+02  0.00000000000E+00 0. -1.
         11    1    3    3    0    0 -0.38658392285E+01  0.85407962434E-01 -0.20162015436E+01  0.43608572995E+01  0.51100000000E-03 0. -1.
        -11    1    3    3    0    0  0.11562996164E+02 -0.25713288064E+02  0.78556458486E+01  0.29267511601E+02  0.51100000000E-03 0.  1.
         12    1    3    3    0    0 -0.10760670456E+02  0.36117516451E+02  0.93677698700E+01  0.38833260688E+02  0.00000000000E+00 0. -1.
</event>
<event>
 7    1  0.3305651E-013  0.7246182E+02  0.7816164E-02  0.1226707E+00
        -11   -1    0    0    0    0  0.00000000000E+00  0.00000000000E+00  0.45593999997E+02  0.45594000000E+02  0.51100000000E-03 0. -1.
         11   -1    0    0    0    0 -0.00000000000E+00 -0.00000000000E+00 -0.45593999997E+02  0.45594000000E+02  0.51100000000E-03 0.  1.
    9900012    2    1    2    0    0  0.11287268803E+01 -0.17542550764E+02 -0.64540417509E+01  0.72461821356E+02  0.70000327054E+02 0.  0.
         12    1    1    2    0    0 -0.11287268803E+01  0.17542550764E+02  0.64540417509E+01  0.18726178644E+02  0.00000000000E+00 0. -1.
         11    1    3    3    0    0  0.16084785490E+02 -0.23043403780E+02 -0.70348357459E+01  0.28969081730E+02  0.51100000000E-03 0. -1.
        -11    1    3    3    0    0 -0.50411059664E+01 -0.11440350511E+02  0.14711648163E+02  0.19306137913E+02  0.51100000000E-03 0.  1.
        -12    1    3    3    0    0 -0.99149526435E+01  0.16941203528E+02 -0.14130854168E+02  0.24186601713E+02  0.00000000000E+00 0.  1.
</event>
<event>
 7    1  0.3305651E-013  0.7246155E+02  0.7816164E-02  0.1226708E+00
        -11   -1    0    0    0    0  0.00000000000E+00  0.00000000000E+00  0.45593999997E+02  0.45594000000E+02  0.51100000000E-03 0. -1.
         11   -1    0    0    0    0 -0.00000000000E+00 -0.00000000000E+00 -0.45593999997E+02  0.45594000000E+02  0.51100000000E-03 0.  1.
    9900012    2    1    2    0    0  0.40042406202E+01 -0.99057053364E+01 -0.15379307096E+02  0.72461547375E+02  0.69999970143E+02 0.  0.
         12    1    1    2    0    0 -0.40042406202E+01  0.99057053364E+01  0.15379307096E+02  0.18726452625E+02  0.00000000000E+00 0. -1.
         11    1    3    3    0    0  0.31500169511E+02  0.42102167935E+01 -0.65933127440E+01  0.32457023552E+02  0.51100000000E-03 0. -1.
        -11    1    3    3    0    0  0.11982653317E+01  0.17898795918E+01 -0.68041295877E+01  0.71369243001E+01  0.51100000000E-03 0.  1.
        -12    1    3    3    0    0 -0.28694194222E+02 -0.15905801722E+02 -0.19818647646E+01  0.32867599523E+02  0.00000000000E+00 0.  1.
</event>
<event>
 7    1  0.3305651E-013  0.7246097E+02  0.7816164E-02  0.1226710E+00
        -11   -1    0    0    0    0  0.00000000000E+00  0.00000000000E+00  0.45593999997E+02  0.45594000000E+02  0.51100000000E-03 0.  1.
         11   -1    0    0    0    0 -0.00000000000E+00 -0.00000000000E+00 -0.45593999997E+02  0.45594000000E+02  0.51100000000E-03 0. -1.
    9900012    2    1    2    0    0 -0.89092024588E+01 -0.72065349218E+00  0.16456261845E+02  0.72460966497E+02  0.69999213437E+02 0.  0.
         12    1    1    2    0    0  0.89092024588E+01  0.72065349218E+00 -0.16456261845E+02  0.18727033503E+02  0.00000000000E+00 0. -1.
         11    1    3    3    0    0 -0.25150544820E+02  0.26690640037E+01  0.33897922115E+01  0.25517925050E+02  0.51100000000E-03 0. -1.
        -11    1    3    3    0    0  0.83818385607E+01  0.18956332171E+02  0.10142712291E+02  0.23075362617E+02  0.51100000000E-03 0.  1.
        -12    1    3    3    0    0  0.78595038003E+01 -0.22346049667E+02  0.29237573430E+01  0.23867678829E+02  0.00000000000E+00 0.  1.
</event>
<event>
 7    1  0.3305651E-013  0.7246159E+02  0.7816164E-02  0.1226708E+00
        -11   -1    0    0    0    0  0.00000000000E+00  0.00000000000E+00  0.45593999997E+02  0.45594000000E+02  0.51100000000E-03 0. -1.
         11   -1    0    0    0    0 -0.00000000000E+00 -0.00000000000E+00 -0.45593999997E+02  0.45594000000E+02  0.51100000000E-03 0.  1.
    9900012    2    1    2    0    0 -0.11241275177E+02 -0.78142592153E+01 -0.12776910497E+02  0.72461592001E+02  0.70000028277E+02 0.  0.
         12    1    1    2    0    0  0.11241275177E+02  0.78142592153E+01  0.12776910497E+02  0.18726407999E+02  0.00000000000E+00 0. -1.
         11    1    3    3    0    0 -0.27257363972E+02 -0.23286595802E+02  0.39331069857E+01  0.36065201588E+02  0.51100000000E-03 0. -1.
        -11    1    3    3    0    0  0.55455892652E+01 -0.60897256231E+01 -0.28949845921E+01  0.87303639393E+01  0.51100000000E-03 0.  1.
         12    1    3    3    0    0  0.10470499529E+02  0.21562062210E+02 -0.13815032890E+02  0.27666026474E+02  0.00000000000E+00 0. -1.
</event>
<event>
 7    1  0.3305651E-013  0.7246151E+02  0.7816164E-02  0.1226708E+00
        -11   -1    0    0    0    0  0.00000000000E+00  0.00000000000E+00  0.45593999997E+02  0.45594000000E+02  0.51100000000E-03 0.  1.
         11   -1    0    0    0    0 -0.00000000000E+00 -0.00000000000E+00 -0.45593999997E+02  0.45594000000E+02  0.51100000000E-03 0. -1.
    9900012    2    1    2    0    0 -0.10597163567E+02 -0.15417435555E+02 -0.82721475936E+00  0.72461508630E+02  0.69999919671E+02 0.  0.
         12    1    1    2    0    0  0.10597163567E+02  0.15417435555E+02  0.82721475936E+00  0.18726491370E+02  0.00000000000E+00 0. -1.
         11    1    3    3    0    0 -0.16153174974E+02  0.11837977733E+02 -0.22854149174E+02  0.30387084646E+02  0.51100000000E-03 0. -1.
        -11    1    3    3    0    0  0.22975506864E+01 -0.10560435201E+02 -0.35343303607E+01  0.11370708956E+02  0.51100000000E-03 0.  1.
        -12    1    3    3    0    0  0.32584607206E+01 -0.16694978087E+02  0.25561264776E+02  0.30703715028E+02  0.00000000000E+00 0.  1.
</event>
<event>
 7    1  0.3305651E-013  0.7246154E+02  0.7816164E-02  0.1226708E+00
        -11   -1    0    0    0    0  0.00000000000E+00  0.00000000000E+00  0.45593999997E+02  0.45594000000E+02  0.51100000000E-03 0. -1.
         11   -1    0    0    0    0 -0.00000000000E+00 -0.00000000000E+00 -0.45593999997E+02  0.45594000000E+02  0.51100000000E-03 0.  1.
    9900012    2    1    2    0    0  0.38497360024E+01 -0.12377483738E+02 -0.13515094577E+02  0.72461538712E+02  0.69999958858E+02 0.  0.
         12    1    1    2    0    0 -0.38497360024E+01  0.12377483738E+02  0.13515094577E+02  0.18726461288E+02  0.00000000000E+00 0. -1.
         11    1    3    3    0    0 -0.24759316191E+02 -0.16219361374E+01  0.23203838285E+01  0.24920645988E+02  0.51100000000E-03 0. -1.
        -11    1    3    3    0    0 -0.21486169367E+01 -0.89582698730E+01  0.48693713487E+01  0.10420073486E+02  0.51100000000E-03 0.  1.
        -12    1    3    3    0    0  0.30757669130E+02 -0.17972777272E+01 -0.20704849754E+02  0.37120819238E+02  0.00000000000E+00 0.  1.
</event>
<event>
 7    1  0.3305651E-013  0.7246158E+02  0.7816164E-02  0.1226708E+00
        -11   -1    0    0    0    0  0.00000000000E+00  0.00000000000E+00  0.45593999997E+02  0.45594000000E+02  0.51100000000E-03 0.  1.
         11   -1    0    0    0    0 -0.00000000000E+00 -0.00000000000E+00 -0.45593999997E+02  0.45594000000E+02  0.51100000000E-03 0. -1.
    9900012    2    1    2    0    0 -0.45798652551E+01  0.16553675808E+02  0.74618690576E+01  0.72461579137E+02  0.70000011519E+02 0.  0.
         12    1    1    2    0    0  0.45798652551E+01 -0.16553675808E+02 -0.74618690576E+01  0.18726420863E+02  0.00000000000E+00 0. -1.
         11    1    3    3    0    0 -0.13843650755E+02  0.54078678587E+01  0.25966614507E+02  0.29919170614E+02  0.51100000000E-03 0. -1.
        -11    1    3    3    0    0  0.45133338509E+01  0.10380861630E+02  0.90985078177E+01  0.14522923790E+02  0.51100000000E-03 0.  1.
         12    1    3    3    0    0  0.47504516487E+01  0.76494631903E+00 -0.27603253268E+02  0.28019484733E+02  0.00000000000E+00 0. -1.
</event>
<event>
 7    1  0.3305651E-013  0.7246159E+02  0.7816164E-02  0.1226708E+00
        -11   -1    0    0    0    0  0.00000000000E+00  0.00000000000E+00  0.45593999997E+02  0.45594000000E+02  0.51100000000E-03 0.  1.
         11   -1    0    0    0    0 -0.00000000000E+00 -0.00000000000E+00 -0.45593999997E+02  0.45594000000E+02  0.51100000000E-03 0. -1.
    9900012    2    1    2    0    0 -0.33875293209E+01  0.64495725174E+00  0.18406174649E+02  0.72461585769E+02  0.70000020158E+02 0.  0.
         12    1    1    2    0    0  0.33875293209E+01 -0.64495725174E+00 -0.18406174649E+02  0.18726414231E+02  0.00000000000E+00 0. -1.
         11    1    3    3    0    0 -0.23006712766E+02  0.87966328030E+00 -0.10708202062E+02  0.25391893026E+02  0.51100000000E-03 0.  1.
        -11    1    3    3    0    0  0.34926514662E+01  0.56943149330E+01 -0.53509182966E+01  0.85589814638E+01  0.51100000000E-03 0. -1.
        -12    1    3    3    0    0  0.16126531979E+02 -0.59290209615E+01  0.34465295007E+02  0.38510711279E+02  0.00000000000E+00 0.  1.
</event>
<event>
 7    1  0.3305651E-013  0.7246117E+02  0.7816164E-02  0.1226709E+00
        -11   -1    0    0    0    0  0.00000000000E+00  0.00000000000E+00  0.45593999997E+02  0.45594000000E+02  0.51100000000E-03 0.  1.
         11   -1    0    0    0    0 -0.00000000000E+00 -0.00000000000E+00 -0.45593999997E+02  0.45594000000E+02  0.51100000000E-03 0. -1.
    9900012    2    1    2    0    0  0.11530593913E+02  0.14752119698E+02 -0.33838785880E+00  0.72461170639E+02  0.69999479372E+02 0.  0.
         12    1    1    2    0    0 -0.11530593913E+02 -0.14752119698E+02  0.33838785880E+00  0.18726829361E+02  0.00000000000E+00 0. -1.
         11    1    3    3    0    0  0.11000187551E+01  0.56378331425E+01  0.11453636537E+02  0.12813313154E+02  0.51100000000E-03 0. -1.
        -11    1    3    3    0    0 -0.45366486012E-01  0.11572211184E+02  0.21632857440E+02  0.24533622870E+02  0.51100000000E-03 0.  1.
         12    1    3    3    0    0  0.10475941644E+02 -0.24579246285E+01 -0.33424881836E+02  0.35114234615E+02  0.00000000000E+00 0. -1.
</event>
<event>
 7    1  0.3305651E-013  0.7246152E+02  0.7816164E-02  0.1226708E+00
        -11   -1    0    0    0    0  0.00000000000E+00  0.00000000000E+00  0.45593999997E+02  0.45594000000E+02  0.51100000000E-03 0.  1.
         11   -1    0    0    0    0 -0.00000000000E+00 -0.00000000000E+00 -0.45593999997E+02  0.45594000000E+02  0.51100000000E-03 0. -1.
    9900012    2    1    2    0    0 -0.30052791733E+01 -0.62680458866E+01  0.17388533204E+02  0.72461516370E+02  0.69999929754E+02 0.  0.
         12    1    1    2    0    0  0.30052791733E+01  0.62680458866E+01 -0.17388533204E+02  0.18726483630E+02  0.00000000000E+00 0. -1.
         11    1    3    3    0    0  0.34792988813E+01  0.31473123066E+01 -0.12937128625E+02  0.13761554883E+02  0.51100000000E-03 0. -1.
        -11    1    3    3    0    0 -0.47645749165E+01  0.15459170087E+02 -0.36240452972E+01  0.16577720546E+02  0.51100000000E-03 0.  1.
        -12    1    3    3    0    0 -0.17200031382E+01 -0.24874528281E+02  0.33949707126E+02  0.42122240942E+02  0.00000000000E+00 0.  1.
</event>
<event>
 7    1  0.3305651E-013  0.7246158E+02  0.7816164E-02  0.1226708E+00
        -11   -1    0    0    0    0  0.00000000000E+00  0.00000000000E+00  0.45593999997E+02  0.45594000000E+02  0.51100000000E-03 0.  1.
         11   -1    0    0    0    0 -0.00000000000E+00 -0.00000000000E+00 -0.45593999997E+02  0.45594000000E+02  0.51100000000E-03 0. -1.
    9900012    2    1    2    0    0  0.94124778267E+01 -0.16797635953E+01  0.16101632528E+02  0.72461577099E+02  0.70000008865E+02 0.  0.
         12    1    1    2    0    0 -0.94124778267E+01  0.16797635953E+01 -0.16101632528E+02  0.18726422901E+02  0.00000000000E+00 0. -1.
         11    1    3    3    0    0  0.11881527848E+02  0.12641822002E+02  0.10188200451E+02  0.20119289158E+02  0.51100000000E-03 0. -1.
        -11    1    3    3    0    0  0.10426516938E+02 -0.75998972966E+01  0.25126912630E+02  0.28245927723E+02  0.51100000000E-03 0.  1.
         12    1    3    3    0    0 -0.12895566960E+02 -0.67216883003E+01 -0.19213480552E+02  0.24096360218E+02  0.00000000000E+00 0. -1.
</event>
<event>
 7    1  0.3305651E-013  0.7246124E+02  0.7816164E-02  0.1226709E+00
        -11   -1    0    0    0    0  0.00000000000E+00  0.00000000000E+00  0.45593999997E+02  0.45594000000E+02  0.51100000000E-03 0.  1.
         11   -1    0    0    0    0 -0.00000000000E+00 -0.00000000000E+00 -0.45593999997E+02  0.45594000000E+02  0.51100000000E-03 0. -1.
    9900012    2    1    2    0    0 -0.50640699963E+01 -0.10658007143E+02  0.14541443904E+02  0.72461240750E+02  0.69999570706E+02 0.  0.
         12    1    1    2    0    0  0.50640699963E+01  0.10658007143E+02 -0.14541443904E+02  0.18726759250E+02  0.00000000000E+00 0. -1.
         11    1    3    3    0    0  0.15134716909E+02 -0.17997661562E+02 -0.17025359845E+02  0.29031678486E+02  0.51100000000E-03 0. -1.
        -11    1    3    3    0    0 -0.33842019628E+01 -0.34278046944E+01  0.19530176343E+02  0.20115428313E+02  0.51100000000E-03 0.  1.
        -12    1    3    3    0    0 -0.16814584943E+02  0.10767459113E+02  0.12036627406E+02  0.23314133950E+02  0.00000000000E+00 0.  1.
</event>
<event>
 7    1  0.3305651E-013  0.7246163E+02  0.7816164E-02  0.1226708E+00
        -11   -1    0    0    0    0  0.00000000000E+00  0.00000000000E+00  0.45593999997E+02  0.45594000000E+02  0.51100000000E-03 0. -1.
         11   -1    0    0    0    0 -0.00000000000E+00 -0.00000000000E+00 -0.45593999997E+02  0.45594000000E+02  0.51100000000E-03 0.  1.
    9900012    2    1    2    0    0 -0.30435747828E+01  0.11747081121E+02 -0.14262531364E+02  0.72461626533E+02  0.70000073262E+02 0.  0.
         12    1    1    2    0    0  0.30435747828E+01 -0.11747081121E+02  0.14262531364E+02  0.18726373467E+02  0.00000000000E+00 0. -1.
         11    1    3    3    0    0 -0.98282717448E+01  0.93856253758E+01  0.58127532255E-02  0.13589883121E+02  0.51100000000E-03 0. -1.
        -11    1    3    3    0    0  0.13164068740E+02 -0.15784523348E+02 -0.28361963018E+02  0.35026344794E+02  0.51100000000E-03 0.  1.
         12    1    3    3    0    0 -0.63793717776E+01  0.18145979093E+02  0.14093618902E+02  0.23845398619E+02  0.00000000000E+00 0. -1.
</event>
<event>
 7    1  0.3305651E-013  0.7246151E+02  0.7816164E-02  0.1226708E+00
        -11   -1    0    0    0    0  0.00000000000E+00  0.00000000000E+00  0.45593999997E+02  0.45594000000E+02  0.51100000000E-03 0. -1.
         11   -1    0    0    0    0 -0.00000000000E+00 -0.00000000000E+00 -0.45593999997E+02  0.45594000000E+02  0.51100000000E-03 0.  1.
    9900012    2    1    2    0    0  0.62856672754E-01 -0.81209871073E+01 -0.16873860014E+02  0.72461507153E+02  0.69999917747E+02 0.  0.
         12    1    1    2    0    0 -0.62856672754E-01  0.81209871073E+01  0.16873860014E+02  0.18726492847E+02  0.00000000000E+00 0. -1.
         11    1    3    3    0    0  0.14213521361E+02  0.15711520155E+02  0.13153949108E+02  0.24937971699E+02  0.51100000000E-03 0. -1.
        -11    1    3    3    0    0 -0.26366662609E+00 -0.43659927637E+01  0.40046002610E+01  0.59302813098E+01  0.51100000000E-03 0.  1.
        -12    1    3    3    0    0 -0.13886998062E+02 -0.19466514498E+02 -0.34032409383E+02  0.41593254145E+02  0.00000000000E+00 0.  1.
</event>
<event>
 7    1  0.3305651E-013  0.7246156E+02  0.7816164E-02  0.1226708E+00
        -11   -1    0    0    0    0  0.00000000000E+00  0.00000000000E+00  0.45593999997E+02  0.45594000000E+02  0.51100000000E-03 0.  1.
         11   -1    0    0    0    0 -0.00000000000E+00 -0.00000000000E+00 -0.45593999997E+02  0.45594000000E+02  0.51100000000E-03 0. -1.
    9900012    2    1    2    0    0  0.59460068101E+01 -0.11799509309E+02  0.13270120152E+02  0.72461561317E+02  0.69999988305E+02 0.  0.
         12    1    1    2    0    0 -0.59460068101E+01  0.11799509309E+02 -0.13270120152E+02  0.18726438683E+02  0.00000000000E+00 0. -1.
         11    1    3    3    0    0  0.65027735758E+01  0.24595705910E+01 -0.16859116534E+02  0.18236374701E+02  0.51100000000E-03 0. -1.
        -11    1    3    3    0    0 -0.30205762259E+01  0.14594151542E+02  0.45368249426E+01  0.15578700870E+02  0.51100000000E-03 0.  1.
        -12    1    3    3    0    0  0.24638094603E+01 -0.28853231442E+02  0.25592411743E+02  0.38646485746E+02  0.00000000000E+00 0.  1.
</event>
<event>
 7    1  0.3305651E-013  0.7246163E+02  0.7816164E-02  0.1226708E+00
        -11   -1    0    0    0    0  0.00000000000E+00  0.00000000000E+00  0.45593999997E+02  0.45594000000E+02  0.51100000000E-03 0. -1.
         11   -1    0    0    0    0 -0.00000000000E+00 -0.00000000000E+00 -0.45593999997E+02  0.45594000000E+02  0.51100000000E-03 0.  1.
    9900012    2    1    2    0    0  0.14576878819E+02  0.32998307294E+01 -0.11282852992E+02  0.72461626871E+02  0.70000073701E+02 0.  0.
         12    1    1    2    0    0 -0.14576878819E+02 -0.32998307294E+01  0.11282852992E+02  0.18726373129E+02  0.00000000000E+00 0. -1.
         11    1    3    3    0    0  0.59218167123E+01 -0.36620740451E+01 -0.27199438855E+02  0.28076470109E+02  0.51100000000E-03 0. -1.
        -11    1    3    3    0    0 -0.93386139869E+01 -0.16834553725E+01 -0.85741853920E+01  0.12789073015E+02  0.51100000000E-03 0.  1.
         12    1    3    3    0    0  0.17993676094E+02  0.86453601470E+01  0.24490771255E+02  0.31596083746E+02  0.00000000000E+00 0. -1.
</event>
<event>
 7    1  0.3305651E-013  0.7246156E+02  0.7816164E-02  0.1226708E+00
        -11   -1    0    0    0    0  0.00000000000E+00  0.00000000000E+00  0.45593999997E+02  0.45594000000E+02  0.51100000000E-03 0. -1.
         11   -1    0    0    0    0 -0.00000000000E+00 -0.00000000000E+00 -0.45593999997E+02  0.45594000000E+02  0.51100000000E-03 0.  1.
    9900012    2    1    2    0    0 -0.88979712434E+01  0.12775921888E+02 -0.10405833617E+02  0.72461562923E+02  0.69999990397E+02 0.  0.
         12    1    1    2    0    0  0.88979712434E+01 -0.12775921888E+02  0.10405833617E+02  0.18726437077E+02  0.00000000000E+00 0. -1.
         11    1    3    3    0    0  0.85018984875E+01 -0.15254861479E+01  0.10285608630E+02  0.13431423269E+02  0.51100000000E-03 0. -1.
        -11    1    3    3    0    0  0.56080735553E+01  0.40873150680E+00  0.14033993430E+02  0.15118548948E+02  0.51100000000E-03 0.  1.
        -12    1    3    3    0    0 -0.23007943286E+02  0.13892676529E+02 -0.34725435677E+02  0.43911590706E+02  0.00000000000E+00 0.  1.
</event>
<event>
 7    1  0.3305651E-013  0.7246155E+02  0.7816164E-02  0.1226708E+00
        -11   -1    0    0    0    0  0.00000000000E+00  0.00000000000E+00  0.45593999997E+02  0.45594000000E+02  0.51100000000E-03 0. -1.
         11   -1    0    0    0    0 -0.00000000000E+00 -0.00000000000E+00 -0.45593999997E+02  0.45594000000E+02  0.51100000000E-03 0.  1.
    9900012    2    1    2    0    0 -0.87692812927E+01 -0.55826150928E+01 -0.15576072775E+02  0.72461550023E+02  0.69999973593E+02 0.  0.
         12    1    1    2    0    0  0.87692812927E+01  0.55826150928E+01  0.15576072775E+02  0.18726449977E+02  0.00000000000E+00 0. -1.
         11    1    3    3    0    0  0.15160619966E+02 -0.25046933235E+02  0.63185190910E+00  0.29284680284E+02  0.51100000000E-03 0. -1.
        -11    1    3    3    0    0  0.31395648640E+01 -0.32838485925E+01 -0.82754625257E+00  0.46179391697E+01  0.51100000000E-03 0.  1.
        -12    1    3    3    0    0 -0.27069466123E+02  0.22748166734E+02 -0.15380378431E+02  0.38558930569E+02  0.00000000000E+00 0.  1.
</event>
<event>
 7    1  0.3305651E-013  0.7246161E+02  0.7816164E-02  0.1226708E+00
        -11   -1    0    0    0    0  0.00000000000E+00  0.00000000000E+00  0.45593999997E+02  0.45594000000E+02  0.51100000000E-03 0.  1.
         11   -1    0    0    0    0 -0.00000000000E+00 -0.00000000000E+00 -0.45593999997E+02  0.45594000000E+02  0.51100000000E-03 0. -1.
    9900012    2    1    2    0    0  0.11846517863E+02 -0.95759617709E+01 -0.10892136141E+02  0.72461610625E+02  0.70000052538E+02 0.  0.
         12    1    1    2    0    0 -0.11846517863E+02  0.95759617709E+01  0.10892136141E+02  0.18726389375E+02  0.00000000000E+00 0. -1.
         11    1    3    3    0    0  0.15478883090E+01  0.10754471441E+02  0.14236762589E+02  0.17909216160E+02  0.51100000000E-03 0. -1.
        -11    1    3    3    0    0 -0.48467196373E+01  0.22792940405E+01  0.92605976355E+01  0.10697875555E+02  0.51100000000E-03 0.  1.
        -12    1    3    3    0    0  0.15145349191E+02 -0.22609727252E+02 -0.34389496366E+02  0.43854518910E+02  0.00000000000E+00 0.  1.
</event>
<event>
 7    1  0.3305651E-013  0.7246160E+02  0.7816164E-02  0.1226708E+00
        -11   -1    0    0    0    0  0.00000000000E+00  0.00000000000E+00  0.45593999997E+02  0.45594000000E+02  0.51100000000E-03 0.  1.
         11   -1    0    0    0    0 -0.00000000000E+00 -0.00000000000E+00 -0.45593999997E+02  0.45594000000E+02  0.51100000000E-03 0. -1.
    9900012    2    1    2    0    0  0.60843554544E+01  0.48155668540E+01  0.17043155956E+02  0.72461595370E+02  0.70000032666E+02 0.  0.
         12    1    1    2    0    0 -0.60843554544E+01 -0.48155668540E+01 -0.17043155956E+02  0.18726404630E+02  0.00000000000E+00 0. -1.
         11    1    3    3    0    0 -0.28344403526E+01 -0.14700913044E+02 -0.19914653887E+02  0.24914741342E+02  0.51100000000E-03 0. -1.
        -11    1    3    3    0    0  0.18469748218E+01  0.72141576508E+00 -0.25488777382E+01  0.32293241838E+01  0.51100000000E-03 0.  1.
        -12    1    3    3    0    0  0.70718209852E+01  0.18795064133E+02  0.39506687581E+02  0.44317529844E+02  0.00000000000E+00 0.  1.
</event>
<event>
 7    1  0.3305651E-013  0.7246160E+02  0.7816164E-02  0.1226708E+00
        -11   -1    0    0    0    0  0.00000000000E+00  0.00000000000E+00  0.45593999997E+02  0.45594000000E+02  0.51100000000E-03 0. -1.
         11   -1    0    0    0    0 -0.00000000000E+00 -0.00000000000E+00 -0.45593999997E+02  0.45594000000E+02  0.51100000000E-03 0.  1.
    9900012    2    1    2    0    0  0.79001979230E+01  0.10735531766E+02 -0.13153452028E+02  0.72461599658E+02  0.70000038252E+02 0.  0.
         12    1    1    2    0    0 -0.79001979230E+01 -0.10735531766E+02  0.13153452028E+02  0.18726400342E+02  0.00000000000E+00 0. -1.
         11    1    3    3    0    0  0.19473463951E+02  0.14897892896E+02  0.11451616136E+02  0.27061088732E+02  0.51100000000E-03 0. -1.
        -11    1    3    3    0    0  0.69295596392E+01  0.91796759240E+01  0.45801763100E+00  0.11510648430E+02  0.51100000000E-03 0.  1.
         12    1    3    3    0    0 -0.18502825667E+02 -0.13342037055E+02 -0.25063085795E+02  0.33889862496E+02  0.00000000000E+00 0. -1.
</event>
<event>
 7    1  0.3305651E-013  0.7246156E+02  0.7816164E-02  0.1226708E+00
        -11   -1    0    0    0    0  0.00000000000E+00  0.00000000000E+00  0.45593999997E+02  0.45594000000E+02  0.51100000000E-03 0.  1.
         11   -1    0    0    0    0 -0.00000000000E+00 -0.00000000000E+00 -0.45593999997E+02  0.45594000000E+02  0.51100000000E-03 0. -1.
    9900012    2    1    2    0    0  0.31186654860E+01 -0.17007818924E+02  0.71894126341E+01  0.72461557919E+02  0.69999983879E+02 0.  0.
         12    1    1    2    0    0 -0.31186654860E+01  0.17007818924E+02 -0.71894126341E+01  0.18726442081E+02  0.00000000000E+00 0. -1.
         11    1    3    3    0    0 -0.43113849958E+01 -0.55333210996E+01  0.69439049068E+01  0.98703342694E+01  0.51100000000E-03 0. -1.
        -11    1    3    3    0    0  0.11350925867E+02 -0.35736712534E+02  0.40781039715E+01  0.37717198637E+02  0.51100000000E-03 0.  1.
         12    1    3    3    0    0 -0.39208753856E+01  0.24262214709E+02 -0.38325962442E+01  0.24874025013E+02  0.00000000000E+00 0. -1.
</event>
<event>
 7    1  0.3305651E-013  0.7246158E+02  0.7816164E-02  0.1226708E+00
        -11   -1    0    0    0    0  0.00000000000E+00  0.00000000000E+00  0.45593999997E+02  0.45594000000E+02  0.51100000000E-03 0. -1.
         11   -1    0    0    0    0 -0.00000000000E+00 -0.00000000000E+00 -0.45593999997E+02  0.45594000000E+02  0.51100000000E-03 0.  1.
    9900012    2    1    2    0    0 -0.61591401815E+01  0.10446750339E+02 -0.14269170277E+02  0.72461579605E+02  0.70000012129E+02 0.  0.
         12    1    1    2    0    0  0.61591401815E+01 -0.10446750339E+02  0.14269170277E+02  0.18726420395E+02  0.00000000000E+00 0. -1.
         11    1    3    3    0    0  0.83234468777E+01 -0.11366081380E+02 -0.30471116813E+02  0.33570173279E+02  0.51100000000E-03 0. -1.
        -11    1    3    3    0    0 -0.94256328276E+01  0.72214495552E+01 -0.48131115297E+01  0.12812413150E+02  0.51100000000E-03 0.  1.
         12    1    3    3    0    0 -0.50569542316E+01  0.14591382163E+02  0.21015058066E+02  0.26078993176E+02  0.00000000000E+00 0. -1.
</event>
<event>
 7    1  0.3305651E-013  0.7246157E+02  0.7816164E-02  0.1226708E+00
        -11   -1    0    0    0    0  0.00000000000E+00  0.00000000000E+00  0.45593999997E+02  0.45594000000E+02  0.51100000000E-03 0.  1.
         11   -1    0    0    0    0 -0.00000000000E+00 -0.00000000000E+00 -0.45593999997E+02  0.45594000000E+02  0.51100000000E-03 0. -1.
    9900012    2    1    2    0    0  0.14586919221E+02 -0.90302306889E+01  0.75070478914E+01  0.72461573573E+02  0.70000004272E+02 0.  0.
         12    1    1    2    0    0 -0.14586919221E+02  0.90302306889E+01 -0.75070478914E+01  0.18726426427E+02  0.00000000000E+00 0. -1.
         11    1    3    3    0    0  0.19993510468E+02  0.15075888292E+02  0.10350067246E+02  0.27095142754E+02  0.51100000000E-03 0. -1.
        -11    1    3    3    0    0  0.14937545377E+02 -0.43137455248E+01  0.42336794413E+01  0.16114053004E+02  0.51100000000E-03 0.  1.
        -12    1    3    3    0    0 -0.20344136623E+02 -0.19792373456E+02 -0.70766987963E+01  0.29252377815E+02  0.00000000000E+00 0.  1.
</event>
<event>
 7    1  0.3305651E-013  0.7246150E+02  0.7816164E-02  0.1226708E+00
        -11   -1    0    0    0    0  0.00000000000E+00  0.00000000000E+00  0.45593999997E+02  0.45594000000E+02  0.51100000000E-03 0.  1.
         11   -1    0    0    0    0 -0.00000000000E+00 -0.00000000000E+00 -0.45593999997E+02  0.45594000000E+02  0.51100000000E-03 0. -1.
    9900012    2    1    2    0    0  0.14232542924E+02  0.12080812099E+02  0.14733107998E+01  0.72461496221E+02  0.69999903506E+02 0.  0.
         12    1    1    2    0    0 -0.14232542924E+02 -0.12080812099E+02 -0.14733107998E+01  0.18726503779E+02  0.00000000000E+00 0. -1.
         11    1    3    3    0    0 -0.55606915029E+00 -0.18001832591E+02 -0.20866835640E+02  0.27564470237E+02  0.51100000000E-03 0. -1.
        -11    1    3    3    0    0 -0.25496751888E+01  0.14300396933E+02  0.38219758498E+01  0.15020309440E+02  0.51100000000E-03 0.  1.
        -12    1    3    3    0    0  0.17338287263E+02  0.15782247757E+02  0.18518170590E+02  0.29876716544E+02  0.00000000000E+00 0.  1.
</event>
<event>
 7    1  0.3305651E-013  0.7246160E+02  0.7816164E-02  0.1226708E+00
        -11   -1    0    0    0    0  0.00000000000E+00  0.00000000000E+00  0.45593999997E+02  0.45594000000E+02  0.51100000000E-03 0.  1.
         11   -1    0    0    0    0 -0.00000000000E+00 -0.00000000000E+00 -0.45593999997E+02  0.45594000000E+02  0.51100000000E-03 0. -1.
    9900012    2    1    2    0    0 -0.31666624785E+01 -0.98155113742E+01  0.15630293112E+02  0.72461599450E+02  0.70000037981E+02 0.  0.
         12    1    1    2    0    0  0.31666624785E+01  0.98155113742E+01 -0.15630293112E+02  0.18726400550E+02  0.00000000000E+00 0. -1.
         11    1    3    3    0    0  0.14695026837E+02  0.12605551823E+02 -0.12238372133E+02  0.22904617509E+02  0.51100000000E-03 0. -1.
        -11    1    3    3    0    0  0.30517572227E+01  0.96984275754E+00 -0.38049518628E+01  0.49730751110E+01  0.51100000000E-03 0.  1.
        -12    1    3    3    0    0 -0.20913446538E+02 -0.23390905955E+02  0.31673617108E+02  0.44583906830E+02  0.00000000000E+00 0.  1.
</event>
<event>
 7    1  0.3305651E-013  0.7246153E+02  0.7816164E-02  0.1226708E+00
        -11   -1    0    0    0    0  0.00000000000E+00  0.00000000000E+00  0.45593999997E+02  0.45594000000E+02  0.51100000000E-03 0.  1.
         11   -1    0    0    0    0 -0.00000000000E+00 -0.00000000000E+00 -0.45593999997E+02  0.45594000000E+02  0.51100000000E-03 0. -1.
    9900012    2    1    2    0    0  0.14210068660E+01  0.18565523922E+02  0.19957196273E+01  0.72461525804E+02  0.69999942042E+02 0.  0.
         12    1    1    2    0    0 -0.14210068660E+01 -0.18565523922E+02 -0.19957196273E+01  0.18726474196E+02  0.00000000000E+00 0. -1.
         11    1    3    3    0    0 -0.20595641121E+02 -0.68283053929E+01 -0.10389526953E+02  0.24057191405E+02  0.51100000000E-03 0. -1.
        -11    1    3    3    0    0 -0.32069347954E+01  0.15556491023E+02  0.14150752584E+02  0.21272814639E+02  0.51100000000E-03 0.  1.
        -12    1    3    3    0    0  0.25223582782E+02  0.98373382914E+01 -0.17655060034E+01  0.27131519760E+02  0.00000000000E+00 0.  1.
</event>
<event>
 7    1  0.3305651E-013  0.7246149E+02  0.7816164E-02  0.1226708E+00
        -11   -1    0    0    0    0  0.00000000000E+00  0.00000000000E+00  0.45593999997E+02  0.45594000000E+02  0.51100000000E-03 0.  1.
         11   -1    0    0    0    0 -0.00000000000E+00 -0.00000000000E+00 -0.45593999997E+02  0.45594000000E+02  0.51100000000E-03 0. -1.
    9900012    2    1    2    0    0 -0.99373585307E+00  0.14051544816E+02  0.12338912692E+02  0.72461489671E+02  0.69999894974E+02 0.  0.
         12    1    1    2    0    0  0.99373585307E+00 -0.14051544816E+02 -0.12338912692E+02  0.18726510329E+02  0.00000000000E+00 0. -1.
         11    1    3    3    0    0  0.22654860976E+01  0.23434931910E+01  0.18135690863E+02  0.18426276643E+02  0.51100000000E-03 0. -1.
        -11    1    3    3    0    0 -0.17490319056E+01 -0.24740573235E+01  0.22311117578E+02  0.22515906379E+02  0.51100000000E-03 0.  1.
         12    1    3    3    0    0 -0.15101900451E+01  0.14182108949E+02 -0.28107895749E+02  0.31519306649E+02  0.00000000000E+00 0. -1.
</event>
<event>
 7    1  0.3305651E-013  0.7246156E+02  0.7816164E-02  0.1226708E+00
        -11   -1    0    0    0    0  0.00000000000E+00  0.00000000000E+00  0.45593999997E+02  0.45594000000E+02  0.51100000000E-03 0.  1.
         11   -1    0    0    0    0 -0.00000000000E+00 -0.00000000000E+00 -0.45593999997E+02  0.45594000000E+02  0.51100000000E-03 0. -1.
    9900012    2    1    2    0    0 -0.13239147729E+02 -0.44261762893E+01  0.12482531024E+02  0.72461557468E+02  0.69999983291E+02 0.  0.
         12    1    1    2    0    0  0.13239147729E+02  0.44261762893E+01 -0.12482531024E+02  0.18726442532E+02  0.00000000000E+00 0. -1.
         11    1    3    3    0    0  0.49604959450E+01  0.17120929476E+02  0.80826268945E+01  0.19571959634E+02  0.51100000000E-03 0. -1.
        -11    1    3    3    0    0  0.60163017710E+01 -0.12537227877E+02  0.18742509490E+02  0.23337944041E+02  0.51100000000E-03 0.  1.
         12    1    3    3    0    0 -0.24215945445E+02 -0.90098778881E+01 -0.14342605360E+02  0.29551653793E+02  0.00000000000E+00 0. -1.
</event>
<event>
 7    1  0.3305651E-013  0.7246159E+02  0.7816164E-02  0.1226708E+00
        -11   -1    0    0    0    0  0.00000000000E+00  0.00000000000E+00  0.45593999997E+02  0.45594000000E+02  0.51100000000E-03 0. -1.
         11   -1    0    0    0    0 -0.00000000000E+00 -0.00000000000E+00 -0.45593999997E+02  0.45594000000E+02  0.51100000000E-03 0.  1.
    9900012    2    1    2    0    0 -0.54727106263E+01  0.12594729184E+02 -0.12731871376E+02  0.72461593149E+02  0.70000029773E+02 0.  0.
         12    1    1    2    0    0  0.54727106263E+01 -0.12594729184E+02  0.12731871376E+02  0.18726406851E+02  0.00000000000E+00 0. -1.
         11    1    3    3    0    0 -0.12013790487E+02 -0.13119139096E+02  0.94431952911E+01  0.20139933219E+02  0.51100000000E-03 0. -1.
        -11    1    3    3    0    0  0.86949010332E+01  0.19896610558E+01 -0.26632472549E+02  0.28086449570E+02  0.51100000000E-03 0.  1.
        -12    1    3    3    0    0 -0.21538211724E+01  0.23724207224E+02  0.44574058827E+01  0.24235210361E+02  0.00000000000E+00 0.  1.
</event>
<event>
 7    1  0.3305651E-013  0.7246152E+02  0.7816164E-02  0.1226708E+00
        -11   -1    0    0    0    0  0.00000000000E+00  0.00000000000E+00  0.45593999997E+02  0.45594000000E+02  0.51100000000E-03 0.  1.
         11   -1    0    0    0    0 -0.00000000000E+00 -0.00000000000E+00 -0.45593999997E+02  0.45594000000E+02  0.51100000000E-03 0. -1.
    9900012    2    1    2    0    0 -0.38475998193E+01 -0.12970841774E+02  0.12947372980E+02  0.72461515338E+02  0.69999928409E+02 0.  0.
         12    1    1    2    0    0  0.38475998193E+01  0.12970841774E+02 -0.12947372980E+02  0.18726484662E+02  0.00000000000E+00 0. -1.
         11    1    3    3    0    0 -0.11640913159E+02 -0.75153399084E+01 -0.19071764254E+02  0.23573785974E+02  0.51100000000E-03 0. -1.
        -11    1    3    3    0    0 -0.46532004680E+01 -0.19780216160E+00 -0.65405495055E+01  0.80293329976E+01  0.51100000000E-03 0.  1.
        -12    1    3    3    0    0  0.12446513807E+02 -0.52576997045E+01  0.38559686740E+02  0.40858396367E+02  0.00000000000E+00 0.  1.
</event>
<event>
 7    1  0.3894401E-013  0.7246156E+02  0.7816164E-02  0.1226708E+00
        -11   -1    0    0    0    0  0.00000000000E+00  0.00000000000E+00  0.45593999997E+02  0.45594000000E+02  0.51100000000E-03 0.  1.
         11   -1    0    0    0    0 -0.00000000000E+00 -0.00000000000E+00 -0.45593999997E+02  0.45594000000E+02  0.51100000000E-03 0. -1.
    9900012    2    1    2    0    0  0.13021732195E+02 -0.13373851851E+02  0.15014299391E+01  0.72461555742E+02  0.69999981042E+02 0.  0.
         12    1    1    2    0    0 -0.13021732195E+02  0.13373851851E+02 -0.15014299391E+01  0.18726444258E+02  0.00000000000E+00 0. -1.
         11    1    3    3    0    0 -0.80870553154E+00 -0.10494044299E+02 -0.13846788444E+02  0.17392887077E+02  0.51100000000E-03 0. -1.
        -11    1    3    3    0    0  0.23812050272E+02 -0.21179392080E+02  0.70884298613E+01  0.32646994122E+02  0.51100000000E-03 0.  1.
         12    1    3    3    0    0 -0.99816125452E+01  0.18299584528E+02  0.82597885219E+01  0.22421674543E+02  0.00000000000E+00 0. -1.
</event>
<event>
 7    1  0.3305651E-013  0.7246161E+02  0.7816164E-02  0.1226708E+00
        -11   -1    0    0    0    0  0.00000000000E+00  0.00000000000E+00  0.45593999997E+02  0.45594000000E+02  0.51100000000E-03 0.  1.
         11   -1    0    0    0    0 -0.00000000000E+00 -0.00000000000E+00 -0.45593999997E+02  0.45594000000E+02  0.51100000000E-03 0. -1.
    9900012    2    1    2    0    0  0.15102802738E+02  0.11042732914E+02 -0.80073928599E+00  0.72461607284E+02  0.70000048185E+02 0.  0.
         12    1    1    2    0    0 -0.15102802738E+02 -0.11042732914E+02  0.80073928599E+00  0.18726392716E+02  0.00000000000E+00 0. -1.
         11    1    3    3    0    0 -0.22154203079E+02  0.82375168028E+01 -0.81192122289E+01  0.24991738727E+02  0.51100000000E-03 0. -1.
        -11    1    3    3    0    0 -0.20643910715E+01 -0.25175154393E+01 -0.49604455666E+01  0.59334319717E+01  0.51100000000E-03 0.  1.
        -12    1    3    3    0    0  0.39321396888E+02  0.53227315507E+01  0.12278918509E+02  0.41536436585E+02  0.00000000000E+00 0.  1.
</event>
<event>
 7    1  0.3305651E-013  0.7246156E+02  0.7816164E-02  0.1226708E+00
        -11   -1    0    0    0    0  0.00000000000E+00  0.00000000000E+00  0.45593999997E+02  0.45594000000E+02  0.51100000000E-03 0.  1.
         11   -1    0    0    0    0 -0.00000000000E+00 -0.00000000000E+00 -0.45593999997E+02  0.45594000000E+02  0.51100000000E-03 0. -1.
    9900012    2    1    2    0    0 -0.89756382586E+01 -0.15947538770E+02  0.39740900490E+01  0.72461562360E+02  0.69999989664E+02 0.  0.
         12    1    1    2    0    0  0.89756382586E+01  0.15947538770E+02 -0.39740900490E+01  0.18726437640E+02  0.00000000000E+00 0. -1.
         11    1    3    3    0    0 -0.60327220241E+01 -0.22342748796E+02 -0.14154325851E+02  0.27128160633E+02  0.51100000000E-03 0. -1.
        -11    1    3    3    0    0  0.26684436510E+01  0.16571262456E+02 -0.65802466613E+01  0.18028504577E+02  0.51100000000E-03 0.  1.
        -12    1    3    3    0    0 -0.56113598856E+01 -0.10176052430E+02  0.24708662561E+02  0.27304897150E+02  0.00000000000E+00 0.  1.
</event>
<event>
 7    1  0.3305651E-013  0.7246157E+02  0.7816164E-02  0.1226708E+00
        -11   -1    0    0    0    0  0.00000000000E+00  0.00000000000E+00  0.45593999997E+02  0.45594000000E+02  0.51100000000E-03 0.  1.
         11   -1    0    0    0    0 -0.00000000000E+00 -0.00000000000E+00 -0.45593999997E+02  0.45594000000E+02  0.51100000000E-03 0. -1.
    9900012    2    1    2    0    0 -0.11024366534E+02 -0.14873644519E+02 -0.28137258351E+01  0.72461574505E+02  0.70000005485E+02 0.  0.
         12    1    1    2    0    0  0.11024366534E+02  0.14873644519E+02  0.28137258351E+01  0.18726425495E+02  0.00000000000E+00 0. -1.
         11    1    3    3    0    0 -0.34033073111E+01 -0.29690331465E+02 -0.79464008207E+00  0.29895312949E+02  0.51100000000E-03 0. -1.
        -11    1    3    3    0    0 -0.44354099459E+01 -0.63851019782E+01 -0.15429753527E+02  0.17277722154E+02  0.51100000000E-03 0.  1.
        -12    1    3    3    0    0 -0.31856492769E+01  0.21201788925E+02  0.13410667774E+02  0.25288539402E+02  0.00000000000E+00 0.  1.
</event>
<event>
 7    1  0.3305651E-013  0.7246158E+02  0.7816164E-02  0.1226708E+00
        -11   -1    0    0    0    0  0.00000000000E+00  0.00000000000E+00  0.45593999997E+02  0.45594000000E+02  0.51100000000E-03 0. -1.
         11   -1    0    0    0    0 -0.00000000000E+00 -0.00000000000E+00 -0.45593999997E+02  0.45594000000E+02  0.51100000000E-03 0.  1.
    9900012    2    1    2    0    0  0.83405623022E+01 -0.11061039492E+02 -0.12600291491E+02  0.72461576961E+02  0.70000008685E+02 0.  0.
         12    1    1    2    0    0 -0.83405623022E+01  0.11061039492E+02  0.12600291491E+02  0.18726423039E+02  0.00000000000E+00 0. -1.
         11    1    3    3    0    0 -0.13470410853E+02 -0.19481038488E+02  0.78792318494E+01  0.24960871858E+02  0.51100000000E-03 0. -1.
        -11    1    3    3    0    0  0.11881633449E+01  0.11538208540E+02 -0.23709622474E+02  0.26394851516E+02  0.51100000000E-03 0.  1.
         12    1    3    3    0    0  0.20622809810E+02 -0.31182095436E+01  0.32300991332E+01  0.21105853587E+02  0.00000000000E+00 0. -1.
</event>
<event>
 7    1  0.3305651E-013  0.7246144E+02  0.7816164E-02  0.1226708E+00
        -11   -1    0    0    0    0  0.00000000000E+00  0.00000000000E+00  0.45593999997E+02  0.45594000000E+02  0.51100000000E-03 0. -1.
         11   -1    0    0    0    0 -0.00000000000E+00 -0.00000000000E+00 -0.45593999997E+02  0.45594000000E+02  0.51100000000E-03 0.  1.
    9900012    2    1    2    0    0  0.82110666257E+01  0.45788613098E+01 -0.16195574131E+02  0.72461435781E+02  0.69999824771E+02 0.  0.
         12    1    1    2    0    0 -0.82110666257E+01 -0.45788613098E+01  0.16195574131E+02  0.18726564219E+02  0.00000000000E+00 0. -1.
         11    1    3    3    0    0  0.10678901800E+02  0.16275097087E+02 -0.34371696762E+02  0.39501028688E+02  0.51100000000E-03 0.  1.
        -11    1    3    3    0    0  0.26694210799E+01 -0.10112304329E+02 -0.31852232021E+01  0.10932984719E+02  0.51100000000E-03 0. -1.
        -12    1    3    3    0    0 -0.51372562542E+01 -0.15839314482E+01  0.21361345833E+02  0.22027422374E+02  0.00000000000E+00 0.  1.
</event>
<event>
 7    1  0.3305651E-013  0.7246163E+02  0.7816164E-02  0.1226708E+00
        -11   -1    0    0    0    0  0.00000000000E+00  0.00000000000E+00  0.45593999997E+02  0.45594000000E+02  0.51100000000E-03 0. -1.
         11   -1    0    0    0    0 -0.00000000000E+00 -0.00000000000E+00 -0.45593999997E+02  0.45594000000E+02  0.51100000000E-03 0.  1.
    9900012    2    1    2    0    0 -0.73130425449E+01 -0.14295825445E+02 -0.96346011571E+01  0.72461634740E+02  0.70000083952E+02 0.  0.
         12    1    1    2    0    0  0.73130425449E+01  0.14295825445E+02  0.96346011571E+01  0.18726365260E+02  0.00000000000E+00 0. -1.
         11    1    3    3    0    0  0.78631171902E+01 -0.12038104892E+02  0.13115232805E+02  0.19461600991E+02  0.51100000000E-03 0. -1.
        -11    1    3    3    0    0 -0.10800553506E+02  0.12128304799E+02  0.84930128617E+01  0.18327001966E+02  0.51100000000E-03 0.  1.
         12    1    3    3    0    0 -0.43756062289E+01 -0.14386025352E+02 -0.31242846824E+02  0.34673031782E+02  0.00000000000E+00 0. -1.
</event>
<event>
 7    1  0.3305651E-013  0.7246154E+02  0.7816164E-02  0.1226708E+00
        -11   -1    0    0    0    0  0.00000000000E+00  0.00000000000E+00  0.45593999997E+02  0.45594000000E+02  0.51100000000E-03 0.  1.
         11   -1    0    0    0    0 -0.00000000000E+00 -0.00000000000E+00 -0.45593999997E+02  0.45594000000E+02  0.51100000000E-03 0. -1.
    9900012    2    1    2    0    0 -0.91924448053E+01 -0.14920062375E+02 -0.66008273826E+01  0.72461542115E+02  0.69999963292E+02 0.  0.
         12    1    1    2    0    0  0.91924448053E+01  0.14920062375E+02  0.66008273826E+01  0.18726457885E+02  0.00000000000E+00 0. -1.
         11    1    3    3    0    0 -0.15054291287E+01 -0.22282021603E+01  0.22359108215E+01  0.34972130606E+01  0.51100000000E-03 0. -1.
        -11    1    3    3    0    0 -0.32391639791E+02 -0.24730204390E+02 -0.29520695506E+01  0.40859711849E+02  0.51100000000E-03 0.  1.
         12    1    3    3    0    0  0.24704624114E+02  0.12038344175E+02 -0.58846686535E+01  0.28104617206E+02  0.00000000000E+00 0. -1.
</event>
<event>
 7    1  0.3305651E-013  0.7246157E+02  0.7816164E-02  0.1226708E+00
        -11   -1    0    0    0    0  0.00000000000E+00  0.00000000000E+00  0.45593999997E+02  0.45594000000E+02  0.51100000000E-03 0. -1.
         11   -1    0    0    0    0 -0.00000000000E+00 -0.00000000000E+00 -0.45593999997E+02  0.45594000000E+02  0.51100000000E-03 0.  1.
    9900012    2    1    2    0    0 -0.59229296043E+01  0.13605937909E+02 -0.11422631245E+02  0.72461570921E+02  0.70000000816E+02 0.  0.
         12    1    1    2    0    0  0.59229296043E+01 -0.13605937909E+02  0.11422631245E+02  0.18726429079E+02  0.00000000000E+00 0. -1.
         11    1    3    3    0    0 -0.10695357187E+02  0.26319728577E+01  0.18421909361E+02  0.21463566601E+02  0.51100000000E-03 0. -1.
        -11    1    3    3    0    0  0.17544013114E+02  0.13994229893E+02 -0.51383494642E+01  0.23022456470E+02  0.51100000000E-03 0.  1.
         12    1    3    3    0    0 -0.12771585532E+02 -0.30202648414E+01 -0.24706191142E+02  0.27975547850E+02  0.00000000000E+00 0. -1.
</event>
<event>
 7    1  0.3305651E-013  0.7246160E+02  0.7816164E-02  0.1226708E+00
        -11   -1    0    0    0    0  0.00000000000E+00  0.00000000000E+00  0.45593999997E+02  0.45594000000E+02  0.51100000000E-03 0. -1.
         11   -1    0    0    0    0 -0.00000000000E+00 -0.00000000000E+00 -0.45593999997E+02  0.45594000000E+02  0.51100000000E-03 0.  1.
    9900012    2    1    2    0    0  0.51661740936E+01 -0.12397692074E+02 -0.13049366132E+02  0.72461599386E+02  0.70000037897E+02 0.  0.
         12    1    1    2    0    0 -0.51661740936E+01  0.12397692074E+02  0.13049366132E+02  0.18726400614E+02  0.00000000000E+00 0. -1.
         11    1    3    3    0    0  0.69024973777E+01  0.86470785076E+01  0.59003632811E+01  0.12539167591E+02  0.51100000000E-03 0. -1.
        -11    1    3    3    0    0  0.21071498769E+02  0.13785505137E-01 -0.19734446760E+02  0.28869649108E+02  0.51100000000E-03 0.  1.
         12    1    3    3    0    0 -0.22807822053E+02 -0.21058556087E+02  0.78471734728E+00  0.31052782687E+02  0.00000000000E+00 0. -1.
</event>
<event>
 7    1  0.3305651E-013  0.7246164E+02  0.7816164E-02  0.1226708E+00
        -11   -1    0    0    0    0  0.00000000000E+00  0.00000000000E+00  0.45593999997E+02  0.45594000000E+02  0.51100000000E-03 0.  1.
         11   -1    0    0    0    0 -0.00000000000E+00 -0.00000000000E+00 -0.45593999997E+02  0.45594000000E+02  0.51100000000E-03 0. -1.
    9900012    2    1    2    0    0  0.98050301410E+01  0.67344645626E+01 -0.14463226704E+02  0.72461640084E+02  0.70000090914E+02 0.  0.
         12    1    1    2    0    0 -0.98050301410E+01 -0.67344645626E+01  0.14463226704E+02  0.18726359916E+02  0.00000000000E+00 0. -1.
         11    1    3    3    0    0  0.11875478867E+02  0.21215632242E+02 -0.73062871731E+01  0.25387238571E+02  0.51100000000E-03 0. -1.
        -11    1    3    3    0    0  0.51562118777E+01  0.14597890029E+02  0.23048945607E+01  0.15652394495E+02  0.51100000000E-03 0.  1.
        -12    1    3    3    0    0 -0.72266606035E+01 -0.29079057708E+02 -0.94618340916E+01  0.31422007018E+02  0.00000000000E+00 0.  1.
</event>
<event>
 7    1  0.3305651E-013  0.7246155E+02  0.7816164E-02  0.1226708E+00
        -11   -1    0    0    0    0  0.00000000000E+00  0.00000000000E+00  0.45593999997E+02  0.45594000000E+02  0.51100000000E-03 0.  1.
         11   -1    0    0    0    0 -0.00000000000E+00 -0.00000000000E+00 -0.45593999997E+02  0.45594000000E+02  0.51100000000E-03 0. -1.
    9900012    2    1    2    0    0 -0.10783538008E+02  0.11288630301E+02  0.10342244035E+02  0.72461551385E+02  0.69999975367E+02 0.  0.
         12    1    1    2    0    0  0.10783538008E+02 -0.11288630301E+02 -0.10342244035E+02  0.18726448615E+02  0.00000000000E+00 0. -1.
         11    1    3    3    0    0  0.55563834696E+01  0.14184340579E+02 -0.18059262914E+02  0.23626381276E+02  0.51100000000E-03 0. -1.
        -11    1    3    3    0    0  0.48824034074E+01 -0.41673279505E+01 -0.57426605612E+01  0.86129342191E+01  0.51100000000E-03 0.  1.
        -12    1    3    3    0    0 -0.21222324885E+02  0.12716176720E+01  0.34144167510E+02  0.40222235890E+02  0.00000000000E+00 0.  1.
</event>
<event>
 7    1  0.3305651E-013  0.7246153E+02  0.7816164E-02  0.1226708E+00
        -11   -1    0    0    0    0  0.00000000000E+00  0.00000000000E+00  0.45593999997E+02  0.45594000000E+02  0.51100000000E-03 0.  1.
         11   -1    0    0    0    0 -0.00000000000E+00 -0.00000000000E+00 -0.45593999997E+02  0.45594000000E+02  0.51100000000E-03 0. -1.
    9900012    2    1    2    0    0  0.38862204185E+00 -0.16532754544E+02  0.87862309255E+01  0.72461525324E+02  0.69999941418E+02 0.  0.
         12    1    1    2    0    0 -0.38862204185E+00  0.16532754544E+02 -0.87862309255E+01  0.18726474676E+02  0.00000000000E+00 0. -1.
         11    1    3    3    0    0 -0.10260435914E+02 -0.27013227259E+02 -0.41438908393E+01  0.29191828029E+02  0.51100000000E-03 0. -1.
        -11    1    3    3    0    0 -0.63408582102E+01 -0.11715568895E+02  0.47893992805E+01  0.14156248907E+02  0.51100000000E-03 0.  1.
         12    1    3    3    0    0  0.16989916166E+02  0.22196041611E+02  0.81407224843E+01  0.29113448389E+02  0.00000000000E+00 0. -1.
</event>
<event>
 7    1  0.3305651E-013  0.7246163E+02  0.7816164E-02  0.1226708E+00
        -11   -1    0    0    0    0  0.00000000000E+00  0.00000000000E+00  0.45593999997E+02  0.45594000000E+02  0.51100000000E-03 0. -1.
         11   -1    0    0    0    0 -0.00000000000E+00 -0.00000000000E+00 -0.45593999997E+02  0.45594000000E+02  0.51100000000E-03 0.  1.
    9900012    2    1    2    0    0  0.10438890646E+02  0.15324698348E+02 -0.26191874070E+01  0.72461629288E+02  0.70000076850E+02 0.  0.
         12    1    1    2    0    0 -0.10438890646E+02 -0.15324698348E+02  0.26191874070E+01  0.18726370712E+02  0.00000000000E+00 0. -1.
         11    1    3    3    0    0 -0.15315888617E+02  0.41311417171E+01  0.21244225090E+02  0.26513390503E+02  0.51100000000E-03 0. -1.
        -11    1    3    3    0    0  0.14168899924E+02  0.26636121388E+01  0.36749451792E+01  0.14878097224E+02  0.51100000000E-03 0.  1.
        -12    1    3    3    0    0  0.11585879339E+02  0.85299444918E+01 -0.27538357676E+02  0.31070141561E+02  0.00000000000E+00 0.  1.
</event>
<event>
 7    1  0.3305651E-013  0.7246163E+02  0.7816164E-02  0.1226708E+00
        -11   -1    0    0    0    0  0.00000000000E+00  0.00000000000E+00  0.45593999997E+02  0.45594000000E+02  0.51100000000E-03 0. -1.
         11   -1    0    0    0    0 -0.00000000000E+00 -0.00000000000E+00 -0.45593999997E+02  0.45594000000E+02  0.51100000000E-03 0.  1.
    9900012    2    1    2    0    0  0.14435417123E+02 -0.11923845725E+02  0.34302959939E+00  0.72461627321E+02  0.70000074288E+02 0.  0.
         12    1    1    2    0    0 -0.14435417123E+02  0.11923845725E+02 -0.34302959939E+00  0.18726372679E+02  0.00000000000E+00 0. -1.
         11    1    3    3    0    0 -0.14149337159E+02 -0.42403917443E+01  0.14836644678E+02  0.20935870886E+02  0.51100000000E-03 0. -1.
        -11    1    3    3    0    0  0.87792613146E+01 -0.22851471955E+02 -0.78915660030E+01  0.25720459054E+02  0.51100000000E-03 0.  1.
         12    1    3    3    0    0  0.19805492967E+02  0.15168017974E+02 -0.66020490755E+01  0.25805297381E+02  0.00000000000E+00 0. -1.
</event>
<event>
 7    1  0.3305651E-013  0.7246160E+02  0.7816164E-02  0.1226708E+00
        -11   -1    0    0    0    0  0.00000000000E+00  0.00000000000E+00  0.45593999997E+02  0.45594000000E+02  0.51100000000E-03 0.  1.
         11   -1    0    0    0    0 -0.00000000000E+00 -0.00000000000E+00 -0.45593999997E+02  0.45594000000E+02  0.51100000000E-03 0. -1.
    9900012    2    1    2    0    0  0.71596527217E+01 -0.11249817706E+01  0.17267071908E+02  0.72461601965E+02  0.70000041257E+02 0.  0.
         12    1    1    2    0    0 -0.71596527217E+01  0.11249817706E+01 -0.17267071908E+02  0.18726398035E+02  0.00000000000E+00 0. -1.
         11    1    3    3    0    0  0.21630868407E+02  0.23090223081E+02  0.87824230988E+01  0.32835709612E+02  0.51100000000E-03 0. -1.
        -11    1    3    3    0    0 -0.18018922028E+01 -0.49101361083E+01  0.14791517340E+02  0.15689016464E+02  0.51100000000E-03 0.  1.
        -12    1    3    3    0    0 -0.12669323482E+02 -0.19305068743E+02 -0.63068685312E+01  0.23936875890E+02  0.00000000000E+00 0.  1.
</event>
<event>
 7    1  0.3305651E-013  0.7246160E+02  0.7816164E-02  0.1226708E+00
        -11   -1    0    0    0    0  0.00000000000E+00  0.00000000000E+00  0.45593999997E+02  0.45594000000E+02  0.51100000000E-03 0.  1.
         11   -1    0    0    0    0 -0.00000000000E+00 -0.00000000000E+00 -0.45593999997E+02  0.45594000000E+02  0.51100000000E-03 0. -1.
    9900012    2    1    2    0    0  0.10938674013E+02 -0.37109117215E+01  0.14739494938E+02  0.72461597089E+02  0.70000034904E+02 0.  0.
         12    1    1    2    0    0 -0.10938674013E+02  0.37109117215E+01 -0.14739494938E+02  0.18726402911E+02  0.00000000000E+00 0. -1.
         11    1    3    3    0    0 -0.18075884258E+02 -0.72999918596E+01 -0.97886506945E-01  0.19494539104E+02  0.51100000000E-03 0. -1.
        -11    1    3    3    0    0  0.85498639221E+01  0.23255376189E+01 -0.14608676859E+02  0.17085717372E+02  0.51100000000E-03 0.  1.
        -12    1    3    3    0    0  0.20464694348E+02  0.12635425192E+01  0.29446058304E+02  0.35881340612E+02  0.00000000000E+00 0.  1.
</event>
<event>
 7    1  0.3305651E-013  0.7246158E+02  0.7816164E-02  0.1226708E+00
        -11   -1    0    0    0    0  0.00000000000E+00  0.00000000000E+00  0.45593999997E+02  0.45594000000E+02  0.51100000000E-03 0.  1.
         11   -1    0    0    0    0 -0.00000000000E+00 -0.00000000000E+00 -0.45593999997E+02  0.45594000000E+02  0.51100000000E-03 0. -1.
    9900012    2    1    2    0    0  0.25963238126E+01 -0.15374803319E+02  0.10370800716E+02  0.72461575303E+02  0.70000006524E+02 0.  0.
         12    1    1    2    0    0 -0.25963238126E+01  0.15374803319E+02 -0.10370800716E+02  0.18726424697E+02  0.00000000000E+00 0. -1.
         11    1    3    3    0    0  0.96990720331E+01  0.13605555731E+02 -0.83430595071E+01  0.18675914629E+02  0.51100000000E-03 0. -1.
        -11    1    3    3    0    0 -0.16723203018E+02 -0.20879570355E+01 -0.39675210401E+01  0.17313760632E+02  0.51100000000E-03 0.  1.
        -12    1    3    3    0    0  0.96204547971E+01 -0.26892402015E+02  0.22681381264E+02  0.36471900042E+02  0.00000000000E+00 0.  1.
</event>
<event>
 7    1  0.3305651E-013  0.7246161E+02  0.7816164E-02  0.1226708E+00
        -11   -1    0    0    0    0  0.00000000000E+00  0.00000000000E+00  0.45593999997E+02  0.45594000000E+02  0.51100000000E-03 0.  1.
         11   -1    0    0    0    0 -0.00000000000E+00 -0.00000000000E+00 -0.45593999997E+02  0.45594000000E+02  0.51100000000E-03 0. -1.
    9900012    2    1    2    0    0 -0.13449873984E+02  0.11078996576E+02  0.68581642400E+01  0.72461609743E+02  0.70000051389E+02 0.  0.
         12    1    1    2    0    0  0.13449873984E+02 -0.11078996576E+02 -0.68581642400E+01  0.18726390257E+02  0.00000000000E+00 0. -1.
         11    1    3    3    0    0  0.10428685908E+02  0.15126319037E+01 -0.47148849892E+00  0.10548357536E+02  0.51100000000E-03 0. -1.
        -11    1    3    3    0    0  0.17391787014E+02  0.93844217817E+01 -0.10909748671E+01  0.19792217009E+02  0.51100000000E-03 0.  1.
         12    1    3    3    0    0 -0.41270346905E+02  0.18194289043E+00  0.84206276061E+01  0.42121035198E+02  0.00000000000E+00 0. -1.
</event>
<event>
 7    1  0.3305651E-013  0.7246118E+02  0.7816164E-02  0.1226709E+00
        -11   -1    0    0    0    0  0.00000000000E+00  0.00000000000E+00  0.45593999997E+02  0.45594000000E+02  0.51100000000E-03 0.  1.
         11   -1    0    0    0    0 -0.00000000000E+00 -0.00000000000E+00 -0.45593999997E+02  0.45594000000E+02  0.51100000000E-03 0. -1.
    9900012    2    1    2    0    0  0.75116936546E+01 -0.87150149464E+01 -0.14775552281E+02  0.72461175062E+02  0.69999485134E+02 0.  0.
         12    1    1    2    0    0 -0.75116936546E+01  0.87150149464E+01  0.14775552281E+02  0.18726824938E+02  0.00000000000E+00 0. -1.
         11    1    3    3    0    0  0.20684495504E+02  0.17966990732E+02 -0.25897637220E+01  0.27520319522E+02  0.51100000000E-03 0. -1.
        -11    1    3    3    0    0 -0.53401747931E+01  0.36452752856E+01 -0.11984937996E+02  0.13617791222E+02  0.51100000000E-03 0.  1.
        -12    1    3    3    0    0 -0.78326270559E+01 -0.30327280964E+02 -0.20085056260E+00  0.31323064317E+02  0.00000000000E+00 0.  1.
</event>
<event>
 7    1  0.3305651E-013  0.7246157E+02  0.7816164E-02  0.1226708E+00
        -11   -1    0    0    0    0  0.00000000000E+00  0.00000000000E+00  0.45593999997E+02  0.45594000000E+02  0.51100000000E-03 0.  1.
         11   -1    0    0    0    0 -0.00000000000E+00 -0.00000000000E+00 -0.45593999997E+02  0.45594000000E+02  0.51100000000E-03 0. -1.
    9900012    2    1    2    0    0  0.14907108341E+02  0.82858186144E+01  0.77332002843E+01  0.72461573329E+02  0.70000003954E+02 0.  0.
         12    1    1    2    0    0 -0.14907108341E+02 -0.82858186144E+01 -0.77332002843E+01  0.18726426671E+02  0.00000000000E+00 0. -1.
         11    1    3    3    0    0  0.19633776556E+01  0.13748223545E+02  0.77519531054E+01  0.15904756511E+02  0.51100000000E-03 0. -1.
        -11    1    3    3    0    0  0.21146347962E+01  0.20362484697E+02  0.14429066200E+02  0.25045966043E+02  0.51100000000E-03 0.  1.
         12    1    3    3    0    0  0.10829095890E+02 -0.25824889628E+02 -0.14447819022E+02  0.31510850775E+02  0.00000000000E+00 0. -1.
</event>
<event>
 7    1  0.3305651E-013  0.7246158E+02  0.7816164E-02  0.1226708E+00
        -11   -1    0    0    0    0  0.00000000000E+00  0.00000000000E+00  0.45593999997E+02  0.45594000000E+02  0.51100000000E-03 0.  1.
         11   -1    0    0    0    0 -0.00000000000E+00 -0.00000000000E+00 -0.45593999997E+02  0.45594000000E+02  0.51100000000E-03 0. -1.
    9900012    2    1    2    0    0  0.74565786582E+01 -0.61953005839E+01  0.16021753181E+02  0.72461577768E+02  0.70000009736E+02 0.  0.
         12    1    1    2    0    0 -0.74565786582E+01  0.61953005839E+01 -0.16021753181E+02  0.18726422232E+02  0.00000000000E+00 0. -1.
         11    1    3    3    0    0  0.21001839104E+02 -0.85459598264E+01  0.23887643348E+02  0.32935242220E+02  0.51100000000E-03 0. -1.
        -11    1    3    3    0    0  0.10121574746E+02 -0.33032413349E+01  0.52639246863E+01  0.11877145365E+02  0.51100000000E-03 0.  1.
         12    1    3    3    0    0 -0.23666835192E+02  0.56539005773E+01 -0.13129814853E+02  0.27649190184E+02  0.00000000000E+00 0. -1.
</event>
<event>
 7    1  0.3305651E-013  0.7246157E+02  0.7816164E-02  0.1226708E+00
        -11   -1    0    0    0    0  0.00000000000E+00  0.00000000000E+00  0.45593999997E+02  0.45594000000E+02  0.51100000000E-03 0. -1.
         11   -1    0    0    0    0 -0.00000000000E+00 -0.00000000000E+00 -0.45593999997E+02  0.45594000000E+02  0.51100000000E-03 0.  1.
    9900012    2    1    2    0    0  0.91978556280E+01 -0.46442963962E+01 -0.15636790358E+02  0.72461568149E+02  0.69999997205E+02 0.  0.
         12    1    1    2    0    0 -0.91978556280E+01  0.46442963962E+01  0.15636790358E+02  0.18726431851E+02  0.00000000000E+00 0. -1.
         11    1    3    3    0    0 -0.30152560464E+01 -0.32935751545E+01  0.23101297922E+02  0.23528905037E+02  0.51100000000E-03 0. -1.
        -11    1    3    3    0    0  0.13093327287E+01  0.29651035387E+01  0.36913657134E+01  0.49124710972E+01  0.51100000000E-03 0.  1.
        -12    1    3    3    0    0  0.10903778946E+02 -0.43158247804E+01 -0.42429453993E+02  0.44020192014E+02  0.00000000000E+00 0.  1.
</event>
<event>
 7    1  0.3305651E-013  0.7246157E+02  0.7816164E-02  0.1226708E+00
        -11   -1    0    0    0    0  0.00000000000E+00  0.00000000000E+00  0.45593999997E+02  0.45594000000E+02  0.51100000000E-03 0. -1.
         11   -1    0    0    0    0 -0.00000000000E+00 -0.00000000000E+00 -0.45593999997E+02  0.45594000000E+02  0.51100000000E-03 0.  1.
    9900012    2    1    2    0    0 -0.16880684383E+01 -0.14293273917E+02  0.11980481188E+02  0.72461569913E+02  0.69999999503E+02 0.  0.
         12    1    1    2    0    0  0.16880684383E+01  0.14293273917E+02 -0.11980481188E+02  0.18726430087E+02  0.00000000000E+00 0. -1.
         11    1    3    3    0    0  0.12329972239E+01 -0.16632737766E+01  0.23488515430E+01  0.31311125247E+01  0.51100000000E-03 0. -1.
        -11    1    3    3    0    0  0.26178622248E+02  0.31963549224E+01 -0.12809807918E+02  0.29319415525E+02  0.51100000000E-03 0.  1.
         12    1    3    3    0    0 -0.29099687910E+02 -0.15826355063E+02  0.22441437562E+02  0.40011041863E+02  0.00000000000E+00 0. -1.
</event>
<event>
 7    1  0.3305651E-013  0.7246168E+02  0.7816164E-02  0.1226708E+00
        -11   -1    0    0    0    0  0.00000000000E+00  0.00000000000E+00  0.45593999997E+02  0.45594000000E+02  0.51100000000E-03 0.  1.
         11   -1    0    0    0    0 -0.00000000000E+00 -0.00000000000E+00 -0.45593999997E+02  0.45594000000E+02  0.51100000000E-03 0. -1.
    9900012    2    1    2    0    0 -0.96709093049E+01 -0.93600586858E+01  0.13020669220E+02  0.72461681293E+02  0.70000144596E+02 0.  0.
         12    1    1    2    0    0  0.96709093049E+01  0.93600586858E+01 -0.13020669220E+02  0.18726318707E+02  0.00000000000E+00 0. -1.
         11    1    3    3    0    0 -0.72384522075E+01 -0.29822551805E+02  0.16829968605E+01  0.30734545144E+02  0.51100000000E-03 0. -1.
        -11    1    3    3    0    0 -0.46757146366E+01 -0.22798395955E+01  0.17336573951E+02  0.18100187086E+02  0.51100000000E-03 0.  1.
         12    1    3    3    0    0  0.22432575391E+01  0.22742332715E+02 -0.59989015908E+01  0.23626949062E+02  0.00000000000E+00 0. -1.
</event>
<event>
 7    1  0.3305651E-013  0.7246160E+02  0.7816164E-02  0.1226708E+00
        -11   -1    0    0    0    0  0.00000000000E+00  0.00000000000E+00  0.45593999997E+02  0.45594000000E+02  0.51100000000E-03 0. -1.
         11   -1    0    0    0    0 -0.00000000000E+00 -0.00000000000E+00 -0.45593999997E+02  0.45594000000E+02  0.51100000000E-03 0.  1.
    9900012    2    1    2    0    0  0.18703815109E+02 -0.66774519137E+00 -0.63204112410E+00  0.72461599939E+02  0.70000038617E+02 0.  0.
         12    1    1    2    0    0 -0.18703815109E+02  0.66774519137E+00  0.63204112410E+00  0.18726400061E+02  0.00000000000E+00 0. -1.
         11    1    3    3    0    0 -0.70875331709E+01  0.86688808983E+01 -0.16095556232E+01  0.11312528101E+02  0.51100000000E-03 0. -1.
        -11    1    3    3    0    0  0.63270675572E+01  0.11363758579E+01 -0.25707444250E+02  0.26498977793E+02  0.51100000000E-03 0.  1.
         12    1    3    3    0    0  0.19464280723E+02 -0.10473001948E+02  0.26684958749E+02  0.34650094044E+02  0.00000000000E+00 0. -1.
</event>
<event>
 7    1  0.3305651E-013  0.7246149E+02  0.7816164E-02  0.1226708E+00
        -11   -1    0    0    0    0  0.00000000000E+00  0.00000000000E+00  0.45593999997E+02  0.45594000000E+02  0.51100000000E-03 0.  1.
         11   -1    0    0    0    0 -0.00000000000E+00 -0.00000000000E+00 -0.45593999997E+02  0.45594000000E+02  0.51100000000E-03 0. -1.
    9900012    2    1    2    0    0 -0.12891734421E+02 -0.12325691380E+02  0.57063647501E+01  0.72461492503E+02  0.69999898662E+02 0.  0.
         12    1    1    2    0    0  0.12891734421E+02  0.12325691380E+02 -0.57063647501E+01  0.18726507497E+02  0.00000000000E+00 0. -1.
         11    1    3    3    0    0  0.20414857986E+02  0.88772758820E+01  0.13058567029E+02  0.25808886586E+02  0.51100000000E-03 0. -1.
        -11    1    3    3    0    0 -0.85948183742E+01 -0.53770467607E+01  0.85621179377E+01  0.13270018786E+02  0.51100000000E-03 0.  1.
        -12    1    3    3    0    0 -0.24711774033E+02 -0.15825920501E+02 -0.15914320216E+02  0.33382587131E+02  0.00000000000E+00 0.  1.
</event>
<event>
 7    1  0.3305651E-013  0.7246155E+02  0.7816164E-02  0.1226708E+00
        -11   -1    0    0    0    0  0.00000000000E+00  0.00000000000E+00  0.45593999997E+02  0.45594000000E+02  0.51100000000E-03 0. -1.
         11   -1    0    0    0    0 -0.00000000000E+00 -0.00000000000E+00 -0.45593999997E+02  0.45594000000E+02  0.51100000000E-03 0.  1.
    9900012    2    1    2    0    0  0.94368820450E+01 -0.17176794896E+01 -0.16083364795E+02  0.72461553762E+02  0.69999978464E+02 0.  0.
         12    1    1    2    0    0 -0.94368820450E+01  0.17176794896E+01  0.16083364795E+02  0.18726446238E+02  0.00000000000E+00 0. -1.
         11    1    3    3    0    0  0.53615037233E+01  0.82248990149E+01  0.83521327851E+01  0.12890027475E+02  0.51100000000E-03 0. -1.
        -11    1    3    3    0    0  0.16383235319E+02 -0.26333363358E+02 -0.51706065865E+01  0.31441876503E+02  0.51100000000E-03 0.  1.
         12    1    3    3    0    0 -0.12307856997E+02  0.16390784854E+02 -0.19264890994E+02  0.28129649785E+02  0.00000000000E+00 0. -1.
</event>
<event>
 7    1  0.3305651E-013  0.7246160E+02  0.7816164E-02  0.1226708E+00
        -11   -1    0    0    0    0  0.00000000000E+00  0.00000000000E+00  0.45593999997E+02  0.45594000000E+02  0.51100000000E-03 0. -1.
         11   -1    0    0    0    0 -0.00000000000E+00 -0.00000000000E+00 -0.45593999997E+02  0.45594000000E+02  0.51100000000E-03 0.  1.
    9900012    2    1    2    0    0  0.11256366185E+00 -0.12541593261E+02 -0.13905891474E+02  0.72461600191E+02  0.70000038946E+02 0.  0.
         12    1    1    2    0    0 -0.11256366185E+00  0.12541593261E+02  0.13905891474E+02  0.18726399809E+02  0.00000000000E+00 0. -1.
         11    1    3    3    0    0  0.20265191496E+02 -0.30353925021E+02  0.45317704004E+01  0.36777380192E+02  0.51100000000E-03 0. -1.
        -11    1    3    3    0    0 -0.96983469314E+01  0.39580524824E+00 -0.91835715481E+01  0.13362356889E+02  0.51100000000E-03 0.  1.
        -12    1    3    3    0    0 -0.10454280903E+02  0.17416526512E+02 -0.92540903263E+01  0.22321863110E+02  0.00000000000E+00 0.  1.
</event>
<event>
 7    1  0.3305651E-013  0.7246185E+02  0.7816164E-02  0.1226707E+00
        -11   -1    0    0    0    0  0.00000000000E+00  0.00000000000E+00  0.45593999997E+02  0.45594000000E+02  0.51100000000E-03 0. -1.
         11   -1    0    0    0    0 -0.00000000000E+00 -0.00000000000E+00 -0.45593999997E+02  0.45594000000E+02  0.51100000000E-03 0.  1.
    9900012    2    1    2    0    0 -0.16702525490E+02  0.32129323999E+01 -0.78339954522E+01  0.72461847777E+02  0.70000361472E+02 0.  0.
         12    1    1    2    0    0  0.16702525490E+02 -0.32129323999E+01  0.78339954522E+01  0.18726152223E+02  0.00000000000E+00 0. -1.
         11    1    3    3    0    0 -0.51595704108E+01  0.18301793052E+01  0.84118589166E+01  0.10036438303E+02  0.51100000000E-03 0. -1.
        -11    1    3    3    0    0  0.13095786484E+02  0.23034675594E+02 -0.12853029977E+02  0.29449894451E+02  0.51100000000E-03 0.  1.
         12    1    3    3    0    0 -0.24638741563E+02 -0.21651922499E+02 -0.33928243919E+01  0.32975515023E+02  0.00000000000E+00 0. -1.
</event>
<event>
 7    1  0.3305651E-013  0.7246160E+02  0.7816164E-02  0.1226708E+00
        -11   -1    0    0    0    0  0.00000000000E+00  0.00000000000E+00  0.45593999997E+02  0.45594000000E+02  0.51100000000E-03 0. -1.
         11   -1    0    0    0    0 -0.00000000000E+00 -0.00000000000E+00 -0.45593999997E+02  0.45594000000E+02  0.51100000000E-03 0.  1.
    9900012    2    1    2    0    0  0.11170725484E+02 -0.41704701669E+01 -0.14439539318E+02  0.72461595514E+02  0.70000032853E+02 0.  0.
         12    1    1    2    0    0 -0.11170725484E+02  0.41704701669E+01  0.14439539318E+02  0.18726404486E+02  0.00000000000E+00 0. -1.
         11    1    3    3    0    0  0.67276287230E+01  0.23076064774E+02  0.10860443647E+02  0.26376409728E+02  0.51100000000E-03 0. -1.
        -11    1    3    3    0    0  0.72703785342E+00  0.51171478535E+01 -0.70610045393E+01  0.87505183596E+01  0.51100000000E-03 0.  1.
        -12    1    3    3    0    0  0.37160589079E+01 -0.32363682794E+02 -0.18238978426E+02  0.37334667426E+02  0.00000000000E+00 0.  1.
</event>
<event>
 7    1  0.3305651E-013  0.7246214E+02  0.7816164E-02  0.1226706E+00
        -11   -1    0    0    0    0  0.00000000000E+00  0.00000000000E+00  0.45593999997E+02  0.45594000000E+02  0.51100000000E-03 0.  1.
         11   -1    0    0    0    0 -0.00000000000E+00 -0.00000000000E+00 -0.45593999997E+02  0.45594000000E+02  0.51100000000E-03 0. -1.
    9900012    2    1    2    0    0  0.13437161885E+02 -0.25928620869E+01  0.12781921326E+02  0.72462141779E+02  0.70000744461E+02 0.  0.
         12    1    1    2    0    0 -0.13437161885E+02  0.25928620869E+01 -0.12781921326E+02  0.18725858221E+02  0.00000000000E+00 0. -1.
         11    1    3    3    0    0  0.23254359501E+02 -0.21800252388E+01  0.23754406559E+02  0.33313504425E+02  0.51100000000E-03 0. -1.
        -11    1    3    3    0    0  0.73621829347E+01 -0.58915686929E+01  0.84390172968E+01  0.12654221921E+02  0.51100000000E-03 0.  1.
        -12    1    3    3    0    0 -0.17179380550E+02  0.54787318448E+01 -0.19411502529E+02  0.26494415433E+02  0.00000000000E+00 0.  1.
</event>
<event>
 7    1  0.3305651E-013  0.7246161E+02  0.7816164E-02  0.1226708E+00
        -11   -1    0    0    0    0  0.00000000000E+00  0.00000000000E+00  0.45593999997E+02  0.45594000000E+02  0.51100000000E-03 0. -1.
         11   -1    0    0    0    0 -0.00000000000E+00 -0.00000000000E+00 -0.45593999997E+02  0.45594000000E+02  0.51100000000E-03 0.  1.
    9900012    2    1    2    0    0 -0.42304804980E+01  0.18067859989E+02 -0.25165460609E+01  0.72461613966E+02  0.70000056891E+02 0.  0.
         12    1    1    2    0    0  0.42304804980E+01 -0.18067859989E+02  0.25165460609E+01  0.18726386034E+02  0.00000000000E+00 0. -1.
         11    1    3    3    0    0 -0.20542423417E+02 -0.66442293718E+01 -0.21392988893E+02  0.30394027667E+02  0.51100000000E-03 0. -1.
        -11    1    3    3    0    0 -0.93131716435E-01  0.18618930964E+01  0.13250746981E+02  0.13381241170E+02  0.51100000000E-03 0.  1.
        -12    1    3    3    0    0  0.16405074635E+02  0.22850196264E+02  0.56256958504E+01  0.28686345130E+02  0.00000000000E+00 0.  1.
</event>
<event>
 7    1  0.3305651E-013  0.7246191E+02  0.7816164E-02  0.1226707E+00
        -11   -1    0    0    0    0  0.00000000000E+00  0.00000000000E+00  0.45593999997E+02  0.45594000000E+02  0.51100000000E-03 0.  1.
         11   -1    0    0    0    0 -0.00000000000E+00 -0.00000000000E+00 -0.45593999997E+02  0.45594000000E+02  0.51100000000E-03 0. -1.
    9900012    2    1    2    0    0 -0.12413728317E+02  0.73296640025E+01  0.11951651834E+02  0.72461905728E+02  0.70000436964E+02 0.  0.
         12    1    1    2    0    0  0.12413728317E+02 -0.73296640025E+01 -0.11951651834E+02  0.18726094272E+02  0.00000000000E+00 0. -1.
         11    1    3    3    0    0  0.15685798575E+01 -0.25046955101E+01 -0.12600367492E+02  0.12942302870E+02  0.51100000000E-03 0. -1.
        -11    1    3    3    0    0 -0.70777579208E+01 -0.20474794515E+02  0.34214578305E+01  0.21932128067E+02  0.51100000000E-03 0.  1.
        -12    1    3    3    0    0 -0.69045502535E+01  0.30309154028E+02  0.21130561496E+02  0.37587474791E+02  0.00000000000E+00 0.  1.
</event>
<event>
 7    1  0.3305651E-013  0.7246167E+02  0.7816164E-02  0.1226708E+00
        -11   -1    0    0    0    0  0.00000000000E+00  0.00000000000E+00  0.45593999997E+02  0.45594000000E+02  0.51100000000E-03 0.  1.
         11   -1    0    0    0    0 -0.00000000000E+00 -0.00000000000E+00 -0.45593999997E+02  0.45594000000E+02  0.51100000000E-03 0. -1.
    9900012    2    1    2    0    0  0.13343249648E+02 -0.12572804768E+02 -0.38154593242E+01  0.72461669320E+02  0.70000128999E+02 0.  0.
         12    1    1    2    0    0 -0.13343249648E+02  0.12572804768E+02  0.38154593242E+01  0.18726330680E+02  0.00000000000E+00 0. -1.
         11    1    3    3    0    0 -0.10020686615E+02 -0.74291221615E+01 -0.31725037439E+02  0.34089353427E+02  0.51100000000E-03 0. -1.
        -11    1    3    3    0    0  0.11012526371E+02  0.19407690267E+00  0.56924176703E+01  0.12398266899E+02  0.51100000000E-03 0.  1.
        -12    1    3    3    0    0  0.12351409892E+02 -0.53377595090E+01  0.22217160445E+02  0.25974048993E+02  0.00000000000E+00 0.  1.
</event>
<event>
 7    1  0.3305651E-013  0.7246153E+02  0.7816164E-02  0.1226708E+00
        -11   -1    0    0    0    0  0.00000000000E+00  0.00000000000E+00  0.45593999997E+02  0.45594000000E+02  0.51100000000E-03 0. -1.
         11   -1    0    0    0    0 -0.00000000000E+00 -0.00000000000E+00 -0.45593999997E+02  0.45594000000E+02  0.51100000000E-03 0.  1.
    9900012    2    1    2    0    0  0.10645706288E+02 -0.12095222292E+02 -0.95422951432E+01  0.72461525124E+02  0.69999941158E+02 0.  0.
         12    1    1    2    0    0 -0.10645706288E+02  0.12095222292E+02  0.95422951432E+01  0.18726474876E+02  0.00000000000E+00 0. -1.
         11    1    3    3    0    0 -0.55509619600E+01  0.23979652107E+02  0.53509469367E+01  0.25188678553E+02  0.51100000000E-03 0. -1.
        -11    1    3    3    0    0  0.94692101675E+00 -0.17370742661E+02  0.24308553722E+01  0.17565546337E+02  0.51100000000E-03 0.  1.
        -12    1    3    3    0    0  0.15249747231E+02 -0.18704131739E+02 -0.17324097452E+02  0.29707300235E+02  0.00000000000E+00 0.  1.
</event>
<event>
 7    1  0.3305651E-013  0.7246148E+02  0.7816164E-02  0.1226708E+00
        -11   -1    0    0    0    0  0.00000000000E+00  0.00000000000E+00  0.45593999997E+02  0.45594000000E+02  0.51100000000E-03 0.  1.
         11   -1    0    0    0    0 -0.00000000000E+00 -0.00000000000E+00 -0.45593999997E+02  0.45594000000E+02  0.51100000000E-03 0. -1.
    9900012    2    1    2    0    0  0.16167953680E+02 -0.33067310059E+00  0.94430032012E+01  0.72461484565E+02  0.69999888321E+02 0.  0.
         12    1    1    2    0    0 -0.16167953680E+02  0.33067310059E+00 -0.94430032012E+01  0.18726515435E+02  0.00000000000E+00 0. -1.
         11    1    3    3    0    0  0.19998603935E+02 -0.63878656506E+01 -0.16329061886E+01  0.21057430275E+02  0.51100000000E-03 0. -1.
        -11    1    3    3    0    0  0.17548713871E+02 -0.80607654871E+01 -0.64531502164E+01  0.20361150427E+02  0.51100000000E-03 0.  1.
        -12    1    3    3    0    0 -0.21379364126E+02  0.14117958037E+02  0.17529059606E+02  0.31042903863E+02  0.00000000000E+00 0.  1.
</event>
<event>
 7    1  0.3305651E-013  0.7246171E+02  0.7816164E-02  0.1226708E+00
        -11   -1    0    0    0    0  0.00000000000E+00  0.00000000000E+00  0.45593999997E+02  0.45594000000E+02  0.51100000000E-03 0.  1.
         11   -1    0    0    0    0 -0.00000000000E+00 -0.00000000000E+00 -0.45593999997E+02  0.45594000000E+02  0.51100000000E-03 0. -1.
    9900012    2    1    2    0    0  0.10613394694E+02 -0.14479125136E+02 -0.53277410800E+01  0.72461707344E+02  0.70000178532E+02 0.  0.
         12    1    1    2    0    0 -0.10613394694E+02  0.14479125136E+02  0.53277410800E+01  0.18726292656E+02  0.00000000000E+00 0. -1.
         11    1    3    3    0    0  0.53418529286E+01  0.86792329477E+01 -0.17746155673E+02  0.20464371935E+02  0.51100000000E-03 0. -1.
        -11    1    3    3    0    0 -0.13939022404E+02 -0.14910364514E+01  0.17682829539E+02  0.22565504560E+02  0.51100000000E-03 0.  1.
         12    1    3    3    0    0  0.19210564169E+02 -0.21667321632E+02 -0.52644149463E+01  0.29431830849E+02  0.00000000000E+00 0. -1.
</event>
<event>
 7    1  0.3305651E-013  0.7246166E+02  0.7816164E-02  0.1226708E+00
        -11   -1    0    0    0    0  0.00000000000E+00  0.00000000000E+00  0.45593999997E+02  0.45594000000E+02  0.51100000000E-03 0.  1.
         11   -1    0    0    0    0 -0.00000000000E+00 -0.00000000000E+00 -0.45593999997E+02  0.45594000000E+02  0.51100000000E-03 0. -1.
    9900012    2    1    2    0    0  0.16015239092E+02 -0.80970960052E+01 -0.53502470328E+01  0.72461655183E+02  0.70000110583E+02 0.  0.
         12    1    1    2    0    0 -0.16015239092E+02  0.80970960052E+01  0.53502470328E+01  0.18726344817E+02  0.00000000000E+00 0. -1.
         11    1    3    3    0    0  0.47716256445E+01 -0.26269903514E+02 -0.10993721927E+01  0.26722366314E+02  0.51100000000E-03 0. -1.
        -11    1    3    3    0    0 -0.84707557939E+01  0.90447238728E+01 -0.16626600698E+02  0.20736551900E+02  0.51100000000E-03 0.  1.
        -12    1    3    3    0    0  0.19714369242E+02  0.91280836359E+01  0.12375725858E+02  0.25002736970E+02  0.00000000000E+00 0.  1.
</event>
<event>
 7    1  0.3305651E-013  0.7246163E+02  0.7816164E-02  0.1226708E+00
        -11   -1    0    0    0    0  0.00000000000E+00  0.00000000000E+00  0.45593999997E+02  0.45594000000E+02  0.51100000000E-03 0.  1.
         11   -1    0    0    0    0 -0.00000000000E+00 -0.00000000000E+00 -0.45593999997E+02  0.45594000000E+02  0.51100000000E-03 0. -1.
    9900012    2    1    2    0    0 -0.65291183353E+01  0.17453568970E+01  0.17464283625E+02  0.72461631974E+02  0.70000080349E+02 0.  0.
         12    1    1    2    0    0  0.65291183353E+01 -0.17453568970E+01 -0.17464283625E+02  0.18726368026E+02  0.00000000000E+00 0. -1.
         11    1    3    3    0    0  0.59814643027E+01  0.11521132031E+02  0.14397255312E+02  0.19385441941E+02  0.51100000000E-03 0. -1.
        -11    1    3    3    0    0 -0.23804171102E+02  0.38128448013E+01  0.17883874717E+02  0.30016817328E+02  0.51100000000E-03 0.  1.
         12    1    3    3    0    0  0.11293588464E+02 -0.13588619935E+02 -0.14816846405E+02  0.23059372704E+02  0.00000000000E+00 0. -1.
</event>
<event>
 7    1  0.3305651E-013  0.7246157E+02  0.7816164E-02  0.1226708E+00
        -11   -1    0    0    0    0  0.00000000000E+00  0.00000000000E+00  0.45593999997E+02  0.45594000000E+02  0.51100000000E-03 0. -1.
         11   -1    0    0    0    0 -0.00000000000E+00 -0.00000000000E+00 -0.45593999997E+02  0.45594000000E+02  0.51100000000E-03 0.  1.
    9900012    2    1    2    0    0  0.15367652575E+02 -0.86486819010E+01 -0.63019611603E+01  0.72461570582E+02  0.70000000375E+02 0.  0.
         12    1    1    2    0    0 -0.15367652575E+02  0.86486819010E+01  0.63019611603E+01  0.18726429418E+02  0.00000000000E+00 0. -1.
         11    1    3    3    0    0 -0.68654414728E+01 -0.11661942748E+01 -0.62372287515E+01  0.93486532967E+01  0.51100000000E-03 0. -1.
        -11    1    3    3    0    0 -0.19572358488E+02 -0.78389301718E+01 -0.25203306903E+01  0.21233890602E+02  0.51100000000E-03 0.  1.
         12    1    3    3    0    0  0.41805452536E+02  0.35644254560E+00  0.24555982815E+01  0.41879026683E+02  0.00000000000E+00 0. -1.
</event>
<event>
 7    1  0.3305651E-013  0.7246159E+02  0.7816164E-02  0.1226708E+00
        -11   -1    0    0    0    0  0.00000000000E+00  0.00000000000E+00  0.45593999997E+02  0.45594000000E+02  0.51100000000E-03 0. -1.
         11   -1    0    0    0    0 -0.00000000000E+00 -0.00000000000E+00 -0.45593999997E+02  0.45594000000E+02  0.51100000000E-03 0.  1.
    9900012    2    1    2    0    0  0.27275109329E+01  0.16740281012E+02 -0.79373819101E+01  0.72461592020E+02  0.70000028301E+02 0.  0.
         12    1    1    2    0    0 -0.27275109329E+01 -0.16740281012E+02  0.79373819101E+01  0.18726407980E+02  0.00000000000E+00 0. -1.
         11    1    3    3    0    0  0.14714660434E+02 -0.26954294307E+00 -0.17711475292E+02  0.23028031665E+02  0.51100000000E-03 0. -1.
        -11    1    3    3    0    0  0.15254265332E+02  0.12218260302E+02 -0.14174232658E+01  0.19595601155E+02  0.51100000000E-03 0.  1.
         12    1    3    3    0    0 -0.27241414833E+02  0.47915636532E+01  0.11191516648E+02  0.29837959200E+02  0.00000000000E+00 0. -1.
</event>
<event>
 7    1  0.3305651E-013  0.7246161E+02  0.7816164E-02  0.1226708E+00
        -11   -1    0    0    0    0  0.00000000000E+00  0.00000000000E+00  0.45593999997E+02  0.45594000000E+02  0.51100000000E-03 0. -1.
         11   -1    0    0    0    0 -0.00000000000E+00 -0.00000000000E+00 -0.45593999997E+02  0.45594000000E+02  0.51100000000E-03 0.  1.
    9900012    2    1    2    0    0 -0.15728033714E+02 -0.10137182149E+02  0.73776257246E+00  0.72461606860E+02  0.70000047633E+02 0.  0.
         12    1    1    2    0    0  0.15728033714E+02  0.10137182149E+02 -0.73776257246E+00  0.18726393140E+02  0.00000000000E+00 0. -1.
         11    1    3    3    0    0 -0.11289034560E+02  0.64206670079E+01  0.22217699163E+02  0.25735062123E+02  0.51100000000E-03 0. -1.
        -11    1    3    3    0    0 -0.19135400735E+02 -0.51668693595E+01 -0.19865729415E+02  0.28062560569E+02  0.51100000000E-03 0.  1.
         12    1    3    3    0    0  0.14696401581E+02 -0.11390979798E+02 -0.16142071755E+01  0.18663984167E+02  0.00000000000E+00 0. -1.
</event>
<event>
 7    1  0.3305651E-013  0.7246141E+02  0.7816164E-02  0.1226708E+00
        -11   -1    0    0    0    0  0.00000000000E+00  0.00000000000E+00  0.45593999997E+02  0.45594000000E+02  0.51100000000E-03 0.  1.
         11   -1    0    0    0    0 -0.00000000000E+00 -0.00000000000E+00 -0.45593999997E+02  0.45594000000E+02  0.51100000000E-03 0. -1.
    9900012    2    1    2    0    0 -0.14247151850E+01  0.11502467789E+02  0.14708792528E+02  0.72461410449E+02  0.69999791771E+02 0.  0.
         12    1    1    2    0    0  0.14247151850E+01 -0.11502467789E+02 -0.14708792528E+02  0.18726589551E+02  0.00000000000E+00 0. -1.
         11    1    3    3    0    0  0.22127630562E+02 -0.60322281019E+01 -0.14444535116E+02  0.27104693415E+02  0.51100000000E-03 0. -1.
        -11    1    3    3    0    0  0.23048046458E+01  0.52235786346E+01  0.76416515476E+01  0.95390113138E+01  0.51100000000E-03 0.  1.
        -12    1    3    3    0    0 -0.25857150393E+02  0.12311117256E+02  0.21511676097E+02  0.35817705720E+02  0.00000000000E+00 0.  1.
</event>
<event>
 7    1  0.3305651E-013  0.7246155E+02  0.7816164E-02  0.1226708E+00
        -11   -1    0    0    0    0  0.00000000000E+00  0.00000000000E+00  0.45593999997E+02  0.45594000000E+02  0.51100000000E-03 0.  1.
         11   -1    0    0    0    0 -0.00000000000E+00 -0.00000000000E+00 -0.45593999997E+02  0.45594000000E+02  0.51100000000E-03 0. -1.
    9900012    2    1    2    0    0 -0.75250003436E+01  0.16297962454E+02  0.53320631970E+01  0.72461545230E+02  0.69999967349E+02 0.  0.
         12    1    1    2    0    0  0.75250003436E+01 -0.16297962454E+02 -0.53320631970E+01  0.18726454770E+02  0.00000000000E+00 0. -1.
         11    1    3    3    0    0 -0.67672033779E+01  0.12555203233E+02 -0.17619753440E+02  0.22669007065E+02  0.51100000000E-03 0. -1.
        -11    1    3    3    0    0  0.10949887849E+01  0.18951499274E+02 -0.34242725417E+01  0.19289478164E+02  0.51100000000E-03 0.  1.
        -12    1    3    3    0    0 -0.18527857506E+01 -0.15208740052E+02  0.26376089179E+02  0.30503060000E+02  0.00000000000E+00 0.  1.
</event>
<event>
 7    1  0.3305651E-013  0.7246165E+02  0.7816164E-02  0.1226708E+00
        -11   -1    0    0    0    0  0.00000000000E+00  0.00000000000E+00  0.45593999997E+02  0.45594000000E+02  0.51100000000E-03 0.  1.
         11   -1    0    0    0    0 -0.00000000000E+00 -0.00000000000E+00 -0.45593999997E+02  0.45594000000E+02  0.51100000000E-03 0. -1.
    9900012    2    1    2    0    0 -0.21583757148E+01  0.57467547575E+01  0.17691590362E+02  0.72461651036E+02  0.70000105181E+02 0.  0.
         12    1    1    2    0    0  0.21583757148E+01 -0.57467547575E+01 -0.17691590362E+02  0.18726348964E+02  0.00000000000E+00 0. -1.
         11    1    3    3    0    0 -0.13302491385E+01 -0.72059988693E+01 -0.97352962331E+01  0.12184907693E+02  0.51100000000E-03 0. -1.
        -11    1    3    3    0    0  0.36714867513E+01 -0.19154807996E+02  0.17930680710E+02  0.26493316050E+02  0.51100000000E-03 0.  1.
         12    1    3    3    0    0 -0.44996133276E+01  0.32107561623E+02  0.94962058856E+01  0.33783427293E+02  0.00000000000E+00 0. -1.
</event>
<event>
 7    1  0.3305651E-013  0.7246160E+02  0.7816164E-02  0.1226708E+00
        -11   -1    0    0    0    0  0.00000000000E+00  0.00000000000E+00  0.45593999997E+02  0.45594000000E+02  0.51100000000E-03 0. -1.
         11   -1    0    0    0    0 -0.00000000000E+00 -0.00000000000E+00 -0.45593999997E+02  0.45594000000E+02  0.51100000000E-03 0.  1.
    9900012    2    1    2    0    0 -0.25078043217E+01  0.13925752939E+02 -0.12266309165E+02  0.72461601041E+02  0.70000040053E+02 0.  0.
         12    1    1    2    0    0  0.25078043217E+01 -0.13925752939E+02  0.12266309165E+02  0.18726398959E+02  0.00000000000E+00 0. -1.
         11    1    3    3    0    0  0.18908311196E+02  0.22502667850E+02 -0.37661447089E+01  0.29632383280E+02  0.51100000000E-03 0. -1.
        -11    1    3    3    0    0 -0.15222681997E+02  0.46049639209E+01 -0.19071596152E+02  0.24832670415E+02  0.51100000000E-03 0.  1.
        -12    1    3    3    0    0 -0.61934335208E+01 -0.13181878831E+02  0.10571431696E+02  0.17996547346E+02  0.00000000000E+00 0.  1.
</event>
<event>
 7    1  0.3305651E-013  0.7246144E+02  0.7816164E-02  0.1226708E+00
        -11   -1    0    0    0    0  0.00000000000E+00  0.00000000000E+00  0.45593999997E+02  0.45594000000E+02  0.51100000000E-03 0. -1.
         11   -1    0    0    0    0 -0.00000000000E+00 -0.00000000000E+00 -0.45593999997E+02  0.45594000000E+02  0.51100000000E-03 0.  1.
    9900012    2    1    2    0    0  0.79242621260E+01  0.11354197917E+01 -0.16929290776E+02  0.72461441466E+02  0.69999832177E+02 0.  0.
         12    1    1    2    0    0 -0.79242621260E+01 -0.11354197917E+01  0.16929290776E+02  0.18726558534E+02  0.00000000000E+00 0. -1.
         11    1    3    3    0    0 -0.21147735106E+01  0.87655374420E+00 -0.64919624545E+01  0.68837627966E+01  0.51100000000E-03 0. -1.
        -11    1    3    3    0    0 -0.11044689107E+02 -0.15610036209E+02 -0.27980136010E+02  0.33890210966E+02  0.51100000000E-03 0.  1.
         12    1    3    3    0    0  0.21083724744E+02  0.15868902257E+02  0.17542807688E+02  0.31687467704E+02  0.00000000000E+00 0. -1.
</event>
<event>
 7    1  0.3305651E-013  0.7246155E+02  0.7816164E-02  0.1226708E+00
        -11   -1    0    0    0    0  0.00000000000E+00  0.00000000000E+00  0.45593999997E+02  0.45594000000E+02  0.51100000000E-03 0.  1.
         11   -1    0    0    0    0 -0.00000000000E+00 -0.00000000000E+00 -0.45593999997E+02  0.45594000000E+02  0.51100000000E-03 0. -1.
    9900012    2    1    2    0    0  0.11706217946E+02  0.96551166121E+01  0.10973745451E+02  0.72461550667E+02  0.69999974432E+02 0.  0.
         12    1    1    2    0    0 -0.11706217946E+02 -0.96551166121E+01 -0.10973745451E+02  0.18726449333E+02  0.00000000000E+00 0. -1.
         11    1    3    3    0    0 -0.21896340326E+02  0.17725520665E+02 -0.73498514994E+01  0.29114671900E+02  0.51100000000E-03 0. -1.
        -11    1    3    3    0    0 -0.16574345219E+01  0.90754448810E+00 -0.10117049548E+01  0.21434256154E+01  0.51100000000E-03 0.  1.
        -12    1    3    3    0    0  0.35259992794E+02 -0.89779485414E+01  0.19335301905E+02  0.41203453151E+02  0.00000000000E+00 0.  1.
</event>
<event>
 7    1  0.3305651E-013  0.7246152E+02  0.7816164E-02  0.1226708E+00
        -11   -1    0    0    0    0  0.00000000000E+00  0.00000000000E+00  0.45593999997E+02  0.45594000000E+02  0.51100000000E-03 0.  1.
         11   -1    0    0    0    0 -0.00000000000E+00 -0.00000000000E+00 -0.45593999997E+02  0.45594000000E+02  0.51100000000E-03 0. -1.
    9900012    2    1    2    0    0  0.15943680253E+02 -0.87017992589E+01 -0.45561977635E+01  0.72461516389E+02  0.69999929778E+02 0.  0.
         12    1    1    2    0    0 -0.15943680253E+02  0.87017992589E+01  0.45561977635E+01  0.18726483611E+02  0.00000000000E+00 0. -1.
         11    1    3    3    0    0  0.33345883878E+01 -0.28429872745E+02 -0.94326128129E+00  0.28640301781E+02  0.51100000000E-03 0. -1.
        -11    1    3    3    0    0  0.13250701491E+02 -0.82963950742E+01 -0.92979109800E+00  0.15661282609E+02  0.51100000000E-03 0.  1.
         12    1    3    3    0    0 -0.64160962491E+00  0.28024468561E+02 -0.26831453842E+01  0.28159931999E+02  0.00000000000E+00 0. -1.
</event>
<event>
 7    1  0.3305651E-013  0.7246155E+02  0.7816164E-02  0.1226708E+00
        -11   -1    0    0    0    0  0.00000000000E+00  0.00000000000E+00  0.45593999997E+02  0.45594000000E+02  0.51100000000E-03 0.  1.
         11   -1    0    0    0    0 -0.00000000000E+00 -0.00000000000E+00 -0.45593999997E+02  0.45594000000E+02  0.51100000000E-03 0. -1.
    9900012    2    1    2    0    0  0.83859303764E+01  0.16733524696E+02 -0.58754527919E+00  0.72461551151E+02  0.69999975062E+02 0.  0.
         12    1    1    2    0    0 -0.83859303764E+01 -0.16733524696E+02  0.58754527919E+00  0.18726448849E+02  0.00000000000E+00 0. -1.
         11    1    3    3    0    0 -0.49330524440E+01  0.46702503596E+01  0.18837929653E+02  0.20025329928E+02  0.51100000000E-03 0. -1.
        -11    1    3    3    0    0  0.14876331925E+01  0.94940940711E+01  0.13946001121E+02  0.16936405235E+02  0.51100000000E-03 0.  1.
         12    1    3    3    0    0  0.11831349628E+02  0.25691802656E+01 -0.33371476053E+02  0.35499815989E+02  0.00000000000E+00 0. -1.
</event>
<event>
 7    1  0.3305651E-013  0.7246161E+02  0.7816164E-02  0.1226708E+00
        -11   -1    0    0    0    0  0.00000000000E+00  0.00000000000E+00  0.45593999997E+02  0.45594000000E+02  0.51100000000E-03 0.  1.
         11   -1    0    0    0    0 -0.00000000000E+00 -0.00000000000E+00 -0.45593999997E+02  0.45594000000E+02  0.51100000000E-03 0. -1.
    9900012    2    1    2    0    0 -0.19293488829E+01 -0.12300193595E+02  0.13987870529E+02  0.72461610291E+02  0.70000052103E+02 0.  0.
         12    1    1    2    0    0  0.19293488829E+01  0.12300193595E+02 -0.13987870529E+02  0.18726389709E+02  0.00000000000E+00 0. -1.
         11    1    3    3    0    0  0.93320615211E+01 -0.12551735207E+01 -0.21095756349E+01  0.96495151392E+01  0.51100000000E-03 0. -1.
        -11    1    3    3    0    0  0.21412543357E+02 -0.47939035085E+01 -0.61545595148E+01  0.22789408218E+02  0.51100000000E-03 0.  1.
         12    1    3    3    0    0 -0.32673953761E+02 -0.62511165659E+01  0.22252005679E+02  0.40022686934E+02  0.00000000000E+00 0. -1.
</event>
<event>
 7    1  0.3305651E-013  0.7246155E+02  0.7816164E-02  0.1226708E+00
        -11   -1    0    0    0    0  0.00000000000E+00  0.00000000000E+00  0.45593999997E+02  0.45594000000E+02  0.51100000000E-03 0. -1.
         11   -1    0    0    0    0 -0.00000000000E+00 -0.00000000000E+00 -0.45593999997E+02  0.45594000000E+02  0.51100000000E-03 0.  1.
    9900012    2    1    2    0    0  0.62972974902E+01  0.42488748405E+01 -0.17116399970E+02  0.72461547025E+02  0.69999969688E+02 0.  0.
         12    1    1    2    0    0 -0.62972974902E+01 -0.42488748405E+01  0.17116399970E+02  0.18726452975E+02  0.00000000000E+00 0. -1.
         11    1    3    3    0    0 -0.24556070078E+01  0.52395691999E+00 -0.28765598588E+02  0.28874975308E+02  0.51100000000E-03 0. -1.
        -11    1    3    3    0    0  0.12752251185E+01  0.20251307799E+02 -0.26835157818E+01  0.20468095267E+02  0.51100000000E-03 0.  1.
         12    1    3    3    0    0  0.74776793795E+01 -0.16526389878E+02  0.14332714400E+02  0.23118476450E+02  0.00000000000E+00 0. -1.
</event>
<event>
 7    1  0.3305651E-013  0.7246157E+02  0.7816164E-02  0.1226708E+00
        -11   -1    0    0    0    0  0.00000000000E+00  0.00000000000E+00  0.45593999997E+02  0.45594000000E+02  0.51100000000E-03 0.  1.
         11   -1    0    0    0    0 -0.00000000000E+00 -0.00000000000E+00 -0.45593999997E+02  0.45594000000E+02  0.51100000000E-03 0. -1.
    9900012    2    1    2    0    0  0.82231358759E+01 -0.16550456669E+02  0.30235203729E+01  0.72461568011E+02  0.69999997026E+02 0.  0.
         12    1    1    2    0    0 -0.82231358759E+01  0.16550456669E+02 -0.30235203729E+01  0.18726431989E+02  0.00000000000E+00 0. -1.
         11    1    3    3    0    0  0.20726519502E+02  0.25292924048E+01  0.43771768297E+01  0.21334141839E+02  0.51100000000E-03 0. -1.
        -11    1    3    3    0    0 -0.54966969699E+01  0.76636904710E+01  0.15937792504E+02  0.18519153852E+02  0.51100000000E-03 0.  1.
         12    1    3    3    0    0 -0.70066866564E+01 -0.26743439545E+02 -0.17291448961E+02  0.32608272321E+02  0.00000000000E+00 0. -1.
</event>
<event>
 7    1  0.3305651E-013  0.7246155E+02  0.7816164E-02  0.1226708E+00
        -11   -1    0    0    0    0  0.00000000000E+00  0.00000000000E+00  0.45593999997E+02  0.45594000000E+02  0.51100000000E-03 0.  1.
         11   -1    0    0    0    0 -0.00000000000E+00 -0.00000000000E+00 -0.45593999997E+02  0.45594000000E+02  0.51100000000E-03 0. -1.
    9900012    2    1    2    0    0  0.12155558190E+01  0.45257505600E+01  0.18130631564E+02  0.72461553594E+02  0.69999978245E+02 0.  0.
         12    1    1    2    0    0 -0.12155558190E+01 -0.45257505600E+01 -0.18130631564E+02  0.18726446406E+02  0.00000000000E+00 0. -1.
         11    1    3    3    0    0  0.32888529870E+01  0.45116619496E+01  0.25866825239E+02  0.26462507359E+02  0.51100000000E-03 0.  1.
        -11    1    3    3    0    0  0.15139465626E+01 -0.17758525503E+02  0.10166664404E+02  0.20518731139E+02  0.51100000000E-03 0. -1.
         12    1    3    3    0    0 -0.35872437305E+01  0.17772614113E+02 -0.17902858078E+02  0.25480315095E+02  0.00000000000E+00 0. -1.
</event>
<event>
 7    1  0.3305651E-013  0.7246158E+02  0.7816164E-02  0.1226708E+00
        -11   -1    0    0    0    0  0.00000000000E+00  0.00000000000E+00  0.45593999997E+02  0.45594000000E+02  0.51100000000E-03 0. -1.
         11   -1    0    0    0    0 -0.00000000000E+00 -0.00000000000E+00 -0.45593999997E+02  0.45594000000E+02  0.51100000000E-03 0.  1.
    9900012    2    1    2    0    0  0.19323509047E+01 -0.15562680346E+02 -0.10234633232E+02  0.72461582378E+02  0.70000015741E+02 0.  0.
         12    1    1    2    0    0 -0.19323509047E+01  0.15562680346E+02  0.10234633232E+02  0.18726417622E+02  0.00000000000E+00 0. -1.
         11    1    3    3    0    0  0.12392550667E+02 -0.55826143615E-01  0.81775887857E+01  0.14847605437E+02  0.51100000000E-03 0. -1.
        -11    1    3    3    0    0  0.12223751720E+02  0.41931869781E+01  0.99404447695E+01  0.16303845117E+02  0.51100000000E-03 0.  1.
        -12    1    3    3    0    0 -0.22683951482E+02 -0.19700041181E+02 -0.28352666787E+02  0.41310131824E+02  0.00000000000E+00 0.  1.
</event>
<event>
 7    1  0.3305651E-013  0.7246157E+02  0.7816164E-02  0.1226708E+00
        -11   -1    0    0    0    0  0.00000000000E+00  0.00000000000E+00  0.45593999997E+02  0.45594000000E+02  0.51100000000E-03 0. -1.
         11   -1    0    0    0    0 -0.00000000000E+00 -0.00000000000E+00 -0.45593999997E+02  0.45594000000E+02  0.51100000000E-03 0.  1.
    9900012    2    1    2    0    0 -0.75367828513E+00  0.14902913697E+02  0.11314348276E+02  0.72461565621E+02  0.69999993912E+02 0.  0.
         12    1    1    2    0    0  0.75367828513E+00 -0.14902913697E+02 -0.11314348276E+02  0.18726434379E+02  0.00000000000E+00 0. -1.
         11    1    3    3    0    0  0.11395549434E+02 -0.14153678005E+02  0.95974793132E+01  0.20549860277E+02  0.51100000000E-03 0. -1.
        -11    1    3    3    0    0  0.15354120897E+02  0.10144633987E+02  0.21719987286E+01  0.18530520931E+02  0.51100000000E-03 0.  1.
        -12    1    3    3    0    0 -0.27503348615E+02  0.18911957716E+02 -0.45512976535E+00  0.33381184413E+02  0.00000000000E+00 0.  1.
</event>
<event>
 7    1  0.3305651E-013  0.7246158E+02  0.7816164E-02  0.1226708E+00
        -11   -1    0    0    0    0  0.00000000000E+00  0.00000000000E+00  0.45593999997E+02  0.45594000000E+02  0.51100000000E-03 0.  1.
         11   -1    0    0    0    0 -0.00000000000E+00 -0.00000000000E+00 -0.45593999997E+02  0.45594000000E+02  0.51100000000E-03 0. -1.
    9900012    2    1    2    0    0 -0.82969792232E+01  0.99867119931E+01  0.13494615404E+02  0.72461576808E+02  0.70000008485E+02 0.  0.
         12    1    1    2    0    0  0.82969792232E+01 -0.99867119931E+01 -0.13494615404E+02  0.18726423192E+02  0.00000000000E+00 0. -1.
         11    1    3    3    0    0  0.21039816323E+02 -0.19051674129E+02  0.43404813055E+01  0.28713758658E+02  0.51100000000E-03 0. -1.
        -11    1    3    3    0    0 -0.55941893886E+01  0.48926256716E+01 -0.26437514484E+01  0.78881026147E+01  0.51100000000E-03 0.  1.
        -12    1    3    3    0    0 -0.23742606158E+02  0.24145760451E+02  0.11797885547E+02  0.35859715535E+02  0.00000000000E+00 0.  1.
</event>
<event>
 7    1  0.3305651E-013  0.7246158E+02  0.7816164E-02  0.1226708E+00
        -11   -1    0    0    0    0  0.00000000000E+00  0.00000000000E+00  0.45593999997E+02  0.45594000000E+02  0.51100000000E-03 0. -1.
         11   -1    0    0    0    0 -0.00000000000E+00 -0.00000000000E+00 -0.45593999997E+02  0.45594000000E+02  0.51100000000E-03 0.  1.
    9900012    2    1    2    0    0  0.10643829459E+02  0.14993159656E+02  0.35486203075E+01  0.72461584216E+02  0.70000018136E+02 0.  0.
         12    1    1    2    0    0 -0.10643829459E+02 -0.14993159656E+02 -0.35486203075E+01  0.18726415784E+02  0.00000000000E+00 0. -1.
         11    1    3    3    0    0  0.67990815045E+01  0.38586995020E+01  0.10560751483E+02  0.13139503161E+02  0.51100000000E-03 0. -1.
        -11    1    3    3    0    0  0.16413135770E+02  0.32366691066E+01  0.21461550654E+02  0.27211490394E+02  0.51100000000E-03 0.  1.
        -12    1    3    3    0    0 -0.12568387815E+02  0.78977910473E+01 -0.28473681830E+02  0.32110590662E+02  0.00000000000E+00 0.  1.
</event>
<event>
 7    1  0.3305651E-013  0.7246158E+02  0.7816164E-02  0.1226708E+00
        -11   -1    0    0    0    0  0.00000000000E+00  0.00000000000E+00  0.45593999997E+02  0.45594000000E+02  0.51100000000E-03 0.  1.
         11   -1    0    0    0    0 -0.00000000000E+00 -0.00000000000E+00 -0.45593999997E+02  0.45594000000E+02  0.51100000000E-03 0. -1.
    9900012    2    1    2    0    0 -0.53041924815E+01  0.13980885305E+02  0.11272939127E+02  0.72461581006E+02  0.70000013954E+02 0.  0.
         12    1    1    2    0    0  0.53041924815E+01 -0.13980885305E+02 -0.11272939127E+02  0.18726418994E+02  0.00000000000E+00 0. -1.
         11    1    3    3    0    0  0.16934712091E+02  0.18030492946E+02  0.24241368069E+02  0.34634189403E+02  0.51100000000E-03 0. -1.
        -11    1    3    3    0    0  0.60440589521E+01  0.15435355575E+01 -0.47727074241E+01  0.78544183140E+01  0.51100000000E-03 0.  1.
        -12    1    3    3    0    0 -0.28282963525E+02 -0.55931431989E+01 -0.81957215176E+01  0.29972973289E+02  0.00000000000E+00 0.  1.
</event>
<event>
 7    1  0.3305651E-013  0.7246153E+02  0.7816164E-02  0.1226708E+00
        -11   -1    0    0    0    0  0.00000000000E+00  0.00000000000E+00  0.45593999997E+02  0.45594000000E+02  0.51100000000E-03 0. -1.
         11   -1    0    0    0    0 -0.00000000000E+00 -0.00000000000E+00 -0.45593999997E+02  0.45594000000E+02  0.51100000000E-03 0.  1.
    9900012    2    1    2    0    0 -0.10457801740E+02 -0.14939507748E+02  0.42574720524E+01  0.72461532707E+02  0.69999951036E+02 0.  0.
         12    1    1    2    0    0  0.10457801740E+02  0.14939507748E+02 -0.42574720524E+01  0.18726467293E+02  0.00000000000E+00 0. -1.
         11    1    3    3    0    0  0.16252640213E+01  0.62813892530E+01 -0.18044594954E+01  0.67344939244E+01  0.51100000000E-03 0. -1.
        -11    1    3    3    0    0  0.86375250754E+01  0.23354312923E+00 -0.22701730097E+02  0.24290531725E+02  0.51100000000E-03 0.  1.
         12    1    3    3    0    0 -0.20720590837E+02 -0.21454440131E+02  0.28763661645E+02  0.41436507058E+02  0.00000000000E+00 0. -1.
</event>
<event>
 7    1  0.3305651E-013  0.7246149E+02  0.7816164E-02  0.1226708E+00
        -11   -1    0    0    0    0  0.00000000000E+00  0.00000000000E+00  0.45593999997E+02  0.45594000000E+02  0.51100000000E-03 0.  1.
         11   -1    0    0    0    0 -0.00000000000E+00 -0.00000000000E+00 -0.45593999997E+02  0.45594000000E+02  0.51100000000E-03 0. -1.
    9900012    2    1    2    0    0 -0.83835830754E+01 -0.10725907730E+02  0.12858948880E+02  0.72461491299E+02  0.69999897094E+02 0.  0.
         12    1    1    2    0    0  0.83835830754E+01  0.10725907730E+02 -0.12858948880E+02  0.18726508701E+02  0.00000000000E+00 0. -1.
         11    1    3    3    0    0 -0.24790200007E+01 -0.29694509334E+00 -0.37571448326E+00  0.25248521118E+01  0.51100000000E-03 0. -1.
        -11    1    3    3    0    0 -0.14497053798E+02  0.51564039667E+01  0.37101063070E+02  0.40165183329E+02  0.51100000000E-03 0.  1.
         12    1    3    3    0    0  0.85924907229E+01 -0.15585366603E+02 -0.23866399706E+02  0.29771455858E+02  0.00000000000E+00 0. -1.
</event>
<event>
 7    1  0.3305651E-013  0.7246160E+02  0.7816164E-02  0.1226708E+00
        -11   -1    0    0    0    0  0.00000000000E+00  0.00000000000E+00  0.45593999997E+02  0.45594000000E+02  0.51100000000E-03 0. -1.
         11   -1    0    0    0    0 -0.00000000000E+00 -0.00000000000E+00 -0.45593999997E+02  0.45594000000E+02  0.51100000000E-03 0.  1.
    9900012    2    1    2    0    0 -0.98092983411E+01 -0.10131835358E+02  0.12320779153E+02  0.72461600971E+02  0.70000039962E+02 0.  0.
         12    1    1    2    0    0  0.98092983411E+01  0.10131835358E+02 -0.12320779153E+02  0.18726399029E+02  0.00000000000E+00 0. -1.
         11    1    3    3    0    0  0.60412282934E+01  0.16885223252E+02  0.13464998472E+02  0.22425730482E+02  0.51100000000E-03 0. -1.
        -11    1    3    3    0    0 -0.12442030689E+01  0.87461867396E+01 -0.65920088723E+01  0.11022631491E+02  0.51100000000E-03 0.  1.
        -12    1    3    3    0    0 -0.14606323566E+02 -0.35763245350E+02  0.54477895525E+01  0.39013238997E+02  0.00000000000E+00 0.  1.
</event>
<event>
 7    1  0.3305651E-013  0.7246159E+02  0.7816164E-02  0.1226708E+00
        -11   -1    0    0    0    0  0.00000000000E+00  0.00000000000E+00  0.45593999997E+02  0.45594000000E+02  0.51100000000E-03 0. -1.
         11   -1    0    0    0    0 -0.00000000000E+00 -0.00000000000E+00 -0.45593999997E+02  0.45594000000E+02  0.51100000000E-03 0.  1.
    9900012    2    1    2    0    0  0.91953578363E+01 -0.11429529441E+02 -0.11640008229E+02  0.72461587088E+02  0.70000021877E+02 0.  0.
         12    1    1    2    0    0 -0.91953578363E+01  0.11429529441E+02  0.11640008229E+02  0.18726412912E+02  0.00000000000E+00 0. -1.
         11    1    3    3    0    0 -0.48200379467E+01  0.79563255909E+00  0.89863801783E+01  0.10228432233E+02  0.51100000000E-03 0. -1.
        -11    1    3    3    0    0  0.29609246086E+02 -0.74672521251E+01  0.58961576758E+01  0.31100353433E+02  0.51100000000E-03 0.  1.
        -12    1    3    3    0    0 -0.15593850303E+02 -0.47579098745E+01 -0.26522546083E+02  0.31132801422E+02  0.00000000000E+00 0.  1.
</event>
<event>
 7    1  0.3305651E-013  0.7246157E+02  0.7816164E-02  0.1226708E+00
        -11   -1    0    0    0    0  0.00000000000E+00  0.00000000000E+00  0.45593999997E+02  0.45594000000E+02  0.51100000000E-03 0.  1.
         11   -1    0    0    0    0 -0.00000000000E+00 -0.00000000000E+00 -0.45593999997E+02  0.45594000000E+02  0.51100000000E-03 0. -1.
    9900012    2    1    2    0    0 -0.22796288253E+01  0.18551216961E+02 -0.11552700213E+01  0.72461574630E+02  0.70000005648E+02 0.  0.
         12    1    1    2    0    0  0.22796288253E+01 -0.18551216961E+02  0.11552700213E+01  0.18726425370E+02  0.00000000000E+00 0. -1.
         11    1    3    3    0    0  0.10749113745E+02  0.18607642938E+02 -0.17627412900E+02  0.27794127218E+02  0.51100000000E-03 0. -1.
        -11    1    3    3    0    0 -0.15010604046E+01  0.11788646324E+02 -0.85775947803E+01  0.14656073723E+02  0.51100000000E-03 0.  1.
        -12    1    3    3    0    0 -0.11527682165E+02 -0.11845072301E+02  0.25049737659E+02  0.30011373689E+02  0.00000000000E+00 0.  1.
</event>
<event>
 7    1  0.3305651E-013  0.7246161E+02  0.7816164E-02  0.1226708E+00
        -11   -1    0    0    0    0  0.00000000000E+00  0.00000000000E+00  0.45593999997E+02  0.45594000000E+02  0.51100000000E-03 0.  1.
         11   -1    0    0    0    0 -0.00000000000E+00 -0.00000000000E+00 -0.45593999997E+02  0.45594000000E+02  0.51100000000E-03 0. -1.
    9900012    2    1    2    0    0 -0.59866080679E+01 -0.94529771045E+01  0.15015978488E+02  0.72461605199E+02  0.70000045470E+02 0.  0.
         12    1    1    2    0    0  0.59866080679E+01  0.94529771045E+01 -0.15015978488E+02  0.18726394801E+02  0.00000000000E+00 0. -1.
         11    1    3    3    0    0 -0.21749855083E+02  0.14051973303E+01 -0.94559132585E+01  0.23758052771E+02  0.51100000000E-03 0. -1.
        -11    1    3    3    0    0  0.60369473748E+01 -0.23631568754E+01 -0.99856771988E+01  0.11905586647E+02  0.51100000000E-03 0.  1.
        -12    1    3    3    0    0  0.97262996403E+01 -0.84950175594E+01  0.34457568945E+02  0.36797965781E+02  0.00000000000E+00 0.  1.
</event>
<event>
 7    1  0.3305651E-013  0.7246158E+02  0.7816164E-02  0.1226708E+00
        -11   -1    0    0    0    0  0.00000000000E+00  0.00000000000E+00  0.45593999997E+02  0.45594000000E+02  0.51100000000E-03 0.  1.
         11   -1    0    0    0    0 -0.00000000000E+00 -0.00000000000E+00 -0.45593999997E+02  0.45594000000E+02  0.51100000000E-03 0. -1.
    9900012    2    1    2    0    0 -0.13076904775E+02  0.13356223758E+02  0.11335077191E+01  0.72461575052E+02  0.70000006198E+02 0.  0.
         12    1    1    2    0    0  0.13076904775E+02 -0.13356223758E+02 -0.11335077191E+01  0.18726424948E+02  0.00000000000E+00 0. -1.
         11    1    3    3    0    0  0.42203149752E+01  0.15248304684E+02 -0.67369002478E+01  0.17196153042E+02  0.51100000000E-03 0. -1.
        -11    1    3    3    0    0  0.91034949493E+01  0.13602329396E+02  0.16722495375E+02  0.23399547797E+02  0.51100000000E-03 0.  1.
         12    1    3    3    0    0 -0.26400714700E+02 -0.15494410323E+02 -0.88520874077E+01  0.31865874213E+02  0.00000000000E+00 0. -1.
</event>
<event>
 7    1  0.3305651E-013  0.7246166E+02  0.7816164E-02  0.1226708E+00
        -11   -1    0    0    0    0  0.00000000000E+00  0.00000000000E+00  0.45593999997E+02  0.45594000000E+02  0.51100000000E-03 0.  1.
         11   -1    0    0    0    0 -0.00000000000E+00 -0.00000000000E+00 -0.45593999997E+02  0.45594000000E+02  0.51100000000E-03 0. -1.
    9900012    2    1    2    0    0  0.13009228761E+02  0.16201411292E+01  0.13372023390E+02  0.72461657597E+02  0.70000113728E+02 0.  0.
         12    1    1    2    0    0 -0.13009228761E+02 -0.16201411292E+01 -0.13372023390E+02  0.18726342403E+02  0.00000000000E+00 0. -1.
         11    1    3    3    0    0 -0.86331623322E-01  0.41179942960E+01  0.12118761278E+02  0.12799597859E+02  0.51100000000E-03 0. -1.
        -11    1    3    3    0    0  0.81177398513E+00 -0.49141896568E+01  0.28893050412E+02  0.29319218942E+02  0.51100000000E-03 0.  1.
         12    1    3    3    0    0  0.12283786399E+02  0.24163364901E+01 -0.27639788300E+02  0.30342840797E+02  0.00000000000E+00 0. -1.
</event>
<event>
 7    1  0.3305651E-013  0.7246156E+02  0.7816164E-02  0.1226708E+00
        -11   -1    0    0    0    0  0.00000000000E+00  0.00000000000E+00  0.45593999997E+02  0.45594000000E+02  0.51100000000E-03 0. -1.
         11   -1    0    0    0    0 -0.00000000000E+00 -0.00000000000E+00 -0.45593999997E+02  0.45594000000E+02  0.51100000000E-03 0.  1.
    9900012    2    1    2    0    0  0.12983751955E+02 -0.57661961225E+01 -0.12200516454E+02  0.72461563225E+02  0.69999990790E+02 0.  0.
         12    1    1    2    0    0 -0.12983751955E+02  0.57661961225E+01  0.12200516454E+02  0.18726436775E+02  0.00000000000E+00 0. -1.
         11    1    3    3    0    0  0.60313288681E+01 -0.18896349497E+02 -0.14342756062E+02  0.24477818611E+02  0.51100000000E-03 0. -1.
        -11    1    3    3    0    0  0.24450001185E+02  0.15764644834E+02 -0.37529452710E+01  0.29332766374E+02  0.51100000000E-03 0.  1.
         12    1    3    3    0    0 -0.17497578098E+02 -0.26344914588E+01  0.58951848793E+01  0.18650978240E+02  0.00000000000E+00 0. -1.
</event>
<event>
 7    1  0.3305651E-013  0.7246147E+02  0.7816164E-02  0.1226708E+00
        -11   -1    0    0    0    0  0.00000000000E+00  0.00000000000E+00  0.45593999997E+02  0.45594000000E+02  0.51100000000E-03 0.  1.
         11   -1    0    0    0    0 -0.00000000000E+00 -0.00000000000E+00 -0.45593999997E+02  0.45594000000E+02  0.51100000000E-03 0. -1.
    9900012    2    1    2    0    0 -0.22016774458E+01  0.56569191511E+01  0.17715385810E+02  0.72461467693E+02  0.69999866343E+02 0.  0.
         12    1    1    2    0    0  0.22016774458E+01 -0.56569191511E+01 -0.17715385810E+02  0.18726532307E+02  0.00000000000E+00 0. -1.
         11    1    3    3    0    0  0.16557925657E+02  0.10265464842E+02  0.13621883669E+02  0.23771840178E+02  0.51100000000E-03 0. -1.
        -11    1    3    3    0    0  0.25971143823E+01 -0.58599034682E+01  0.20660253928E+02  0.21631679648E+02  0.51100000000E-03 0.  1.
        -12    1    3    3    0    0 -0.21356717485E+02  0.12513577768E+01 -0.16566751786E+02  0.27057947867E+02  0.00000000000E+00 0.  1.
</event>
<event>
 7    1  0.3305651E-013  0.7246158E+02  0.7816164E-02  0.1226708E+00
        -11   -1    0    0    0    0  0.00000000000E+00  0.00000000000E+00  0.45593999997E+02  0.45594000000E+02  0.51100000000E-03 0. -1.
         11   -1    0    0    0    0 -0.00000000000E+00 -0.00000000000E+00 -0.45593999997E+02  0.45594000000E+02  0.51100000000E-03 0.  1.
    9900012    2    1    2    0    0  0.69683577699E+01  0.75041773788E+01 -0.15678271136E+02  0.72461578186E+02  0.70000010280E+02 0.  0.
         12    1    1    2    0    0 -0.69683577699E+01 -0.75041773788E+01  0.15678271136E+02  0.18726421814E+02  0.00000000000E+00 0. -1.
         11    1    3    3    0    0  0.28360872324E+02 -0.20836608709E+01 -0.11668000589E+02  0.30737972600E+02  0.51100000000E-03 0. -1.
        -11    1    3    3    0    0 -0.39384994135E+01 -0.89704613782E+01 -0.11558985004E+02  0.15152263513E+02  0.51100000000E-03 0.  1.
         12    1    3    3    0    0 -0.17454015140E+02  0.18558299628E+02  0.75487144568E+01  0.26571342073E+02  0.00000000000E+00 0. -1.
</event>
<event>
 7    1  0.3305651E-013  0.7246159E+02  0.7816164E-02  0.1226708E+00
        -11   -1    0    0    0    0  0.00000000000E+00  0.00000000000E+00  0.45593999997E+02  0.45594000000E+02  0.51100000000E-03 0.  1.
         11   -1    0    0    0    0 -0.00000000000E+00 -0.00000000000E+00 -0.45593999997E+02  0.45594000000E+02  0.51100000000E-03 0. -1.
    9900012    2    1    2    0    0  0.16059322928E+02  0.83317824959E+01  0.48330244842E+01  0.72461586084E+02  0.70000020569E+02 0.  0.
         12    1    1    2    0    0 -0.16059322928E+02 -0.83317824959E+01 -0.48330244842E+01  0.18726413916E+02  0.00000000000E+00 0. -1.
         11    1    3    3    0    0 -0.17478772196E+01 -0.15722798987E+02 -0.85222597646E+01  0.17969151190E+02  0.51100000000E-03 0. -1.
        -11    1    3    3    0    0  0.10230260083E+02  0.11987460128E+02 -0.15629027043E+02  0.22195132536E+02  0.51100000000E-03 0.  1.
        -12    1    3    3    0    0  0.75769400654E+01  0.12067121354E+02  0.28984311292E+02  0.32297302358E+02  0.00000000000E+00 0.  1.
</event>
<event>
 7    1  0.3305651E-013  0.7246156E+02  0.7816164E-02  0.1226708E+00
        -11   -1    0    0    0    0  0.00000000000E+00  0.00000000000E+00  0.45593999997E+02  0.45594000000E+02  0.51100000000E-03 0. -1.
         11   -1    0    0    0    0 -0.00000000000E+00 -0.00000000000E+00 -0.45593999997E+02  0.45594000000E+02  0.51100000000E-03 0.  1.
    9900012    2    1    2    0    0  0.15244163969E+02  0.30568331291E+01 -0.10437947802E+02  0.72461560984E+02  0.69999987872E+02 0.  0.
         12    1    1    2    0    0 -0.15244163969E+02 -0.30568331291E+01  0.10437947802E+02  0.18726439016E+02  0.00000000000E+00 0. -1.
         11    1    3    3    0    0  0.13610265979E+02 -0.19430841695E+02  0.13479906716E+02  0.27285615886E+02  0.51100000000E-03 0. -1.
        -11    1    3    3    0    0 -0.59043576021E+01 -0.62490936779E+01 -0.47860438984E+01  0.98396558348E+01  0.51100000000E-03 0.  1.
        -12    1    3    3    0    0  0.75382555925E+01  0.28736768502E+02 -0.19131810619E+02  0.35336289263E+02  0.00000000000E+00 0.  1.
</event>
<event>
 7    1  0.3305651E-013  0.7246157E+02  0.7816164E-02  0.1226708E+00
        -11   -1    0    0    0    0  0.00000000000E+00  0.00000000000E+00  0.45593999997E+02  0.45594000000E+02  0.51100000000E-03 0.  1.
         11   -1    0    0    0    0 -0.00000000000E+00 -0.00000000000E+00 -0.45593999997E+02  0.45594000000E+02  0.51100000000E-03 0. -1.
    9900012    2    1    2    0    0 -0.11168850181E+02  0.14957389088E+02  0.14873880640E+01  0.72461574128E+02  0.70000004994E+02 0.  0.
         12    1    1    2    0    0  0.11168850181E+02 -0.14957389088E+02 -0.14873880640E+01  0.18726425872E+02  0.00000000000E+00 0. -1.
         11    1    3    3    0    0  0.73197386901E-01  0.51382517989E+01  0.57857026008E+01  0.77383037063E+01  0.51100000000E-03 0. -1.
        -11    1    3    3    0    0 -0.18961919342E+02  0.34144149419E+02 -0.29371431696E+01  0.39166364842E+02  0.51100000000E-03 0.  1.
         12    1    3    3    0    0  0.77198717736E+01 -0.24325012130E+02 -0.13611713672E+01  0.25556905580E+02  0.00000000000E+00 0. -1.
</event>
<event>
 7    1  0.3305651E-013  0.7246146E+02  0.7816164E-02  0.1226708E+00
        -11   -1    0    0    0    0  0.00000000000E+00  0.00000000000E+00  0.45593999997E+02  0.45594000000E+02  0.51100000000E-03 0. -1.
         11   -1    0    0    0    0 -0.00000000000E+00 -0.00000000000E+00 -0.45593999997E+02  0.45594000000E+02  0.51100000000E-03 0.  1.
    9900012    2    1    2    0    0  0.18116087676E+02 -0.54911037726E+00 -0.47105491149E+01  0.72461456596E+02  0.69999851887E+02 0.  0.
         12    1    1    2    0    0 -0.18116087676E+02  0.54911037726E+00  0.47105491149E+01  0.18726543404E+02  0.00000000000E+00 0. -1.
         11    1    3    3    0    0  0.59615436803E+01 -0.17628182256E+01  0.73986981698E+00  0.62605861351E+01  0.51100000000E-03 0. -1.
        -11    1    3    3    0    0  0.64338457816E+01 -0.92839753721E+01 -0.33690952534E+02  0.35534023881E+02  0.51100000000E-03 0.  1.
         12    1    3    3    0    0  0.57206982142E+01  0.10497683220E+02  0.28240533602E+02  0.30666846580E+02  0.00000000000E+00 0. -1.
</event>
<event>
 7    1  0.3305651E-013  0.7246157E+02  0.7816164E-02  0.1226708E+00
        -11   -1    0    0    0    0  0.00000000000E+00  0.00000000000E+00  0.45593999997E+02  0.45594000000E+02  0.51100000000E-03 0.  1.
         11   -1    0    0    0    0 -0.00000000000E+00 -0.00000000000E+00 -0.45593999997E+02  0.45594000000E+02  0.51100000000E-03 0. -1.
    9900012    2    1    2    0    0  0.75796638624E+01 -0.86756913464E+01  0.14763476684E+02  0.72461570324E+02  0.70000000039E+02 0.  0.
         12    1    1    2    0    0 -0.75796638624E+01  0.86756913464E+01 -0.14763476684E+02  0.18726429676E+02  0.00000000000E+00 0. -1.
         11    1    3    3    0    0  0.68643736436E+01 -0.99273022238E+01 -0.22508574897E+02  0.25540299511E+02  0.51100000000E-03 0. -1.
        -11    1    3    3    0    0  0.12215659780E+02  0.69062058420E+01  0.11516096580E+02  0.18153195413E+02  0.51100000000E-03 0.  1.
        -12    1    3    3    0    0 -0.11500369561E+02 -0.56545949645E+01  0.25755955000E+02  0.28768075400E+02  0.00000000000E+00 0.  1.
</event>
<event>
 7    1  0.3305651E-013  0.7246166E+02  0.7816164E-02  0.1226708E+00
        -11   -1    0    0    0    0  0.00000000000E+00  0.00000000000E+00  0.45593999997E+02  0.45594000000E+02  0.51100000000E-03 0.  1.
         11   -1    0    0    0    0 -0.00000000000E+00 -0.00000000000E+00 -0.45593999997E+02  0.45594000000E+02  0.51100000000E-03 0. -1.
    9900012    2    1    2    0    0  0.10738833456E+02 -0.80198211841E+01  0.13078062608E+02  0.72461660331E+02  0.70000117290E+02 0.  0.
         12    1    1    2    0    0 -0.10738833456E+02  0.80198211841E+01 -0.13078062608E+02  0.18726339669E+02  0.00000000000E+00 0. -1.
         11    1    3    3    0    0  0.85179306015E+01  0.42544190522E+01 -0.26033750229E+02  0.27720234026E+02  0.51100000000E-03 0. -1.
        -11    1    3    3    0    0 -0.34312354810E+01 -0.69462918896E+01  0.38823942347E+01  0.86658717505E+01  0.51100000000E-03 0.  1.
        -12    1    3    3    0    0  0.56521383355E+01 -0.53279483468E+01  0.35229418602E+02  0.36075554554E+02  0.00000000000E+00 0.  1.
</event>
<event>
 7    1  0.3305651E-013  0.7246159E+02  0.7816164E-02  0.1226708E+00
        -11   -1    0    0    0    0  0.00000000000E+00  0.00000000000E+00  0.45593999997E+02  0.45594000000E+02  0.51100000000E-03 0. -1.
         11   -1    0    0    0    0 -0.00000000000E+00 -0.00000000000E+00 -0.45593999997E+02  0.45594000000E+02  0.51100000000E-03 0.  1.
    9900012    2    1    2    0    0 -0.13999511680E+02 -0.63198600089E+01 -0.10712213634E+02  0.72461588738E+02  0.70000024027E+02 0.  0.
         12    1    1    2    0    0  0.13999511680E+02  0.63198600089E+01  0.10712213634E+02  0.18726411262E+02  0.00000000000E+00 0. -1.
         11    1    3    3    0    0 -0.15693324868E+01 -0.15527639000E+02 -0.15457239525E+01  0.15683100464E+02  0.51100000000E-03 0. -1.
        -11    1    3    3    0    0  0.18537135886E+02 -0.84061990563E+01 -0.45269656602E+01  0.20851450976E+02  0.51100000000E-03 0.  1.
        -12    1    3    3    0    0 -0.30967315079E+02  0.17613978048E+02 -0.46395240215E+01  0.35927037298E+02  0.00000000000E+00 0.  1.
</event>
<event>
 7    1  0.3305651E-013  0.7246154E+02  0.7816164E-02  0.1226708E+00
        -11   -1    0    0    0    0  0.00000000000E+00  0.00000000000E+00  0.45593999997E+02  0.45594000000E+02  0.51100000000E-03 0.  1.
         11   -1    0    0    0    0 -0.00000000000E+00 -0.00000000000E+00 -0.45593999997E+02  0.45594000000E+02  0.51100000000E-03 0. -1.
    9900012    2    1    2    0    0  0.59687871641E+01  0.17521369393E+02  0.28382175893E+01  0.72461540519E+02  0.69999961212E+02 0.  0.
         12    1    1    2    0    0 -0.59687871641E+01 -0.17521369393E+02 -0.28382175893E+01  0.18726459481E+02  0.00000000000E+00 0. -1.
         11    1    3    3    0    0 -0.94132516442E+01  0.90033404995E+01  0.14494187791E+02  0.19487199046E+02  0.51100000000E-03 0. -1.
        -11    1    3    3    0    0 -0.26429709930E+01 -0.22100598137E+01  0.17064880907E+02  0.17409187824E+02  0.51100000000E-03 0.  1.
         12    1    3    3    0    0  0.18025009801E+02  0.10728088707E+02 -0.28720851109E+02  0.35565153649E+02  0.00000000000E+00 0. -1.
</event>
<event>
 7    1  0.3305651E-013  0.7246158E+02  0.7816164E-02  0.1226708E+00
        -11   -1    0    0    0    0  0.00000000000E+00  0.00000000000E+00  0.45593999997E+02  0.45594000000E+02  0.51100000000E-03 0.  1.
         11   -1    0    0    0    0 -0.00000000000E+00 -0.00000000000E+00 -0.45593999997E+02  0.45594000000E+02  0.51100000000E-03 0. -1.
    9900012    2    1    2    0    0 -0.35329373088E+01 -0.76228684158E+01  0.16735865470E+02  0.72461575837E+02  0.70000007220E+02 0.  0.
         12    1    1    2    0    0  0.35329373088E+01  0.76228684158E+01 -0.16735865470E+02  0.18726424163E+02  0.00000000000E+00 0. -1.
         11    1    3    3    0    0  0.19245329006E+02  0.17294735937E+01  0.37422002314E+01  0.19681916326E+02  0.51100000000E-03 0. -1.
        -11    1    3    3    0    0 -0.14316921351E+01  0.14031384852E+02  0.15575706928E+02  0.21012666413E+02  0.51100000000E-03 0.  1.
         12    1    3    3    0    0 -0.21346574179E+02 -0.23383726862E+02 -0.25820416892E+01  0.31766993097E+02  0.00000000000E+00 0. -1.
</event>
<event>
 7    1  0.3305651E-013  0.7246160E+02  0.7816164E-02  0.1226708E+00
        -11   -1    0    0    0    0  0.00000000000E+00  0.00000000000E+00  0.45593999997E+02  0.45594000000E+02  0.51100000000E-03 0. -1.
         11   -1    0    0    0    0 -0.00000000000E+00 -0.00000000000E+00 -0.45593999997E+02  0.45594000000E+02  0.51100000000E-03 0.  1.
    9900012    2    1    2    0    0  0.56368540394E+01  0.13910390310E+02 -0.11198444548E+02  0.72461595051E+02  0.70000032250E+02 0.  0.
         12    1    1    2    0    0 -0.56368540394E+01 -0.13910390310E+02  0.11198444548E+02  0.18726404949E+02  0.00000000000E+00 0. -1.
         11    1    3    3    0    0  0.97616914897E+01  0.10343112886E+02  0.14547985615E+01  0.14296399688E+02  0.51100000000E-03 0. -1.
        -11    1    3    3    0    0  0.40603501091E+01  0.22714389619E+02  0.11907081192E+02  0.25965525636E+02  0.51100000000E-03 0.  1.
        -12    1    3    3    0    0 -0.81851875594E+01 -0.19147112196E+02 -0.24560324301E+02  0.32199669728E+02  0.00000000000E+00 0.  1.
</event>
<event>
 7    1  0.3305651E-013  0.7246158E+02  0.7816164E-02  0.1226708E+00
        -11   -1    0    0    0    0  0.00000000000E+00  0.00000000000E+00  0.45593999997E+02  0.45594000000E+02  0.51100000000E-03 0. -1.
         11   -1    0    0    0    0 -0.00000000000E+00 -0.00000000000E+00 -0.45593999997E+02  0.45594000000E+02  0.51100000000E-03 0.  1.
    9900012    2    1    2    0    0 -0.14572521195E+02 -0.10892920419E+02 -0.44345071890E+01  0.72461576336E+02  0.70000007871E+02 0.  0.
         12    1    1    2    0    0  0.14572521195E+02  0.10892920419E+02  0.44345071890E+01  0.18726423664E+02  0.00000000000E+00 0. -1.
         11    1    3    3    0    0 -0.28480411044E+02 -0.47464753070E+01 -0.73172888607E+01  0.29785995998E+02  0.51100000000E-03 0. -1.
        -11    1    3    3    0    0 -0.92824525163E+01  0.37927357322E+01 -0.10158526755E+02  0.14273907494E+02  0.51100000000E-03 0.  1.
        -12    1    3    3    0    0  0.23190342365E+02 -0.99391808440E+01  0.13041308427E+02  0.28401672844E+02  0.00000000000E+00 0.  1.
</event>
<event>
 7    1  0.3305651E-013  0.7246160E+02  0.7816164E-02  0.1226708E+00
        -11   -1    0    0    0    0  0.00000000000E+00  0.00000000000E+00  0.45593999997E+02  0.45594000000E+02  0.51100000000E-03 0. -1.
         11   -1    0    0    0    0 -0.00000000000E+00 -0.00000000000E+00 -0.45593999997E+02  0.45594000000E+02  0.51100000000E-03 0.  1.
    9900012    2    1    2    0    0 -0.13353975558E+02  0.41329050923E+01 -0.12460673764E+02  0.72461602633E+02  0.70000042127E+02 0.  0.
         12    1    1    2    0    0  0.13353975558E+02 -0.41329050923E+01  0.12460673764E+02  0.18726397367E+02  0.00000000000E+00 0. -1.
         11    1    3    3    0    0 -0.41826882426E+01 -0.12218753049E+02  0.17928520300E+02  0.22095806105E+02  0.51100000000E-03 0. -1.
        -11    1    3    3    0    0 -0.40070499814E+01 -0.11302865434E+02 -0.10124573873E+02  0.15694528122E+02  0.51100000000E-03 0.  1.
        -12    1    3    3    0    0 -0.51642373338E+01  0.27654523575E+02 -0.20264620191E+02  0.34671268406E+02  0.00000000000E+00 0.  1.
</event>
<event>
 7    1  0.3305651E-013  0.7246158E+02  0.7816164E-02  0.1226708E+00
        -11   -1    0    0    0    0  0.00000000000E+00  0.00000000000E+00  0.45593999997E+02  0.45594000000E+02  0.51100000000E-03 0. -1.
         11   -1    0    0    0    0 -0.00000000000E+00 -0.00000000000E+00 -0.45593999997E+02  0.45594000000E+02  0.51100000000E-03 0.  1.
    9900012    2    1    2    0    0 -0.28681704209E+00 -0.12038874629E+02 -0.14340921049E+02  0.72461580618E+02  0.70000013448E+02 0.  0.
         12    1    1    2    0    0  0.28681704209E+00  0.12038874629E+02  0.14340921049E+02  0.18726419382E+02  0.00000000000E+00 0. -1.
         11    1    3    3    0    0 -0.34227198169E+01  0.18209326815E+02 -0.12267674510E+02  0.22221395819E+02  0.51100000000E-03 0. -1.
        -11    1    3    3    0    0 -0.71722174583E+01  0.51853219545E+01 -0.90785822740E+01  0.12678679876E+02  0.51100000000E-03 0.  1.
        -12    1    3    3    0    0  0.10308120233E+02 -0.35433523399E+02  0.70053357357E+01  0.37561504922E+02  0.00000000000E+00 0.  1.
</event>
<event>
 7    1  0.3305651E-013  0.7246155E+02  0.7816164E-02  0.1226708E+00
        -11   -1    0    0    0    0  0.00000000000E+00  0.00000000000E+00  0.45593999997E+02  0.45594000000E+02  0.51100000000E-03 0.  1.
         11   -1    0    0    0    0 -0.00000000000E+00 -0.00000000000E+00 -0.45593999997E+02  0.45594000000E+02  0.51100000000E-03 0. -1.
    9900012    2    1    2    0    0  0.96848066332E+01  0.11607724682E+02  0.11051939340E+02  0.72461545050E+02  0.69999967115E+02 0.  0.
         12    1    1    2    0    0 -0.96848066332E+01 -0.11607724682E+02 -0.11051939340E+02  0.18726454950E+02  0.00000000000E+00 0. -1.
         11    1    3    3    0    0 -0.40761144122E+01  0.19488571579E+02  0.16745524027E+02  0.26015989431E+02  0.51100000000E-03 0. -1.
        -11    1    3    3    0    0 -0.18259065892E+01  0.87012932145E+01 -0.18360649667E+02  0.20399997425E+02  0.51100000000E-03 0.  1.
        -12    1    3    3    0    0  0.15586827635E+02 -0.16582140112E+02  0.12667064980E+02  0.26045558193E+02  0.00000000000E+00 0.  1.
</event>
<event>
 7    1  0.3305651E-013  0.7246157E+02  0.7816164E-02  0.1226708E+00
        -11   -1    0    0    0    0  0.00000000000E+00  0.00000000000E+00  0.45593999997E+02  0.45594000000E+02  0.51100000000E-03 0.  1.
         11   -1    0    0    0    0 -0.00000000000E+00 -0.00000000000E+00 -0.45593999997E+02  0.45594000000E+02  0.51100000000E-03 0. -1.
    9900012    2    1    2    0    0 -0.14377814892E+02  0.84098234876E+00  0.11968726205E+02  0.72461568964E+02  0.69999998267E+02 0.  0.
         12    1    1    2    0    0  0.14377814892E+02 -0.84098234876E+00 -0.11968726205E+02  0.18726431036E+02  0.00000000000E+00 0. -1.
         11    1    3    3    0    0 -0.34454259369E+01 -0.20335255081E+02  0.18808659510E+02  0.27913423867E+02  0.51100000000E-03 0. -1.
        -11    1    3    3    0    0 -0.12574768829E+02 -0.50172331041E+01  0.66003446996E+01  0.15061938439E+02  0.51100000000E-03 0.  1.
        -12    1    3    3    0    0  0.16423798741E+01  0.26193470534E+02 -0.13440278005E+02  0.29486206659E+02  0.00000000000E+00 0.  1.
</event>
<event>
 7    1  0.3305651E-013  0.7246144E+02  0.7816164E-02  0.1226708E+00
        -11   -1    0    0    0    0  0.00000000000E+00  0.00000000000E+00  0.45593999997E+02  0.45594000000E+02  0.51100000000E-03 0. -1.
         11   -1    0    0    0    0 -0.00000000000E+00 -0.00000000000E+00 -0.45593999997E+02  0.45594000000E+02  0.51100000000E-03 0.  1.
    9900012    2    1    2    0    0  0.35818111681E+01 -0.18232551316E+02  0.23299451702E+01  0.72461442835E+02  0.69999833961E+02 0.  0.
         12    1    1    2    0    0 -0.35818111681E+01  0.18232551316E+02 -0.23299451702E+01  0.18726557165E+02  0.00000000000E+00 0. -1.
         11    1    3    3    0    0  0.32303518565E+01 -0.43410456565E+01 -0.34266241824E+01  0.64048110088E+01  0.51100000000E-03 0. -1.
        -11    1    3    3    0    0  0.26249068214E+01 -0.15977881226E+02 -0.27900368783E+02  0.32258539998E+02  0.51100000000E-03 0.  1.
         12    1    3    3    0    0 -0.22734475098E+01  0.20863755667E+01  0.33656938136E+02  0.33798091829E+02  0.00000000000E+00 0. -1.
</event>
<event>
 7    1  0.3305651E-013  0.7246147E+02  0.7816164E-02  0.1226708E+00
        -11   -1    0    0    0    0  0.00000000000E+00  0.00000000000E+00  0.45593999997E+02  0.45594000000E+02  0.51100000000E-03 0. -1.
         11   -1    0    0    0    0 -0.00000000000E+00 -0.00000000000E+00 -0.45593999997E+02  0.45594000000E+02  0.51100000000E-03 0.  1.
    9900012    2    1    2    0    0 -0.74194127650E+01 -0.32464619610E+01 -0.16884778189E+02  0.72461469741E+02  0.69999869010E+02 0.  0.
         12    1    1    2    0    0  0.74194127650E+01  0.32464619610E+01  0.16884778189E+02  0.18726530259E+02  0.00000000000E+00 0. -1.
         11    1    3    3    0    0  0.84260814378E+01 -0.24400415273E+02 -0.19580232508E+02  0.32400071284E+02  0.51100000000E-03 0. -1.
        -11    1    3    3    0    0  0.34090544807E+01  0.35358063100E+01  0.11510271296E+02  0.12514388690E+02  0.51100000000E-03 0.  1.
        -12    1    3    3    0    0 -0.19254548684E+02  0.17618147002E+02 -0.88148169767E+01  0.27547009767E+02  0.00000000000E+00 0.  1.
</event>
<event>
 7    1  0.3305651E-013  0.7246159E+02  0.7816164E-02  0.1226708E+00
        -11   -1    0    0    0    0  0.00000000000E+00  0.00000000000E+00  0.45593999997E+02  0.45594000000E+02  0.51100000000E-03 0.  1.
         11   -1    0    0    0    0 -0.00000000000E+00 -0.00000000000E+00 -0.45593999997E+02  0.45594000000E+02  0.51100000000E-03 0. -1.
    9900012    2    1    2    0    0  0.89160929450E+01  0.98549469947E+01  0.13193249230E+02  0.72461587665E+02  0.70000022629E+02 0.  0.
         12    1    1    2    0    0 -0.89160929450E+01 -0.98549469947E+01 -0.13193249230E+02  0.18726412335E+02  0.00000000000E+00 0. -1.
         11    1    3    3    0    0 -0.55833774423E+01 -0.20484337635E+02  0.43072563446E+01  0.21664132789E+02  0.51100000000E-03 0. -1.
        -11    1    3    3    0    0 -0.36319565666E+00 -0.51069809028E+01 -0.74451839295E+01  0.90357030181E+01  0.51100000000E-03 0.  1.
        -12    1    3    3    0    0  0.14862666044E+02  0.35446265532E+02  0.16331176815E+02  0.41761751859E+02  0.00000000000E+00 0.  1.
</event>
<event>
 7    1  0.3305651E-013  0.7246158E+02  0.7816164E-02  0.1226708E+00
        -11   -1    0    0    0    0  0.00000000000E+00  0.00000000000E+00  0.45593999997E+02  0.45594000000E+02  0.51100000000E-03 0.  1.
         11   -1    0    0    0    0 -0.00000000000E+00 -0.00000000000E+00 -0.45593999997E+02  0.45594000000E+02  0.51100000000E-03 0. -1.
    9900012    2    1    2    0    0 -0.69648502535E+01 -0.51556821033E+01  0.16600863131E+02  0.72461578727E+02  0.70000010985E+02 0.  0.
         12    1    1    2    0    0  0.69648502535E+01  0.51556821033E+01 -0.16600863131E+02  0.18726421273E+02  0.00000000000E+00 0. -1.
         11    1    3    3    0    0  0.13406514782E+02 -0.64187644581E+01 -0.10325097291E+02  0.18098143830E+02  0.51100000000E-03 0. -1.
        -11    1    3    3    0    0  0.12308621978E+02  0.26208922836E+01  0.99601435608E+00  0.12623917626E+02  0.51100000000E-03 0.  1.
         12    1    3    3    0    0 -0.32679987013E+02 -0.13578099288E+01  0.25929946067E+02  0.41739517271E+02  0.00000000000E+00 0. -1.
</event>
<event>
 7    1  0.3305651E-013  0.7246159E+02  0.7816164E-02  0.1226708E+00
        -11   -1    0    0    0    0  0.00000000000E+00  0.00000000000E+00  0.45593999997E+02  0.45594000000E+02  0.51100000000E-03 0.  1.
         11   -1    0    0    0    0 -0.00000000000E+00 -0.00000000000E+00 -0.45593999997E+02  0.45594000000E+02  0.51100000000E-03 0. -1.
    9900012    2    1    2    0    0  0.52086762507E+01 -0.17031073619E+02 -0.57871216417E+01  0.72461586734E+02  0.70000021416E+02 0.  0.
         12    1    1    2    0    0 -0.52086762507E+01  0.17031073619E+02  0.57871216417E+01  0.18726413266E+02  0.00000000000E+00 0. -1.
         11    1    3    3    0    0  0.32593838680E+01 -0.41887241550E+01 -0.26867018834E+02  0.27386231842E+02  0.51100000000E-03 0. -1.
        -11    1    3    3    0    0 -0.12396652600E+02  0.40234726321E+01 -0.18918364248E+01  0.13169828132E+02  0.51100000000E-03 0.  1.
        -12    1    3    3    0    0  0.14345944983E+02 -0.16865822096E+02  0.22971733617E+02  0.31905526760E+02  0.00000000000E+00 0.  1.
</event>
<event>
 7    1  0.3305651E-013  0.7246158E+02  0.7816164E-02  0.1226708E+00
        -11   -1    0    0    0    0  0.00000000000E+00  0.00000000000E+00  0.45593999997E+02  0.45594000000E+02  0.51100000000E-03 0. -1.
         11   -1    0    0    0    0 -0.00000000000E+00 -0.00000000000E+00 -0.45593999997E+02  0.45594000000E+02  0.51100000000E-03 0.  1.
    9900012    2    1    2    0    0 -0.97137273928E+01 -0.36131798835E+01 -0.15597022577E+02  0.72461583311E+02  0.70000016957E+02 0.  0.
         12    1    1    2    0    0  0.97137273928E+01  0.36131798835E+01  0.15597022577E+02  0.18726416689E+02  0.00000000000E+00 0. -1.
         11    1    3    3    0    0 -0.15533010465E+02  0.49133437771E+01 -0.11066058957E+02  0.19694492181E+02  0.51100000000E-03 0. -1.
        -11    1    3    3    0    0 -0.20631468029E+02 -0.71230974998E+01  0.82793648368E+01  0.23344032929E+02  0.51100000000E-03 0.  1.
        -12    1    3    3    0    0  0.26450751101E+02 -0.14034261609E+01 -0.12810328456E+02  0.29423058201E+02  0.00000000000E+00 0.  1.
</event>
<event>
 7    1  0.3305651E-013  0.7246133E+02  0.7816164E-02  0.1226709E+00
        -11   -1    0    0    0    0  0.00000000000E+00  0.00000000000E+00  0.45593999997E+02  0.45594000000E+02  0.51100000000E-03 0.  1.
         11   -1    0    0    0    0 -0.00000000000E+00 -0.00000000000E+00 -0.45593999997E+02  0.45594000000E+02  0.51100000000E-03 0. -1.
    9900012    2    1    2    0    0  0.45205116340E+01  0.60331831388E+01  0.17142162277E+02  0.72461333138E+02  0.69999691060E+02 0.  0.
         12    1    1    2    0    0 -0.45205116340E+01 -0.60331831388E+01 -0.17142162277E+02  0.18726666862E+02  0.00000000000E+00 0. -1.
         11    1    3    3    0    0 -0.19150001591E+02 -0.24914073013E+01  0.20334789632E+02  0.28043418852E+02  0.51100000000E-03 0. -1.
        -11    1    3    3    0    0 -0.58297773231E+01  0.13203245915E+02 -0.11809084455E+01  0.14481248266E+02  0.51100000000E-03 0.  1.
         12    1    3    3    0    0  0.29500290548E+02 -0.46786554748E+01 -0.20117189099E+01  0.29936666020E+02  0.00000000000E+00 0. -1.
</event>
<event>
 7    1  0.3305651E-013  0.7246156E+02  0.7816164E-02  0.1226708E+00
        -11   -1    0    0    0    0  0.00000000000E+00  0.00000000000E+00  0.45593999997E+02  0.45594000000E+02  0.51100000000E-03 0.  1.
         11   -1    0    0    0    0 -0.00000000000E+00 -0.00000000000E+00 -0.45593999997E+02  0.45594000000E+02  0.51100000000E-03 0. -1.
    9900012    2    1    2    0    0 -0.13862614969E+02 -0.11848135477E+02 -0.42578506118E+01  0.72461556133E+02  0.69999981553E+02 0.  0.
         12    1    1    2    0    0  0.13862614969E+02  0.11848135477E+02  0.42578506118E+01  0.18726443867E+02  0.00000000000E+00 0. -1.
         11    1    3    3    0    0 -0.96411508026E+01  0.29152510287E+01 -0.20578988252E+02  0.22911683376E+02  0.51100000000E-03 0. -1.
        -11    1    3    3    0    0 -0.31051153253E+01 -0.17490774778E+02 -0.11766708480E+02  0.21307847667E+02  0.51100000000E-03 0.  1.
        -12    1    3    3    0    0 -0.11163488408E+01  0.27273882717E+01  0.28087846120E+02  0.28242025090E+02  0.00000000000E+00 0.  1.
</event>
<event>
 7    1  0.3305651E-013  0.7246149E+02  0.7816164E-02  0.1226708E+00
        -11   -1    0    0    0    0  0.00000000000E+00  0.00000000000E+00  0.45593999997E+02  0.45594000000E+02  0.51100000000E-03 0.  1.
         11   -1    0    0    0    0 -0.00000000000E+00 -0.00000000000E+00 -0.45593999997E+02  0.45594000000E+02  0.51100000000E-03 0. -1.
    9900012    2    1    2    0    0  0.60470016855E+01  0.17707854465E+02  0.74007427935E+00  0.72461493409E+02  0.69999899843E+02 0.  0.
         12    1    1    2    0    0 -0.60470016855E+01 -0.17707854465E+02 -0.74007427935E+00  0.18726506591E+02  0.00000000000E+00 0. -1.
         11    1    3    3    0    0  0.12248270117E+02 -0.94043943040E+01  0.15075273091E+02  0.21580699991E+02  0.51100000000E-03 0. -1.
        -11    1    3    3    0    0  0.12457428664E+02  0.88561674673E+01  0.73354353816E+01  0.16953697049E+02  0.51100000000E-03 0.  1.
        -12    1    3    3    0    0 -0.18658697095E+02  0.18256081302E+02 -0.21670634193E+02  0.33927096370E+02  0.00000000000E+00 0.  1.
</event>
<event>
 7    1  0.3305651E-013  0.7246158E+02  0.7816164E-02  0.1226708E+00
        -11   -1    0    0    0    0  0.00000000000E+00  0.00000000000E+00  0.45593999997E+02  0.45594000000E+02  0.51100000000E-03 0.  1.
         11   -1    0    0    0    0 -0.00000000000E+00 -0.00000000000E+00 -0.45593999997E+02  0.45594000000E+02  0.51100000000E-03 0. -1.
    9900012    2    1    2    0    0 -0.46760844462E+01  0.34821745916E+00  0.18129861404E+02  0.72461577606E+02  0.70000009525E+02 0.  0.
         12    1    1    2    0    0  0.46760844462E+01 -0.34821745916E+00 -0.18129861404E+02  0.18726422394E+02  0.00000000000E+00 0. -1.
         11    1    3    3    0    0 -0.13013053738E+02  0.38738805777E+01 -0.22809733588E+01  0.13767692546E+02  0.51100000000E-03 0. -1.
        -11    1    3    3    0    0 -0.14045088952E+02 -0.19542028546E+02  0.19801199911E+02  0.31164770520E+02  0.51100000000E-03 0.  1.
         12    1    3    3    0    0  0.22382058244E+02  0.16016365428E+02  0.60963485206E+00  0.27529114541E+02  0.00000000000E+00 0. -1.
</event>
<event>
 7    1  0.3305651E-013  0.7246161E+02  0.7816164E-02  0.1226708E+00
        -11   -1    0    0    0    0  0.00000000000E+00  0.00000000000E+00  0.45593999997E+02  0.45594000000E+02  0.51100000000E-03 0.  1.
         11   -1    0    0    0    0 -0.00000000000E+00 -0.00000000000E+00 -0.45593999997E+02  0.45594000000E+02  0.51100000000E-03 0. -1.
    9900012    2    1    2    0    0  0.34175084062E+01 -0.63059221751E+01  0.17298368072E+02  0.72461613372E+02  0.70000056116E+02 0.  0.
         12    1    1    2    0    0 -0.34175084062E+01  0.63059221751E+01 -0.17298368072E+02  0.18726386628E+02  0.00000000000E+00 0. -1.
         11    1    3    3    0    0  0.17525299242E+02 -0.15466700549E+02  0.85144818070E+01  0.24876722857E+02  0.51100000000E-03 0. -1.
        -11    1    3    3    0    0 -0.11601926123E+02 -0.36519889861E+01  0.24379986327E+02  0.27245650054E+02  0.51100000000E-03 0.  1.
         12    1    3    3    0    0 -0.25058647131E+01  0.12812767360E+02 -0.15596100061E+02  0.20339240460E+02  0.00000000000E+00 0. -1.
</event>
<event>
 7    1  0.3305651E-013  0.7246157E+02  0.7816164E-02  0.1226708E+00
        -11   -1    0    0    0    0  0.00000000000E+00  0.00000000000E+00  0.45593999997E+02  0.45594000000E+02  0.51100000000E-03 0. -1.
         11   -1    0    0    0    0 -0.00000000000E+00 -0.00000000000E+00 -0.45593999997E+02  0.45594000000E+02  0.51100000000E-03 0.  1.
    9900012    2    1    2    0    0 -0.62264830346E+01  0.77656192159E+01 -0.15862068870E+02  0.72461570505E+02  0.70000000274E+02 0.  0.
         12    1    1    2    0    0  0.62264830346E+01 -0.77656192159E+01  0.15862068870E+02  0.18726429495E+02  0.00000000000E+00 0. -1.
         11    1    3    3    0    0  0.59619908190E+01  0.13976220066E+02 -0.47821218020E+00  0.15202261313E+02  0.51100000000E-03 0. -1.
        -11    1    3    3    0    0  0.16287435571E+02 -0.11461517257E+02 -0.19664987423E+02  0.27988545262E+02  0.51100000000E-03 0.  1.
         12    1    3    3    0    0 -0.28475909425E+02  0.52509164064E+01  0.42811307323E+01  0.29270763930E+02  0.00000000000E+00 0. -1.
</event>
<event>
 7    1  0.3305651E-013  0.7246117E+02  0.7816164E-02  0.1226709E+00
        -11   -1    0    0    0    0  0.00000000000E+00  0.00000000000E+00  0.45593999997E+02  0.45594000000E+02  0.51100000000E-03 0. -1.
         11   -1    0    0    0    0 -0.00000000000E+00 -0.00000000000E+00 -0.45593999997E+02  0.45594000000E+02  0.51100000000E-03 0.  1.
    9900012    2    1    2    0    0  0.69817545228E+00  0.11441655002E+02  0.14808625287E+02  0.72461166283E+02  0.69999473699E+02 0.  0.
         12    1    1    2    0    0 -0.69817545228E+00 -0.11441655002E+02 -0.14808625287E+02  0.18726833717E+02  0.00000000000E+00 0. -1.
         11    1    3    3    0    0  0.10862527788E+02  0.42541372547E+01 -0.48866718160E+01  0.12647994127E+02  0.51100000000E-03 0. -1.
        -11    1    3    3    0    0  0.19047337845E+02  0.15131162910E+02  0.12376568807E+01  0.24357441672E+02  0.51100000000E-03 0.  1.
        -12    1    3    3    0    0 -0.29211690180E+02 -0.79436451619E+01  0.18457640222E+02  0.35455730485E+02  0.00000000000E+00 0.  1.
</event>
<event>
 7    1  0.3305651E-013  0.7246162E+02  0.7816164E-02  0.1226708E+00
        -11   -1    0    0    0    0  0.00000000000E+00  0.00000000000E+00  0.45593999997E+02  0.45594000000E+02  0.51100000000E-03 0. -1.
         11   -1    0    0    0    0 -0.00000000000E+00 -0.00000000000E+00 -0.45593999997E+02  0.45594000000E+02  0.51100000000E-03 0.  1.
    9900012    2    1    2    0    0 -0.20457844112E+00  0.15417006656E+02 -0.10627851460E+02  0.72461623595E+02  0.70000069435E+02 0.  0.
         12    1    1    2    0    0  0.20457844112E+00 -0.15417006656E+02  0.10627851460E+02  0.18726376405E+02  0.00000000000E+00 0. -1.
         11    1    3    3    0    0 -0.68391372761E+01  0.27563813309E+01  0.17849463710E+02  0.19312555287E+02  0.51100000000E-03 0. -1.
        -11    1    3    3    0    0 -0.97718692534E+01  0.23224151570E+02 -0.13764283520E+02  0.28710732243E+02  0.51100000000E-03 0.  1.
        -12    1    3    3    0    0  0.16406428088E+02 -0.10563526244E+02 -0.14713031650E+02  0.24438336066E+02  0.00000000000E+00 0.  1.
</event>
<event>
 7    1  0.3305651E-013  0.7246155E+02  0.7816164E-02  0.1226708E+00
        -11   -1    0    0    0    0  0.00000000000E+00  0.00000000000E+00  0.45593999997E+02  0.45594000000E+02  0.51100000000E-03 0. -1.
         11   -1    0    0    0    0 -0.00000000000E+00 -0.00000000000E+00 -0.45593999997E+02  0.45594000000E+02  0.51100000000E-03 0.  1.
    9900012    2    1    2    0    0  0.19570157670E+00 -0.52848189475E+01 -0.17964196846E+02  0.72461548688E+02  0.69999971854E+02 0.  0.
         12    1    1    2    0    0 -0.19570157670E+00  0.52848189475E+01  0.17964196846E+02  0.18726451312E+02  0.00000000000E+00 0. -1.
         11    1    3    3    0    0 -0.22646521731E+02  0.22557617023E+01 -0.10653935438E+02  0.25128862847E+02  0.51100000000E-03 0. -1.
        -11    1    3    3    0    0 -0.44059186709E+01  0.73778316264E+01 -0.13164636781E+02  0.15721074412E+02  0.51100000000E-03 0.  1.
        -12    1    3    3    0    0  0.27248141979E+02 -0.14918412276E+02  0.58543753730E+01  0.31611611429E+02  0.00000000000E+00 0.  1.
</event>
<event>
 7    1  0.3305651E-013  0.7246160E+02  0.7816164E-02  0.1226708E+00
        -11   -1    0    0    0    0  0.00000000000E+00  0.00000000000E+00  0.45593999997E+02  0.45594000000E+02  0.51100000000E-03 0.  1.
         11   -1    0    0    0    0 -0.00000000000E+00 -0.00000000000E+00 -0.45593999997E+02  0.45594000000E+02  0.51100000000E-03 0. -1.
    9900012    2    1    2    0    0  0.52691122438E+01  0.17807550259E+02 -0.24095225318E+01  0.72461596477E+02  0.70000034108E+02 0.  0.
         12    1    1    2    0    0 -0.52691122438E+01 -0.17807550259E+02  0.24095225318E+01  0.18726403523E+02  0.00000000000E+00 0. -1.
         11    1    3    3    0    0  0.14176317416E+02 -0.58028586355E+01  0.29181451983E+01  0.15593483110E+02  0.51100000000E-03 0. -1.
        -11    1    3    3    0    0  0.11068115326E+02  0.64067375168E+01  0.17718956516E+02  0.21852022395E+02  0.51100000000E-03 0.  1.
         12    1    3    3    0    0 -0.19975320499E+02  0.17203671378E+02 -0.23046624246E+02  0.35016090973E+02  0.00000000000E+00 0. -1.
</event>
<event>
 7    1  0.3305651E-013  0.7246156E+02  0.7816164E-02  0.1226708E+00
        -11   -1    0    0    0    0  0.00000000000E+00  0.00000000000E+00  0.45593999997E+02  0.45594000000E+02  0.51100000000E-03 0.  1.
         11   -1    0    0    0    0 -0.00000000000E+00 -0.00000000000E+00 -0.45593999997E+02  0.45594000000E+02  0.51100000000E-03 0. -1.
    9900012    2    1    2    0    0  0.10186913986E+02 -0.14500494503E+02 -0.60532654807E+01  0.72461559325E+02  0.69999985710E+02 0.  0.
         12    1    1    2    0    0 -0.10186913986E+02  0.14500494503E+02  0.60532654807E+01  0.18726440675E+02  0.00000000000E+00 0. -1.
         11    1    3    3    0    0  0.31826158772E+02  0.36575272844E+00 -0.11057337706E+02  0.33694255811E+02  0.51100000000E-03 0. -1.
        -11    1    3    3    0    0  0.64770150279E+01 -0.42481639000E+01 -0.18001105148E+01  0.79522964180E+01  0.51100000000E-03 0.  1.
        -12    1    3    3    0    0 -0.28116259814E+02 -0.10618083332E+02  0.68041827404E+01  0.30815007096E+02  0.00000000000E+00 0.  1.
</event>
<event>
 7    1  0.3305651E-013  0.7246156E+02  0.7816164E-02  0.1226708E+00
        -11   -1    0    0    0    0  0.00000000000E+00  0.00000000000E+00  0.45593999997E+02  0.45594000000E+02  0.51100000000E-03 0. -1.
         11   -1    0    0    0    0 -0.00000000000E+00 -0.00000000000E+00 -0.45593999997E+02  0.45594000000E+02  0.51100000000E-03 0.  1.
    9900012    2    1    2    0    0 -0.16070463110E+02  0.84452466031E+01 -0.45932080667E+01  0.72461560533E+02  0.69999987284E+02 0.  0.
         12    1    1    2    0    0  0.16070463110E+02 -0.84452466031E+01  0.45932080667E+01  0.18726439467E+02  0.00000000000E+00 0. -1.
         11    1    3    3    0    0  0.15398912649E+00  0.58359277249E+01  0.15656863203E+01  0.60442649657E+01  0.51100000000E-03 0. -1.
        -11    1    3    3    0    0 -0.38022576585E+02  0.14261538461E+02 -0.88244478431E+01  0.41556933109E+02  0.51100000000E-03 0.  1.
         12    1    3    3    0    0  0.21798124349E+02 -0.11652219583E+02  0.26655534561E+01  0.24860362458E+02  0.00000000000E+00 0. -1.
</event>
<event>
 7    1  0.3305651E-013  0.7246157E+02  0.7816164E-02  0.1226708E+00
        -11   -1    0    0    0    0  0.00000000000E+00  0.00000000000E+00  0.45593999997E+02  0.45594000000E+02  0.51100000000E-03 0.  1.
         11   -1    0    0    0    0 -0.00000000000E+00 -0.00000000000E+00 -0.45593999997E+02  0.45594000000E+02  0.51100000000E-03 0. -1.
    9900012    2    1    2    0    0  0.14570751124E+01 -0.12676832579E+02  0.13705989242E+02  0.72461566992E+02  0.69999995698E+02 0.  0.
         12    1    1    2    0    0 -0.14570751124E+01  0.12676832579E+02 -0.13705989242E+02  0.18726433008E+02  0.00000000000E+00 0. -1.
         11    1    3    3    0    0 -0.10050835815E+02  0.11378102738E+02  0.94304444248E+01  0.17872151656E+02  0.51100000000E-03 0. -1.
        -11    1    3    3    0    0  0.26174392365E+02 -0.19759788730E+02  0.14854298814E+02  0.36002753504E+02  0.51100000000E-03 0.  1.
         12    1    3    3    0    0 -0.14666481437E+02 -0.42951465859E+01 -0.10578753996E+02  0.18586661832E+02  0.00000000000E+00 0. -1.
</event>
<event>
 7    1  0.3305651E-013  0.7246155E+02  0.7816164E-02  0.1226708E+00
        -11   -1    0    0    0    0  0.00000000000E+00  0.00000000000E+00  0.45593999997E+02  0.45594000000E+02  0.51100000000E-03 0. -1.
         11   -1    0    0    0    0 -0.00000000000E+00 -0.00000000000E+00 -0.45593999997E+02  0.45594000000E+02  0.51100000000E-03 0.  1.
    9900012    2    1    2    0    0  0.16086463858E+02  0.93565410296E+01 -0.20882841853E+01  0.72461545175E+02  0.69999967277E+02 0.  0.
         12    1    1    2    0    0 -0.16086463858E+02 -0.93565410296E+01  0.20882841853E+01  0.18726454825E+02  0.00000000000E+00 0. -1.
         11    1    3    3    0    0  0.59637740878E+01 -0.29693054939E+00 -0.12652029044E+02  0.13990304082E+02  0.51100000000E-03 0. -1.
        -11    1    3    3    0    0  0.16151461470E+02  0.24685912757E+01 -0.20389365120E+02  0.26128334443E+02  0.51100000000E-03 0.  1.
         12    1    3    3    0    0 -0.60287716997E+01  0.71848803033E+01  0.30953109979E+02  0.32342906650E+02  0.00000000000E+00 0. -1.
</event>
<event>
 7    1  0.3305651E-013  0.7246159E+02  0.7816164E-02  0.1226708E+00
        -11   -1    0    0    0    0  0.00000000000E+00  0.00000000000E+00  0.45593999997E+02  0.45594000000E+02  0.51100000000E-03 0. -1.
         11   -1    0    0    0    0 -0.00000000000E+00 -0.00000000000E+00 -0.45593999997E+02  0.45594000000E+02  0.51100000000E-03 0.  1.
    9900012    2    1    2    0    0 -0.17725847539E+02 -0.60083992142E+01 -0.60990686183E+00  0.72461587677E+02  0.70000022644E+02 0.  0.
         12    1    1    2    0    0  0.17725847539E+02  0.60083992142E+01  0.60990686183E+00  0.18726412323E+02  0.00000000000E+00 0. -1.
         11    1    3    3    0    0 -0.13014023270E+02 -0.22768027424E+02  0.16219738690E+01  0.26275058020E+02  0.51100000000E-03 0. -1.
        -11    1    3    3    0    0 -0.91810295746E+00 -0.14551605599E+02 -0.11916981545E+01  0.14629158667E+02  0.51100000000E-03 0.  1.
         12    1    3    3    0    0 -0.37937213117E+01  0.31311233809E+02 -0.10401825762E+01  0.31557370990E+02  0.00000000000E+00 0. -1.
</event>
<event>
 7    1  0.3305651E-013  0.7246157E+02  0.7816164E-02  0.1226708E+00
        -11   -1    0    0    0    0  0.00000000000E+00  0.00000000000E+00  0.45593999997E+02  0.45594000000E+02  0.51100000000E-03 0.  1.
         11   -1    0    0    0    0 -0.00000000000E+00 -0.00000000000E+00 -0.45593999997E+02  0.45594000000E+02  0.51100000000E-03 0. -1.
    9900012    2    1    2    0    0  0.17821890616E+02 -0.40066822820E+01  0.41238261109E+01  0.72461568684E+02  0.69999997902E+02 0.  0.
         12    1    1    2    0    0 -0.17821890616E+02  0.40066822820E+01 -0.41238261109E+01  0.18726431316E+02  0.00000000000E+00 0. -1.
         11    1    3    3    0    0 -0.22102892314E+02 -0.74309826853E+01 -0.61855724107E+01  0.24125062873E+02  0.51100000000E-03 0. -1.
        -11    1    3    3    0    0  0.13256883196E+02 -0.98285047315E+01  0.83438900674E+01  0.18492294586E+02  0.51100000000E-03 0.  1.
        -12    1    3    3    0    0  0.26667899734E+02  0.13252805135E+02  0.19655084542E+01  0.29844211225E+02  0.00000000000E+00 0.  1.
</event>
<event>
 7    1  0.3305651E-013  0.7246157E+02  0.7816164E-02  0.1226708E+00
        -11   -1    0    0    0    0  0.00000000000E+00  0.00000000000E+00  0.45593999997E+02  0.45594000000E+02  0.51100000000E-03 0.  1.
         11   -1    0    0    0    0 -0.00000000000E+00 -0.00000000000E+00 -0.45593999997E+02  0.45594000000E+02  0.51100000000E-03 0. -1.
    9900012    2    1    2    0    0  0.62397008729E+01  0.17655050514E+02 -0.21132416255E+00  0.72461565915E+02  0.69999994295E+02 0.  0.
         12    1    1    2    0    0 -0.62397008729E+01 -0.17655050514E+02  0.21132416255E+00  0.18726434085E+02  0.00000000000E+00 0. -1.
         11    1    3    3    0    0 -0.20263189849E+01 -0.15370857857E+02  0.11562591409E+02  0.19340702165E+02  0.51100000000E-03 0.  1.
        -11    1    3    3    0    0 -0.11036791816E+02 -0.11249846880E+00  0.38788672731E+01  0.11699104285E+02  0.51100000000E-03 0. -1.
         12    1    3    3    0    0  0.19302811673E+02  0.33138406840E+02 -0.15652782845E+02  0.41421759465E+02  0.00000000000E+00 0. -1.
</event>
<event>
 7    1  0.3305651E-013  0.7246156E+02  0.7816164E-02  0.1226708E+00
        -11   -1    0    0    0    0  0.00000000000E+00  0.00000000000E+00  0.45593999997E+02  0.45594000000E+02  0.51100000000E-03 0. -1.
         11   -1    0    0    0    0 -0.00000000000E+00 -0.00000000000E+00 -0.45593999997E+02  0.45594000000E+02  0.51100000000E-03 0.  1.
    9900012    2    1    2    0    0  0.13534048022E+02  0.10755808353E+01 -0.12897763876E+02  0.72461557653E+02  0.69999983532E+02 0.  0.
         12    1    1    2    0    0 -0.13534048022E+02 -0.10755808353E+01  0.12897763876E+02  0.18726442347E+02  0.00000000000E+00 0. -1.
         11    1    3    3    0    0  0.15759245969E+02  0.10684280637E+02 -0.75693227528E+01  0.20489078394E+02  0.51100000000E-03 0. -1.
        -11    1    3    3    0    0  0.13086708883E+02 -0.20780150141E+02  0.11043606657E+02  0.26926526652E+02  0.51100000000E-03 0.  1.
         12    1    3    3    0    0 -0.15311906831E+02  0.11171450339E+02 -0.16372047780E+02  0.25045952606E+02  0.00000000000E+00 0. -1.
</event>
<event>
 7    1  0.3305651E-013  0.7246136E+02  0.7816164E-02  0.1226709E+00
        -11   -1    0    0    0    0  0.00000000000E+00  0.00000000000E+00  0.45593999997E+02  0.45594000000E+02  0.51100000000E-03 0.  1.
         11   -1    0    0    0    0 -0.00000000000E+00 -0.00000000000E+00 -0.45593999997E+02  0.45594000000E+02  0.51100000000E-03 0. -1.
    9900012    2    1    2    0    0 -0.11322165624E+02  0.96659612577E+00  0.14884935319E+02  0.72461360100E+02  0.69999726183E+02 0.  0.
         12    1    1    2    0    0  0.11322165624E+02 -0.96659612577E+00 -0.14884935319E+02  0.18726639900E+02  0.00000000000E+00 0. -1.
         11    1    3    3    0    0  0.10490794050E+02 -0.22830351874E+02 -0.12829757035E+02  0.28211423083E+02  0.51100000000E-03 0. -1.
        -11    1    3    3    0    0 -0.55715276712E+00  0.17516890073E+00 -0.11693683709E+01  0.13071059627E+01  0.51100000000E-03 0.  1.
        -12    1    3    3    0    0 -0.21255806907E+02  0.23621779099E+02  0.28884060725E+02  0.42942831055E+02  0.00000000000E+00 0.  1.
</event>
<event>
 7    1  0.3305651E-013  0.7246156E+02  0.7816164E-02  0.1226708E+00
        -11   -1    0    0    0    0  0.00000000000E+00  0.00000000000E+00  0.45593999997E+02  0.45594000000E+02  0.51100000000E-03 0.  1.
         11   -1    0    0    0    0 -0.00000000000E+00 -0.00000000000E+00 -0.45593999997E+02  0.45594000000E+02  0.51100000000E-03 0. -1.
    9900012    2    1    2    0    0  0.14187912450E+02  0.20346069876E+01  0.12051683353E+02  0.72461559951E+02  0.69999986525E+02 0.  0.
         12    1    1    2    0    0 -0.14187912450E+02 -0.20346069876E+01 -0.12051683353E+02  0.18726440049E+02  0.00000000000E+00 0. -1.
         11    1    3    3    0    0  0.13649811483E+02 -0.11119402144E+02 -0.92717621140E+01  0.19897839845E+02  0.51100000000E-03 0. -1.
        -11    1    3    3    0    0  0.14461744555E+02 -0.87663202794E+01  0.20509289505E+02  0.26582350970E+02  0.51100000000E-03 0.  1.
         12    1    3    3    0    0 -0.13923643588E+02  0.21920329411E+02  0.81415596198E+00  0.25981369136E+02  0.00000000000E+00 0. -1.
</event>
<event>
 7    1  0.3305651E-013  0.7246158E+02  0.7816164E-02  0.1226708E+00
        -11   -1    0    0    0    0  0.00000000000E+00  0.00000000000E+00  0.45593999997E+02  0.45594000000E+02  0.51100000000E-03 0.  1.
         11   -1    0    0    0    0 -0.00000000000E+00 -0.00000000000E+00 -0.45593999997E+02  0.45594000000E+02  0.51100000000E-03 0. -1.
    9900012    2    1    2    0    0  0.47453167084E+01 -0.17243178904E+02  0.55527827351E+01  0.72461584287E+02  0.70000018228E+02 0.  0.
         12    1    1    2    0    0 -0.47453167084E+01  0.17243178904E+02 -0.55527827351E+01  0.18726415713E+02  0.00000000000E+00 0. -1.
         11    1    3    3    0    0 -0.18584495609E+02  0.19667739905E+01  0.52352045269E+00  0.18695607797E+02  0.51100000000E-03 0.  1.
        -11    1    3    3    0    0 -0.36154026623E+01 -0.64905726996E+01 -0.15767074283E+02  0.17429839416E+02  0.51100000000E-03 0. -1.
        -12    1    3    3    0    0  0.26945214980E+02 -0.12719380195E+02  0.20796336565E+02  0.36336137073E+02  0.00000000000E+00 0.  1.
</event>
<event>
 7    1  0.3305651E-013  0.7246161E+02  0.7816164E-02  0.1226708E+00
        -11   -1    0    0    0    0  0.00000000000E+00  0.00000000000E+00  0.45593999997E+02  0.45594000000E+02  0.51100000000E-03 0.  1.
         11   -1    0    0    0    0 -0.00000000000E+00 -0.00000000000E+00 -0.45593999997E+02  0.45594000000E+02  0.51100000000E-03 0. -1.
    9900012    2    1    2    0    0 -0.38906865670E+01  0.14936700728E+02  0.10603545628E+02  0.72461610853E+02  0.70000052835E+02 0.  0.
         12    1    1    2    0    0  0.38906865670E+01 -0.14936700728E+02 -0.10603545628E+02  0.18726389147E+02  0.00000000000E+00 0. -1.
         11    1    3    3    0    0 -0.16517903675E+01  0.17128391497E+02 -0.11396922507E+02  0.20639768642E+02  0.51100000000E-03 0. -1.
        -11    1    3    3    0    0  0.21514622718E+02 -0.36893222176E+01  0.45204709090E+01  0.22291808958E+02  0.51100000000E-03 0.  1.
        -12    1    3    3    0    0 -0.23753518917E+02  0.14976314491E+01  0.17479997226E+02  0.29530033253E+02  0.00000000000E+00 0.  1.
</event>
<event>
 7    1  0.3305651E-013  0.7246157E+02  0.7816164E-02  0.1226708E+00
        -11   -1    0    0    0    0  0.00000000000E+00  0.00000000000E+00  0.45593999997E+02  0.45594000000E+02  0.51100000000E-03 0. -1.
         11   -1    0    0    0    0 -0.00000000000E+00 -0.00000000000E+00 -0.45593999997E+02  0.45594000000E+02  0.51100000000E-03 0.  1.
    9900012    2    1    2    0    0 -0.88329665247E+01  0.16289307367E+02 -0.27048446579E+01  0.72461574373E+02  0.70000005313E+02 0.  0.
         12    1    1    2    0    0  0.88329665247E+01 -0.16289307367E+02  0.27048446579E+01  0.18726425627E+02  0.00000000000E+00 0. -1.
         11    1    3    3    0    0 -0.21415613237E+01 -0.16362202427E+02  0.92027604680E+01  0.18894410646E+02  0.51100000000E-03 0. -1.
        -11    1    3    3    0    0 -0.63034820710E+01 -0.42697830550E+01  0.84741668186E+01  0.11391946150E+02  0.51100000000E-03 0.  1.
        -12    1    3    3    0    0 -0.38792312996E+00  0.36921292850E+02 -0.20381771945E+02  0.42175217577E+02  0.00000000000E+00 0.  1.
</event>
<event>
 7    1  0.3305651E-013  0.7246157E+02  0.7816164E-02  0.1226708E+00
        -11   -1    0    0    0    0  0.00000000000E+00  0.00000000000E+00  0.45593999997E+02  0.45594000000E+02  0.51100000000E-03 0.  1.
         11   -1    0    0    0    0 -0.00000000000E+00 -0.00000000000E+00 -0.45593999997E+02  0.45594000000E+02  0.51100000000E-03 0. -1.
    9900012    2    1    2    0    0 -0.32296358182E+01  0.48393328535E+01  0.17799703771E+02  0.72461570967E+02  0.70000000876E+02 0.  0.
         12    1    1    2    0    0  0.32296358182E+01 -0.48393328535E+01 -0.17799703771E+02  0.18726429033E+02  0.00000000000E+00 0. -1.
         11    1    3    3    0    0  0.61425941306E+01  0.17840530211E+02 -0.20740307809E+02  0.28038836444E+02  0.51100000000E-03 0. -1.
        -11    1    3    3    0    0 -0.84436426594E+01 -0.35144508010E+01  0.71255790058E+01  0.11593978705E+02  0.51100000000E-03 0.  1.
        -12    1    3    3    0    0 -0.92858728942E+00 -0.94867465562E+01  0.31414432574E+02  0.32828755818E+02  0.00000000000E+00 0.  1.
</event>
<event>
 7    1  0.3305651E-013  0.7246163E+02  0.7816164E-02  0.1226708E+00
        -11   -1    0    0    0    0  0.00000000000E+00  0.00000000000E+00  0.45593999997E+02  0.45594000000E+02  0.51100000000E-03 0. -1.
         11   -1    0    0    0    0 -0.00000000000E+00 -0.00000000000E+00 -0.45593999997E+02  0.45594000000E+02  0.51100000000E-03 0.  1.
    9900012    2    1    2    0    0 -0.48434888375E+01 -0.15152019197E+02 -0.98809877761E+01  0.72461628507E+02  0.70000075833E+02 0.  0.
         12    1    1    2    0    0  0.48434888375E+01  0.15152019197E+02  0.98809877761E+01  0.18726371493E+02  0.00000000000E+00 0. -1.
         11    1    3    3    0    0  0.21958430704E+02  0.78710690683E+01 -0.16140205564E+02  0.28366047366E+02  0.51100000000E-03 0. -1.
        -11    1    3    3    0    0 -0.17352196591E+02 -0.71541538096E+01 -0.83538846461E+01  0.20544294396E+02  0.51100000000E-03 0.  1.
        -12    1    3    3    0    0 -0.94497229503E+01 -0.15868934456E+02  0.14613102434E+02  0.23551286745E+02  0.00000000000E+00 0.  1.
</event>
<event>
 7    1  0.3305651E-013  0.7246136E+02  0.7816164E-02  0.1226709E+00
        -11   -1    0    0    0    0  0.00000000000E+00  0.00000000000E+00  0.45593999997E+02  0.45594000000E+02  0.51100000000E-03 0. -1.
         11   -1    0    0    0    0 -0.00000000000E+00 -0.00000000000E+00 -0.45593999997E+02  0.45594000000E+02  0.51100000000E-03 0.  1.
    9900012    2    1    2    0    0  0.18009683437E+02 -0.33000763091E+01  0.39303676716E+01  0.72461361455E+02  0.69999727948E+02 0.  0.
         12    1    1    2    0    0 -0.18009683437E+02  0.33000763091E+01 -0.39303676716E+01  0.18726638545E+02  0.00000000000E+00 0. -1.
         11    1    3    3    0    0  0.30418606137E+01 -0.32439694159E+02  0.52143224154E+01  0.32996603335E+02  0.51100000000E-03 0. -1.
        -11    1    3    3    0    0  0.50528096314E+01 -0.13037106333E+01  0.45463842672E+01  0.69209939136E+01  0.51100000000E-03 0.  1.
        -12    1    3    3    0    0  0.99150131921E+01  0.30443328483E+02 -0.58303390110E+01  0.32543764207E+02  0.00000000000E+00 0.  1.
</event>
<event>
 7    1  0.3305651E-013  0.7246157E+02  0.7816164E-02  0.1226708E+00
        -11   -1    0    0    0    0  0.00000000000E+00  0.00000000000E+00  0.45593999997E+02  0.45594000000E+02  0.51100000000E-03 0.  1.
         11   -1    0    0    0    0 -0.00000000000E+00 -0.00000000000E+00 -0.45593999997E+02  0.45594000000E+02  0.51100000000E-03 0. -1.
    9900012    2    1    2    0    0 -0.49988751329E+00 -0.60595646535E+01  0.17711884076E+02  0.72461573517E+02  0.70000004198E+02 0.  0.
         12    1    1    2    0    0  0.49988751329E+00  0.60595646535E+01 -0.17711884076E+02  0.18726426483E+02  0.00000000000E+00 0. -1.
         11    1    3    3    0    0 -0.24375136614E+02  0.88955521326E+01 -0.13247916592E+02  0.29133922273E+02  0.51100000000E-03 0. -1.
        -11    1    3    3    0    0  0.27373885386E+01  0.50803290111E+00  0.10533306751E-01  0.27841524117E+01  0.51100000000E-03 0.  1.
        -12    1    3    3    0    0  0.21137860562E+02 -0.15463149687E+02  0.30949267361E+02  0.40543498833E+02  0.00000000000E+00 0.  1.
</event>
<event>
 7    1  0.3305651E-013  0.7246157E+02  0.7816164E-02  0.1226708E+00
        -11   -1    0    0    0    0  0.00000000000E+00  0.00000000000E+00  0.45593999997E+02  0.45594000000E+02  0.51100000000E-03 0. -1.
         11   -1    0    0    0    0 -0.00000000000E+00 -0.00000000000E+00 -0.45593999997E+02  0.45594000000E+02  0.51100000000E-03 0.  1.
    9900012    2    1    2    0    0  0.16457286391E+02  0.71961364381E+01 -0.52964610654E+01  0.72461570687E+02  0.70000000512E+02 0.  0.
         12    1    1    2    0    0 -0.16457286391E+02 -0.71961364381E+01  0.52964610654E+01  0.18726429313E+02  0.00000000000E+00 0. -1.
         11    1    3    3    0    0  0.27810550279E+02  0.67116625785E+00  0.13771442869E+02  0.31040776568E+02  0.51100000000E-03 0. -1.
        -11    1    3    3    0    0  0.99636268043E+01  0.10587991245E+02 -0.11144723681E+02  0.18318959683E+02  0.51100000000E-03 0.  1.
        -12    1    3    3    0    0 -0.21316890693E+02 -0.40630210643E+01 -0.79231802541E+01  0.23101834436E+02  0.00000000000E+00 0.  1.
</event>
<event>
 7    1  0.3305651E-013  0.7246125E+02  0.7816164E-02  0.1226709E+00
        -11   -1    0    0    0    0  0.00000000000E+00  0.00000000000E+00  0.45593999997E+02  0.45594000000E+02  0.51100000000E-03 0.  1.
         11   -1    0    0    0    0 -0.00000000000E+00 -0.00000000000E+00 -0.45593999997E+02  0.45594000000E+02  0.51100000000E-03 0. -1.
    9900012    2    1    2    0    0 -0.12377804421E+01  0.14600398595E+02  0.11661366570E+02  0.72461248818E+02  0.69999581216E+02 0.  0.
         12    1    1    2    0    0  0.12377804421E+01 -0.14600398595E+02 -0.11661366570E+02  0.18726751182E+02  0.00000000000E+00 0. -1.
         11    1    3    3    0    0  0.17835717596E+02  0.12504422097E+02  0.12995042610E+01  0.21821138965E+02  0.51100000000E-03 0. -1.
        -11    1    3    3    0    0  0.11027210717E+02  0.19677158109E+01  0.16477316465E+02  0.19924187307E+02  0.51100000000E-03 0.  1.
         12    1    3    3    0    0 -0.30100708755E+02  0.12826068694E+00 -0.61154541559E+01  0.30715922546E+02  0.00000000000E+00 0. -1.
</event>
<event>
 7    1  0.3305651E-013  0.7246158E+02  0.7816164E-02  0.1226708E+00
        -11   -1    0    0    0    0  0.00000000000E+00  0.00000000000E+00  0.45593999997E+02  0.45594000000E+02  0.51100000000E-03 0. -1.
         11   -1    0    0    0    0 -0.00000000000E+00 -0.00000000000E+00 -0.45593999997E+02  0.45594000000E+02  0.51100000000E-03 0.  1.
    9900012    2    1    2    0    0 -0.15222004522E+02  0.10228179866E+02 -0.37886148584E+01  0.72461583162E+02  0.70000016762E+02 0.  0.
         12    1    1    2    0    0  0.15222004522E+02 -0.10228179866E+02  0.37886148584E+01  0.18726416838E+02  0.00000000000E+00 0. -1.
         11    1    3    3    0    0  0.70931894481E+00 -0.72407345345E+00 -0.11234044114E-01  0.10136775603E+01  0.51100000000E-03 0. -1.
        -11    1    3    3    0    0  0.25394865594E+02  0.72622776892E+01 -0.12226998712E+02  0.29105658789E+02  0.51100000000E-03 0.  1.
        -12    1    3    3    0    0 -0.41326189061E+02  0.36899756307E+01  0.84496178982E+01  0.42342246812E+02  0.00000000000E+00 0.  1.
</event>
<event>
 7    1  0.3305651E-013  0.7246146E+02  0.7816164E-02  0.1226708E+00
        -11   -1    0    0    0    0  0.00000000000E+00  0.00000000000E+00  0.45593999997E+02  0.45594000000E+02  0.51100000000E-03 0. -1.
         11   -1    0    0    0    0 -0.00000000000E+00 -0.00000000000E+00 -0.45593999997E+02  0.45594000000E+02  0.51100000000E-03 0.  1.
    9900012    2    1    2    0    0  0.17450562070E+02  0.67526910362E+01 -0.74989286916E+00  0.72461460221E+02  0.69999856609E+02 0.  0.
         12    1    1    2    0    0 -0.17450562070E+02 -0.67526910362E+01  0.74989286916E+00  0.18726539779E+02  0.00000000000E+00 0. -1.
         11    1    3    3    0    0  0.45866785189E+01 -0.20125334551E+02 -0.33869767552E+01  0.20917416725E+02  0.51100000000E-03 0. -1.
        -11    1    3    3    0    0  0.25822344079E+02  0.20406765707E+02  0.11141951316E+02  0.34747267803E+02  0.51100000000E-03 0.  1.
         12    1    3    3    0    0 -0.12958460528E+02  0.64712598800E+01 -0.85048674304E+01  0.16796775694E+02  0.00000000000E+00 0. -1.
</event>
<event>
 7    1  0.3305651E-013  0.7246155E+02  0.7816164E-02  0.1226708E+00
        -11   -1    0    0    0    0  0.00000000000E+00  0.00000000000E+00  0.45593999997E+02  0.45594000000E+02  0.51100000000E-03 0. -1.
         11   -1    0    0    0    0 -0.00000000000E+00 -0.00000000000E+00 -0.45593999997E+02  0.45594000000E+02  0.51100000000E-03 0.  1.
    9900012    2    1    2    0    0  0.20073749883E+01 -0.14123707560E+02 -0.12131413428E+02  0.72461551822E+02  0.69999975936E+02 0.  0.
         12    1    1    2    0    0 -0.20073749883E+01  0.14123707560E+02  0.12131413428E+02  0.18726448178E+02  0.00000000000E+00 0. -1.
         11    1    3    3    0    0  0.21030102718E+02 -0.86159013930E+01 -0.36498432889E+01  0.23017826427E+02  0.51100000000E-03 0. -1.
        -11    1    3    3    0    0 -0.78599219654E+01 -0.61753590906E+01 -0.26452203167E+02  0.28277773707E+02  0.51100000000E-03 0.  1.
         12    1    3    3    0    0 -0.11162805764E+02  0.66755292326E+00  0.17970633027E+02  0.21165951687E+02  0.00000000000E+00 0. -1.
</event>
<event>
 7    1  0.3305651E-013  0.7246157E+02  0.7816164E-02  0.1226708E+00
        -11   -1    0    0    0    0  0.00000000000E+00  0.00000000000E+00  0.45593999997E+02  0.45594000000E+02  0.51100000000E-03 0.  1.
         11   -1    0    0    0    0 -0.00000000000E+00 -0.00000000000E+00 -0.45593999997E+02  0.45594000000E+02  0.51100000000E-03 0. -1.
    9900012    2    1    2    0    0  0.16497898314E+02  0.82385824496E+01  0.32594986009E+01  0.72461568928E+02  0.69999998220E+02 0.  0.
         12    1    1    2    0    0 -0.16497898314E+02 -0.82385824496E+01 -0.32594986009E+01  0.18726431072E+02  0.00000000000E+00 0. -1.
         11    1    3    3    0    0 -0.18917038058E+02 -0.40781357359E+01 -0.58463921797E+00  0.19360457723E+02  0.51100000000E-03 0. -1.
        -11    1    3    3    0    0  0.27491846368E+02 -0.92087670729E+01 -0.30422476251E+01  0.29152328871E+02  0.51100000000E-03 0.  1.
        -12    1    3    3    0    0  0.79230900036E+01  0.21525485258E+02  0.68863854440E+01  0.23948782334E+02  0.00000000000E+00 0.  1.
</event>
<event>
 7    1  0.3305651E-013  0.7246162E+02  0.7816164E-02  0.1226708E+00
        -11   -1    0    0    0    0  0.00000000000E+00  0.00000000000E+00  0.45593999997E+02  0.45594000000E+02  0.51100000000E-03 0. -1.
         11   -1    0    0    0    0 -0.00000000000E+00 -0.00000000000E+00 -0.45593999997E+02  0.45594000000E+02  0.51100000000E-03 0.  1.
    9900012    2    1    2    0    0 -0.11027965256E+02  0.13283267754E+02 -0.72537071591E+01  0.72461615206E+02  0.70000058505E+02 0.  0.
         12    1    1    2    0    0  0.11027965256E+02 -0.13283267754E+02  0.72537071591E+01  0.18726384794E+02  0.00000000000E+00 0. -1.
         11    1    3    3    0    0  0.19557600694E+02 -0.70836776749E-01  0.12798567654E+02  0.23373234629E+02  0.51100000000E-03 0. -1.
        -11    1    3    3    0    0 -0.17002253945E+02  0.19227650648E+02 -0.19985434795E+01  0.25744385115E+02  0.51100000000E-03 0.  1.
        -12    1    3    3    0    0 -0.13583312006E+02 -0.58735461175E+01 -0.18053731334E+02  0.23343995462E+02  0.00000000000E+00 0.  1.
</event>
<event>
 7    1  0.3305651E-013  0.7246162E+02  0.7816164E-02  0.1226708E+00
        -11   -1    0    0    0    0  0.00000000000E+00  0.00000000000E+00  0.45593999997E+02  0.45594000000E+02  0.51100000000E-03 0.  1.
         11   -1    0    0    0    0 -0.00000000000E+00 -0.00000000000E+00 -0.45593999997E+02  0.45594000000E+02  0.51100000000E-03 0. -1.
    9900012    2    1    2    0    0  0.10058094883E+02  0.14296548479E+02  0.67171868336E+01  0.72461623681E+02  0.70000069546E+02 0.  0.
         12    1    1    2    0    0 -0.10058094883E+02 -0.14296548479E+02 -0.67171868336E+01  0.18726376319E+02  0.00000000000E+00 0. -1.
         11    1    3    3    0    0  0.27715934758E+01  0.47765606670E+01 -0.87045880728E+01  0.10308594277E+02  0.51100000000E-03 0. -1.
        -11    1    3    3    0    0  0.94411788381E+01 -0.16105687286E+02 -0.13808450111E+02  0.23220730298E+02  0.51100000000E-03 0.  1.
         12    1    3    3    0    0 -0.21546774306E+01  0.25625675098E+02  0.29230225018E+02  0.38932299106E+02  0.00000000000E+00 0. -1.
</event>
<event>
 7    1  0.3305651E-013  0.7246137E+02  0.7816164E-02  0.1226709E+00
        -11   -1    0    0    0    0  0.00000000000E+00  0.00000000000E+00  0.45593999997E+02  0.45594000000E+02  0.51100000000E-03 0. -1.
         11   -1    0    0    0    0 -0.00000000000E+00 -0.00000000000E+00 -0.45593999997E+02  0.45594000000E+02  0.51100000000E-03 0.  1.
    9900012    2    1    2    0    0  0.17725288350E+02 -0.16914529616E+00  0.60392274339E+01  0.72461368556E+02  0.69999737198E+02 0.  0.
         12    1    1    2    0    0 -0.17725288350E+02  0.16914529616E+00 -0.60392274339E+01  0.18726631444E+02  0.00000000000E+00 0. -1.
         11    1    3    3    0    0  0.28755097148E+01  0.66566793615E+01 -0.59764128397E+01  0.93966721201E+01  0.51100000000E-03 0. -1.
        -11    1    3    3    0    0 -0.15615703470E+02 -0.94673307541E+01 -0.13924547368E+02  0.22964615523E+02  0.51100000000E-03 0.  1.
         12    1    3    3    0    0  0.30465482105E+02  0.26415060964E+01  0.25940187641E+02  0.40100080913E+02  0.00000000000E+00 0. -1.
</event>
<event>
 7    1  0.3305651E-013  0.7246158E+02  0.7816164E-02  0.1226708E+00
        -11   -1    0    0    0    0  0.00000000000E+00  0.00000000000E+00  0.45593999997E+02  0.45594000000E+02  0.51100000000E-03 0. -1.
         11   -1    0    0    0    0 -0.00000000000E+00 -0.00000000000E+00 -0.45593999997E+02  0.45594000000E+02  0.51100000000E-03 0.  1.
    9900012    2    1    2    0    0  0.27698911673E+01 -0.18520144649E+02 -0.10384360211E+00  0.72461579136E+02  0.70000011518E+02 0.  0.
         12    1    1    2    0    0 -0.27698911673E+01  0.18520144649E+02  0.10384360211E+00  0.18726420864E+02  0.00000000000E+00 0. -1.
         11    1    3    3    0    0 -0.24495050539E+02 -0.10847829975E+02  0.42954570106E+01  0.27131787027E+02  0.51100000000E-03 0. -1.
        -11    1    3    3    0    0 -0.39200602040E+01 -0.25692700248E+01 -0.11953554810E+02  0.12839606432E+02  0.51100000000E-03 0.  1.
        -12    1    3    3    0    0  0.31185001911E+02 -0.51030446490E+01  0.75542541976E+01  0.32490185677E+02  0.00000000000E+00 0.  1.
</event>
<event>
 7    1  0.3305651E-013  0.7246152E+02  0.7816164E-02  0.1226708E+00
        -11   -1    0    0    0    0  0.00000000000E+00  0.00000000000E+00  0.45593999997E+02  0.45594000000E+02  0.51100000000E-03 0. -1.
         11   -1    0    0    0    0 -0.00000000000E+00 -0.00000000000E+00 -0.45593999997E+02  0.45594000000E+02  0.51100000000E-03 0.  1.
    9900012    2    1    2    0    0 -0.10616092765E+02 -0.13721004599E+02  0.70507852744E+01  0.72461522334E+02  0.69999937522E+02 0.  0.
         12    1    1    2    0    0  0.10616092765E+02  0.13721004599E+02 -0.70507852744E+01  0.18726477666E+02  0.00000000000E+00 0. -1.
         11    1    3    3    0    0 -0.17247677888E+01 -0.21714463919E+02 -0.18229933731E+01  0.21859004376E+02  0.51100000000E-03 0. -1.
        -11    1    3    3    0    0  0.84024887976E+01 -0.82842129749E+01 -0.13530619281E+02  0.17952929037E+02  0.51100000000E-03 0.  1.
         12    1    3    3    0    0 -0.17293813774E+02  0.16277672294E+02  0.22404397929E+02  0.32649588921E+02  0.00000000000E+00 0. -1.
</event>
<event>
 7    1  0.3305651E-013  0.7246156E+02  0.7816164E-02  0.1226708E+00
        -11   -1    0    0    0    0  0.00000000000E+00  0.00000000000E+00  0.45593999997E+02  0.45594000000E+02  0.51100000000E-03 0.  1.
         11   -1    0    0    0    0 -0.00000000000E+00 -0.00000000000E+00 -0.45593999997E+02  0.45594000000E+02  0.51100000000E-03 0. -1.
    9900012    2    1    2    0    0 -0.64896095936E+01 -0.15446305868E+02 -0.83651646238E+01  0.72461564759E+02  0.69999992789E+02 0.  0.
         12    1    1    2    0    0  0.64896095936E+01  0.15446305868E+02  0.83651646238E+01  0.18726435241E+02  0.00000000000E+00 0. -1.
         11    1    3    3    0    0 -0.16900172540E+02 -0.60741739163E+01  0.21830974788E+02  0.28268407827E+02  0.51100000000E-03 0.  1.
        -11    1    3    3    0    0  0.13481354166E+02  0.44959295474E+00 -0.13378924727E+01  0.13555035983E+02  0.51100000000E-03 0. -1.
        -12    1    3    3    0    0 -0.30707912200E+01 -0.98217249065E+01 -0.28858246939E+02  0.30638120948E+02  0.00000000000E+00 0.  1.
</event>
<event>
 7    1  0.3305651E-013  0.7246157E+02  0.7816164E-02  0.1226708E+00
        -11   -1    0    0    0    0  0.00000000000E+00  0.00000000000E+00  0.45593999997E+02  0.45594000000E+02  0.51100000000E-03 0.  1.
         11   -1    0    0    0    0 -0.00000000000E+00 -0.00000000000E+00 -0.45593999997E+02  0.45594000000E+02  0.51100000000E-03 0. -1.
    9900012    2    1    2    0    0 -0.95098608149E+01 -0.12389596061E+02  0.10331491951E+02  0.72461567632E+02  0.69999996532E+02 0.  0.
         12    1    1    2    0    0  0.95098608149E+01  0.12389596061E+02 -0.10331491951E+02  0.18726432368E+02  0.00000000000E+00 0. -1.
         11    1    3    3    0    0  0.36100838426E+01 -0.43745921968E+01 -0.65506322882E+01  0.86649031083E+01  0.51100000000E-03 0. -1.
        -11    1    3    3    0    0  0.20279495266E+02 -0.12816465545E+02  0.18068278004E+02  0.30033021619E+02  0.51100000000E-03 0.  1.
         12    1    3    3    0    0 -0.33399439923E+02  0.48014616803E+01 -0.11861537648E+01  0.33763642905E+02  0.00000000000E+00 0. -1.
</event>
<event>
 7    1  0.3305651E-013  0.7246158E+02  0.7816164E-02  0.1226708E+00
        -11   -1    0    0    0    0  0.00000000000E+00  0.00000000000E+00  0.45593999997E+02  0.45594000000E+02  0.51100000000E-03 0.  1.
         11   -1    0    0    0    0 -0.00000000000E+00 -0.00000000000E+00 -0.45593999997E+02  0.45594000000E+02  0.51100000000E-03 0. -1.
    9900012    2    1    2    0    0 -0.13923268472E+02  0.12175137405E+02 -0.29304444599E+01  0.72461578011E+02  0.70000010053E+02 0.  0.
         12    1    1    2    0    0  0.13923268472E+02 -0.12175137405E+02  0.29304444599E+01  0.18726421989E+02  0.00000000000E+00 0. -1.
         11    1    3    3    0    0  0.55409745321E+01 -0.10083645476E+01  0.92177779540E+01  0.10802158511E+02  0.51100000000E-03 0. -1.
        -11    1    3    3    0    0  0.10531086467E+02 -0.91822127429E+01  0.10894373650E+02  0.17717341520E+02  0.51100000000E-03 0.  1.
         12    1    3    3    0    0 -0.29995329471E+02  0.22365714695E+02 -0.23042596064E+02  0.43942077981E+02  0.00000000000E+00 0. -1.
</event>
<event>
 7    1  0.3305651E-013  0.7246135E+02  0.7816164E-02  0.1226709E+00
        -11   -1    0    0    0    0  0.00000000000E+00  0.00000000000E+00  0.45593999997E+02  0.45594000000E+02  0.51100000000E-03 0. -1.
         11   -1    0    0    0    0 -0.00000000000E+00 -0.00000000000E+00 -0.45593999997E+02  0.45594000000E+02  0.51100000000E-03 0.  1.
    9900012    2    1    2    0    0 -0.44432842979E+01 -0.18038985875E+02 -0.23536263738E+01  0.72461352039E+02  0.69999715681E+02 0.  0.
         12    1    1    2    0    0  0.44432842979E+01  0.18038985875E+02  0.23536263738E+01  0.18726647961E+02  0.00000000000E+00 0. -1.
         11    1    3    3    0    0 -0.20247904652E+01 -0.33790372896E+01 -0.84724917250E+00  0.40293300751E+01  0.51100000000E-03 0. -1.
        -11    1    3    3    0    0 -0.34458131256E+02 -0.91541491885E+01 -0.37234281096E+01  0.35847247791E+02  0.51100000000E-03 0.  1.
         12    1    3    3    0    0  0.32039637423E+02 -0.55057993967E+01  0.22170509083E+01  0.32584774173E+02  0.00000000000E+00 0. -1.
</event>
<event>
 7    1  0.3305651E-013  0.7246156E+02  0.7816164E-02  0.1226708E+00
        -11   -1    0    0    0    0  0.00000000000E+00  0.00000000000E+00  0.45593999997E+02  0.45594000000E+02  0.51100000000E-03 0.  1.
         11   -1    0    0    0    0 -0.00000000000E+00 -0.00000000000E+00 -0.45593999997E+02  0.45594000000E+02  0.51100000000E-03 0. -1.
    9900012    2    1    2    0    0  0.97629921884E+01 -0.10164878144E+02  0.12330398805E+02  0.72461561501E+02  0.69999988545E+02 0.  0.
         12    1    1    2    0    0 -0.97629921884E+01  0.10164878144E+02 -0.12330398805E+02  0.18726438499E+02  0.00000000000E+00 0. -1.
         11    1    3    3    0    0  0.41811427176E+01 -0.70230211321E+01  0.24608418572E+02  0.25930272754E+02  0.51100000000E-03 0.  1.
        -11    1    3    3    0    0 -0.14397177744E+02  0.11945928913E+02 -0.14084578976E+00  0.18708388022E+02  0.51100000000E-03 0. -1.
         12    1    3    3    0    0  0.19979027215E+02 -0.15087785925E+02 -0.12137173977E+02  0.27822900725E+02  0.00000000000E+00 0. -1.
</event>
<event>
 7    1  0.3305651E-013  0.7246160E+02  0.7816164E-02  0.1226708E+00
        -11   -1    0    0    0    0  0.00000000000E+00  0.00000000000E+00  0.45593999997E+02  0.45594000000E+02  0.51100000000E-03 0.  1.
         11   -1    0    0    0    0 -0.00000000000E+00 -0.00000000000E+00 -0.45593999997E+02  0.45594000000E+02  0.51100000000E-03 0. -1.
    9900012    2    1    2    0    0  0.66748818921E+01  0.11487429309E+02  0.13197080450E+02  0.72461601179E+02  0.70000040233E+02 0.  0.
         12    1    1    2    0    0 -0.66748818921E+01 -0.11487429309E+02 -0.13197080450E+02  0.18726398821E+02  0.00000000000E+00 0. -1.
         11    1    3    3    0    0 -0.12721703030E+02 -0.20259238829E+02  0.16371934298E+01  0.23978300367E+02  0.51100000000E-03 0. -1.
        -11    1    3    3    0    0  0.25349905381E+01  0.47705222822E+01  0.15512580255E+02  0.16426326622E+02  0.51100000000E-03 0.  1.
        -12    1    3    3    0    0  0.16861594384E+02  0.26976145856E+02 -0.39526932339E+01  0.32056974190E+02  0.00000000000E+00 0.  1.
</event>
<event>
 7    1  0.3305651E-013  0.7246155E+02  0.7816164E-02  0.1226708E+00
        -11   -1    0    0    0    0  0.00000000000E+00  0.00000000000E+00  0.45593999997E+02  0.45594000000E+02  0.51100000000E-03 0. -1.
         11   -1    0    0    0    0 -0.00000000000E+00 -0.00000000000E+00 -0.45593999997E+02  0.45594000000E+02  0.51100000000E-03 0.  1.
    9900012    2    1    2    0    0  0.15016845607E+02 -0.83829666365E+01 -0.74094552826E+01  0.72461553215E+02  0.69999977751E+02 0.  0.
         12    1    1    2    0    0 -0.15016845607E+02  0.83829666365E+01  0.74094552826E+01  0.18726446785E+02  0.00000000000E+00 0. -1.
         11    1    3    3    0    0  0.89905758391E+01 -0.14562852492E+02  0.49709930470E+01  0.17821837693E+02  0.51100000000E-03 0. -1.
        -11    1    3    3    0    0  0.29046234303E+02 -0.10408948567E+01 -0.76446026586E+01  0.30053404788E+02  0.51100000000E-03 0.  1.
        -12    1    3    3    0    0 -0.23019964535E+02  0.72207807119E+01 -0.47358456710E+01  0.24586310734E+02  0.00000000000E+00 0.  1.
</event>
<event>
 7    1  0.3305651E-013  0.7246156E+02  0.7816164E-02  0.1226708E+00
        -11   -1    0    0    0    0  0.00000000000E+00  0.00000000000E+00  0.45593999997E+02  0.45594000000E+02  0.51100000000E-03 0. -1.
         11   -1    0    0    0    0 -0.00000000000E+00 -0.00000000000E+00 -0.45593999997E+02  0.45594000000E+02  0.51100000000E-03 0.  1.
    9900012    2    1    2    0    0  0.17954948293E+02  0.10433205527E+01 -0.52163926466E+01  0.72461563120E+02  0.69999990654E+02 0.  0.
         12    1    1    2    0    0 -0.17954948293E+02 -0.10433205527E+01  0.52163926466E+01  0.18726436880E+02  0.00000000000E+00 0. -1.
         11    1    3    3    0    0 -0.14446510128E+02 -0.46749415906E+01 -0.79475101404E+01  0.17138251120E+02  0.51100000000E-03 0. -1.
        -11    1    3    3    0    0  0.68974306295E+01  0.11476003249E+02  0.19942935741E+02  0.24020697036E+02  0.51100000000E-03 0.  1.
        -12    1    3    3    0    0  0.25504027791E+02 -0.57577411059E+01 -0.17211818247E+02  0.31302614964E+02  0.00000000000E+00 0.  1.
</event>
<event>
 7    1  0.3305651E-013  0.7246155E+02  0.7816164E-02  0.1226708E+00
        -11   -1    0    0    0    0  0.00000000000E+00  0.00000000000E+00  0.45593999997E+02  0.45594000000E+02  0.51100000000E-03 0.  1.
         11   -1    0    0    0    0 -0.00000000000E+00 -0.00000000000E+00 -0.45593999997E+02  0.45594000000E+02  0.51100000000E-03 0. -1.
    9900012    2    1    2    0    0 -0.13599414435E+02  0.12872858421E+02  0.15908146301E+00  0.72461551757E+02  0.69999975851E+02 0.  0.
         12    1    1    2    0    0  0.13599414435E+02 -0.12872858421E+02 -0.15908146301E+00  0.18726448243E+02  0.00000000000E+00 0. -1.
         11    1    3    3    0    0  0.14070532209E+02  0.23957092984E+02  0.93936761599E+01  0.29328541269E+02  0.51100000000E-03 0. -1.
        -11    1    3    3    0    0  0.62165437087E+01  0.11574670548E+00  0.18881009052E+00  0.62204873196E+01  0.51100000000E-03 0.  1.
        -12    1    3    3    0    0 -0.33886490353E+02 -0.11199981269E+02 -0.94234047874E+01  0.36912523168E+02  0.00000000000E+00 0.  1.
</event>
<event>
 7    1  0.3305651E-013  0.7246158E+02  0.7816164E-02  0.1226708E+00
        -11   -1    0    0    0    0  0.00000000000E+00  0.00000000000E+00  0.45593999997E+02  0.45594000000E+02  0.51100000000E-03 0.  1.
         11   -1    0    0    0    0 -0.00000000000E+00 -0.00000000000E+00 -0.45593999997E+02  0.45594000000E+02  0.51100000000E-03 0. -1.
    9900012    2    1    2    0    0 -0.15265528685E+01 -0.11262209132E+02  0.14883243613E+02  0.72461583935E+02  0.70000017770E+02 0.  0.
         12    1    1    2    0    0  0.15265528685E+01  0.11262209132E+02 -0.14883243613E+02  0.18726416065E+02  0.00000000000E+00 0. -1.
         11    1    3    3    0    0  0.14738698012E+02  0.11534886817E+01  0.15040119223E+02  0.21089450959E+02  0.51100000000E-03 0. -1.
        -11    1    3    3    0    0  0.41483822416E+01 -0.19693889554E+02  0.14849708475E+02  0.25011441442E+02  0.51100000000E-03 0.  1.
         12    1    3    3    0    0 -0.20413633122E+02  0.72781917397E+01 -0.15006584085E+02  0.26360691534E+02  0.00000000000E+00 0. -1.
</event>
<event>
 7    1  0.3305651E-013  0.7246156E+02  0.7816164E-02  0.1226708E+00
        -11   -1    0    0    0    0  0.00000000000E+00  0.00000000000E+00  0.45593999997E+02  0.45594000000E+02  0.51100000000E-03 0.  1.
         11   -1    0    0    0    0 -0.00000000000E+00 -0.00000000000E+00 -0.45593999997E+02  0.45594000000E+02  0.51100000000E-03 0. -1.
    9900012    2    1    2    0    0  0.26352704216E+01  0.11958740607E+02  0.14167695137E+02  0.72461555794E+02  0.69999981111E+02 0.  0.
         12    1    1    2    0    0 -0.26352704216E+01 -0.11958740607E+02 -0.14167695137E+02  0.18726444206E+02  0.00000000000E+00 0. -1.
         11    1    3    3    0    0 -0.45798819664E+01  0.24728250422E+02 -0.23730076040E+01  0.25260499859E+02  0.51100000000E-03 0. -1.
        -11    1    3    3    0    0  0.20436157395E+01  0.11661739661E+02 -0.62536900689E+01  0.13389592112E+02  0.51100000000E-03 0.  1.
         12    1    3    3    0    0  0.51715366485E+01 -0.24431249476E+02  0.22794392810E+02  0.33811463823E+02  0.00000000000E+00 0. -1.
</event>
<event>
 7    1  0.3305651E-013  0.7246158E+02  0.7816164E-02  0.1226708E+00
        -11   -1    0    0    0    0  0.00000000000E+00  0.00000000000E+00  0.45593999997E+02  0.45594000000E+02  0.51100000000E-03 0.  1.
         11   -1    0    0    0    0 -0.00000000000E+00 -0.00000000000E+00 -0.45593999997E+02  0.45594000000E+02  0.51100000000E-03 0. -1.
    9900012    2    1    2    0    0 -0.51830721650E+00 -0.52932729872E+01  0.17955258073E+02  0.72461583532E+02  0.70000017244E+02 0.  0.
         12    1    1    2    0    0  0.51830721650E+00  0.52932729872E+01 -0.17955258073E+02  0.18726416468E+02  0.00000000000E+00 0. -1.
         11    1    3    3    0    0 -0.13582104624E+02  0.56132543561E+01 -0.11181957403E+02  0.18466682488E+02  0.51100000000E-03 0. -1.
        -11    1    3    3    0    0  0.20159367310E+02  0.96909744933E+01  0.83272178626E+01  0.23867501641E+02  0.51100000000E-03 0.  1.
         12    1    3    3    0    0 -0.70955699025E+01 -0.20597501837E+02  0.20809997613E+02  0.30127399403E+02  0.00000000000E+00 0. -1.
</event>
<event>
 7    1  0.3305651E-013  0.7246162E+02  0.7816164E-02  0.1226708E+00
        -11   -1    0    0    0    0  0.00000000000E+00  0.00000000000E+00  0.45593999997E+02  0.45594000000E+02  0.51100000000E-03 0.  1.
         11   -1    0    0    0    0 -0.00000000000E+00 -0.00000000000E+00 -0.45593999997E+02  0.45594000000E+02  0.51100000000E-03 0. -1.
    9900012    2    1    2    0    0  0.55674084238E+01 -0.51630481750E+01  0.17117948381E+02  0.72461621285E+02  0.70000066424E+02 0.  0.
         12    1    1    2    0    0 -0.55674084238E+01  0.51630481750E+01 -0.17117948381E+02  0.18726378715E+02  0.00000000000E+00 0. -1.
         11    1    3    3    0    0  0.69686460136E+00 -0.54218671429E+01 -0.49342771155E+01  0.73640582902E+01  0.51100000000E-03 0. -1.
        -11    1    3    3    0    0  0.18227081947E+02 -0.26017568941E+02  0.11004572315E+02  0.33619057423E+02  0.51100000000E-03 0.  1.
         12    1    3    3    0    0 -0.13356538125E+02  0.26276387909E+02  0.11047653181E+02  0.31478505572E+02  0.00000000000E+00 0. -1.
</event>
<event>
 7    1  0.3305651E-013  0.7246164E+02  0.7816164E-02  0.1226708E+00
        -11   -1    0    0    0    0  0.00000000000E+00  0.00000000000E+00  0.45593999997E+02  0.45594000000E+02  0.51100000000E-03 0.  1.
         11   -1    0    0    0    0 -0.00000000000E+00 -0.00000000000E+00 -0.45593999997E+02  0.45594000000E+02  0.51100000000E-03 0. -1.
    9900012    2    1    2    0    0 -0.16430407222E+02 -0.83459095634E+00  0.89454823140E+01  0.72461642175E+02  0.70000093638E+02 0.  0.
         12    1    1    2    0    0  0.16430407222E+02  0.83459095634E+00 -0.89454823140E+01  0.18726357825E+02  0.00000000000E+00 0. -1.
         11    1    3    3    0    0 -0.27867816148E+02 -0.20375818149E+02 -0.85707021609E+01  0.35570297692E+02  0.51100000000E-03 0. -1.
        -11    1    3    3    0    0 -0.40391180295E+01 -0.18569689615E+01 -0.11015220346E+01  0.45799737155E+01  0.51100000000E-03 0.  1.
        -12    1    3    3    0    0  0.15476526955E+02  0.21398196154E+02  0.18617706510E+02  0.32311370768E+02  0.00000000000E+00 0.  1.
</event>
<event>
 7    1  0.3305651E-013  0.7246160E+02  0.7816164E-02  0.1226708E+00
        -11   -1    0    0    0    0  0.00000000000E+00  0.00000000000E+00  0.45593999997E+02  0.45594000000E+02  0.51100000000E-03 0.  1.
         11   -1    0    0    0    0 -0.00000000000E+00 -0.00000000000E+00 -0.45593999997E+02  0.45594000000E+02  0.51100000000E-03 0. -1.
    9900012    2    1    2    0    0  0.17525427272E+01  0.60145914125E+01  0.17647420845E+02  0.72461596759E+02  0.70000034475E+02 0.  0.
         12    1    1    2    0    0 -0.17525427272E+01 -0.60145914125E+01 -0.17647420845E+02  0.18726403241E+02  0.00000000000E+00 0. -1.
         11    1    3    3    0    0 -0.27407938213E+01  0.12721050246E+02  0.80300486509E+01  0.15291133108E+02  0.51100000000E-03 0.  1.
        -11    1    3    3    0    0 -0.92387393147E+01  0.21598745302E+02 -0.21307436320E+01  0.23588136243E+02  0.51100000000E-03 0. -1.
         12    1    3    3    0    0  0.13732075863E+02 -0.28305204135E+02  0.11748115826E+02  0.33582327408E+02  0.00000000000E+00 0. -1.
</event>
<event>
 7    1  0.3305651E-013  0.7246186E+02  0.7816164E-02  0.1226707E+00
        -11   -1    0    0    0    0  0.00000000000E+00  0.00000000000E+00  0.45593999997E+02  0.45594000000E+02  0.51100000000E-03 0.  1.
         11   -1    0    0    0    0 -0.00000000000E+00 -0.00000000000E+00 -0.45593999997E+02  0.45594000000E+02  0.51100000000E-03 0. -1.
    9900012    2    1    2    0    0 -0.52347954693E+01 -0.16565656200E+01  0.17903100345E+02  0.72461860643E+02  0.70000378232E+02 0.  0.
         12    1    1    2    0    0  0.52347954693E+01  0.16565656200E+01 -0.17903100345E+02  0.18726139357E+02  0.00000000000E+00 0. -1.
         11    1    3    3    0    0 -0.55905950139E+01  0.16631928529E+02  0.11417005253E+02  0.20933795843E+02  0.51100000000E-03 0. -1.
        -11    1    3    3    0    0  0.12357167424E+02 -0.14907339885E+02  0.23490437074E+02  0.30442224021E+02  0.51100000000E-03 0.  1.
         12    1    3    3    0    0 -0.12001367879E+02 -0.33811542640E+01 -0.17004341982E+02  0.21085840779E+02  0.00000000000E+00 0. -1.
</event>
<event>
 7    1  0.3305651E-013  0.7246151E+02  0.7816164E-02  0.1226708E+00
        -11   -1    0    0    0    0  0.00000000000E+00  0.00000000000E+00  0.45593999997E+02  0.45594000000E+02  0.51100000000E-03 0.  1.
         11   -1    0    0    0    0 -0.00000000000E+00 -0.00000000000E+00 -0.45593999997E+02  0.45594000000E+02  0.51100000000E-03 0. -1.
    9900012    2    1    2    0    0  0.12257698210E+02  0.56480289517E+01  0.12981913299E+02  0.72461508889E+02  0.69999920008E+02 0.  0.
         12    1    1    2    0    0 -0.12257698210E+02 -0.56480289517E+01 -0.12981913299E+02  0.18726491111E+02  0.00000000000E+00 0. -1.
         11    1    3    3    0    0  0.11817681454E+01 -0.13480718439E+01 -0.54231326075E+01  0.57117634042E+01  0.51100000000E-03 0. -1.
        -11    1    3    3    0    0  0.34507488148E+02  0.95490967014E+00  0.23835484949E+02  0.41950076684E+02  0.51100000000E-03 0.  1.
         12    1    3    3    0    0 -0.23431558084E+02  0.60411911254E+01 -0.54304390424E+01  0.24799668801E+02  0.00000000000E+00 0. -1.
</event>
<event>
 7    1  0.3305651E-013  0.7246149E+02  0.7816164E-02  0.1226708E+00
        -11   -1    0    0    0    0  0.00000000000E+00  0.00000000000E+00  0.45593999997E+02  0.45594000000E+02  0.51100000000E-03 0. -1.
         11   -1    0    0    0    0 -0.00000000000E+00 -0.00000000000E+00 -0.45593999997E+02  0.45594000000E+02  0.51100000000E-03 0.  1.
    9900012    2    1    2    0    0 -0.14866880560E+02 -0.75719667594E+01 -0.85043126607E+01  0.72461490661E+02  0.69999896263E+02 0.  0.
         12    1    1    2    0    0  0.14866880560E+02  0.75719667594E+01  0.85043126607E+01  0.18726509339E+02  0.00000000000E+00 0. -1.
         11    1    3    3    0    0 -0.39751688517E+02 -0.57286840377E+01 -0.71851901171E+01  0.40800018603E+02  0.51100000000E-03 0. -1.
        -11    1    3    3    0    0  0.47122467614E+01  0.15659325853E+01  0.78128138463E+01  0.92572930633E+01  0.51100000000E-03 0.  1.
        -12    1    3    3    0    0  0.20172561195E+02 -0.34092153071E+01 -0.91319363900E+01  0.22404178994E+02  0.00000000000E+00 0.  1.
</event>
<event>
 7    1  0.3305651E-013  0.7246156E+02  0.7816164E-02  0.1226708E+00
        -11   -1    0    0    0    0  0.00000000000E+00  0.00000000000E+00  0.45593999997E+02  0.45594000000E+02  0.51100000000E-03 0.  1.
         11   -1    0    0    0    0 -0.00000000000E+00 -0.00000000000E+00 -0.45593999997E+02  0.45594000000E+02  0.51100000000E-03 0. -1.
    9900012    2    1    2    0    0  0.34736786095E+01 -0.13897770516E+02  0.12060886526E+02  0.72461562747E+02  0.69999990168E+02 0.  0.
         12    1    1    2    0    0 -0.34736786095E+01  0.13897770516E+02 -0.12060886526E+02  0.18726437253E+02  0.00000000000E+00 0. -1.
         11    1    3    3    0    0 -0.65549634609E+00 -0.32495651551E+01  0.21105574021E+02  0.21364330183E+02  0.51100000000E-03 0. -1.
        -11    1    3    3    0    0 -0.53125470707E+01 -0.66305694218E+01  0.19227257226E+02  0.21020823674E+02  0.51100000000E-03 0.  1.
         12    1    3    3    0    0  0.94417220263E+01 -0.40176359393E+01 -0.28271944721E+02  0.30076408890E+02  0.00000000000E+00 0. -1.
</event>
<event>
 7    1  0.3305651E-013  0.7246157E+02  0.7816164E-02  0.1226708E+00
        -11   -1    0    0    0    0  0.00000000000E+00  0.00000000000E+00  0.45593999997E+02  0.45594000000E+02  0.51100000000E-03 0.  1.
         11   -1    0    0    0    0 -0.00000000000E+00 -0.00000000000E+00 -0.45593999997E+02  0.45594000000E+02  0.51100000000E-03 0. -1.
    9900012    2    1    2    0    0 -0.35874481306E-01  0.68168242101E+01 -0.17441578952E+02  0.72461573335E+02  0.70000003961E+02 0.  0.
         12    1    1    2    0    0  0.35874481306E-01 -0.68168242101E+01  0.17441578952E+02  0.18726426665E+02  0.00000000000E+00 0. -1.
         11    1    3    3    0    0 -0.26725004515E+01  0.14797501153E+02 -0.97944383959E+01  0.17945454098E+02  0.51100000000E-03 0. -1.
        -11    1    3    3    0    0 -0.82119234220E+01 -0.13397643256E+02 -0.27255702140E+02  0.31461179738E+02  0.51100000000E-03 0.  1.
        -12    1    3    3    0    0  0.10848549392E+02  0.54169663128E+01  0.19608561583E+02  0.23054939499E+02  0.00000000000E+00 0.  1.
</event>
<event>
 7    1  0.3305651E-013  0.7246157E+02  0.7816164E-02  0.1226708E+00
        -11   -1    0    0    0    0  0.00000000000E+00  0.00000000000E+00  0.45593999997E+02  0.45594000000E+02  0.51100000000E-03 0.  1.
         11   -1    0    0    0    0 -0.00000000000E+00 -0.00000000000E+00 -0.45593999997E+02  0.45594000000E+02  0.51100000000E-03 0. -1.
    9900012    2    1    2    0    0 -0.18543226477E+02  0.22203565038E+01  0.13777048511E+01  0.72461566761E+02  0.69999995398E+02 0.  0.
         12    1    1    2    0    0  0.18543226477E+02 -0.22203565038E+01 -0.13777048511E+01  0.18726433239E+02  0.00000000000E+00 0. -1.
         11    1    3    3    0    0 -0.35242063897E+02  0.79973931745E+01 -0.19048393703E+02  0.40850981240E+02  0.51100000000E-03 0. -1.
        -11    1    3    3    0    0 -0.27899297673E+01  0.12072064154E+01  0.94501925423E+00  0.31834128051E+01  0.51100000000E-03 0.  1.
        -12    1    3    3    0    0  0.19488767187E+02 -0.69842430861E+01  0.19481079300E+02  0.28427172717E+02  0.00000000000E+00 0.  1.
</event>
<event>
 7    1  0.3305651E-013  0.7246152E+02  0.7816164E-02  0.1226708E+00
        -11   -1    0    0    0    0  0.00000000000E+00  0.00000000000E+00  0.45593999997E+02  0.45594000000E+02  0.51100000000E-03 0. -1.
         11   -1    0    0    0    0 -0.00000000000E+00 -0.00000000000E+00 -0.45593999997E+02  0.45594000000E+02  0.51100000000E-03 0.  1.
    9900012    2    1    2    0    0  0.90451719092E+01 -0.16387511216E+02 -0.56161394201E+00  0.72461519579E+02  0.69999933934E+02 0.  0.
         12    1    1    2    0    0 -0.90451719092E+01  0.16387511216E+02  0.56161394201E+00  0.18726480421E+02  0.00000000000E+00 0. -1.
         11    1    3    3    0    0  0.37549932589E+01  0.14603388784E+02  0.18844954398E+02  0.24134855394E+02  0.51100000000E-03 0. -1.
        -11    1    3    3    0    0 -0.29702522877E+01  0.46400817821E+01  0.21003770800E+01  0.58961293860E+01  0.51100000000E-03 0.  1.
        -12    1    3    3    0    0  0.82604309380E+01 -0.35630981782E+02 -0.21506945420E+02  0.42430534799E+02  0.00000000000E+00 0.  1.
</event>
<event>
 7    1  0.3305651E-013  0.7246157E+02  0.7816164E-02  0.1226708E+00
        -11   -1    0    0    0    0  0.00000000000E+00  0.00000000000E+00  0.45593999997E+02  0.45594000000E+02  0.51100000000E-03 0.  1.
         11   -1    0    0    0    0 -0.00000000000E+00 -0.00000000000E+00 -0.45593999997E+02  0.45594000000E+02  0.51100000000E-03 0. -1.
    9900012    2    1    2    0    0 -0.12334460991E+02  0.88510927097E+01 -0.10963510681E+02  0.72461565835E+02  0.69999994191E+02 0.  0.
         12    1    1    2    0    0  0.12334460991E+02 -0.88510927097E+01  0.10963510681E+02  0.18726434165E+02  0.00000000000E+00 0. -1.
         11    1    3    3    0    0 -0.16328144872E+02  0.81846847084E+00 -0.34163891588E+02  0.37874129618E+02  0.51100000000E-03 0. -1.
        -11    1    3    3    0    0  0.70654560401E+01 -0.70649728226E+01  0.68049363736E+01  0.12088906872E+02  0.51100000000E-03 0.  1.
        -12    1    3    3    0    0 -0.30717721595E+01  0.15097597062E+02  0.16395444534E+02  0.22498529345E+02  0.00000000000E+00 0.  1.
</event>
<event>
 7    1  0.3305651E-013  0.7246161E+02  0.7816164E-02  0.1226708E+00
        -11   -1    0    0    0    0  0.00000000000E+00  0.00000000000E+00  0.45593999997E+02  0.45594000000E+02  0.51100000000E-03 0.  1.
         11   -1    0    0    0    0 -0.00000000000E+00 -0.00000000000E+00 -0.45593999997E+02  0.45594000000E+02  0.51100000000E-03 0. -1.
    9900012    2    1    2    0    0  0.12854096350E+02  0.13016764970E+02 -0.40017215619E+01  0.72461608497E+02  0.70000049766E+02 0.  0.
         12    1    1    2    0    0 -0.12854096350E+02 -0.13016764970E+02  0.40017215619E+01  0.18726391503E+02  0.00000000000E+00 0. -1.
         11    1    3    3    0    0  0.22948781902E+01  0.49479477598E+01  0.10016506315E+01  0.55454447243E+01  0.51100000000E-03 0. -1.
        -11    1    3    3    0    0 -0.16143514673E+02  0.21029145171E+02  0.15622321611E+02  0.30771658152E+02  0.51100000000E-03 0.  1.
         12    1    3    3    0    0  0.26702732833E+02 -0.12960327960E+02 -0.20625693805E+02  0.36144505620E+02  0.00000000000E+00 0. -1.
</event>
<event>
 7    1  0.3305651E-013  0.7246092E+02  0.7816164E-02  0.1226710E+00
        -11   -1    0    0    0    0  0.00000000000E+00  0.00000000000E+00  0.45593999997E+02  0.45594000000E+02  0.51100000000E-03 0.  1.
         11   -1    0    0    0    0 -0.00000000000E+00 -0.00000000000E+00 -0.45593999997E+02  0.45594000000E+02  0.51100000000E-03 0. -1.
    9900012    2    1    2    0    0  0.12870999732E+02  0.37287959772E+01  0.13081935815E+02  0.72460918054E+02  0.69999150330E+02 0.  0.
         12    1    1    2    0    0 -0.12870999732E+02 -0.37287959772E+01 -0.13081935815E+02  0.18727081946E+02  0.00000000000E+00 0. -1.
         11    1    3    3    0    0  0.11688575687E+02  0.12246556995E+02 -0.49214059081E+01  0.17630121843E+02  0.51100000000E-03 0. -1.
        -11    1    3    3    0    0  0.21129297552E+02 -0.66146360171E+01  0.25195909955E+02  0.33541534005E+02  0.51100000000E-03 0.  1.
         12    1    3    3    0    0 -0.19946873507E+02 -0.19031250004E+01 -0.71925682320E+01  0.21289262205E+02  0.00000000000E+00 0. -1.
</event>
<event>
 7    1  0.3305651E-013  0.7246160E+02  0.7816164E-02  0.1226708E+00
        -11   -1    0    0    0    0  0.00000000000E+00  0.00000000000E+00  0.45593999997E+02  0.45594000000E+02  0.51100000000E-03 0.  1.
         11   -1    0    0    0    0 -0.00000000000E+00 -0.00000000000E+00 -0.45593999997E+02  0.45594000000E+02  0.51100000000E-03 0. -1.
    9900012    2    1    2    0    0  0.13271614240E+02  0.25263778313E+01  0.12967638904E+02  0.72461601835E+02  0.70000041087E+02 0.  0.
         12    1    1    2    0    0 -0.13271614240E+02 -0.25263778313E+01 -0.12967638904E+02  0.18726398165E+02  0.00000000000E+00 0. -1.
         11    1    3    3    0    0  0.41630275688E+01 -0.72778361462E+01  0.10181220524E+02  0.13189198199E+02  0.51100000000E-03 0. -1.
        -11    1    3    3    0    0  0.19199885192E+02 -0.19897899666E+02  0.36523290711E+01  0.27890885795E+02  0.51100000000E-03 0.  1.
         12    1    3    3    0    0 -0.10091298521E+02  0.29702113643E+02 -0.86591069036E+00  0.31381517842E+02  0.00000000000E+00 0. -1.
</event>
<event>
 7    1  0.3305651E-013  0.7246157E+02  0.7816164E-02  0.1226708E+00
        -11   -1    0    0    0    0  0.00000000000E+00  0.00000000000E+00  0.45593999997E+02  0.45594000000E+02  0.51100000000E-03 0. -1.
         11   -1    0    0    0    0 -0.00000000000E+00 -0.00000000000E+00 -0.45593999997E+02  0.45594000000E+02  0.51100000000E-03 0.  1.
    9900012    2    1    2    0    0  0.15778223043E+02  0.41293052023E+00 -0.10077517595E+02  0.72461569617E+02  0.69999999117E+02 0.  0.
         12    1    1    2    0    0 -0.15778223043E+02 -0.41293052023E+00  0.10077517595E+02  0.18726430383E+02  0.00000000000E+00 0. -1.
         11    1    3    3    0    0  0.32722484892E+02  0.16287190109E+02 -0.48984671134E+01  0.36878565040E+02  0.51100000000E-03 0. -1.
        -11    1    3    3    0    0  0.95952255600E+00  0.43198184400E+00 -0.10694672456E+02  0.10746316162E+02  0.51100000000E-03 0.  1.
         12    1    3    3    0    0 -0.17903784404E+02 -0.16306241433E+02  0.55156219742E+01  0.24836688415E+02  0.00000000000E+00 0. -1.
</event>
<event>
 7    1  0.3305651E-013  0.7246153E+02  0.7816164E-02  0.1226708E+00
        -11   -1    0    0    0    0  0.00000000000E+00  0.00000000000E+00  0.45593999997E+02  0.45594000000E+02  0.51100000000E-03 0.  1.
         11   -1    0    0    0    0 -0.00000000000E+00 -0.00000000000E+00 -0.45593999997E+02  0.45594000000E+02  0.51100000000E-03 0. -1.
    9900012    2    1    2    0    0  0.70353158358E+01 -0.14083606821E+02  0.10140855733E+02  0.72461531967E+02  0.69999950072E+02 0.  0.
         12    1    1    2    0    0 -0.70353158358E+01  0.14083606821E+02 -0.10140855733E+02  0.18726468033E+02  0.00000000000E+00 0. -1.
         11    1    3    3    0    0  0.10490268460E+02 -0.97466098722E+01  0.14346258974E+01  0.14390979400E+02  0.51100000000E-03 0. -1.
        -11    1    3    3    0    0 -0.28260828037E+02 -0.28757967092E+01  0.15431556054E+02  0.32327658909E+02  0.51100000000E-03 0.  1.
         12    1    3    3    0    0  0.24805875412E+02 -0.14612002395E+01 -0.67253262188E+01  0.25742893658E+02  0.00000000000E+00 0. -1.
</event>
<event>
 7    1  0.3305651E-013  0.7246150E+02  0.7816164E-02  0.1226708E+00
        -11   -1    0    0    0    0  0.00000000000E+00  0.00000000000E+00  0.45593999997E+02  0.45594000000E+02  0.51100000000E-03 0.  1.
         11   -1    0    0    0    0 -0.00000000000E+00 -0.00000000000E+00 -0.45593999997E+02  0.45594000000E+02  0.51100000000E-03 0. -1.
    9900012    2    1    2    0    0 -0.45861782173E+01  0.18136200660E+02  0.85260168548E+00  0.72461501805E+02  0.69999910779E+02 0.  0.
         12    1    1    2    0    0  0.45861782173E+01 -0.18136200660E+02 -0.85260168548E+00  0.18726498195E+02  0.00000000000E+00 0. -1.
         11    1    3    3    0    0  0.26173780802E+01  0.23841063260E+02 -0.66943087794E+01  0.24901018768E+02  0.51100000000E-03 0. -1.
        -11    1    3    3    0    0 -0.57681271529E+01  0.13557437818E+02  0.19804403133E+02  0.24683796198E+02  0.51100000000E-03 0.  1.
        -12    1    3    3    0    0 -0.14354291446E+01 -0.19262300418E+02 -0.12257492668E+02  0.22876686839E+02  0.00000000000E+00 0.  1.
</event>
<event>
 7    1  0.3305651E-013  0.7246157E+02  0.7816164E-02  0.1226708E+00
        -11   -1    0    0    0    0  0.00000000000E+00  0.00000000000E+00  0.45593999997E+02  0.45594000000E+02  0.51100000000E-03 0. -1.
         11   -1    0    0    0    0 -0.00000000000E+00 -0.00000000000E+00 -0.45593999997E+02  0.45594000000E+02  0.51100000000E-03 0.  1.
    9900012    2    1    2    0    0  0.35521564380E+01  0.81944987329E+01 -0.16459390468E+02  0.72461570564E+02  0.70000000351E+02 0.  0.
         12    1    1    2    0    0 -0.35521564380E+01 -0.81944987329E+01  0.16459390468E+02  0.18726429436E+02  0.00000000000E+00 0. -1.
         11    1    3    3    0    0  0.82248730999E+01  0.25732083566E+01 -0.93171317256E+01  0.12691685570E+02  0.51100000000E-03 0. -1.
        -11    1    3    3    0    0  0.12523450640E+02  0.14508229303E+02 -0.26295439380E+02  0.32538833198E+02  0.51100000000E-03 0.  1.
         12    1    3    3    0    0 -0.17196167302E+02 -0.88869389271E+01  0.19153180638E+02  0.27231051796E+02  0.00000000000E+00 0. -1.
</event>
<event>
 7    1  0.3305651E-013  0.7246158E+02  0.7816164E-02  0.1226708E+00
        -11   -1    0    0    0    0  0.00000000000E+00  0.00000000000E+00  0.45593999997E+02  0.45594000000E+02  0.51100000000E-03 0. -1.
         11   -1    0    0    0    0 -0.00000000000E+00 -0.00000000000E+00 -0.45593999997E+02  0.45594000000E+02  0.51100000000E-03 0.  1.
    9900012    2    1    2    0    0 -0.10792661652E+02 -0.31035603783E+01 -0.14985496848E+02  0.72461581540E+02  0.70000014649E+02 0.  0.
         12    1    1    2    0    0  0.10792661652E+02  0.31035603783E+01  0.14985496848E+02  0.18726418460E+02  0.00000000000E+00 0. -1.
         11    1    3    3    0    0  0.17025471100E+02  0.65894250087E+00  0.75900865629E+01  0.18652353355E+02  0.51100000000E-03 0. -1.
        -11    1    3    3    0    0  0.40678396299E+01 -0.54167512300E+01 -0.20750523442E+02  0.21828255462E+02  0.51100000000E-03 0.  1.
        -12    1    3    3    0    0 -0.31885972382E+02  0.16542483508E+01 -0.18250599696E+01  0.31980972722E+02  0.00000000000E+00 0.  1.
</event>
<event>
 7    1  0.3305651E-013  0.7246156E+02  0.7816164E-02  0.1226708E+00
        -11   -1    0    0    0    0  0.00000000000E+00  0.00000000000E+00  0.45593999997E+02  0.45594000000E+02  0.51100000000E-03 0.  1.
         11   -1    0    0    0    0 -0.00000000000E+00 -0.00000000000E+00 -0.45593999997E+02  0.45594000000E+02  0.51100000000E-03 0. -1.
    9900012    2    1    2    0    0 -0.85872894154E+01  0.16208337083E+02  0.37719970859E+01  0.72461556330E+02  0.69999981809E+02 0.  0.
         12    1    1    2    0    0  0.85872894154E+01 -0.16208337083E+02 -0.37719970859E+01  0.18726443670E+02  0.00000000000E+00 0. -1.
         11    1    3    3    0    0  0.86909446699E+01  0.13921819814E+01 -0.21683078924E+01  0.90648910254E+01  0.51100000000E-03 0. -1.
        -11    1    3    3    0    0  0.18615348479E+01  0.89865198110E+01  0.30423743727E+02  0.31777775771E+02  0.51100000000E-03 0.  1.
        -12    1    3    3    0    0 -0.19139768933E+02  0.58296352904E+01 -0.24483438749E+02  0.31618889534E+02  0.00000000000E+00 0.  1.
</event>
<event>
 7    1  0.3305651E-013  0.7246154E+02  0.7816164E-02  0.1226708E+00
        -11   -1    0    0    0    0  0.00000000000E+00  0.00000000000E+00  0.45593999997E+02  0.45594000000E+02  0.51100000000E-03 0. -1.
         11   -1    0    0    0    0 -0.00000000000E+00 -0.00000000000E+00 -0.45593999997E+02  0.45594000000E+02  0.51100000000E-03 0.  1.
    9900012    2    1    2    0    0 -0.62452211886E+01 -0.13289812436E+02 -0.11621468999E+02  0.72461536266E+02  0.69999955672E+02 0.  0.
         12    1    1    2    0    0  0.62452211886E+01  0.13289812436E+02  0.11621468999E+02  0.18726463734E+02  0.00000000000E+00 0. -1.
         11    1    3    3    0    0  0.40238030363E+00 -0.89594450642E+01 -0.19899823378E+02  0.21827426246E+02  0.51100000000E-03 0. -1.
        -11    1    3    3    0    0 -0.10628579264E+02 -0.20069010851E+02 -0.11163702787E+02  0.25305338446E+02  0.51100000000E-03 0.  1.
         12    1    3    3    0    0  0.39809777717E+01  0.15738643479E+02  0.19442057167E+02  0.25328771574E+02  0.00000000000E+00 0. -1.
</event>
<event>
 7    1  0.3305651E-013  0.7246158E+02  0.7816164E-02  0.1226708E+00
        -11   -1    0    0    0    0  0.00000000000E+00  0.00000000000E+00  0.45593999997E+02  0.45594000000E+02  0.51100000000E-03 0.  1.
         11   -1    0    0    0    0 -0.00000000000E+00 -0.00000000000E+00 -0.45593999997E+02  0.45594000000E+02  0.51100000000E-03 0. -1.
    9900012    2    1    2    0    0  0.12150989630E+02  0.74197612842E+01  0.12164683203E+02  0.72461576851E+02  0.70000008542E+02 0.  0.
         12    1    1    2    0    0 -0.12150989630E+02 -0.74197612842E+01 -0.12164683203E+02  0.18726423149E+02  0.00000000000E+00 0. -1.
         11    1    3    3    0    0  0.12475586174E+02 -0.15886111435E+02 -0.54782853866E+00  0.20206654926E+02  0.51100000000E-03 0. -1.
        -11    1    3    3    0    0  0.15296473489E+02 -0.14840216069E+01  0.16686735912E+02  0.22685492655E+02  0.51100000000E-03 0.  1.
        -12    1    3    3    0    0 -0.15621070032E+02  0.24789894326E+02 -0.39742241706E+01  0.29569429271E+02  0.00000000000E+00 0.  1.
</event>
<event>
 7    1  0.3305651E-013  0.7246164E+02  0.7816164E-02  0.1226708E+00
        -11   -1    0    0    0    0  0.00000000000E+00  0.00000000000E+00  0.45593999997E+02  0.45594000000E+02  0.51100000000E-03 0.  1.
         11   -1    0    0    0    0 -0.00000000000E+00 -0.00000000000E+00 -0.45593999997E+02  0.45594000000E+02  0.51100000000E-03 0. -1.
    9900012    2    1    2    0    0  0.12376336822E+01  0.14609863671E+02  0.11648887020E+02  0.72461643642E+02  0.70000095549E+02 0.  0.
         12    1    1    2    0    0 -0.12376336822E+01 -0.14609863671E+02 -0.11648887020E+02  0.18726356358E+02  0.00000000000E+00 0. -1.
         11    1    3    3    0    0 -0.42523135069E+01 -0.15113223515E+02 -0.76580244601E+01  0.17468172030E+02  0.51100000000E-03 0. -1.
        -11    1    3    3    0    0  0.73706256423E+00  0.16793669514E+02 -0.12091015921E+02  0.20706599509E+02  0.51100000000E-03 0.  1.
        -12    1    3    3    0    0  0.47528846249E+01  0.12929417672E+02  0.31397927401E+02  0.34286872103E+02  0.00000000000E+00 0.  1.
</event>
<event>
 7    1  0.3305651E-013  0.7246159E+02  0.7816164E-02  0.1226708E+00
        -11   -1    0    0    0    0  0.00000000000E+00  0.00000000000E+00  0.45593999997E+02  0.45594000000E+02  0.51100000000E-03 0.  1.
         11   -1    0    0    0    0 -0.00000000000E+00 -0.00000000000E+00 -0.45593999997E+02  0.45594000000E+02  0.51100000000E-03 0. -1.
    9900012    2    1    2    0    0  0.51569461657E+01  0.60952803723E+01  0.16939068088E+02  0.72461586455E+02  0.70000021052E+02 0.  0.
         12    1    1    2    0    0 -0.51569461657E+01 -0.60952803723E+01 -0.16939068088E+02  0.18726413545E+02  0.00000000000E+00 0. -1.
         11    1    3    3    0    0  0.17325989138E+02 -0.10686638948E+02  0.98268748037E+01  0.22604460186E+02  0.51100000000E-03 0. -1.
        -11    1    3    3    0    0  0.15865644085E+01  0.26668136682E+01  0.23818672803E+02  0.24019955373E+02  0.51100000000E-03 0.  1.
         12    1    3    3    0    0 -0.13755607381E+02  0.14115105652E+02 -0.16706479518E+02  0.25837170896E+02  0.00000000000E+00 0. -1.
</event>
<event>
 7    1  0.3305651E-013  0.7246150E+02  0.7816164E-02  0.1226708E+00
        -11   -1    0    0    0    0  0.00000000000E+00  0.00000000000E+00  0.45593999997E+02  0.45594000000E+02  0.51100000000E-03 0. -1.
         11   -1    0    0    0    0 -0.00000000000E+00 -0.00000000000E+00 -0.45593999997E+02  0.45594000000E+02  0.51100000000E-03 0.  1.
    9900012    2    1    2    0    0 -0.17255539435E+00  0.85786948095E+01 -0.16645058820E+02  0.72461501045E+02  0.69999909789E+02 0.  0.
         12    1    1    2    0    0  0.17255539435E+00 -0.85786948095E+01  0.16645058820E+02  0.18726498955E+02  0.00000000000E+00 0. -1.
         11    1    3    3    0    0  0.57025343630E+01  0.92967297570E+00  0.49110586454E+01  0.75829866994E+01  0.51100000000E-03 0. -1.
        -11    1    3    3    0    0 -0.38663795198E+01  0.17057322275E+02  0.17448328182E+02  0.24705167282E+02  0.51100000000E-03 0.  1.
        -12    1    3    3    0    0 -0.20087102376E+01 -0.94083004414E+01 -0.39004445648E+02  0.40173347064E+02  0.00000000000E+00 0.  1.
</event>
<event>
 7    1  0.3305651E-013  0.7246154E+02  0.7816164E-02  0.1226708E+00
        -11   -1    0    0    0    0  0.00000000000E+00  0.00000000000E+00  0.45593999997E+02  0.45594000000E+02  0.51100000000E-03 0. -1.
         11   -1    0    0    0    0 -0.00000000000E+00 -0.00000000000E+00 -0.45593999997E+02  0.45594000000E+02  0.51100000000E-03 0.  1.
    9900012    2    1    2    0    0 -0.87088870897E+01  0.14476863999E+02 -0.80781170103E+01  0.72461540644E+02  0.69999961375E+02 0.  0.
         12    1    1    2    0    0  0.87088870897E+01 -0.14476863999E+02  0.80781170103E+01  0.18726459356E+02  0.00000000000E+00 0. -1.
         11    1    3    3    0    0  0.27984280718E+01  0.72602986412E+01 -0.22727518632E+02  0.24022556888E+02  0.51100000000E-03 0. -1.
        -11    1    3    3    0    0 -0.59886278454E+01  0.70441704024E+01 -0.15358838866E+02  0.17927016810E+02  0.51100000000E-03 0.  1.
         12    1    3    3    0    0 -0.55186873162E+01  0.17239495538E+00  0.30008240488E+02  0.30511966945E+02  0.00000000000E+00 0. -1.
</event>
<event>
 7    1  0.3305651E-013  0.7246159E+02  0.7816164E-02  0.1226708E+00
        -11   -1    0    0    0    0  0.00000000000E+00  0.00000000000E+00  0.45593999997E+02  0.45594000000E+02  0.51100000000E-03 0.  1.
         11   -1    0    0    0    0 -0.00000000000E+00 -0.00000000000E+00 -0.45593999997E+02  0.45594000000E+02  0.51100000000E-03 0. -1.
    9900012    2    1    2    0    0  0.15562399086E+02 -0.61016147398E+01  0.84415977406E+01  0.72461587098E+02  0.70000021890E+02 0.  0.
         12    1    1    2    0    0 -0.15562399086E+02  0.61016147398E+01 -0.84415977406E+01  0.18726412902E+02  0.00000000000E+00 0. -1.
         11    1    3    3    0    0  0.19419917504E+02  0.12176019080E+02 -0.17725765725E+02  0.28975703741E+02  0.51100000000E-03 0. -1.
        -11    1    3    3    0    0  0.11957635431E+02 -0.34846787362E+01  0.57316472875E+01  0.13710572996E+02  0.51100000000E-03 0.  1.
        -12    1    3    3    0    0 -0.15815153849E+02 -0.14792955084E+02  0.20435716178E+02  0.29775310361E+02  0.00000000000E+00 0.  1.
</event>
<event>
 7    1  0.3305651E-013  0.7246157E+02  0.7816164E-02  0.1226708E+00
        -11   -1    0    0    0    0  0.00000000000E+00  0.00000000000E+00  0.45593999997E+02  0.45594000000E+02  0.51100000000E-03 0. -1.
         11   -1    0    0    0    0 -0.00000000000E+00 -0.00000000000E+00 -0.45593999997E+02  0.45594000000E+02  0.51100000000E-03 0.  1.
    9900012    2    1    2    0    0  0.83104192522E+01 -0.16989790195E+01 -0.16695201740E+02  0.72461565235E+02  0.69999993410E+02 0.  0.
         12    1    1    2    0    0 -0.83104192522E+01  0.16989790195E+01  0.16695201740E+02  0.18726434765E+02  0.00000000000E+00 0. -1.
         11    1    3    3    0    0  0.40754683055E+00 -0.64816456913E+00 -0.73228124079E+00  0.10594563722E+01  0.51100000000E-03 0. -1.
        -11    1    3    3    0    0  0.32242022265E+02 -0.20463933174E+02 -0.11935437487E+02  0.40009689188E+02  0.51100000000E-03 0.  1.
         12    1    3    3    0    0 -0.24339149843E+02  0.19413118723E+02 -0.40274830121E+01  0.31392419675E+02  0.00000000000E+00 0. -1.
</event>
<event>
 7    1  0.3305651E-013  0.7246157E+02  0.7816164E-02  0.1226708E+00
        -11   -1    0    0    0    0  0.00000000000E+00  0.00000000000E+00  0.45593999997E+02  0.45594000000E+02  0.51100000000E-03 0.  1.
         11   -1    0    0    0    0 -0.00000000000E+00 -0.00000000000E+00 -0.45593999997E+02  0.45594000000E+02  0.51100000000E-03 0. -1.
    9900012    2    1    2    0    0  0.23132299146E+01  0.11976681950E+02  0.14208697763E+02  0.72461573878E+02  0.70000004669E+02 0.  0.
         12    1    1    2    0    0 -0.23132299146E+01 -0.11976681950E+02 -0.14208697763E+02  0.18726426122E+02  0.00000000000E+00 0. -1.
         11    1    3    3    0    0  0.93960076016E+00 -0.20085914635E+02  0.13439339197E+02  0.24185587746E+02  0.51100000000E-03 0. -1.
        -11    1    3    3    0    0  0.16827552470E+02  0.15114961576E+02  0.83632687974E+01  0.24115821587E+02  0.51100000000E-03 0.  1.
         12    1    3    3    0    0 -0.15453923315E+02  0.16947635009E+02 -0.75939102317E+01  0.24160164545E+02  0.00000000000E+00 0. -1.
</event>
<event>
 7    1  0.3305651E-013  0.7246157E+02  0.7816164E-02  0.1226708E+00
        -11   -1    0    0    0    0  0.00000000000E+00  0.00000000000E+00  0.45593999997E+02  0.45594000000E+02  0.51100000000E-03 0. -1.
         11   -1    0    0    0    0 -0.00000000000E+00 -0.00000000000E+00 -0.45593999997E+02  0.45594000000E+02  0.51100000000E-03 0.  1.
    9900012    2    1    2    0    0 -0.10496702404E+02  0.81676116596E+00 -0.15486484905E+02  0.72461572821E+02  0.70000003292E+02 0.  0.
         12    1    1    2    0    0  0.10496702404E+02 -0.81676116596E+00  0.15486484905E+02  0.18726427179E+02  0.00000000000E+00 0. -1.
         11    1    3    3    0    0 -0.28526271854E+02  0.99168170995E+01 -0.11752567026E+02  0.32407009723E+02  0.51100000000E-03 0. -1.
        -11    1    3    3    0    0 -0.45107984871E+01 -0.42999675125E+01 -0.13619828505E+02  0.14977875429E+02  0.51100000000E-03 0.  1.
        -12    1    3    3    0    0  0.22540367937E+02 -0.48000884210E+01  0.98859106257E+01  0.25076687669E+02  0.00000000000E+00 0.  1.
</event>
<event>
 7    1  0.3305651E-013  0.7246155E+02  0.7816164E-02  0.1226708E+00
        -11   -1    0    0    0    0  0.00000000000E+00  0.00000000000E+00  0.45593999997E+02  0.45594000000E+02  0.51100000000E-03 0. -1.
         11   -1    0    0    0    0 -0.00000000000E+00 -0.00000000000E+00 -0.45593999997E+02  0.45594000000E+02  0.51100000000E-03 0.  1.
    9900012    2    1    2    0    0  0.10821170440E+02 -0.24505327722E+01 -0.15085664050E+02  0.72461545440E+02  0.69999967623E+02 0.  0.
         12    1    1    2    0    0 -0.10821170440E+02  0.24505327722E+01  0.15085664050E+02  0.18726454560E+02  0.00000000000E+00 0. -1.
         11    1    3    3    0    0  0.18383261129E+02  0.19991048073E+02 -0.28901979605E+01  0.27311893697E+02  0.51100000000E-03 0. -1.
        -11    1    3    3    0    0  0.11122356551E+02  0.63559720529E+00 -0.10657046406E+02  0.15416985354E+02  0.51100000000E-03 0.  1.
         12    1    3    3    0    0 -0.18684447241E+02 -0.23077178051E+02 -0.15384196838E+01  0.29732666389E+02  0.00000000000E+00 0. -1.
</event>
<event>
 7    1  0.3305651E-013  0.7246127E+02  0.7816164E-02  0.1226709E+00
        -11   -1    0    0    0    0  0.00000000000E+00  0.00000000000E+00  0.45593999997E+02  0.45594000000E+02  0.51100000000E-03 0.  1.
         11   -1    0    0    0    0 -0.00000000000E+00 -0.00000000000E+00 -0.45593999997E+02  0.45594000000E+02  0.51100000000E-03 0. -1.
    9900012    2    1    2    0    0  0.99765416130E+01 -0.15218782581E+02  0.44212742481E+01  0.72461270659E+02  0.69999609669E+02 0.  0.
         12    1    1    2    0    0 -0.99765416130E+01  0.15218782581E+02 -0.44212742481E+01  0.18726729341E+02  0.00000000000E+00 0. -1.
         11    1    3    3    0    0  0.60875726351E+01 -0.17467450764E+02  0.18311402591E+02  0.26028404521E+02  0.51100000000E-03 0.  1.
        -11    1    3    3    0    0 -0.16843687880E+02 -0.61308788722E+01  0.33014857881E+01  0.18226280636E+02  0.51100000000E-03 0. -1.
         12    1    3    3    0    0  0.20732656858E+02  0.83795470551E+01 -0.17191614131E+02  0.28206585502E+02  0.00000000000E+00 0. -1.
</event>
<event>
 7    1  0.3305651E-013  0.7246163E+02  0.7816164E-02  0.1226708E+00
        -11   -1    0    0    0    0  0.00000000000E+00  0.00000000000E+00  0.45593999997E+02  0.45594000000E+02  0.51100000000E-03 0.  1.
         11   -1    0    0    0    0 -0.00000000000E+00 -0.00000000000E+00 -0.45593999997E+02  0.45594000000E+02  0.51100000000E-03 0. -1.
    9900012    2    1    2    0    0 -0.17285996334E+02 -0.24817530441E+01 -0.67610713096E+01  0.72461632155E+02  0.70000080585E+02 0.  0.
         12    1    1    2    0    0  0.17285996334E+02  0.24817530441E+01  0.67610713096E+01  0.18726367845E+02  0.00000000000E+00 0. -1.
         11    1    3    3    0    0  0.97789140153E+01  0.42679602184E+01 -0.16104710108E+02  0.19318497138E+02  0.51100000000E-03 0. -1.
        -11    1    3    3    0    0  0.12223759927E+02 -0.22119828229E+00 -0.37494353919E-01  0.12225818644E+02  0.51100000000E-03 0.  1.
        -12    1    3    3    0    0 -0.39288670276E+02 -0.65285149802E+01  0.93811331528E+01  0.40917316372E+02  0.00000000000E+00 0.  1.
</event>
<event>
 7    1  0.3305651E-013  0.7246172E+02  0.7816164E-02  0.1226708E+00
        -11   -1    0    0    0    0  0.00000000000E+00  0.00000000000E+00  0.45593999997E+02  0.45594000000E+02  0.51100000000E-03 0. -1.
         11   -1    0    0    0    0 -0.00000000000E+00 -0.00000000000E+00 -0.45593999997E+02  0.45594000000E+02  0.51100000000E-03 0.  1.
    9900012    2    1    2    0    0 -0.16398302085E+02 -0.78073294786E+01 -0.45623437014E+01  0.72461716735E+02  0.70000190766E+02 0.  0.
         12    1    1    2    0    0  0.16398302085E+02  0.78073294786E+01  0.45623437014E+01  0.18726283265E+02  0.00000000000E+00 0. -1.
         11    1    3    3    0    0  0.39630320554E+01 -0.28908278528E+02  0.57464500676E+01  0.29739130438E+02  0.51100000000E-03 0. -1.
        -11    1    3    3    0    0  0.33092827883E+00 -0.67448233471E+01 -0.12584264326E+01  0.68691915723E+01  0.51100000000E-03 0.  1.
        -12    1    3    3    0    0 -0.20692262420E+02  0.27845772397E+02 -0.90503673364E+01  0.35853394725E+02  0.00000000000E+00 0.  1.
</event>
<event>
 7    1  0.3305651E-013  0.7246132E+02  0.7816164E-02  0.1226709E+00
        -11   -1    0    0    0    0  0.00000000000E+00  0.00000000000E+00  0.45593999997E+02  0.45594000000E+02  0.51100000000E-03 0. -1.
         11   -1    0    0    0    0 -0.00000000000E+00 -0.00000000000E+00 -0.45593999997E+02  0.45594000000E+02  0.51100000000E-03 0.  1.
    9900012    2    1    2    0    0 -0.12416601384E+02 -0.16250512652E+01 -0.13923923027E+02  0.72461323466E+02  0.69999678459E+02 0.  0.
         12    1    1    2    0    0  0.12416601384E+02  0.16250512652E+01  0.13923923027E+02  0.18726676534E+02  0.00000000000E+00 0. -1.
         11    1    3    3    0    0  0.13537964762E+02  0.37931710385E+01 -0.96518284137E+00  0.14092416918E+02  0.51100000000E-03 0. -1.
        -11    1    3    3    0    0  0.11204466656E+01  0.16643767321E+02 -0.16250845754E+02  0.23288631977E+02  0.51100000000E-03 0.  1.
         12    1    3    3    0    0 -0.27075012811E+02 -0.22061989625E+02  0.32921055675E+01  0.35080274571E+02  0.00000000000E+00 0. -1.
</event>
<event>
 7    1  0.3305651E-013  0.7246171E+02  0.7816164E-02  0.1226708E+00
        -11   -1    0    0    0    0  0.00000000000E+00  0.00000000000E+00  0.45593999997E+02  0.45594000000E+02  0.51100000000E-03 0. -1.
         11   -1    0    0    0    0 -0.00000000000E+00 -0.00000000000E+00 -0.45593999997E+02  0.45594000000E+02  0.51100000000E-03 0.  1.
    9900012    2    1    2    0    0 -0.11345977503E+02 -0.75641238860E+01 -0.12834592317E+02  0.72461710041E+02  0.70000182046E+02 0.  0.
         12    1    1    2    0    0  0.11345977503E+02  0.75641238860E+01  0.12834592317E+02  0.18726289959E+02  0.00000000000E+00 0. -1.
         11    1    3    3    0    0  0.53950527848E+01 -0.94755075840E+01  0.23235968658E+02  0.25667140049E+02  0.51100000000E-03 0. -1.
        -11    1    3    3    0    0 -0.85663040418E+01 -0.10704939664E+02 -0.23459841488E+02  0.27172439365E+02  0.51100000000E-03 0.  1.
        -12    1    3    3    0    0 -0.81747262465E+01  0.12616323362E+02 -0.12610719488E+02  0.19622130628E+02  0.00000000000E+00 0.  1.
</event>
<event>
 7    1  0.3305651E-013  0.7246155E+02  0.7816164E-02  0.1226708E+00
        -11   -1    0    0    0    0  0.00000000000E+00  0.00000000000E+00  0.45593999997E+02  0.45594000000E+02  0.51100000000E-03 0.  1.
         11   -1    0    0    0    0 -0.00000000000E+00 -0.00000000000E+00 -0.45593999997E+02  0.45594000000E+02  0.51100000000E-03 0. -1.
    9900012    2    1    2    0    0 -0.17802858988E+01  0.16569168597E+02 -0.85424244604E+01  0.72461553953E+02  0.69999978713E+02 0.  0.
         12    1    1    2    0    0  0.17802858988E+01 -0.16569168597E+02  0.85424244604E+01  0.18726446047E+02  0.00000000000E+00 0. -1.
         11    1    3    3    0    0 -0.50323637635E+01 -0.16583656010E+02 -0.74771774318E+01  0.18874599713E+02  0.51100000000E-03 0. -1.
        -11    1    3    3    0    0  0.12964624751E+01 -0.76721578455E+01 -0.90578528354E+01  0.11941001600E+02  0.51100000000E-03 0.  1.
        -12    1    3    3    0    0  0.19556153896E+01  0.40824982452E+02  0.79926058068E+01  0.41645952641E+02  0.00000000000E+00 0.  1.
</event>
<event>
 7    1  0.3305651E-013  0.7246156E+02  0.7816164E-02  0.1226708E+00
        -11   -1    0    0    0    0  0.00000000000E+00  0.00000000000E+00  0.45593999997E+02  0.45594000000E+02  0.51100000000E-03 0. -1.
         11   -1    0    0    0    0 -0.00000000000E+00 -0.00000000000E+00 -0.45593999997E+02  0.45594000000E+02  0.51100000000E-03 0.  1.
    9900012    2    1    2    0    0  0.75094508061E+01  0.42380877045E+01 -0.16623060552E+02  0.72461564650E+02  0.69999992647E+02 0.  0.
         12    1    1    2    0    0 -0.75094508061E+01 -0.42380877045E+01  0.16623060552E+02  0.18726435350E+02  0.00000000000E+00 0. -1.
         11    1    3    3    0    0  0.19394061321E+02  0.14831905755E+01  0.10166261883E+02  0.21947262922E+02  0.51100000000E-03 0. -1.
        -11    1    3    3    0    0 -0.16812876570E+02  0.16975607367E+01  0.55485447340E+01  0.17785974248E+02  0.51100000000E-03 0.  1.
         12    1    3    3    0    0  0.49282660548E+01  0.10573363923E+01 -0.32337867170E+02  0.32728327480E+02  0.00000000000E+00 0. -1.
</event>
<event>
 7    1  0.3305651E-013  0.7246160E+02  0.7816164E-02  0.1226708E+00
        -11   -1    0    0    0    0  0.00000000000E+00  0.00000000000E+00  0.45593999997E+02  0.45594000000E+02  0.51100000000E-03 0. -1.
         11   -1    0    0    0    0 -0.00000000000E+00 -0.00000000000E+00 -0.45593999997E+02  0.45594000000E+02  0.51100000000E-03 0.  1.
    9900012    2    1    2    0    0 -0.12692600171E+02 -0.10987040167E+02  0.82982474323E+01  0.72461599888E+02  0.70000038551E+02 0.  0.
         12    1    1    2    0    0  0.12692600171E+02  0.10987040167E+02 -0.82982474323E+01  0.18726400112E+02  0.00000000000E+00 0. -1.
         11    1    3    3    0    0  0.11382148664E+02  0.17616456067E+02  0.92722107125E+01  0.22931784150E+02  0.51100000000E-03 0.  1.
        -11    1    3    3    0    0 -0.25320418518E+02 -0.53240666021E+01  0.23530336801E+01  0.25980878486E+02  0.51100000000E-03 0. -1.
        -12    1    3    3    0    0  0.12456696839E+01 -0.23279429631E+02 -0.33269969603E+01  0.23548937252E+02  0.00000000000E+00 0.  1.
</event>
<event>
 7    1  0.3305651E-013  0.7246149E+02  0.7816164E-02  0.1226708E+00
        -11   -1    0    0    0    0  0.00000000000E+00  0.00000000000E+00  0.45593999997E+02  0.45594000000E+02  0.51100000000E-03 0. -1.
         11   -1    0    0    0    0 -0.00000000000E+00 -0.00000000000E+00 -0.45593999997E+02  0.45594000000E+02  0.51100000000E-03 0.  1.
    9900012    2    1    2    0    0  0.14027475135E+02 -0.12186509342E+02 -0.23240198781E+01  0.72461491063E+02  0.69999896786E+02 0.  0.
         12    1    1    2    0    0 -0.14027475135E+02  0.12186509342E+02  0.23240198781E+01  0.18726508937E+02  0.00000000000E+00 0. -1.
         11    1    3    3    0    0 -0.81701758082E+01 -0.78228310641E+01  0.51576574166E+01  0.12431809558E+02  0.51100000000E-03 0. -1.
        -11    1    3    3    0    0 -0.40375705793E+01  0.21032573935E+02 -0.95671828903E+01  0.23456387856E+02  0.51100000000E-03 0.  1.
         12    1    3    3    0    0  0.26235221522E+02 -0.25396252213E+02  0.20855055956E+01  0.36573293649E+02  0.00000000000E+00 0. -1.
</event>
<event>
 7    1  0.3305651E-013  0.7246150E+02  0.7816164E-02  0.1226708E+00
        -11   -1    0    0    0    0  0.00000000000E+00  0.00000000000E+00  0.45593999997E+02  0.45594000000E+02  0.51100000000E-03 0.  1.
         11   -1    0    0    0    0 -0.00000000000E+00 -0.00000000000E+00 -0.45593999997E+02  0.45594000000E+02  0.51100000000E-03 0. -1.
    9900012    2    1    2    0    0  0.67118748997E+01  0.15345363918E+02  0.83756933685E+01  0.72461502787E+02  0.69999912059E+02 0.  0.
         12    1    1    2    0    0 -0.67118748997E+01 -0.15345363918E+02 -0.83756933685E+01  0.18726497213E+02  0.00000000000E+00 0. -1.
         11    1    3    3    0    0  0.10940523729E+01  0.44284989324E+01 -0.47932878474E+01  0.66169601811E+01  0.51100000000E-03 0. -1.
        -11    1    3    3    0    0  0.10352128355E+02 -0.24025371038E+02  0.15669381471E+02  0.30494500011E+02  0.51100000000E-03 0.  1.
         12    1    3    3    0    0 -0.47343058281E+01  0.34942236024E+02 -0.25004002552E+01  0.35350042595E+02  0.00000000000E+00 0. -1.
</event>
<event>
 7    1  0.3305651E-013  0.7246169E+02  0.7816164E-02  0.1226708E+00
        -11   -1    0    0    0    0  0.00000000000E+00  0.00000000000E+00  0.45593999997E+02  0.45594000000E+02  0.51100000000E-03 0. -1.
         11   -1    0    0    0    0 -0.00000000000E+00 -0.00000000000E+00 -0.45593999997E+02  0.45594000000E+02  0.51100000000E-03 0.  1.
    9900012    2    1    2    0    0  0.16517110125E+02 -0.16739110561E+00 -0.88222268195E+01  0.72461691429E+02  0.70000157800E+02 0.  0.
         12    1    1    2    0    0 -0.16517110125E+02  0.16739110561E+00  0.88222268195E+01  0.18726308571E+02  0.00000000000E+00 0. -1.
         11    1    3    3    0    0 -0.16431949699E+02 -0.28666217481E+01 -0.10151696288E+02  0.19526480199E+02  0.51100000000E-03 0. -1.
        -11    1    3    3    0    0  0.14507987804E+02 -0.14889107100E+02 -0.12178013238E+02  0.24092970490E+02  0.51100000000E-03 0.  1.
         12    1    3    3    0    0  0.18441072020E+02  0.17588337743E+02  0.13507482706E+02  0.28842240739E+02  0.00000000000E+00 0. -1.
</event>
<event>
 7    1  0.3305651E-013  0.7246160E+02  0.7816164E-02  0.1226708E+00
        -11   -1    0    0    0    0  0.00000000000E+00  0.00000000000E+00  0.45593999997E+02  0.45594000000E+02  0.51100000000E-03 0. -1.
         11   -1    0    0    0    0 -0.00000000000E+00 -0.00000000000E+00 -0.45593999997E+02  0.45594000000E+02  0.51100000000E-03 0.  1.
    9900012    2    1    2    0    0 -0.18237553166E+02  0.33168497478E+01  0.26586420640E+01  0.72461595770E+02  0.70000033187E+02 0.  0.
         12    1    1    2    0    0  0.18237553166E+02 -0.33168497478E+01 -0.26586420640E+01  0.18726404230E+02  0.00000000000E+00 0. -1.
         11    1    3    3    0    0 -0.34698457845E-01 -0.15516234152E+02  0.21403277798E+02  0.26435866300E+02  0.51100000000E-03 0. -1.
        -11    1    3    3    0    0  0.39476888420E+01 -0.42286142250E+01  0.37818231808E+01  0.69114117435E+01  0.51100000000E-03 0.  1.
        -12    1    3    3    0    0 -0.22150543551E+02  0.23061698125E+02 -0.22526458915E+02  0.39114317727E+02  0.00000000000E+00 0.  1.
</event>
<event>
 7    1  0.3305651E-013  0.7246174E+02  0.7816164E-02  0.1226708E+00
        -11   -1    0    0    0    0  0.00000000000E+00  0.00000000000E+00  0.45593999997E+02  0.45594000000E+02  0.51100000000E-03 0.  1.
         11   -1    0    0    0    0 -0.00000000000E+00 -0.00000000000E+00 -0.45593999997E+02  0.45594000000E+02  0.51100000000E-03 0. -1.
    9900012    2    1    2    0    0 -0.40227409568E+01  0.16438536425E+02 -0.80165305650E+01  0.72461743382E+02  0.70000225479E+02 0.  0.
         12    1    1    2    0    0  0.40227409568E+01 -0.16438536425E+02  0.80165305650E+01  0.18726256618E+02  0.00000000000E+00 0. -1.
         11    1    3    3    0    0  0.68044406667E+01  0.73560908192E+01 -0.58823569456E+01  0.11619578668E+02  0.51100000000E-03 0. -1.
        -11    1    3    3    0    0  0.19310227434E+02  0.20878638599E+02 -0.12115194918E+01  0.28465245705E+02  0.51100000000E-03 0.  1.
         12    1    3    3    0    0 -0.30137409058E+02 -0.11796192993E+02 -0.92265412763E+00  0.32376919009E+02  0.00000000000E+00 0. -1.
</event>
<event>
 7    1  0.3305651E-013  0.7246160E+02  0.7816164E-02  0.1226708E+00
        -11   -1    0    0    0    0  0.00000000000E+00  0.00000000000E+00  0.45593999997E+02  0.45594000000E+02  0.51100000000E-03 0.  1.
         11   -1    0    0    0    0 -0.00000000000E+00 -0.00000000000E+00 -0.45593999997E+02  0.45594000000E+02  0.51100000000E-03 0. -1.
    9900012    2    1    2    0    0 -0.10909828304E+02  0.13755706995E+02 -0.65141556662E+01  0.72461600117E+02  0.70000038849E+02 0.  0.
         12    1    1    2    0    0  0.10909828304E+02 -0.13755706995E+02  0.65141556662E+01  0.18726399883E+02  0.00000000000E+00 0. -1.
         11    1    3    3    0    0 -0.26415685058E+02  0.22628297399E+02 -0.83445681580E+01  0.35769541208E+02  0.51100000000E-03 0.  1.
        -11    1    3    3    0    0  0.30783038806E+01 -0.88447840773E-01 -0.14234134432E+02  0.14563459791E+02  0.51100000000E-03 0. -1.
        -12    1    3    3    0    0  0.12427552873E+02 -0.87841425640E+01  0.16064546924E+02  0.22128599117E+02  0.00000000000E+00 0.  1.
</event>
<event>
 7    1  0.3305651E-013  0.7246157E+02  0.7816164E-02  0.1226708E+00
        -11   -1    0    0    0    0  0.00000000000E+00  0.00000000000E+00  0.45593999997E+02  0.45594000000E+02  0.51100000000E-03 0.  1.
         11   -1    0    0    0    0 -0.00000000000E+00 -0.00000000000E+00 -0.45593999997E+02  0.45594000000E+02  0.51100000000E-03 0. -1.
    9900012    2    1    2    0    0  0.95944325979E+01  0.12715042796E+02  0.98465052108E+01  0.72461571749E+02  0.70000001895E+02 0.  0.
         12    1    1    2    0    0 -0.95944325979E+01 -0.12715042796E+02 -0.98465052108E+01  0.18726428251E+02  0.00000000000E+00 0. -1.
         11    1    3    3    0    0 -0.50520602004E+01  0.27680876351E+02 -0.10345169143E+02  0.29979605613E+02  0.51100000000E-03 0. -1.
        -11    1    3    3    0    0  0.19058646026E+02  0.26265798867E+01  0.10513956392E+02  0.21924283101E+02  0.51100000000E-03 0.  1.
         12    1    3    3    0    0 -0.44121532273E+01 -0.17592413442E+02  0.96777179622E+01  0.20557683035E+02  0.00000000000E+00 0. -1.
</event>
<event>
 7    1  0.3305651E-013  0.7246193E+02  0.7816164E-02  0.1226707E+00
        -11   -1    0    0    0    0  0.00000000000E+00  0.00000000000E+00  0.45593999997E+02  0.45594000000E+02  0.51100000000E-03 0.  1.
         11   -1    0    0    0    0 -0.00000000000E+00 -0.00000000000E+00 -0.45593999997E+02  0.45594000000E+02  0.51100000000E-03 0. -1.
    9900012    2    1    2    0    0  0.43965325764E+01  0.56176238664E+01  0.17314113290E+02  0.72461929520E+02  0.70000467956E+02 0.  0.
         12    1    1    2    0    0 -0.43965325764E+01 -0.56176238664E+01 -0.17314113290E+02  0.18726070480E+02  0.00000000000E+00 0. -1.
         11    1    3    3    0    0  0.71390741068E+01 -0.90698812490E+01  0.35614820310E+01  0.12079456920E+02  0.51100000000E-03 0. -1.
        -11    1    3    3    0    0  0.25577260193E+02  0.81888142471E+01  0.15963878862E+02  0.31242572658E+02  0.51100000000E-03 0.  1.
        -12    1    3    3    0    0 -0.28319801723E+02  0.64986908683E+01 -0.22112476023E+01  0.29139899941E+02  0.00000000000E+00 0.  1.
</event>
<event>
 7    1  0.3305651E-013  0.7246158E+02  0.7816164E-02  0.1226708E+00
        -11   -1    0    0    0    0  0.00000000000E+00  0.00000000000E+00  0.45593999997E+02  0.45594000000E+02  0.51100000000E-03 0. -1.
         11   -1    0    0    0    0 -0.00000000000E+00 -0.00000000000E+00 -0.45593999997E+02  0.45594000000E+02  0.51100000000E-03 0.  1.
    9900012    2    1    2    0    0 -0.33843956493E+01 -0.76558873156E+01 -0.16751482698E+02  0.72461577035E+02  0.70000008781E+02 0.  0.
         12    1    1    2    0    0  0.33843956493E+01  0.76558873156E+01  0.16751482698E+02  0.18726422965E+02  0.00000000000E+00 0. -1.
         11    1    3    3    0    0 -0.10124996688E+01  0.36453342951E+01  0.11265189633E+02  0.11883522855E+02  0.51100000000E-03 0. -1.
        -11    1    3    3    0    0 -0.24379121847E+02  0.41775908486E+01 -0.21784836661E+02  0.32960172268E+02  0.51100000000E-03 0.  1.
         12    1    3    3    0    0  0.22007225867E+02 -0.15478812459E+02 -0.62318356696E+01  0.27617881912E+02  0.00000000000E+00 0. -1.
</event>
<event>
 7    1  0.3305651E-013  0.7246160E+02  0.7816164E-02  0.1226708E+00
        -11   -1    0    0    0    0  0.00000000000E+00  0.00000000000E+00  0.45593999997E+02  0.45594000000E+02  0.51100000000E-03 0.  1.
         11   -1    0    0    0    0 -0.00000000000E+00 -0.00000000000E+00 -0.45593999997E+02  0.45594000000E+02  0.51100000000E-03 0. -1.
    9900012    2    1    2    0    0 -0.11772043869E+02 -0.14546572148E+02  0.70301592205E+00  0.72461601267E+02  0.70000040348E+02 0.  0.
         12    1    1    2    0    0  0.11772043869E+02  0.14546572148E+02 -0.70301592205E+00  0.18726398733E+02  0.00000000000E+00 0. -1.
         11    1    3    3    0    0 -0.54317624295E+01  0.22739557112E+02  0.11121675087E+02  0.25889827302E+02  0.51100000000E-03 0. -1.
        -11    1    3    3    0    0 -0.98797539266E+01 -0.45569957854E+01  0.25743900953E+01  0.11180484465E+02  0.51100000000E-03 0.  1.
        -12    1    3    3    0    0  0.35394724876E+01 -0.32729133474E+02 -0.12993049260E+02  0.35391289501E+02  0.00000000000E+00 0.  1.
</event>
<event>
 7    1  0.3305651E-013  0.7246160E+02  0.7816164E-02  0.1226708E+00
        -11   -1    0    0    0    0  0.00000000000E+00  0.00000000000E+00  0.45593999997E+02  0.45594000000E+02  0.51100000000E-03 0. -1.
         11   -1    0    0    0    0 -0.00000000000E+00 -0.00000000000E+00 -0.45593999997E+02  0.45594000000E+02  0.51100000000E-03 0.  1.
    9900012    2    1    2    0    0 -0.17714725078E+02 -0.28359891133E+01 -0.53687586288E+01  0.72461604510E+02  0.70000044572E+02 0.  0.
         12    1    1    2    0    0  0.17714725078E+02  0.28359891133E+01  0.53687586288E+01  0.18726395490E+02  0.00000000000E+00 0. -1.
         11    1    3    3    0    0 -0.14093328509E+02 -0.75708778751E+01 -0.14627682523E+02  0.21677389061E+02  0.51100000000E-03 0. -1.
        -11    1    3    3    0    0 -0.72958297255E+01 -0.17704543037E+02 -0.94357994956E+01  0.21347465609E+02  0.51100000000E-03 0.  1.
         12    1    3    3    0    0  0.36744331566E+01  0.22439431799E+02  0.18694723390E+02  0.29436749840E+02  0.00000000000E+00 0. -1.
</event>
<event>
 7    1  0.3305651E-013  0.7246160E+02  0.7816164E-02  0.1226708E+00
        -11   -1    0    0    0    0  0.00000000000E+00  0.00000000000E+00  0.45593999997E+02  0.45594000000E+02  0.51100000000E-03 0.  1.
         11   -1    0    0    0    0 -0.00000000000E+00 -0.00000000000E+00 -0.45593999997E+02  0.45594000000E+02  0.51100000000E-03 0. -1.
    9900012    2    1    2    0    0 -0.67033764645E+00  0.18148033433E+02 -0.45692051230E+01  0.72461598704E+02  0.70000037009E+02 0.  0.
         12    1    1    2    0    0  0.67033764645E+00 -0.18148033433E+02  0.45692051230E+01  0.18726401296E+02  0.00000000000E+00 0. -1.
         11    1    3    3    0    0 -0.15561059398E+02  0.23334566256E+02 -0.15831810566E+02  0.32207060996E+02  0.51100000000E-03 0. -1.
        -11    1    3    3    0    0 -0.10921392058E+02 -0.60665845503E+01  0.61554843258E+01  0.13927319919E+02  0.51100000000E-03 0.  1.
        -12    1    3    3    0    0  0.25812113810E+02  0.88005172709E+00  0.51071211169E+01  0.26327217788E+02  0.00000000000E+00 0.  1.
</event>
<event>
 7    1  0.3305651E-013  0.7246165E+02  0.7816164E-02  0.1226708E+00
        -11   -1    0    0    0    0  0.00000000000E+00  0.00000000000E+00  0.45593999997E+02  0.45594000000E+02  0.51100000000E-03 0.  1.
         11   -1    0    0    0    0 -0.00000000000E+00 -0.00000000000E+00 -0.45593999997E+02  0.45594000000E+02  0.51100000000E-03 0. -1.
    9900012    2    1    2    0    0 -0.43525973900E+01  0.16641174082E+02  0.74028759622E+01  0.72461645539E+02  0.70000098021E+02 0.  0.
         12    1    1    2    0    0  0.43525973900E+01 -0.16641174082E+02 -0.74028759622E+01  0.18726354461E+02  0.00000000000E+00 0. -1.
         11    1    3    3    0    0  0.40081631135E+01  0.48706049768E+01 -0.66322397138E+01  0.91528557438E+01  0.51100000000E-03 0. -1.
        -11    1    3    3    0    0  0.14230453691E+02  0.23206422425E+02  0.23811007149E+02  0.36166392075E+02  0.51100000000E-03 0.  1.
         12    1    3    3    0    0 -0.22591214195E+02 -0.11435853319E+02 -0.97758914730E+01  0.27142397721E+02  0.00000000000E+00 0. -1.
</event>
<event>
 7    1  0.3305651E-013  0.7246157E+02  0.7816164E-02  0.1226708E+00
        -11   -1    0    0    0    0  0.00000000000E+00  0.00000000000E+00  0.45593999997E+02  0.45594000000E+02  0.51100000000E-03 0. -1.
         11   -1    0    0    0    0 -0.00000000000E+00 -0.00000000000E+00 -0.45593999997E+02  0.45594000000E+02  0.51100000000E-03 0.  1.
    9900012    2    1    2    0    0 -0.57453492052E+01 -0.71264370393E+01 -0.16336588658E+02  0.72461567575E+02  0.69999996458E+02 0.  0.
         12    1    1    2    0    0  0.57453492052E+01  0.71264370393E+01  0.16336588658E+02  0.18726432425E+02  0.00000000000E+00 0. -1.
         11    1    3    3    0    0 -0.55156544058E+01  0.17805386833E+02 -0.13069259136E+02  0.22765319642E+02  0.51100000000E-03 0. -1.
        -11    1    3    3    0    0  0.12190875300E+01  0.26990320099E+01 -0.18073781638E+02  0.18314817257E+02  0.51100000000E-03 0.  1.
         12    1    3    3    0    0 -0.14487823295E+01 -0.27630855882E+02  0.14806452116E+02  0.31381430676E+02  0.00000000000E+00 0. -1.
</event>
<event>
 7    1  0.3305651E-013  0.7246160E+02  0.7816164E-02  0.1226708E+00
        -11   -1    0    0    0    0  0.00000000000E+00  0.00000000000E+00  0.45593999997E+02  0.45594000000E+02  0.51100000000E-03 0. -1.
         11   -1    0    0    0    0 -0.00000000000E+00 -0.00000000000E+00 -0.45593999997E+02  0.45594000000E+02  0.51100000000E-03 0.  1.
    9900012    2    1    2    0    0  0.38376075373E+00 -0.18270346597E+02 -0.40896644195E+01  0.72461596391E+02  0.70000033995E+02 0.  0.
         12    1    1    2    0    0 -0.38376075373E+00  0.18270346597E+02  0.40896644195E+01  0.18726403609E+02  0.00000000000E+00 0. -1.
         11    1    3    3    0    0 -0.95929490695E+01  0.16561881273E+02  0.11771804900E+02  0.22469890387E+02  0.51100000000E-03 0. -1.
        -11    1    3    3    0    0 -0.10889579198E+02 -0.90408354037E+01 -0.34244887010E+01  0.14561825539E+02  0.51100000000E-03 0.  1.
        -12    1    3    3    0    0  0.20866289021E+02 -0.25791392466E+02 -0.12436980618E+02  0.35429880465E+02  0.00000000000E+00 0.  1.
</event>
<event>
 7    1  0.3305651E-013  0.7246157E+02  0.7816164E-02  0.1226708E+00
        -11   -1    0    0    0    0  0.00000000000E+00  0.00000000000E+00  0.45593999997E+02  0.45594000000E+02  0.51100000000E-03 0.  1.
         11   -1    0    0    0    0 -0.00000000000E+00 -0.00000000000E+00 -0.45593999997E+02  0.45594000000E+02  0.51100000000E-03 0. -1.
    9900012    2    1    2    0    0  0.15247005047E+02 -0.23815963419E+01  0.10608295619E+02  0.72461572151E+02  0.70000002419E+02 0.  0.
         12    1    1    2    0    0 -0.15247005047E+02  0.23815963419E+01 -0.10608295619E+02  0.18726427849E+02  0.00000000000E+00 0. -1.
         11    1    3    3    0    0 -0.89319686939E+00 -0.32234762927E+01 -0.14439085431E+02  0.14821463774E+02  0.51100000000E-03 0. -1.
        -11    1    3    3    0    0  0.28652051706E+02 -0.12310812060E+02  0.68338183808E+01  0.31924868589E+02  0.51100000000E-03 0.  1.
         12    1    3    3    0    0 -0.12511849789E+02  0.13152692011E+02  0.18213562669E+02  0.25715239788E+02  0.00000000000E+00 0. -1.
</event>
<event>
 7    1  0.3305651E-013  0.7246158E+02  0.7816164E-02  0.1226708E+00
        -11   -1    0    0    0    0  0.00000000000E+00  0.00000000000E+00  0.45593999997E+02  0.45594000000E+02  0.51100000000E-03 0.  1.
         11   -1    0    0    0    0 -0.00000000000E+00 -0.00000000000E+00 -0.45593999997E+02  0.45594000000E+02  0.51100000000E-03 0. -1.
    9900012    2    1    2    0    0 -0.10379561737E+02 -0.43214427011E+01  0.14975596448E+02  0.72461583957E+02  0.70000017798E+02 0.  0.
         12    1    1    2    0    0  0.10379561737E+02  0.43214427011E+01 -0.14975596448E+02  0.18726416043E+02  0.00000000000E+00 0. -1.
         11    1    3    3    0    0  0.18409124660E+02 -0.18760414607E+02 -0.46695152867E+01  0.26695568925E+02  0.51100000000E-03 0. -1.
        -11    1    3    3    0    0 -0.93518991615E+01  0.52776941174E+01 -0.60062491369E+01  0.12303946606E+02  0.51100000000E-03 0.  1.
        -12    1    3    3    0    0 -0.19436787236E+02  0.91612777881E+01  0.25651360871E+02  0.33462068425E+02  0.00000000000E+00 0.  1.
</event>
<event>
 7    1  0.3305651E-013  0.7246151E+02  0.7816164E-02  0.1226708E+00
        -11   -1    0    0    0    0  0.00000000000E+00  0.00000000000E+00  0.45593999997E+02  0.45594000000E+02  0.51100000000E-03 0.  1.
         11   -1    0    0    0    0 -0.00000000000E+00 -0.00000000000E+00 -0.45593999997E+02  0.45594000000E+02  0.51100000000E-03 0. -1.
    9900012    2    1    2    0    0  0.13585051249E+02  0.11982650932E+02 -0.47480344673E+01  0.72461511485E+02  0.69999923390E+02 0.  0.
         12    1    1    2    0    0 -0.13585051249E+02 -0.11982650932E+02  0.47480344673E+01  0.18726488515E+02  0.00000000000E+00 0. -1.
         11    1    3    3    0    0 -0.43468165609E+01 -0.10128927948E+02 -0.20170904462E+01  0.11205295611E+02  0.51100000000E-03 0. -1.
        -11    1    3    3    0    0  0.23617766688E+02 -0.79409300416E+01 -0.14095311579E+02  0.28627523155E+02  0.51100000000E-03 0.  1.
         12    1    3    3    0    0 -0.56858988780E+01  0.30052508922E+02  0.11364367557E+02  0.32628692719E+02  0.00000000000E+00 0. -1.
</event>
<event>
 7    1  0.3305651E-013  0.7246156E+02  0.7816164E-02  0.1226708E+00
        -11   -1    0    0    0    0  0.00000000000E+00  0.00000000000E+00  0.45593999997E+02  0.45594000000E+02  0.51100000000E-03 0. -1.
         11   -1    0    0    0    0 -0.00000000000E+00 -0.00000000000E+00 -0.45593999997E+02  0.45594000000E+02  0.51100000000E-03 0.  1.
    9900012    2    1    2    0    0 -0.27244285918E+01  0.72913373887E+01 -0.17032125364E+02  0.72461563968E+02  0.69999991758E+02 0.  0.
         12    1    1    2    0    0  0.27244285918E+01 -0.72913373887E+01  0.17032125364E+02  0.18726436032E+02  0.00000000000E+00 0. -1.
         11    1    3    3    0    0  0.61760863841E+01 -0.51756853731E+00  0.96872078198E+01  0.11500170252E+02  0.51100000000E-03 0. -1.
        -11    1    3    3    0    0  0.76369745300E+01  0.26061047305E+02 -0.39939100091E+01  0.27449096234E+02  0.51100000000E-03 0.  1.
        -12    1    3    3    0    0 -0.16537489506E+02 -0.18252141379E+02 -0.22725423174E+02  0.33512297482E+02  0.00000000000E+00 0.  1.
</event>
<event>
 7    1  0.3305651E-013  0.7246154E+02  0.7816164E-02  0.1226708E+00
        -11   -1    0    0    0    0  0.00000000000E+00  0.00000000000E+00  0.45593999997E+02  0.45594000000E+02  0.51100000000E-03 0.  1.
         11   -1    0    0    0    0 -0.00000000000E+00 -0.00000000000E+00 -0.45593999997E+02  0.45594000000E+02  0.51100000000E-03 0. -1.
    9900012    2    1    2    0    0 -0.55660384264E+01 -0.16627012230E+02 -0.65758527925E+01  0.72461543864E+02  0.69999965570E+02 0.  0.
         12    1    1    2    0    0  0.55660384264E+01  0.16627012230E+02  0.65758527925E+01  0.18726456136E+02  0.00000000000E+00 0. -1.
         11    1    3    3    0    0 -0.44408498509E+01 -0.19438289739E+02  0.11485103759E+02  0.23010342544E+02  0.51100000000E-03 0. -1.
        -11    1    3    3    0    0 -0.10496882042E+02 -0.67509209736E-01  0.13098562312E+02  0.16785750653E+02  0.51100000000E-03 0.  1.
        -12    1    3    3    0    0  0.93716934662E+01  0.28787867190E+01 -0.31159518864E+02  0.32665450666E+02  0.00000000000E+00 0.  1.
</event>
<event>
 7    1  0.3305651E-013  0.7246109E+02  0.7816164E-02  0.1226709E+00
        -11   -1    0    0    0    0  0.00000000000E+00  0.00000000000E+00  0.45593999997E+02  0.45594000000E+02  0.51100000000E-03 0.  1.
         11   -1    0    0    0    0 -0.00000000000E+00 -0.00000000000E+00 -0.45593999997E+02  0.45594000000E+02  0.51100000000E-03 0. -1.
    9900012    2    1    2    0    0  0.13759952461E+02  0.64160084757E+01 -0.10963375771E+02  0.72461092493E+02  0.69999377572E+02 0.  0.
         12    1    1    2    0    0 -0.13759952461E+02 -0.64160084757E+01  0.10963375771E+02  0.18726907507E+02  0.00000000000E+00 0. -1.
         11    1    3    3    0    0 -0.50314607717E+01 -0.91557554352E+01  0.42250433250E+01  0.11269181268E+02  0.51100000000E-03 0. -1.
        -11    1    3    3    0    0 -0.12373670926E+02  0.52277122009E+01  0.12417276014E+02  0.18292770454E+02  0.51100000000E-03 0.  1.
         12    1    3    3    0    0  0.31165084159E+02  0.10344051710E+02 -0.27605695109E+02  0.42899140771E+02  0.00000000000E+00 0. -1.
</event>
<event>
 7    1  0.3305651E-013  0.7246156E+02  0.7816164E-02  0.1226708E+00
        -11   -1    0    0    0    0  0.00000000000E+00  0.00000000000E+00  0.45593999997E+02  0.45594000000E+02  0.51100000000E-03 0. -1.
         11   -1    0    0    0    0 -0.00000000000E+00 -0.00000000000E+00 -0.45593999997E+02  0.45594000000E+02  0.51100000000E-03 0.  1.
    9900012    2    1    2    0    0  0.50720182788E+01  0.11334388961E+02  0.14017339850E+02  0.72461559895E+02  0.69999986453E+02 0.  0.
         12    1    1    2    0    0 -0.50720182788E+01 -0.11334388961E+02 -0.14017339850E+02  0.18726440105E+02  0.00000000000E+00 0. -1.
         11    1    3    3    0    0  0.17973021899E+02  0.16856911714E+01  0.31539620374E+02  0.36340318168E+02  0.51100000000E-03 0. -1.
        -11    1    3    3    0    0 -0.52986895169E+01 -0.83236816955E+01  0.41133668285E-01  0.98671920932E+01  0.51100000000E-03 0.  1.
        -12    1    3    3    0    0 -0.76023141037E+01  0.17972379485E+02 -0.17563414193E+02  0.26254049634E+02  0.00000000000E+00 0.  1.
</event>
<event>
 7    1  0.3305651E-013  0.7246157E+02  0.7816164E-02  0.1226708E+00
        -11   -1    0    0    0    0  0.00000000000E+00  0.00000000000E+00  0.45593999997E+02  0.45594000000E+02  0.51100000000E-03 0.  1.
         11   -1    0    0    0    0 -0.00000000000E+00 -0.00000000000E+00 -0.45593999997E+02  0.45594000000E+02  0.51100000000E-03 0. -1.
    9900012    2    1    2    0    0  0.14239533627E+02  0.43668618691E+01  0.11351003939E+02  0.72461572393E+02  0.70000002734E+02 0.  0.
         12    1    1    2    0    0 -0.14239533627E+02 -0.43668618691E+01 -0.11351003939E+02  0.18726427607E+02  0.00000000000E+00 0. -1.
         11    1    3    3    0    0  0.24807882928E+02  0.98287772787E+01  0.33275791694E+01  0.26890680571E+02  0.51100000000E-03 0.  1.
        -11    1    3    3    0    0  0.11332924485E+02 -0.16722087983E+02  0.44735343449E+01  0.20689995498E+02  0.51100000000E-03 0. -1.
         12    1    3    3    0    0 -0.21901273786E+02  0.11260172574E+02  0.35498904244E+01  0.24880896324E+02  0.00000000000E+00 0. -1.
</event>
<event>
 7    1  0.3305651E-013  0.7246158E+02  0.7816164E-02  0.1226708E+00
        -11   -1    0    0    0    0  0.00000000000E+00  0.00000000000E+00  0.45593999997E+02  0.45594000000E+02  0.51100000000E-03 0. -1.
         11   -1    0    0    0    0 -0.00000000000E+00 -0.00000000000E+00 -0.45593999997E+02  0.45594000000E+02  0.51100000000E-03 0.  1.
    9900012    2    1    2    0    0  0.16585719380E+02 -0.83996533214E+01  0.22446729372E+01  0.72461579630E+02  0.70000012162E+02 0.  0.
         12    1    1    2    0    0 -0.16585719380E+02  0.83996533214E+01 -0.22446729372E+01  0.18726420370E+02  0.00000000000E+00 0. -1.
         11    1    3    3    0    0  0.81774915579E+01  0.14049729100E+02  0.12413308000E+02  0.20453764243E+02  0.51100000000E-03 0. -1.
        -11    1    3    3    0    0 -0.15969060800E+02 -0.40504087098E+01 -0.13480928629E+02  0.21287370682E+02  0.51100000000E-03 0.  1.
        -12    1    3    3    0    0  0.24377288623E+02 -0.18398973711E+02  0.33122935664E+01  0.30720444705E+02  0.00000000000E+00 0.  1.
</event>
<event>
 7    1  0.3305651E-013  0.7246155E+02  0.7816164E-02  0.1226708E+00
        -11   -1    0    0    0    0  0.00000000000E+00  0.00000000000E+00  0.45593999997E+02  0.45594000000E+02  0.51100000000E-03 0.  1.
         11   -1    0    0    0    0 -0.00000000000E+00 -0.00000000000E+00 -0.45593999997E+02  0.45594000000E+02  0.51100000000E-03 0. -1.
    9900012    2    1    2    0    0 -0.12851309109E+02  0.13445176501E+02  0.21796541384E+01  0.72461553217E+02  0.69999977754E+02 0.  0.
         12    1    1    2    0    0  0.12851309109E+02 -0.13445176501E+02 -0.21796541384E+01  0.18726446783E+02  0.00000000000E+00 0. -1.
         11    1    3    3    0    0  0.13486996264E+01  0.64264875393E+01 -0.85071842073E+01  0.10746670004E+02  0.51100000000E-03 0. -1.
        -11    1    3    3    0    0 -0.69188943850E+01  0.33042359140E+02  0.60607505121E+01  0.34298706886E+02  0.51100000000E-03 0.  1.
        -12    1    3    3    0    0 -0.72811143502E+01 -0.26023670179E+02  0.46260878336E+01  0.27416176327E+02  0.00000000000E+00 0.  1.
</event>
<event>
 7    1  0.3305651E-013  0.7246124E+02  0.7816164E-02  0.1226709E+00
        -11   -1    0    0    0    0  0.00000000000E+00  0.00000000000E+00  0.45593999997E+02  0.45594000000E+02  0.51100000000E-03 0.  1.
         11   -1    0    0    0    0 -0.00000000000E+00 -0.00000000000E+00 -0.45593999997E+02  0.45594000000E+02  0.51100000000E-03 0. -1.
    9900012    2    1    2    0    0 -0.59070482110E+01 -0.82700555543E+01  0.15729092905E+02  0.72461243713E+02  0.69999574566E+02 0.  0.
         12    1    1    2    0    0  0.59070482110E+01  0.82700555543E+01 -0.15729092905E+02  0.18726756287E+02  0.00000000000E+00 0. -1.
         11    1    3    3    0    0  0.12281071591E+01 -0.16594930228E+02 -0.83635273333E+01  0.18623870333E+02  0.51100000000E-03 0. -1.
        -11    1    3    3    0    0 -0.39871780618E+01 -0.17239058079E+02 -0.12046066471E+01  0.17735100501E+02  0.51100000000E-03 0.  1.
        -12    1    3    3    0    0 -0.31479773083E+01  0.25563932753E+02  0.25297226885E+02  0.36102272879E+02  0.00000000000E+00 0.  1.
</event>
<event>
 7    1  0.3305651E-013  0.7246166E+02  0.7816164E-02  0.1226708E+00
        -11   -1    0    0    0    0  0.00000000000E+00  0.00000000000E+00  0.45593999997E+02  0.45594000000E+02  0.51100000000E-03 0. -1.
         11   -1    0    0    0    0 -0.00000000000E+00 -0.00000000000E+00 -0.45593999997E+02  0.45594000000E+02  0.51100000000E-03 0.  1.
    9900012    2    1    2    0    0  0.66243362190E+01  0.54099129250E+01 -0.16659141204E+02  0.72461655620E+02  0.70000111152E+02 0.  0.
         12    1    1    2    0    0 -0.66243362190E+01 -0.54099129250E+01  0.16659141204E+02  0.18726344380E+02  0.00000000000E+00 0. -1.
         11    1    3    3    0    0 -0.14354221754E+02  0.25572091848E+02 -0.11629517245E+01  0.29348390427E+02  0.51100000000E-03 0. -1.
        -11    1    3    3    0    0 -0.61711264399E+01  0.12709398762E+00 -0.10125070792E+01  0.62549280784E+01  0.51100000000E-03 0.  1.
        -12    1    3    3    0    0  0.27149684413E+02 -0.20289272911E+02 -0.14483682400E+02  0.36858337115E+02  0.00000000000E+00 0.  1.
</event>
<event>
 7    1  0.3305651E-013  0.7246155E+02  0.7816164E-02  0.1226708E+00
        -11   -1    0    0    0    0  0.00000000000E+00  0.00000000000E+00  0.45593999997E+02  0.45594000000E+02  0.51100000000E-03 0. -1.
         11   -1    0    0    0    0 -0.00000000000E+00 -0.00000000000E+00 -0.45593999997E+02  0.45594000000E+02  0.51100000000E-03 0.  1.
    9900012    2    1    2    0    0  0.10708970823E+02  0.12589937558E+02 -0.88029095258E+01  0.72461553462E+02  0.69999978073E+02 0.  0.
         12    1    1    2    0    0 -0.10708970823E+02 -0.12589937558E+02  0.88029095258E+01  0.18726446538E+02  0.00000000000E+00 0. -1.
         11    1    3    3    0    0  0.92446607228E+01  0.23582898305E+00 -0.49941332175E+00  0.92611436181E+01  0.51100000000E-03 0. -1.
        -11    1    3    3    0    0 -0.11424837949E+02 -0.22477058257E+02 -0.63929890134E+01  0.26011831516E+02  0.51100000000E-03 0.  1.
        -12    1    3    3    0    0  0.12889148049E+02  0.34831166832E+02 -0.19105071907E+01  0.37188578328E+02  0.00000000000E+00 0.  1.
</event>
<event>
 7    1  0.3305651E-013  0.7246155E+02  0.7816164E-02  0.1226708E+00
        -11   -1    0    0    0    0  0.00000000000E+00  0.00000000000E+00  0.45593999997E+02  0.45594000000E+02  0.51100000000E-03 0.  1.
         11   -1    0    0    0    0 -0.00000000000E+00 -0.00000000000E+00 -0.45593999997E+02  0.45594000000E+02  0.51100000000E-03 0. -1.
    9900012    2    1    2    0    0 -0.18044122430E+01 -0.15202598437E+02  0.10784489496E+02  0.72461545011E+02  0.69999967063E+02 0.  0.
         12    1    1    2    0    0  0.18044122430E+01  0.15202598437E+02 -0.10784489496E+02  0.18726454989E+02  0.00000000000E+00 0. -1.
         11    1    3    3    0    0 -0.27306698939E+02 -0.84591589435E+01 -0.33171826976E+01  0.28778757413E+02  0.51100000000E-03 0. -1.
        -11    1    3    3    0    0  0.11425362733E+02  0.20508965757E+01  0.22322532026E+02  0.25160296633E+02  0.51100000000E-03 0.  1.
         12    1    3    3    0    0  0.14076923962E+02 -0.87943360693E+01 -0.82208598322E+01  0.18522490964E+02  0.00000000000E+00 0. -1.
</event>
<event>
 7    1  0.3305651E-013  0.7246161E+02  0.7816164E-02  0.1226708E+00
        -11   -1    0    0    0    0  0.00000000000E+00  0.00000000000E+00  0.45593999997E+02  0.45594000000E+02  0.51100000000E-03 0.  1.
         11   -1    0    0    0    0 -0.00000000000E+00 -0.00000000000E+00 -0.45593999997E+02  0.45594000000E+02  0.51100000000E-03 0. -1.
    9900012    2    1    2    0    0  0.10443627894E+02 -0.15010391591E+02  0.40368821747E+01  0.72461611214E+02  0.70000053305E+02 0.  0.
         12    1    1    2    0    0 -0.10443627894E+02  0.15010391591E+02 -0.40368821747E+01  0.18726388786E+02  0.00000000000E+00 0. -1.
         11    1    3    3    0    0  0.25457947704E+01 -0.68295569565E+01 -0.10130916491E+02  0.12480360109E+02  0.51100000000E-03 0. -1.
        -11    1    3    3    0    0  0.93485620669E+01 -0.29905914882E+02 -0.40472811456E+01  0.31593351240E+02  0.51100000000E-03 0.  1.
        -12    1    3    3    0    0 -0.14507289437E+01  0.21725080248E+02  0.18215079811E+02  0.28387899865E+02  0.00000000000E+00 0.  1.
</event>
<event>
 7    1  0.3305651E-013  0.7246162E+02  0.7816164E-02  0.1226708E+00
        -11   -1    0    0    0    0  0.00000000000E+00  0.00000000000E+00  0.45593999997E+02  0.45594000000E+02  0.51100000000E-03 0.  1.
         11   -1    0    0    0    0 -0.00000000000E+00 -0.00000000000E+00 -0.45593999997E+02  0.45594000000E+02  0.51100000000E-03 0. -1.
    9900012    2    1    2    0    0 -0.48659840258E+01  0.17850258452E+02  0.28927254238E+01  0.72461617869E+02  0.70000061975E+02 0.  0.
         12    1    1    2    0    0  0.48659840258E+01 -0.17850258452E+02 -0.28927254238E+01  0.18726382131E+02  0.00000000000E+00 0. -1.
         11    1    3    3    0    0 -0.20347280692E+02  0.27101581150E+02  0.16134102191E+02  0.37534208213E+02  0.51100000000E-03 0.  1.
        -11    1    3    3    0    0  0.25696133872E+01 -0.96547692291E+01  0.60725671570E+01  0.11691601856E+02  0.51100000000E-03 0. -1.
         12    1    3    3    0    0  0.12911683279E+02  0.40344653051E+00 -0.19313943924E+02  0.23235807800E+02  0.00000000000E+00 0. -1.
</event>
<event>
 7    1  0.3305651E-013  0.7246151E+02  0.7816164E-02  0.1226708E+00
        -11   -1    0    0    0    0  0.00000000000E+00  0.00000000000E+00  0.45593999997E+02  0.45594000000E+02  0.51100000000E-03 0.  1.
         11   -1    0    0    0    0 -0.00000000000E+00 -0.00000000000E+00 -0.45593999997E+02  0.45594000000E+02  0.51100000000E-03 0. -1.
    9900012    2    1    2    0    0 -0.10092412623E+02  0.11250743945E+02  0.11056456911E+02  0.72461514177E+02  0.69999926897E+02 0.  0.
         12    1    1    2    0    0  0.10092412623E+02 -0.11250743945E+02 -0.11056456911E+02  0.18726485823E+02  0.00000000000E+00 0. -1.
         11    1    3    3    0    0 -0.10071218202E+02  0.19077382888E+02  0.43993294442E+01  0.22016586333E+02  0.51100000000E-03 0. -1.
        -11    1    3    3    0    0  0.30488726670E+01  0.12984206463E+02 -0.15123436283E+02  0.20164413388E+02  0.51100000000E-03 0.  1.
         12    1    3    3    0    0 -0.30700670879E+01 -0.20810845406E+02  0.21780563750E+02  0.30280514456E+02  0.00000000000E+00 0. -1.
</event>
<event>
 7    1  0.3305651E-013  0.7246153E+02  0.7816164E-02  0.1226708E+00
        -11   -1    0    0    0    0  0.00000000000E+00  0.00000000000E+00  0.45593999997E+02  0.45594000000E+02  0.51100000000E-03 0. -1.
         11   -1    0    0    0    0 -0.00000000000E+00 -0.00000000000E+00 -0.45593999997E+02  0.45594000000E+02  0.51100000000E-03 0.  1.
    9900012    2    1    2    0    0  0.78898076242E+01 -0.51796065619E+01 -0.16174149975E+02  0.72461534346E+02  0.69999953170E+02 0.  0.
         12    1    1    2    0    0 -0.78898076242E+01  0.51796065619E+01  0.16174149975E+02  0.18726465654E+02  0.00000000000E+00 0. -1.
         11    1    3    3    0    0  0.23216021129E+02  0.26554765502E+01  0.16872820902E+02  0.28822339916E+02  0.51100000000E-03 0. -1.
        -11    1    3    3    0    0 -0.58066937563E+00 -0.10429631423E+02 -0.44382812718E+01  0.11349569571E+02  0.51100000000E-03 0.  1.
        -12    1    3    3    0    0 -0.14745544129E+02  0.25945483105E+01 -0.28608689606E+02  0.32289624859E+02  0.00000000000E+00 0.  1.
</event>
<event>
 7    1  0.3305651E-013  0.7246157E+02  0.7816164E-02  0.1226708E+00
        -11   -1    0    0    0    0  0.00000000000E+00  0.00000000000E+00  0.45593999997E+02  0.45594000000E+02  0.51100000000E-03 0.  1.
         11   -1    0    0    0    0 -0.00000000000E+00 -0.00000000000E+00 -0.45593999997E+02  0.45594000000E+02  0.51100000000E-03 0. -1.
    9900012    2    1    2    0    0 -0.11393328243E+02 -0.78161944572E+01  0.12640339621E+02  0.72461574554E+02  0.70000005549E+02 0.  0.
         12    1    1    2    0    0  0.11393328243E+02  0.78161944572E+01 -0.12640339621E+02  0.18726425446E+02  0.00000000000E+00 0. -1.
         11    1    3    3    0    0  0.17343198014E+02 -0.11006959455E+02  0.68362913694E+01  0.21648892668E+02  0.51100000000E-03 0. -1.
        -11    1    3    3    0    0 -0.77922742178E+01 -0.39057738146E+01  0.21827717784E+02  0.23503699081E+02  0.51100000000E-03 0.  1.
         12    1    3    3    0    0 -0.20944252039E+02  0.70965388126E+01 -0.16023669532E+02  0.27308982805E+02  0.00000000000E+00 0. -1.
</event>
<event>
 7    1  0.3305651E-013  0.7246151E+02  0.7816164E-02  0.1226708E+00
        -11   -1    0    0    0    0  0.00000000000E+00  0.00000000000E+00  0.45593999997E+02  0.45594000000E+02  0.51100000000E-03 0. -1.
         11   -1    0    0    0    0 -0.00000000000E+00 -0.00000000000E+00 -0.45593999997E+02  0.45594000000E+02  0.51100000000E-03 0.  1.
    9900012    2    1    2    0    0 -0.16754721782E+02 -0.56868047719E+01 -0.61335828359E+01  0.72461513706E+02  0.69999926284E+02 0.  0.
         12    1    1    2    0    0  0.16754721782E+02  0.56868047719E+01  0.61335828359E+01  0.18726486294E+02  0.00000000000E+00 0. -1.
         11    1    3    3    0    0  0.59244963091E+00 -0.55406755795E+01  0.26964620055E+01  0.61903949835E+01  0.51100000000E-03 0. -1.
        -11    1    3    3    0    0 -0.41736443582E+01 -0.28119119493E+02  0.99225147681E+01  0.30109142929E+02  0.51100000000E-03 0.  1.
         12    1    3    3    0    0 -0.13173527055E+02  0.27972990301E+02 -0.18752559610E+02  0.36161975794E+02  0.00000000000E+00 0. -1.
</event>
<event>
 7    1  0.3305651E-013  0.7246159E+02  0.7816164E-02  0.1226708E+00
        -11   -1    0    0    0    0  0.00000000000E+00  0.00000000000E+00  0.45593999997E+02  0.45594000000E+02  0.51100000000E-03 0.  1.
         11   -1    0    0    0    0 -0.00000000000E+00 -0.00000000000E+00 -0.45593999997E+02  0.45594000000E+02  0.51100000000E-03 0. -1.
    9900012    2    1    2    0    0  0.75995233999E+01 -0.20872212859E+01  0.16987326963E+02  0.72461587478E+02  0.70000022385E+02 0.  0.
         12    1    1    2    0    0 -0.75995233999E+01  0.20872212859E+01 -0.16987326963E+02  0.18726412522E+02  0.00000000000E+00 0. -1.
         11    1    3    3    0    0  0.11807647432E+02 -0.10647044683E+02 -0.17790471628E+02  0.23859609791E+02  0.51100000000E-03 0. -1.
        -11    1    3    3    0    0  0.24880813634E+00 -0.58365533617E+01 -0.39455147308E+01  0.70494217766E+01  0.51100000000E-03 0.  1.
        -12    1    3    3    0    0 -0.44569321688E+01  0.14396376758E+02  0.38723313321E+02  0.41552555911E+02  0.00000000000E+00 0.  1.
</event>
<event>
 7    1  0.3305651E-013  0.7246161E+02  0.7816164E-02  0.1226708E+00
        -11   -1    0    0    0    0  0.00000000000E+00  0.00000000000E+00  0.45593999997E+02  0.45594000000E+02  0.51100000000E-03 0. -1.
         11   -1    0    0    0    0 -0.00000000000E+00 -0.00000000000E+00 -0.45593999997E+02  0.45594000000E+02  0.51100000000E-03 0.  1.
    9900012    2    1    2    0    0 -0.64626199081E+01  0.16744140434E+02 -0.53428407485E+01  0.72461611074E+02  0.70000053123E+02 0.  0.
         12    1    1    2    0    0  0.64626199081E+01 -0.16744140434E+02  0.53428407485E+01  0.18726388926E+02  0.00000000000E+00 0. -1.
         11    1    3    3    0    0 -0.14769301646E-01  0.60069088380E+01 -0.10114377242E+02  0.11763664360E+02  0.51100000000E-03 0. -1.
        -11    1    3    3    0    0  0.51185156023E+01  0.89874272642E+01 -0.25890650934E+02  0.27880079929E+02  0.51100000000E-03 0.  1.
         12    1    3    3    0    0 -0.11566366209E+02  0.17498043318E+01  0.30662187427E+02  0.32817866785E+02  0.00000000000E+00 0. -1.
</event>
<event>
 7    1  0.3305651E-013  0.7246144E+02  0.7816164E-02  0.1226708E+00
        -11   -1    0    0    0    0  0.00000000000E+00  0.00000000000E+00  0.45593999997E+02  0.45594000000E+02  0.51100000000E-03 0.  1.
         11   -1    0    0    0    0 -0.00000000000E+00 -0.00000000000E+00 -0.45593999997E+02  0.45594000000E+02  0.51100000000E-03 0. -1.
    9900012    2    1    2    0    0  0.11517700523E+00  0.16188811234E+02  0.94123969387E+01  0.72461438889E+02  0.69999828820E+02 0.  0.
         12    1    1    2    0    0 -0.11517700523E+00 -0.16188811234E+02 -0.94123969387E+01  0.18726561111E+02  0.00000000000E+00 0. -1.
         11    1    3    3    0    0  0.50676131954E+01 -0.35189696042E+01 -0.73603802164E+01  0.96041161886E+01  0.51100000000E-03 0. -1.
        -11    1    3    3    0    0  0.14666578960E+02 -0.97425430125E+01 -0.83224350054E+01  0.19475333307E+02  0.51100000000E-03 0.  1.
         12    1    3    3    0    0 -0.19619015150E+02  0.29450323850E+02  0.25095212160E+02  0.43381989394E+02  0.00000000000E+00 0. -1.
</event>
<event>
 7    1  0.3305651E-013  0.7246157E+02  0.7816164E-02  0.1226708E+00
        -11   -1    0    0    0    0  0.00000000000E+00  0.00000000000E+00  0.45593999997E+02  0.45594000000E+02  0.51100000000E-03 0. -1.
         11   -1    0    0    0    0 -0.00000000000E+00 -0.00000000000E+00 -0.45593999997E+02  0.45594000000E+02  0.51100000000E-03 0.  1.
    9900012    2    1    2    0    0  0.63260000786E+01 -0.17119371349E+02 -0.41937962114E+01  0.72461572710E+02  0.70000003147E+02 0.  0.
         12    1    1    2    0    0 -0.63260000786E+01  0.17119371349E+02  0.41937962114E+01  0.18726427290E+02  0.00000000000E+00 0. -1.
         11    1    3    3    0    0  0.26738676066E+00  0.18412403091E+02 -0.82351318477E+01  0.20171898277E+02  0.51100000000E-03 0. -1.
        -11    1    3    3    0    0 -0.41917234563E+00 -0.30016154904E+01 -0.14142383323E+02  0.14463485310E+02  0.51100000000E-03 0.  1.
         12    1    3    3    0    0  0.64777856636E+01 -0.32530158950E+02  0.18183718959E+02  0.37826189123E+02  0.00000000000E+00 0. -1.
</event>
<event>
 7    1  0.3305651E-013  0.7246158E+02  0.7816164E-02  0.1226708E+00
        -11   -1    0    0    0    0  0.00000000000E+00  0.00000000000E+00  0.45593999997E+02  0.45594000000E+02  0.51100000000E-03 0.  1.
         11   -1    0    0    0    0 -0.00000000000E+00 -0.00000000000E+00 -0.45593999997E+02  0.45594000000E+02  0.51100000000E-03 0. -1.
    9900012    2    1    2    0    0  0.18165557240E+02  0.16971312231E+01  0.42203025045E+01  0.72461583432E+02  0.70000017115E+02 0.  0.
         12    1    1    2    0    0 -0.18165557240E+02 -0.16971312231E+01 -0.42203025045E+01  0.18726416568E+02  0.00000000000E+00 0. -1.
         11    1    3    3    0    0 -0.83930809563E+00 -0.13310006864E+02  0.68684937910E+01  0.15001230884E+02  0.51100000000E-03 0. -1.
        -11    1    3    3    0    0  0.24562984364E+02 -0.68834803528E+01  0.14280940798E+02  0.29234701520E+02  0.51100000000E-03 0.  1.
         12    1    3    3    0    0 -0.55581190280E+01  0.21890618440E+02 -0.16929132085E+02  0.28225651028E+02  0.00000000000E+00 0. -1.
</event>
<event>
 7    1  0.3305651E-013  0.7246153E+02  0.7816164E-02  0.1226708E+00
        -11   -1    0    0    0    0  0.00000000000E+00  0.00000000000E+00  0.45593999997E+02  0.45594000000E+02  0.51100000000E-03 0.  1.
         11   -1    0    0    0    0 -0.00000000000E+00 -0.00000000000E+00 -0.45593999997E+02  0.45594000000E+02  0.51100000000E-03 0. -1.
    9900012    2    1    2    0    0  0.14309447332E+01 -0.95791886884E+01  0.16027239139E+02  0.72461525340E+02  0.69999941439E+02 0.  0.
         12    1    1    2    0    0 -0.14309447332E+01  0.95791886884E+01 -0.16027239139E+02  0.18726474660E+02  0.00000000000E+00 0. -1.
         11    1    3    3    0    0 -0.94431726360E+01 -0.69797207820E+01  0.30196292372E+02  0.32399167967E+02  0.51100000000E-03 0. -1.
        -11    1    3    3    0    0  0.16048303466E+02 -0.40177825586E+01  0.71909663669E+01  0.18038864110E+02  0.51100000000E-03 0.  1.
         12    1    3    3    0    0 -0.51741860970E+01  0.14183146522E+01 -0.21360019600E+02  0.22023493264E+02  0.00000000000E+00 0. -1.
</event>
<event>
 7    1  0.3305651E-013  0.7246154E+02  0.7816164E-02  0.1226708E+00
        -11   -1    0    0    0    0  0.00000000000E+00  0.00000000000E+00  0.45593999997E+02  0.45594000000E+02  0.51100000000E-03 0.  1.
         11   -1    0    0    0    0 -0.00000000000E+00 -0.00000000000E+00 -0.45593999997E+02  0.45594000000E+02  0.51100000000E-03 0. -1.
    9900012    2    1    2    0    0  0.15882213404E+02  0.94589196332E+01  0.29940566663E+01  0.72461541751E+02  0.69999962817E+02 0.  0.
         12    1    1    2    0    0 -0.15882213404E+02 -0.94589196332E+01 -0.29940566663E+01  0.18726458249E+02  0.00000000000E+00 0. -1.
         11    1    3    3    0    0 -0.15298373737E+02  0.93980061952E+01  0.12002329836E+02  0.21596728484E+02  0.51100000000E-03 0. -1.
        -11    1    3    3    0    0  0.53214801845E+00  0.11651084762E+02  0.78073419763E+01  0.14035153959E+02  0.51100000000E-03 0.  1.
        -12    1    3    3    0    0  0.30648439123E+02 -0.11590171324E+02 -0.16815615146E+02  0.36829659308E+02  0.00000000000E+00 0.  1.
</event>
<event>
 7    1  0.3305651E-013  0.7246171E+02  0.7816164E-02  0.1226708E+00
        -11   -1    0    0    0    0  0.00000000000E+00  0.00000000000E+00  0.45593999997E+02  0.45594000000E+02  0.51100000000E-03 0.  1.
         11   -1    0    0    0    0 -0.00000000000E+00 -0.00000000000E+00 -0.45593999997E+02  0.45594000000E+02  0.51100000000E-03 0. -1.
    9900012    2    1    2    0    0 -0.73349591728E+01  0.75213350176E+01  0.15501667587E+02  0.72461713543E+02  0.70000186607E+02 0.  0.
         12    1    1    2    0    0  0.73349591728E+01 -0.75213350176E+01 -0.15501667587E+02  0.18726286457E+02  0.00000000000E+00 0. -1.
         11    1    3    3    0    0 -0.58020228864E+01 -0.13536496374E+02  0.51934507196E+01  0.15616405934E+02  0.51100000000E-03 0. -1.
        -11    1    3    3    0    0 -0.15478600414E+02  0.30852455516E+01  0.25143603225E+02  0.29686808422E+02  0.51100000000E-03 0.  1.
         12    1    3    3    0    0  0.13945664127E+02  0.17972585840E+02 -0.14835386358E+02  0.27158499187E+02  0.00000000000E+00 0. -1.
</event>
<event>
 7    1  0.3305651E-013  0.7246153E+02  0.7816164E-02  0.1226708E+00
        -11   -1    0    0    0    0  0.00000000000E+00  0.00000000000E+00  0.45593999997E+02  0.45594000000E+02  0.51100000000E-03 0. -1.
         11   -1    0    0    0    0 -0.00000000000E+00 -0.00000000000E+00 -0.45593999997E+02  0.45594000000E+02  0.51100000000E-03 0.  1.
    9900012    2    1    2    0    0  0.79656561481E+01  0.16874213428E+02  0.15779438602E+01  0.72461530405E+02  0.69999948037E+02 0.  0.
         12    1    1    2    0    0 -0.79656561481E+01 -0.16874213428E+02 -0.15779438602E+01  0.18726469595E+02  0.00000000000E+00 0. -1.
         11    1    3    3    0    0  0.25819458463E+01  0.25766158776E+02 -0.69275585386E+01  0.26805828657E+02  0.51100000000E-03 0. -1.
        -11    1    3    3    0    0  0.40315042350E+01  0.10299178562E+02 -0.12821976090E+02  0.16933079359E+02  0.51100000000E-03 0.  1.
        -12    1    3    3    0    0  0.13522060669E+01 -0.19191123911E+02  0.21327478489E+02  0.28722622389E+02  0.00000000000E+00 0.  1.
</event>
<event>
 7    1  0.3305651E-013  0.7246110E+02  0.7816164E-02  0.1226709E+00
        -11   -1    0    0    0    0  0.00000000000E+00  0.00000000000E+00  0.45593999997E+02  0.45594000000E+02  0.51100000000E-03 0. -1.
         11   -1    0    0    0    0 -0.00000000000E+00 -0.00000000000E+00 -0.45593999997E+02  0.45594000000E+02  0.51100000000E-03 0.  1.
    9900012    2    1    2    0    0 -0.93814168079E+01 -0.16063484283E+02 -0.21564711622E+01  0.72461097520E+02  0.69999384120E+02 0.  0.
         12    1    1    2    0    0  0.93814168079E+01  0.16063484283E+02  0.21564711622E+01  0.18726902480E+02  0.00000000000E+00 0. -1.
         11    1    3    3    0    0 -0.88992311284E+01  0.14220723586E+02  0.15025868171E+02  0.22521145809E+02  0.51100000000E-03 0. -1.
        -11    1    3    3    0    0 -0.11889908819E+02  0.24396262763E+01 -0.30578482436E+01  0.12516874380E+02  0.51100000000E-03 0.  1.
         12    1    3    3    0    0  0.11407723140E+02 -0.32723834145E+02 -0.14124491090E+02  0.37423077331E+02  0.00000000000E+00 0. -1.
</event>
<event>
 7    1  0.3305651E-013  0.7246158E+02  0.7816164E-02  0.1226708E+00
        -11   -1    0    0    0    0  0.00000000000E+00  0.00000000000E+00  0.45593999997E+02  0.45594000000E+02  0.51100000000E-03 0.  1.
         11   -1    0    0    0    0 -0.00000000000E+00 -0.00000000000E+00 -0.45593999997E+02  0.45594000000E+02  0.51100000000E-03 0. -1.
    9900012    2    1    2    0    0 -0.96865620040E+01  0.16025158972E+02  0.20852147350E+00  0.72461583238E+02  0.70000016862E+02 0.  0.
         12    1    1    2    0    0  0.96865620040E+01 -0.16025158972E+02 -0.20852147350E+00  0.18726416762E+02  0.00000000000E+00 0. -1.
         11    1    3    3    0    0  0.49279796653E+01  0.13805412011E+02  0.76296811433E+01  0.16525326592E+02  0.51100000000E-03 0. -1.
        -11    1    3    3    0    0  0.24770419534E+01  0.18510569031E+02  0.14556930465E+02  0.23678706205E+02  0.51100000000E-03 0.  1.
        -12    1    3    3    0    0 -0.17091583623E+02 -0.16290822071E+02 -0.21978090135E+02  0.32257550441E+02  0.00000000000E+00 0.  1.
</event>
<event>
 7    1  0.3305651E-013  0.7246152E+02  0.7816164E-02  0.1226708E+00
        -11   -1    0    0    0    0  0.00000000000E+00  0.00000000000E+00  0.45593999997E+02  0.45594000000E+02  0.51100000000E-03 0.  1.
         11   -1    0    0    0    0 -0.00000000000E+00 -0.00000000000E+00 -0.45593999997E+02  0.45594000000E+02  0.51100000000E-03 0. -1.
    9900012    2    1    2    0    0  0.15749794705E+01 -0.72593949152E+01  0.17190161471E+02  0.72461520719E+02  0.69999935419E+02 0.  0.
         12    1    1    2    0    0 -0.15749794705E+01  0.72593949152E+01 -0.17190161471E+02  0.18726479281E+02  0.00000000000E+00 0. -1.
         11    1    3    3    0    0  0.71030953164E+01  0.75697643804E+01  0.12371764671E+02  0.16149794338E+02  0.51100000000E-03 0. -1.
        -11    1    3    3    0    0  0.15133285975E+02 -0.39942844629E+01 -0.17879311695E+02  0.23762164037E+02  0.51100000000E-03 0.  1.
         12    1    3    3    0    0 -0.20661401821E+02 -0.10834874833E+02  0.22697708495E+02  0.32549562344E+02  0.00000000000E+00 0. -1.
</event>
<event>
 7    1  0.3305651E-013  0.7246156E+02  0.7816164E-02  0.1226708E+00
        -11   -1    0    0    0    0  0.00000000000E+00  0.00000000000E+00  0.45593999997E+02  0.45594000000E+02  0.51100000000E-03 0.  1.
         11   -1    0    0    0    0 -0.00000000000E+00 -0.00000000000E+00 -0.45593999997E+02  0.45594000000E+02  0.51100000000E-03 0. -1.
    9900012    2    1    2    0    0 -0.16420277784E+02  0.88012062495E+01 -0.18954204392E+01  0.72461564872E+02  0.69999992936E+02 0.  0.
         12    1    1    2    0    0  0.16420277784E+02 -0.88012062495E+01  0.18954204392E+01  0.18726435128E+02  0.00000000000E+00 0. -1.
         11    1    3    3    0    0 -0.10523780444E+02 -0.23298387655E+01  0.14956754745E+02  0.18435905626E+02  0.51100000000E-03 0. -1.
        -11    1    3    3    0    0 -0.23632441850E+02 -0.49762726076E+01  0.96241705309E+00  0.24169854027E+02  0.51100000000E-03 0.  1.
         12    1    3    3    0    0  0.17735944510E+02  0.16107317623E+02 -0.17814592237E+02  0.29855805218E+02  0.00000000000E+00 0. -1.
</event>
<event>
 7    1  0.3305651E-013  0.7246154E+02  0.7816164E-02  0.1226708E+00
        -11   -1    0    0    0    0  0.00000000000E+00  0.00000000000E+00  0.45593999997E+02  0.45594000000E+02  0.51100000000E-03 0. -1.
         11   -1    0    0    0    0 -0.00000000000E+00 -0.00000000000E+00 -0.45593999997E+02  0.45594000000E+02  0.51100000000E-03 0.  1.
    9900012    2    1    2    0    0  0.88151201754E+01  0.14409656581E+02 -0.80830621423E+01  0.72461536370E+02  0.69999955807E+02 0.  0.
         12    1    1    2    0    0 -0.88151201754E+01 -0.14409656581E+02  0.80830621423E+01  0.18726463630E+02  0.00000000000E+00 0. -1.
         11    1    3    3    0    0  0.32282360936E+02  0.14126034263E+01 -0.96545996027E+01  0.33724732316E+02  0.51100000000E-03 0. -1.
        -11    1    3    3    0    0  0.51571784039E+01 -0.42104853973E+00 -0.41212196141E+01  0.66149997983E+01  0.51100000000E-03 0.  1.
         12    1    3    3    0    0 -0.28624419164E+02  0.13418101694E+02  0.56927570744E+01  0.32121804256E+02  0.00000000000E+00 0. -1.
</event>
<event>
 7    1  0.3305651E-013  0.7246179E+02  0.7816164E-02  0.1226707E+00
        -11   -1    0    0    0    0  0.00000000000E+00  0.00000000000E+00  0.45593999997E+02  0.45594000000E+02  0.51100000000E-03 0.  1.
         11   -1    0    0    0    0 -0.00000000000E+00 -0.00000000000E+00 -0.45593999997E+02  0.45594000000E+02  0.51100000000E-03 0. -1.
    9900012    2    1    2    0    0  0.14039286074E+02 -0.11757162712E+02 -0.39164535021E+01  0.72461787448E+02  0.70000282883E+02 0.  0.
         12    1    1    2    0    0 -0.14039286074E+02  0.11757162712E+02  0.39164535021E+01  0.18726212552E+02  0.00000000000E+00 0. -1.
         11    1    3    3    0    0 -0.11898108217E+02 -0.14955260284E+02 -0.28331987656E+00  0.19112955285E+02  0.51100000000E-03 0. -1.
        -11    1    3    3    0    0  0.26945125181E+02 -0.12686813726E+02  0.10979208002E+02  0.31741739431E+02  0.51100000000E-03 0.  1.
        -12    1    3    3    0    0 -0.10077308904E+01  0.15884911298E+02 -0.14612341628E+02  0.21607092732E+02  0.00000000000E+00 0.  1.
</event>
<event>
 7    1  0.3305651E-013  0.7246162E+02  0.7816164E-02  0.1226708E+00
        -11   -1    0    0    0    0  0.00000000000E+00  0.00000000000E+00  0.45593999997E+02  0.45594000000E+02  0.51100000000E-03 0. -1.
         11   -1    0    0    0    0 -0.00000000000E+00 -0.00000000000E+00 -0.45593999997E+02  0.45594000000E+02  0.51100000000E-03 0.  1.
    9900012    2    1    2    0    0  0.26124883924E+01 -0.17519033505E+02 -0.60774865201E+01  0.72461615593E+02  0.70000059010E+02 0.  0.
         12    1    1    2    0    0 -0.26124883924E+01  0.17519033505E+02  0.60774865201E+01  0.18726384407E+02  0.00000000000E+00 0. -1.
         11    1    3    3    0    0 -0.22751350883E+01 -0.22720999224E+02  0.21641578313E+02  0.31460736761E+02  0.51100000000E-03 0. -1.
        -11    1    3    3    0    0  0.60501612481E+01  0.63788760764E+00  0.50429433562E+01  0.79020648999E+01  0.51100000000E-03 0.  1.
        -12    1    3    3    0    0 -0.11625377674E+01  0.45640781105E+01 -0.32762008190E+02  0.33098813932E+02  0.00000000000E+00 0.  1.
</event>
<event>
 7    1  0.3305651E-013  0.7246159E+02  0.7816164E-02  0.1226708E+00
        -11   -1    0    0    0    0  0.00000000000E+00  0.00000000000E+00  0.45593999997E+02  0.45594000000E+02  0.51100000000E-03 0. -1.
         11   -1    0    0    0    0 -0.00000000000E+00 -0.00000000000E+00 -0.45593999997E+02  0.45594000000E+02  0.51100000000E-03 0.  1.
    9900012    2    1    2    0    0 -0.12283385716E+02  0.50967973384E+01 -0.13184067546E+02  0.72461586975E+02  0.70000021729E+02 0.  0.
         12    1    1    2    0    0  0.12283385716E+02 -0.50967973384E+01  0.13184067546E+02  0.18726413025E+02  0.00000000000E+00 0. -1.
         11    1    3    3    0    0 -0.93153905847E+01 -0.54689660304E+01 -0.31472137039E+00  0.10806717401E+02  0.51100000000E-03 0. -1.
        -11    1    3    3    0    0  0.62317874996E+01 -0.61161326961E+00  0.22543685040E+02  0.23397157556E+02  0.51100000000E-03 0.  1.
        -12    1    3    3    0    0 -0.91997826304E+01  0.11177376638E+02 -0.35413031216E+02  0.38257712018E+02  0.00000000000E+00 0.  1.
</event>
<event>
 7    1  0.3305651E-013  0.7246165E+02  0.7816164E-02  0.1226708E+00
        -11   -1    0    0    0    0  0.00000000000E+00  0.00000000000E+00  0.45593999997E+02  0.45594000000E+02  0.51100000000E-03 0.  1.
         11   -1    0    0    0    0 -0.00000000000E+00 -0.00000000000E+00 -0.45593999997E+02  0.45594000000E+02  0.51100000000E-03 0. -1.
    9900012    2    1    2    0    0 -0.54315148306E+00 -0.80249217463E+01  0.16910992559E+02  0.72461653536E+02  0.70000108437E+02 0.  0.
         12    1    1    2    0    0  0.54315148306E+00  0.80249217463E+01 -0.16910992559E+02  0.18726346464E+02  0.00000000000E+00 0. -1.
         11    1    3    3    0    0  0.21198050707E+02 -0.12924698103E+02  0.13974006655E+02  0.28489963796E+02  0.51100000000E-03 0. -1.
        -11    1    3    3    0    0  0.73253785824E+01 -0.87343715687E+01  0.32883156841E+01  0.11864376864E+02  0.51100000000E-03 0.  1.
         12    1    3    3    0    0 -0.29066580773E+02  0.13634147925E+02 -0.35132977980E+00  0.32107312875E+02  0.00000000000E+00 0. -1.
</event>
<event>
 7    1  0.3305651E-013  0.7246173E+02  0.7816164E-02  0.1226708E+00
        -11   -1    0    0    0    0  0.00000000000E+00  0.00000000000E+00  0.45593999997E+02  0.45594000000E+02  0.51100000000E-03 0. -1.
         11   -1    0    0    0    0 -0.00000000000E+00 -0.00000000000E+00 -0.45593999997E+02  0.45594000000E+02  0.51100000000E-03 0.  1.
    9900012    2    1    2    0    0  0.77485078068E+01  0.22414230702E+01 -0.16899993046E+02  0.72461731937E+02  0.70000210570E+02 0.  0.
         12    1    1    2    0    0 -0.77485078068E+01 -0.22414230702E+01  0.16899993046E+02  0.18726268063E+02  0.00000000000E+00 0. -1.
         11    1    3    3    0    0  0.94734426628E+01 -0.18277934370E+02 -0.15928053409E+01  0.20648632639E+02  0.51100000000E-03 0. -1.
        -11    1    3    3    0    0  0.12692286967E+02  0.19167733837E+01 -0.23595440862E+02  0.26860993995E+02  0.51100000000E-03 0.  1.
        -12    1    3    3    0    0 -0.14417221823E+02  0.18602584057E+02  0.82882531574E+01  0.24952105304E+02  0.00000000000E+00 0.  1.
</event>
<event>
 7    1  0.3305651E-013  0.7246156E+02  0.7816164E-02  0.1226708E+00
        -11   -1    0    0    0    0  0.00000000000E+00  0.00000000000E+00  0.45593999997E+02  0.45594000000E+02  0.51100000000E-03 0.  1.
         11   -1    0    0    0    0 -0.00000000000E+00 -0.00000000000E+00 -0.45593999997E+02  0.45594000000E+02  0.51100000000E-03 0. -1.
    9900012    2    1    2    0    0 -0.51280563637E+00 -0.18700050184E+02  0.85130012353E+00  0.72461559911E+02  0.69999986473E+02 0.  0.
         12    1    1    2    0    0  0.51280563637E+00  0.18700050184E+02 -0.85130012353E+00  0.18726440089E+02  0.00000000000E+00 0. -1.
         11    1    3    3    0    0 -0.10332062153E+02 -0.84665454009E+01  0.21137590561E+01  0.13524122041E+02  0.51100000000E-03 0. -1.
        -11    1    3    3    0    0 -0.51156369684E+00 -0.32884345040E+02  0.50003099740E+01  0.33266273405E+02  0.51100000000E-03 0.  1.
        -12    1    3    3    0    0  0.10330820213E+02  0.22650840257E+02 -0.62627689066E+01  0.25671164465E+02  0.00000000000E+00 0.  1.
</event>
<event>
 7    1  0.3305651E-013  0.7246202E+02  0.7816164E-02  0.1226707E+00
        -11   -1    0    0    0    0  0.00000000000E+00  0.00000000000E+00  0.45593999997E+02  0.45594000000E+02  0.51100000000E-03 0. -1.
         11   -1    0    0    0    0 -0.00000000000E+00 -0.00000000000E+00 -0.45593999997E+02  0.45594000000E+02  0.51100000000E-03 0.  1.
    9900012    2    1    2    0    0  0.61757566634E+01 -0.47047765134E+01 -0.17040759117E+02  0.72462019020E+02  0.70000584546E+02 0.  0.
         12    1    1    2    0    0 -0.61757566634E+01  0.47047765134E+01  0.17040759117E+02  0.18725980980E+02  0.00000000000E+00 0. -1.
         11    1    3    3    0    0 -0.58195404475E+01 -0.97253331013E+01 -0.15746299535E+02  0.19400904728E+02  0.51100000000E-03 0. -1.
        -11    1    3    3    0    0  0.18178881399E+02 -0.14482755008E+02 -0.15691217372E+02  0.28043470263E+02  0.51100000000E-03 0.  1.
         12    1    3    3    0    0 -0.61835842877E+01  0.19503311596E+02  0.14396757790E+02  0.25017644028E+02  0.00000000000E+00 0. -1.
</event>
<event>
 7    1  0.3305651E-013  0.7246157E+02  0.7816164E-02  0.1226708E+00
        -11   -1    0    0    0    0  0.00000000000E+00  0.00000000000E+00  0.45593999997E+02  0.45594000000E+02  0.51100000000E-03 0. -1.
         11   -1    0    0    0    0 -0.00000000000E+00 -0.00000000000E+00 -0.45593999997E+02  0.45594000000E+02  0.51100000000E-03 0.  1.
    9900012    2    1    2    0    0  0.24292349733E+01  0.17513876885E+02 -0.61678368044E+01  0.72461567426E+02  0.69999996264E+02 0.  0.
         12    1    1    2    0    0 -0.24292349733E+01 -0.17513876885E+02  0.61678368044E+01  0.18726432574E+02  0.00000000000E+00 0. -1.
         11    1    3    3    0    0 -0.45099307053E+00  0.11325473277E+02  0.61074062197E+00  0.11350891774E+02  0.51100000000E-03 0. -1.
        -11    1    3    3    0    0 -0.27485555547E+02  0.10120806487E+02  0.17004342068E+01  0.29339017783E+02  0.51100000000E-03 0.  1.
        -12    1    3    3    0    0  0.30365783591E+02 -0.39324028790E+01 -0.84790116332E+01  0.31771657870E+02  0.00000000000E+00 0.  1.
</event>
<event>
 7    1  0.3305651E-013  0.7246154E+02  0.7816164E-02  0.1226708E+00
        -11   -1    0    0    0    0  0.00000000000E+00  0.00000000000E+00  0.45593999997E+02  0.45594000000E+02  0.51100000000E-03 0. -1.
         11   -1    0    0    0    0 -0.00000000000E+00 -0.00000000000E+00 -0.45593999997E+02  0.45594000000E+02  0.51100000000E-03 0.  1.
    9900012    2    1    2    0    0  0.12479730533E+01 -0.16025322041E+02 -0.96079014527E+01  0.72461544019E+02  0.69999965772E+02 0.  0.
         12    1    1    2    0    0 -0.12479730533E+01  0.16025322041E+02  0.96079014527E+01  0.18726455981E+02  0.00000000000E+00 0. -1.
         11    1    3    3    0    0 -0.21223986292E+02 -0.15121206399E+02 -0.19762523016E+02  0.32705745570E+02  0.51100000000E-03 0. -1.
        -11    1    3    3    0    0 -0.32224944248E+00 -0.23669398790E+01  0.16001021100E+02  0.16178347431E+02  0.51100000000E-03 0.  1.
        -12    1    3    3    0    0  0.22794208787E+02  0.14628242365E+01 -0.58463995367E+01  0.23577451019E+02  0.00000000000E+00 0.  1.
</event>
<event>
 7    1  0.3305651E-013  0.7246158E+02  0.7816164E-02  0.1226708E+00
        -11   -1    0    0    0    0  0.00000000000E+00  0.00000000000E+00  0.45593999997E+02  0.45594000000E+02  0.51100000000E-03 0. -1.
         11   -1    0    0    0    0 -0.00000000000E+00 -0.00000000000E+00 -0.45593999997E+02  0.45594000000E+02  0.51100000000E-03 0.  1.
    9900012    2    1    2    0    0  0.75599157359E+01 -0.54921092236E+01 -0.16228467981E+02  0.72461581157E+02  0.70000014151E+02 0.  0.
         12    1    1    2    0    0 -0.75599157359E+01  0.54921092236E+01  0.16228467981E+02  0.18726418843E+02  0.00000000000E+00 0. -1.
         11    1    3    3    0    0  0.49045001551E+01  0.63300712342E+01  0.14411387334E+01  0.81363876942E+01  0.51100000000E-03 0.  1.
        -11    1    3    3    0    0 -0.24229874446E+02 -0.55583459627E+01  0.85145782164E+01  0.26276987422E+02  0.51100000000E-03 0. -1.
         12    1    3    3    0    0  0.26885290027E+02 -0.62638344950E+01 -0.26184184931E+02  0.38048206041E+02  0.00000000000E+00 0. -1.
</event>
<event>
 7    1  0.3305651E-013  0.7246157E+02  0.7816164E-02  0.1226708E+00
        -11   -1    0    0    0    0  0.00000000000E+00  0.00000000000E+00  0.45593999997E+02  0.45594000000E+02  0.51100000000E-03 0.  1.
         11   -1    0    0    0    0 -0.00000000000E+00 -0.00000000000E+00 -0.45593999997E+02  0.45594000000E+02  0.51100000000E-03 0. -1.
    9900012    2    1    2    0    0  0.14654267646E+02 -0.43864550512E+01  0.10802342283E+02  0.72461570897E+02  0.70000000785E+02 0.  0.
         12    1    1    2    0    0 -0.14654267646E+02  0.43864550512E+01 -0.10802342283E+02  0.18726429103E+02  0.00000000000E+00 0. -1.
         11    1    3    3    0    0 -0.21474661701E+01  0.81799546960E+01  0.18710386745E+02  0.20532945288E+02  0.51100000000E-03 0. -1.
        -11    1    3    3    0    0  0.34689067964E+01  0.86832323985E+00  0.18831484942E+02  0.19167997417E+02  0.51100000000E-03 0.  1.
        -12    1    3    3    0    0  0.13332827020E+02 -0.13434732987E+02 -0.26739529404E+02  0.32760628191E+02  0.00000000000E+00 0.  1.
</event>
<event>
 7    1  0.3305651E-013  0.7246158E+02  0.7816164E-02  0.1226708E+00
        -11   -1    0    0    0    0  0.00000000000E+00  0.00000000000E+00  0.45593999997E+02  0.45594000000E+02  0.51100000000E-03 0.  1.
         11   -1    0    0    0    0 -0.00000000000E+00 -0.00000000000E+00 -0.45593999997E+02  0.45594000000E+02  0.51100000000E-03 0. -1.
    9900012    2    1    2    0    0 -0.56395044597E+00  0.36192962602E+01  0.18364678519E+02  0.72461581159E+02  0.70000014153E+02 0.  0.
         12    1    1    2    0    0  0.56395044597E+00 -0.36192962602E+01 -0.18364678519E+02  0.18726418841E+02  0.00000000000E+00 0. -1.
         11    1    3    3    0    0 -0.20756093430E+01  0.64725977996E+01  0.16479873227E+02  0.17826634519E+02  0.51100000000E-03 0. -1.
        -11    1    3    3    0    0  0.13063873114E+02 -0.22140755614E+02  0.13813722612E+02  0.29183844376E+02  0.51100000000E-03 0.  1.
         12    1    3    3    0    0 -0.11552214217E+02  0.19287454075E+02 -0.11928917321E+02  0.25451102264E+02  0.00000000000E+00 0. -1.
</event>
<event>
 7    1  0.3305651E-013  0.7246170E+02  0.7816164E-02  0.1226708E+00
        -11   -1    0    0    0    0  0.00000000000E+00  0.00000000000E+00  0.45593999997E+02  0.45594000000E+02  0.51100000000E-03 0. -1.
         11   -1    0    0    0    0 -0.00000000000E+00 -0.00000000000E+00 -0.45593999997E+02  0.45594000000E+02  0.51100000000E-03 0.  1.
    9900012    2    1    2    0    0 -0.13099196844E+02 -0.73130871301E+01  0.11207324783E+02  0.72461699508E+02  0.70000168324E+02 0.  0.
         12    1    1    2    0    0  0.13099196844E+02  0.73130871301E+01 -0.11207324783E+02  0.18726300492E+02  0.00000000000E+00 0. -1.
         11    1    3    3    0    0 -0.55257402652E+00  0.15214745648E+02 -0.26476348861E+01  0.15453277773E+02  0.51100000000E-03 0. -1.
        -11    1    3    3    0    0 -0.46518210018E+01  0.59311195734E+01 -0.14325215392E+02  0.16187322642E+02  0.51100000000E-03 0.  1.
         12    1    3    3    0    0 -0.78948018153E+01 -0.28458952352E+02  0.28180175061E+02  0.40821099093E+02  0.00000000000E+00 0. -1.
</event>
<event>
 7    1  0.3305651E-013  0.7246151E+02  0.7816164E-02  0.1226708E+00
        -11   -1    0    0    0    0  0.00000000000E+00  0.00000000000E+00  0.45593999997E+02  0.45594000000E+02  0.51100000000E-03 0. -1.
         11   -1    0    0    0    0 -0.00000000000E+00 -0.00000000000E+00 -0.45593999997E+02  0.45594000000E+02  0.51100000000E-03 0.  1.
    9900012    2    1    2    0    0  0.18699980534E+01  0.87965535077E+01 -0.16425751872E+02  0.72461506177E+02  0.69999916475E+02 0.  0.
         12    1    1    2    0    0 -0.18699980534E+01 -0.87965535077E+01  0.16425751872E+02  0.18726493823E+02  0.00000000000E+00 0. -1.
         11    1    3    3    0    0  0.35295017574E+00  0.12251853688E+02  0.22849992165E+02  0.25929802059E+02  0.51100000000E-03 0. -1.
        -11    1    3    3    0    0  0.32841190229E+01 -0.84189662936E+01 -0.24942258712E+01  0.93747316850E+01  0.51100000000E-03 0.  1.
        -12    1    3    3    0    0 -0.17670711452E+01  0.49636661131E+01 -0.36781518166E+02  0.37156972432E+02  0.00000000000E+00 0.  1.
</event>
<event>
 7    1  0.3305651E-013  0.7246159E+02  0.7816164E-02  0.1226708E+00
        -11   -1    0    0    0    0  0.00000000000E+00  0.00000000000E+00  0.45593999997E+02  0.45594000000E+02  0.51100000000E-03 0.  1.
         11   -1    0    0    0    0 -0.00000000000E+00 -0.00000000000E+00 -0.45593999997E+02  0.45594000000E+02  0.51100000000E-03 0. -1.
    9900012    2    1    2    0    0  0.52359762894E+00  0.59394116967E+01  0.17751833497E+02  0.72461591955E+02  0.70000028217E+02 0.  0.
         12    1    1    2    0    0 -0.52359762894E+00 -0.59394116967E+01 -0.17751833497E+02  0.18726408045E+02  0.00000000000E+00 0. -1.
         11    1    3    3    0    0  0.14398442224E+02  0.86090453100E+00  0.96178508773E+01  0.17336647624E+02  0.51100000000E-03 0. -1.
        -11    1    3    3    0    0 -0.22182511046E+02 -0.12828694722E+02  0.19631253343E+02  0.32280416860E+02  0.51100000000E-03 0.  1.
         12    1    3    3    0    0  0.83076664511E+01  0.17907201887E+02 -0.11497270724E+02  0.22844527471E+02  0.00000000000E+00 0. -1.
</event>
<event>
 7    1  0.3305651E-013  0.7246156E+02  0.7816164E-02  0.1226708E+00
        -11   -1    0    0    0    0  0.00000000000E+00  0.00000000000E+00  0.45593999997E+02  0.45594000000E+02  0.51100000000E-03 0. -1.
         11   -1    0    0    0    0 -0.00000000000E+00 -0.00000000000E+00 -0.45593999997E+02  0.45594000000E+02  0.51100000000E-03 0.  1.
    9900012    2    1    2    0    0 -0.12101983525E+02  0.17607403764E+01  0.14181723062E+02  0.72461561980E+02  0.69999989169E+02 0.  0.
         12    1    1    2    0    0  0.12101983525E+02 -0.17607403764E+01 -0.14181723062E+02  0.18726438020E+02  0.00000000000E+00 0. -1.
         11    1    3    3    0    0 -0.16846975217E+02  0.14167269207E+02 -0.12012942495E+02  0.25076739788E+02  0.51100000000E-03 0. -1.
        -11    1    3    3    0    0 -0.98874832438E+01 -0.32131126690E+01 -0.51424424193E+01  0.11598755632E+02  0.51100000000E-03 0.  1.
         12    1    3    3    0    0  0.14632474935E+02 -0.91934161619E+01  0.31337107977E+02  0.35786066559E+02  0.00000000000E+00 0. -1.
</event>
<event>
 7    1  0.3305651E-013  0.7246156E+02  0.7816164E-02  0.1226708E+00
        -11   -1    0    0    0    0  0.00000000000E+00  0.00000000000E+00  0.45593999997E+02  0.45594000000E+02  0.51100000000E-03 0.  1.
         11   -1    0    0    0    0 -0.00000000000E+00 -0.00000000000E+00 -0.45593999997E+02  0.45594000000E+02  0.51100000000E-03 0. -1.
    9900012    2    1    2    0    0  0.16124319975E+02 -0.42247318928E+01  0.85344780868E+01  0.72461564930E+02  0.69999993012E+02 0.  0.
         12    1    1    2    0    0 -0.16124319975E+02  0.42247318928E+01 -0.85344780868E+01  0.18726435070E+02  0.00000000000E+00 0. -1.
         11    1    3    3    0    0 -0.45495272865E+01 -0.18473147829E+01  0.85788320856E+01  0.98846917327E+01  0.51100000000E-03 0. -1.
        -11    1    3    3    0    0 -0.16380643274E+02  0.13089487159E+02  0.63710855294E+01  0.21914627061E+02  0.51100000000E-03 0.  1.
         12    1    3    3    0    0  0.37054490535E+02 -0.15466904269E+02 -0.64154395282E+01  0.40662246136E+02  0.00000000000E+00 0. -1.
</event>
<event>
 7    1  0.3305651E-013  0.7246138E+02  0.7816164E-02  0.1226709E+00
        -11   -1    0    0    0    0  0.00000000000E+00  0.00000000000E+00  0.45593999997E+02  0.45594000000E+02  0.51100000000E-03 0. -1.
         11   -1    0    0    0    0 -0.00000000000E+00 -0.00000000000E+00 -0.45593999997E+02  0.45594000000E+02  0.51100000000E-03 0.  1.
    9900012    2    1    2    0    0 -0.83042994869E+01 -0.94737072506E+00 -0.16757900980E+02  0.72461384008E+02  0.69999757327E+02 0.  0.
         12    1    1    2    0    0  0.83042994869E+01  0.94737072506E+00  0.16757900980E+02  0.18726615992E+02  0.00000000000E+00 0. -1.
         11    1    3    3    0    0 -0.11818647910E+02  0.17851289585E+02  0.10527545700E+02  0.23857455795E+02  0.51100000000E-03 0. -1.
        -11    1    3    3    0    0  0.52047206847E+00  0.64376551472E+01  0.45268619206E+01  0.78871271117E+01  0.51100000000E-03 0.  1.
        -12    1    3    3    0    0  0.29938763547E+01 -0.25236315457E+02 -0.31812308600E+02  0.40716801102E+02  0.00000000000E+00 0.  1.
</event>
<event>
 7    1  0.3305651E-013  0.7246157E+02  0.7816164E-02  0.1226708E+00
        -11   -1    0    0    0    0  0.00000000000E+00  0.00000000000E+00  0.45593999997E+02  0.45594000000E+02  0.51100000000E-03 0.  1.
         11   -1    0    0    0    0 -0.00000000000E+00 -0.00000000000E+00 -0.45593999997E+02  0.45594000000E+02  0.51100000000E-03 0. -1.
    9900012    2    1    2    0    0  0.51989560168E+01 -0.13951011314E+02  0.11358660820E+02  0.72461573860E+02  0.70000004645E+02 0.  0.
         12    1    1    2    0    0 -0.51989560168E+01  0.13951011314E+02 -0.11358660820E+02  0.18726426140E+02  0.00000000000E+00 0. -1.
         11    1    3    3    0    0  0.41730966629E+01  0.16629277320E+02 -0.10495875753E+02  0.20102512480E+02  0.51100000000E-03 0. -1.
        -11    1    3    3    0    0  0.39892501989E+01  0.74204448947E+01  0.54533215973E-02  0.84247937414E+01  0.51100000000E-03 0.  1.
        -12    1    3    3    0    0 -0.29633908450E+01 -0.38000733528E+02  0.21849083252E+02  0.43934267638E+02  0.00000000000E+00 0.  1.
</event>
<event>
 7    1  0.3305651E-013  0.7246142E+02  0.7816164E-02  0.1226708E+00
        -11   -1    0    0    0    0  0.00000000000E+00  0.00000000000E+00  0.45593999997E+02  0.45594000000E+02  0.51100000000E-03 0.  1.
         11   -1    0    0    0    0 -0.00000000000E+00 -0.00000000000E+00 -0.45593999997E+02  0.45594000000E+02  0.51100000000E-03 0. -1.
    9900012    2    1    2    0    0  0.16882288005E+02 -0.43013710473E+01  0.68681301456E+01  0.72461423888E+02  0.69999809279E+02 0.  0.
         12    1    1    2    0    0 -0.16882288005E+02  0.43013710473E+01 -0.68681301456E+01  0.18726576112E+02  0.00000000000E+00 0. -1.
         11    1    3    3    0    0  0.11410693973E+02 -0.11670954253E+00  0.28282076279E+01  0.11756543570E+02  0.51100000000E-03 0. -1.
        -11    1    3    3    0    0  0.85568233261E+00 -0.20187103028E+02  0.26135718526E+02  0.33035240336E+02  0.51100000000E-03 0.  1.
        -12    1    3    3    0    0  0.46159116992E+01  0.16002441524E+02 -0.22095796008E+02  0.27669639982E+02  0.00000000000E+00 0.  1.
</event>
<event>
 7    1  0.3305651E-013  0.7246177E+02  0.7816164E-02  0.1226707E+00
        -11   -1    0    0    0    0  0.00000000000E+00  0.00000000000E+00  0.45593999997E+02  0.45594000000E+02  0.51100000000E-03 0. -1.
         11   -1    0    0    0    0 -0.00000000000E+00 -0.00000000000E+00 -0.45593999997E+02  0.45594000000E+02  0.51100000000E-03 0.  1.
    9900012    2    1    2    0    0 -0.13023721709E+02  0.13403216083E+02 -0.11865975847E+01  0.72461773943E+02  0.70000265290E+02 0.  0.
         12    1    1    2    0    0  0.13023721709E+02 -0.13403216083E+02  0.11865975847E+01  0.18726226057E+02  0.00000000000E+00 0. -1.
         11    1    3    3    0    0 -0.20524997923E+02 -0.10663981304E+02  0.89633844321E+01  0.24806013338E+02  0.51100000000E-03 0. -1.
        -11    1    3    3    0    0 -0.65478357610E+01  0.93260668759E+01  0.12690443073E+02  0.17055703508E+02  0.51100000000E-03 0.  1.
        -12    1    3    3    0    0  0.14049111975E+02  0.14741130511E+02 -0.22840425089E+02  0.30600057096E+02  0.00000000000E+00 0.  1.
</event>
<event>
 7    1  0.3305651E-013  0.7246156E+02  0.7816164E-02  0.1226708E+00
        -11   -1    0    0    0    0  0.00000000000E+00  0.00000000000E+00  0.45593999997E+02  0.45594000000E+02  0.51100000000E-03 0.  1.
         11   -1    0    0    0    0 -0.00000000000E+00 -0.00000000000E+00 -0.45593999997E+02  0.45594000000E+02  0.51100000000E-03 0. -1.
    9900012    2    1    2    0    0  0.18624302867E+02 -0.16539018075E+01  0.10389534835E+01  0.72461562197E+02  0.69999989452E+02 0.  0.
         12    1    1    2    0    0 -0.18624302867E+02  0.16539018075E+01 -0.10389534835E+01  0.18726437803E+02  0.00000000000E+00 0. -1.
         11    1    3    3    0    0 -0.81269339464E+01 -0.16825939864E+02 -0.10253918623E+02  0.21314364993E+02  0.51100000000E-03 0. -1.
        -11    1    3    3    0    0 -0.20710025436E+01 -0.99593859564E+01  0.76617514486E+01  0.12735024762E+02  0.51100000000E-03 0.  1.
        -12    1    3    3    0    0  0.28822239356E+02  0.25131424013E+02  0.36311206580E+01  0.38412172442E+02  0.00000000000E+00 0.  1.
</event>
<event>
 7    1  0.3305651E-013  0.7246164E+02  0.7816164E-02  0.1226708E+00
        -11   -1    0    0    0    0  0.00000000000E+00  0.00000000000E+00  0.45593999997E+02  0.45594000000E+02  0.51100000000E-03 0. -1.
         11   -1    0    0    0    0 -0.00000000000E+00 -0.00000000000E+00 -0.45593999997E+02  0.45594000000E+02  0.51100000000E-03 0.  1.
    9900012    2    1    2    0    0  0.17168933305E+02 -0.32922639407E+01 -0.67130745536E+01  0.72461637762E+02  0.70000087890E+02 0.  0.
         12    1    1    2    0    0 -0.17168933305E+02  0.32922639407E+01  0.67130745536E+01  0.18726362238E+02  0.00000000000E+00 0. -1.
         11    1    3    3    0    0  0.18620756629E+02 -0.17822623500E+02  0.52833215549E+01  0.26311441860E+02  0.51100000000E-03 0. -1.
        -11    1    3    3    0    0  0.15052740489E+01 -0.14065874572E+01 -0.25175430017E+02  0.25259584617E+02  0.51100000000E-03 0.  1.
         12    1    3    3    0    0 -0.29570973731E+01  0.15936947016E+02  0.13179033909E+02  0.20890611285E+02  0.00000000000E+00 0. -1.
</event>
<event>
 7    1  0.3305651E-013  0.7246161E+02  0.7816164E-02  0.1226708E+00
        -11   -1    0    0    0    0  0.00000000000E+00  0.00000000000E+00  0.45593999997E+02  0.45594000000E+02  0.51100000000E-03 0.  1.
         11   -1    0    0    0    0 -0.00000000000E+00 -0.00000000000E+00 -0.45593999997E+02  0.45594000000E+02  0.51100000000E-03 0. -1.
    9900012    2    1    2    0    0  0.81751614560E+01  0.16357677085E+02 -0.40336983669E+01  0.72461612549E+02  0.70000055045E+02 0.  0.
         12    1    1    2    0    0 -0.81751614560E+01 -0.16357677085E+02  0.40336983669E+01  0.18726387451E+02  0.00000000000E+00 0. -1.
         11    1    3    3    0    0  0.24551587486E+02 -0.44963341330E+01  0.11247165161E+02  0.27376928117E+02  0.51100000000E-03 0. -1.
        -11    1    3    3    0    0 -0.64659622643E+01 -0.84779189559E+01 -0.78615992863E+01  0.13247208062E+02  0.51100000000E-03 0.  1.
        -12    1    3    3    0    0 -0.99104637655E+01  0.29331930174E+02 -0.74192642420E+01  0.31837476371E+02  0.00000000000E+00 0.  1.
</event>
<event>
 7    1  0.3305651E-013  0.7246162E+02  0.7816164E-02  0.1226708E+00
        -11   -1    0    0    0    0  0.00000000000E+00  0.00000000000E+00  0.45593999997E+02  0.45594000000E+02  0.51100000000E-03 0. -1.
         11   -1    0    0    0    0 -0.00000000000E+00 -0.00000000000E+00 -0.45593999997E+02  0.45594000000E+02  0.51100000000E-03 0.  1.
    9900012    2    1    2    0    0 -0.43952012658E+01 -0.15971468033E+02 -0.87333642645E+01  0.72461621902E+02  0.70000067228E+02 0.  0.
         12    1    1    2    0    0  0.43952012658E+01  0.15971468033E+02  0.87333642645E+01  0.18726378098E+02  0.00000000000E+00 0. -1.
         11    1    3    3    0    0 -0.14700629237E+02  0.25299885208E+01 -0.11918433423E+02  0.19093412408E+02  0.51100000000E-03 0. -1.
        -11    1    3    3    0    0 -0.17229338764E+02 -0.41594218727E+01 -0.91677304504E+01  0.19954903819E+02  0.51100000000E-03 0.  1.
         12    1    3    3    0    0  0.27534766735E+02 -0.14342034681E+02  0.12352799609E+02  0.33413305675E+02  0.00000000000E+00 0. -1.
</event>
<event>
 7    1  0.3305651E-013  0.7246159E+02  0.7816164E-02  0.1226708E+00
        -11   -1    0    0    0    0  0.00000000000E+00  0.00000000000E+00  0.45593999997E+02  0.45594000000E+02  0.51100000000E-03 0.  1.
         11   -1    0    0    0    0 -0.00000000000E+00 -0.00000000000E+00 -0.45593999997E+02  0.45594000000E+02  0.51100000000E-03 0. -1.
    9900012    2    1    2    0    0  0.78916650077E+01  0.12729518945E+02  0.11240964843E+02  0.72461592983E+02  0.70000029556E+02 0.  0.
         12    1    1    2    0    0 -0.78916650077E+01 -0.12729518945E+02 -0.11240964843E+02  0.18726407017E+02  0.00000000000E+00 0. -1.
         11    1    3    3    0    0  0.16777831944E+02  0.21525274436E+01 -0.70057913257E+01  0.18308744673E+02  0.51100000000E-03 0. -1.
        -11    1    3    3    0    0  0.10841483779E+01 -0.19373567148E+02  0.76018052948E+01  0.20839815876E+02  0.51100000000E-03 0.  1.
         12    1    3    3    0    0 -0.99703153143E+01  0.29950558649E+02  0.10644950874E+02  0.33313032434E+02  0.00000000000E+00 0. -1.
</event>
<event>
 7    1  0.3305651E-013  0.7246156E+02  0.7816164E-02  0.1226708E+00
        -11   -1    0    0    0    0  0.00000000000E+00  0.00000000000E+00  0.45593999997E+02  0.45594000000E+02  0.51100000000E-03 0.  1.
         11   -1    0    0    0    0 -0.00000000000E+00 -0.00000000000E+00 -0.45593999997E+02  0.45594000000E+02  0.51100000000E-03 0. -1.
    9900012    2    1    2    0    0 -0.35904860031E+01  0.16520421067E+02 -0.80538036405E+01  0.72461557330E+02  0.69999983112E+02 0.  0.
         12    1    1    2    0    0  0.35904860031E+01 -0.16520421067E+02  0.80538036405E+01  0.18726442670E+02  0.00000000000E+00 0. -1.
         11    1    3    3    0    0 -0.63915789991E+01 -0.19194937491E+02  0.10883214491E+02  0.22972641670E+02  0.51100000000E-03 0. -1.
        -11    1    3    3    0    0  0.11993310994E+02  0.42246658262E+01 -0.74134086639E+01  0.14718897316E+02  0.51100000000E-03 0.  1.
         12    1    3    3    0    0 -0.91922179976E+01  0.31490692732E+02 -0.11523609468E+02  0.34770018344E+02  0.00000000000E+00 0. -1.
</event>
<event>
 7    1  0.3305651E-013  0.7246154E+02  0.7816164E-02  0.1226708E+00
        -11   -1    0    0    0    0  0.00000000000E+00  0.00000000000E+00  0.45593999997E+02  0.45594000000E+02  0.51100000000E-03 0. -1.
         11   -1    0    0    0    0 -0.00000000000E+00 -0.00000000000E+00 -0.45593999997E+02  0.45594000000E+02  0.51100000000E-03 0.  1.
    9900012    2    1    2    0    0  0.51023035628E+01 -0.10396713254E+02 -0.14715807382E+02  0.72461544515E+02  0.69999966417E+02 0.  0.
         12    1    1    2    0    0 -0.51023035628E+01  0.10396713254E+02  0.14715807382E+02  0.18726455485E+02  0.00000000000E+00 0. -1.
         11    1    3    3    0    0  0.93520591142E+01  0.15229764878E+02  0.35138551364E+01  0.18214113377E+02  0.51100000000E-03 0. -1.
        -11    1    3    3    0    0  0.10601816049E+02 -0.12533388982E+02 -0.27778170741E+02  0.32266253468E+02  0.51100000000E-03 0.  1.
         12    1    3    3    0    0 -0.14851571600E+02 -0.13093089150E+02  0.95485082223E+01  0.21981177670E+02  0.00000000000E+00 0. -1.
</event>
<event>
 7    1  0.3305651E-013  0.7246161E+02  0.7816164E-02  0.1226708E+00
        -11   -1    0    0    0    0  0.00000000000E+00  0.00000000000E+00  0.45593999997E+02  0.45594000000E+02  0.51100000000E-03 0. -1.
         11   -1    0    0    0    0 -0.00000000000E+00 -0.00000000000E+00 -0.45593999997E+02  0.45594000000E+02  0.51100000000E-03 0.  1.
    9900012    2    1    2    0    0  0.65699427881E+01  0.96544260440E+01 -0.14639181940E+02  0.72461608507E+02  0.70000049779E+02 0.  0.
         12    1    1    2    0    0 -0.65699427881E+01 -0.96544260440E+01  0.14639181940E+02  0.18726391493E+02  0.00000000000E+00 0. -1.
         11    1    3    3    0    0  0.23299906282E+01  0.12633765526E+02  0.17749980287E+02  0.21911245700E+02  0.51100000000E-03 0. -1.
        -11    1    3    3    0    0 -0.40308986693E+01  0.70418455459E+01  0.59548773249E+01  0.10064606152E+02  0.51100000000E-03 0.  1.
        -12    1    3    3    0    0  0.82708508291E+01 -0.10021185028E+02 -0.38344039552E+02  0.40485756655E+02  0.00000000000E+00 0.  1.
</event>
<event>
 7    1  0.3305651E-013  0.7246162E+02  0.7816164E-02  0.1226708E+00
        -11   -1    0    0    0    0  0.00000000000E+00  0.00000000000E+00  0.45593999997E+02  0.45594000000E+02  0.51100000000E-03 0. -1.
         11   -1    0    0    0    0 -0.00000000000E+00 -0.00000000000E+00 -0.45593999997E+02  0.45594000000E+02  0.51100000000E-03 0.  1.
    9900012    2    1    2    0    0  0.91944659677E+01 -0.34505260844E+01 -0.15944690577E+02  0.72461615077E+02  0.70000058338E+02 0.  0.
         12    1    1    2    0    0 -0.91944659677E+01  0.34505260844E+01  0.15944690577E+02  0.18726384923E+02  0.00000000000E+00 0. -1.
         11    1    3    3    0    0 -0.15723910921E+02  0.75803425374E+01  0.89743930303E+01  0.19627600418E+02  0.51100000000E-03 0. -1.
        -11    1    3    3    0    0  0.20670514227E+02 -0.77358694472E+01  0.48384318035E+01  0.22594783847E+02  0.51100000000E-03 0.  1.
        -12    1    3    3    0    0  0.42478626617E+01 -0.32949991746E+01 -0.29757515410E+02  0.30239230813E+02  0.00000000000E+00 0.  1.
</event>
<event>
 7    1  0.3305651E-013  0.7246155E+02  0.7816164E-02  0.1226708E+00
        -11   -1    0    0    0    0  0.00000000000E+00  0.00000000000E+00  0.45593999997E+02  0.45594000000E+02  0.51100000000E-03 0.  1.
         11   -1    0    0    0    0 -0.00000000000E+00 -0.00000000000E+00 -0.45593999997E+02  0.45594000000E+02  0.51100000000E-03 0. -1.
    9900012    2    1    2    0    0  0.25473626266E+01 -0.17124205910E+02 -0.71381002942E+01  0.72461549183E+02  0.69999972499E+02 0.  0.
         12    1    1    2    0    0 -0.25473626266E+01  0.17124205910E+02  0.71381002942E+01  0.18726450817E+02  0.00000000000E+00 0. -1.
         11    1    3    3    0    0 -0.81889069322E+01 -0.16184372620E+02 -0.20091202715E+02  0.27067481239E+02  0.51100000000E-03 0. -1.
        -11    1    3    3    0    0  0.60875166430E+01 -0.15403642930E+01 -0.15413124210E+02  0.16643166142E+02  0.51100000000E-03 0.  1.
        -12    1    3    3    0    0  0.46487529159E+01  0.60053100370E+00  0.28366226631E+02  0.28750901802E+02  0.00000000000E+00 0.  1.
</event>
<event>
 7    1  0.3305651E-013  0.7246169E+02  0.7816164E-02  0.1226708E+00
        -11   -1    0    0    0    0  0.00000000000E+00  0.00000000000E+00  0.45593999997E+02  0.45594000000E+02  0.51100000000E-03 0.  1.
         11   -1    0    0    0    0 -0.00000000000E+00 -0.00000000000E+00 -0.45593999997E+02  0.45594000000E+02  0.51100000000E-03 0. -1.
    9900012    2    1    2    0    0  0.18387890623E+02 -0.30393225518E+01 -0.18228092437E+01  0.72461691322E+02  0.70000157661E+02 0.  0.
         12    1    1    2    0    0 -0.18387890623E+02  0.30393225518E+01  0.18228092437E+01  0.18726308678E+02  0.00000000000E+00 0. -1.
         11    1    3    3    0    0 -0.95673889263E+01  0.21807068649E+00 -0.92345075764E+01  0.13298820103E+02  0.51100000000E-03 0.  1.
        -11    1    3    3    0    0 -0.15159848128E+02 -0.28326936733E+01  0.38703585006E+01  0.15900466153E+02  0.51100000000E-03 0. -1.
         12    1    3    3    0    0  0.43115127677E+02 -0.42469956503E+00  0.35413398321E+01  0.43262405067E+02  0.00000000000E+00 0. -1.
</event>
<event>
 7    1  0.3305651E-013  0.7246157E+02  0.7816164E-02  0.1226708E+00
        -11   -1    0    0    0    0  0.00000000000E+00  0.00000000000E+00  0.45593999997E+02  0.45594000000E+02  0.51100000000E-03 0. -1.
         11   -1    0    0    0    0 -0.00000000000E+00 -0.00000000000E+00 -0.45593999997E+02  0.45594000000E+02  0.51100000000E-03 0.  1.
    9900012    2    1    2    0    0 -0.78803647187E+01  0.96868441924E+01 -0.13955077220E+02  0.72461567379E+02  0.69999996202E+02 0.  0.
         12    1    1    2    0    0  0.78803647187E+01 -0.96868441924E+01  0.13955077220E+02  0.18726432621E+02  0.00000000000E+00 0. -1.
         11    1    3    3    0    0  0.47741601236E+01 -0.61511369937E+00  0.19031733367E+02  0.19631042891E+02  0.51100000000E-03 0. -1.
        -11    1    3    3    0    0 -0.14634259675E+02 -0.97249938090E+01 -0.48326613634E+01  0.18223382698E+02  0.51100000000E-03 0.  1.
        -12    1    3    3    0    0  0.19797348330E+01  0.20026951701E+02 -0.28154149223E+02  0.34607141791E+02  0.00000000000E+00 0.  1.
</event>
<event>
 7    1  0.3305651E-013  0.7246130E+02  0.7816164E-02  0.1226709E+00
        -11   -1    0    0    0    0  0.00000000000E+00  0.00000000000E+00  0.45593999997E+02  0.45594000000E+02  0.51100000000E-03 0.  1.
         11   -1    0    0    0    0 -0.00000000000E+00 -0.00000000000E+00 -0.45593999997E+02  0.45594000000E+02  0.51100000000E-03 0. -1.
    9900012    2    1    2    0    0  0.94142261190E+00  0.15404960524E+02  0.10606143159E+02  0.72461298262E+02  0.69999645627E+02 0.  0.
         12    1    1    2    0    0 -0.94142261190E+00 -0.15404960524E+02 -0.10606143159E+02  0.18726701738E+02  0.00000000000E+00 0. -1.
         11    1    3    3    0    0  0.53481147391E+01 -0.11348612183E+02 -0.80990150860E+00  0.12571764811E+02  0.51100000000E-03 0. -1.
        -11    1    3    3    0    0  0.82336913452E+01 -0.13934381580E+02  0.31546299474E+01  0.16489765115E+02  0.51100000000E-03 0.  1.
        -12    1    3    3    0    0 -0.12640383472E+02  0.40687954287E+02  0.82614147198E+01  0.43399768336E+02  0.00000000000E+00 0.  1.
</event>
<event>
 7    1  0.3305651E-013  0.7246156E+02  0.7816164E-02  0.1226708E+00
        -11   -1    0    0    0    0  0.00000000000E+00  0.00000000000E+00  0.45593999997E+02  0.45594000000E+02  0.51100000000E-03 0.  1.
         11   -1    0    0    0    0 -0.00000000000E+00 -0.00000000000E+00 -0.45593999997E+02  0.45594000000E+02  0.51100000000E-03 0. -1.
    9900012    2    1    2    0    0 -0.16402474794E+02 -0.36026147550E+01 -0.82860957574E+01  0.72461564265E+02  0.69999992146E+02 0.  0.
         12    1    1    2    0    0  0.16402474794E+02  0.36026147550E+01  0.82860957574E+01  0.18726435735E+02  0.00000000000E+00 0. -1.
         11    1    3    3    0    0 -0.75453999872E+00 -0.28927185895E+02  0.55200174715E+00  0.28942289485E+02  0.51100000000E-03 0. -1.
        -11    1    3    3    0    0 -0.14792884159E+02  0.25304183828E+01  0.61570842475E+01  0.16221656069E+02  0.51100000000E-03 0.  1.
         12    1    3    3    0    0 -0.85505063588E+00  0.22794152758E+02 -0.14995181752E+02  0.27297618711E+02  0.00000000000E+00 0. -1.
</event>
<event>
 7    1  0.3305651E-013  0.7246141E+02  0.7816164E-02  0.1226708E+00
        -11   -1    0    0    0    0  0.00000000000E+00  0.00000000000E+00  0.45593999997E+02  0.45594000000E+02  0.51100000000E-03 0. -1.
         11   -1    0    0    0    0 -0.00000000000E+00 -0.00000000000E+00 -0.45593999997E+02  0.45594000000E+02  0.51100000000E-03 0.  1.
    9900012    2    1    2    0    0 -0.11532705904E+02 -0.81866478615E+00 -0.14731313714E+02  0.72461411383E+02  0.69999792988E+02 0.  0.
         12    1    1    2    0    0  0.11532705904E+02  0.81866478615E+00  0.14731313714E+02  0.18726588617E+02  0.00000000000E+00 0. -1.
         11    1    3    3    0    0 -0.42544052263E+01  0.37515162967E+01 -0.63923074463E+01  0.85460770593E+01  0.51100000000E-03 0. -1.
        -11    1    3    3    0    0  0.74957583809E+01  0.22639376612E+02 -0.19702537010E+02  0.30934086895E+02  0.51100000000E-03 0.  1.
         12    1    3    3    0    0 -0.14774059058E+02 -0.27209557695E+02  0.11363530743E+02  0.32981247429E+02  0.00000000000E+00 0. -1.
</event>
<event>
 7    1  0.3305651E-013  0.7246159E+02  0.7816164E-02  0.1226708E+00
        -11   -1    0    0    0    0  0.00000000000E+00  0.00000000000E+00  0.45593999997E+02  0.45594000000E+02  0.51100000000E-03 0.  1.
         11   -1    0    0    0    0 -0.00000000000E+00 -0.00000000000E+00 -0.45593999997E+02  0.45594000000E+02  0.51100000000E-03 0. -1.
    9900012    2    1    2    0    0  0.13759222784E+02 -0.97345132382E+01  0.81609685992E+01  0.72461591693E+02  0.70000027876E+02 0.  0.
         12    1    1    2    0    0 -0.13759222784E+02  0.97345132382E+01 -0.81609685992E+01  0.18726408307E+02  0.00000000000E+00 0. -1.
         11    1    3    3    0    0  0.23930491615E+02 -0.15927650346E+02 -0.53313913425E+01  0.29236658640E+02  0.51100000000E-03 0. -1.
        -11    1    3    3    0    0  0.78384408757E+01 -0.58947199553E+01 -0.80249399255E+01  0.12672353364E+02  0.51100000000E-03 0.  1.
        -12    1    3    3    0    0 -0.18009709708E+02  0.12087857063E+02  0.21517299867E+02  0.30552579690E+02  0.00000000000E+00 0.  1.
</event>
<event>
 7    1  0.3305651E-013  0.7246154E+02  0.7816164E-02  0.1226708E+00
        -11   -1    0    0    0    0  0.00000000000E+00  0.00000000000E+00  0.45593999997E+02  0.45594000000E+02  0.51100000000E-03 0. -1.
         11   -1    0    0    0    0 -0.00000000000E+00 -0.00000000000E+00 -0.45593999997E+02  0.45594000000E+02  0.51100000000E-03 0.  1.
    9900012    2    1    2    0    0 -0.10455322414E+02 -0.96581820571E+01 -0.12169059424E+02  0.72461541320E+02  0.69999962255E+02 0.  0.
         12    1    1    2    0    0  0.10455322414E+02  0.96581820571E+01  0.12169059424E+02  0.18726458680E+02  0.00000000000E+00 0. -1.
         11    1    3    3    0    0  0.68741406433E+00  0.89459631969E+01 -0.18245122970E+02  0.20331928292E+02  0.51100000000E-03 0. -1.
        -11    1    3    3    0    0  0.17704229733E+02 -0.18394704069E+01  0.59404559710E+01  0.18764658782E+02  0.51100000000E-03 0.  1.
         12    1    3    3    0    0 -0.28846966212E+02 -0.16764674847E+02  0.13560757539E+00  0.33364954245E+02  0.00000000000E+00 0. -1.
</event>
<event>
 7    1  0.3305651E-013  0.7246159E+02  0.7816164E-02  0.1226708E+00
        -11   -1    0    0    0    0  0.00000000000E+00  0.00000000000E+00  0.45593999997E+02  0.45594000000E+02  0.51100000000E-03 0.  1.
         11   -1    0    0    0    0 -0.00000000000E+00 -0.00000000000E+00 -0.45593999997E+02  0.45594000000E+02  0.51100000000E-03 0. -1.
    9900012    2    1    2    0    0  0.11762901839E+02 -0.60260249577E+01  0.13266477107E+02  0.72461594811E+02  0.70000031938E+02 0.  0.
         12    1    1    2    0    0 -0.11762901839E+02  0.60260249577E+01 -0.13266477107E+02  0.18726405189E+02  0.00000000000E+00 0. -1.
         11    1    3    3    0    0 -0.19701838426E+02  0.60487281794E+01 -0.15238510445E+02  0.25631265103E+02  0.51100000000E-03 0. -1.
        -11    1    3    3    0    0 -0.34537702940E+00 -0.19290156105E+01 -0.10645228429E+01  0.22301559726E+01  0.51100000000E-03 0.  1.
        -12    1    3    3    0    0  0.31810117295E+02 -0.10145737527E+02  0.29569510394E+02  0.44600173735E+02  0.00000000000E+00 0.  1.
</event>
<event>
 7    1  0.3305651E-013  0.7246152E+02  0.7816164E-02  0.1226708E+00
        -11   -1    0    0    0    0  0.00000000000E+00  0.00000000000E+00  0.45593999997E+02  0.45594000000E+02  0.51100000000E-03 0.  1.
         11   -1    0    0    0    0 -0.00000000000E+00 -0.00000000000E+00 -0.45593999997E+02  0.45594000000E+02  0.51100000000E-03 0. -1.
    9900012    2    1    2    0    0  0.17671770422E+02 -0.48586625405E+01 -0.38448807011E+01  0.72461516637E+02  0.69999930102E+02 0.  0.
         12    1    1    2    0    0 -0.17671770422E+02  0.48586625405E+01  0.38448807011E+01  0.18726483363E+02  0.00000000000E+00 0. -1.
         11    1    3    3    0    0  0.24358466072E+02 -0.52083193600E+01 -0.82324177518E+01  0.26234217394E+02  0.51100000000E-03 0. -1.
        -11    1    3    3    0    0  0.13638009425E+02 -0.57779553510E+01 -0.12278008936E+02  0.19238751851E+02  0.51100000000E-03 0.  1.
        -12    1    3    3    0    0 -0.20324705075E+02  0.61276121705E+01  0.16665545986E+02  0.26988547392E+02  0.00000000000E+00 0.  1.
</event>
<event>
 7    1  0.3305651E-013  0.7246152E+02  0.7816164E-02  0.1226708E+00
        -11   -1    0    0    0    0  0.00000000000E+00  0.00000000000E+00  0.45593999997E+02  0.45594000000E+02  0.51100000000E-03 0.  1.
         11   -1    0    0    0    0 -0.00000000000E+00 -0.00000000000E+00 -0.45593999997E+02  0.45594000000E+02  0.51100000000E-03 0. -1.
    9900012    2    1    2    0    0 -0.14791922902E+02  0.17443945737E+00  0.11482577464E+02  0.72461521487E+02  0.69999936420E+02 0.  0.
         12    1    1    2    0    0  0.14791922902E+02 -0.17443945737E+00 -0.11482577464E+02  0.18726478513E+02  0.00000000000E+00 0. -1.
         11    1    3    3    0    0  0.52245088969E+01 -0.27899082302E+00 -0.10946743329E+01  0.53452447324E+01  0.51100000000E-03 0. -1.
        -11    1    3    3    0    0 -0.14711101558E+02 -0.11910940017E+02 -0.22584817900E+02  0.29467965674E+02  0.51100000000E-03 0.  1.
         12    1    3    3    0    0 -0.53053302414E+01  0.12364370297E+02  0.35162069697E+02  0.37648311081E+02  0.00000000000E+00 0. -1.
</event>
<event>
 7    1  0.3305651E-013  0.7246160E+02  0.7816164E-02  0.1226708E+00
        -11   -1    0    0    0    0  0.00000000000E+00  0.00000000000E+00  0.45593999997E+02  0.45594000000E+02  0.51100000000E-03 0.  1.
         11   -1    0    0    0    0 -0.00000000000E+00 -0.00000000000E+00 -0.45593999997E+02  0.45594000000E+02  0.51100000000E-03 0. -1.
    9900012    2    1    2    0    0  0.56263586250E+01  0.83210965998E+01  0.15804474254E+02  0.72461602417E+02  0.70000041845E+02 0.  0.
         12    1    1    2    0    0 -0.56263586250E+01 -0.83210965998E+01 -0.15804474254E+02  0.18726397583E+02  0.00000000000E+00 0. -1.
         11    1    3    3    0    0  0.55733182322E+00  0.28131547558E+02  0.42727398772E+01  0.28459636208E+02  0.51100000000E-03 0. -1.
        -11    1    3    3    0    0  0.18931292206E+02 -0.42427596089E+01  0.12593559005E+02  0.23129906233E+02  0.51100000000E-03 0.  1.
         12    1    3    3    0    0 -0.13862265404E+02 -0.15567691350E+02 -0.10618246278E+01  0.20872059976E+02  0.00000000000E+00 0. -1.
</event>
<event>
 7    1  0.3305651E-013  0.7246160E+02  0.7816164E-02  0.1226708E+00
        -11   -1    0    0    0    0  0.00000000000E+00  0.00000000000E+00  0.45593999997E+02  0.45594000000E+02  0.51100000000E-03 0. -1.
         11   -1    0    0    0    0 -0.00000000000E+00 -0.00000000000E+00 -0.45593999997E+02  0.45594000000E+02  0.51100000000E-03 0.  1.
    9900012    2    1    2    0    0  0.39391461111E+01  0.10729503421E+01 -0.18275941698E+02  0.72461597797E+02  0.70000035827E+02 0.  0.
         12    1    1    2    0    0 -0.39391461111E+01 -0.10729503421E+01  0.18275941698E+02  0.18726402203E+02  0.00000000000E+00 0. -1.
         11    1    3    3    0    0  0.17862796401E+01  0.25750676130E+01 -0.12394719179E+01  0.33701719631E+01  0.51100000000E-03 0. -1.
        -11    1    3    3    0    0  0.18159767016E+02  0.10423105714E+02 -0.35943586662E+02  0.41597592396E+02  0.51100000000E-03 0.  1.
         12    1    3    3    0    0 -0.16006900545E+02 -0.11925222985E+02  0.18907116882E+02  0.27493833437E+02  0.00000000000E+00 0. -1.
</event>
<event>
 7    1  0.3305651E-013  0.7246159E+02  0.7816164E-02  0.1226708E+00
        -11   -1    0    0    0    0  0.00000000000E+00  0.00000000000E+00  0.45593999997E+02  0.45594000000E+02  0.51100000000E-03 0. -1.
         11   -1    0    0    0    0 -0.00000000000E+00 -0.00000000000E+00 -0.45593999997E+02  0.45594000000E+02  0.51100000000E-03 0.  1.
    9900012    2    1    2    0    0 -0.51943993837E+01  0.83339458016E+01 -0.15944967274E+02  0.72461590335E+02  0.70000026106E+02 0.  0.
         12    1    1    2    0    0  0.51943993837E+01 -0.83339458016E+01  0.15944967274E+02  0.18726409665E+02  0.00000000000E+00 0. -1.
         11    1    3    3    0    0 -0.68748208580E+01  0.14036710354E+02  0.87592883531E+01  0.17916962134E+02  0.51100000000E-03 0. -1.
        -11    1    3    3    0    0 -0.19656293425E+02  0.70765566031E+01 -0.22059273185E+01  0.21007466296E+02  0.51100000000E-03 0.  1.
         12    1    3    3    0    0  0.21336714900E+02 -0.12779321156E+02 -0.22498328309E+02  0.33537161905E+02  0.00000000000E+00 0. -1.
</event>
<event>
 7    1  0.3305651E-013  0.7246157E+02  0.7816164E-02  0.1226708E+00
        -11   -1    0    0    0    0  0.00000000000E+00  0.00000000000E+00  0.45593999997E+02  0.45594000000E+02  0.51100000000E-03 0.  1.
         11   -1    0    0    0    0 -0.00000000000E+00 -0.00000000000E+00 -0.45593999997E+02  0.45594000000E+02  0.51100000000E-03 0. -1.
    9900012    2    1    2    0    0 -0.62133739798E+01 -0.12443484781E+02  0.12539248011E+02  0.72461572941E+02  0.70000003448E+02 0.  0.
         12    1    1    2    0    0  0.62133739798E+01  0.12443484781E+02 -0.12539248011E+02  0.18726427059E+02  0.00000000000E+00 0. -1.
         11    1    3    3    0    0  0.18269461078E+02 -0.15375771804E+02 -0.13466685737E+02  0.27414215138E+02  0.51100000000E-03 0. -1.
        -11    1    3    3    0    0 -0.24326552228E+02 -0.20967886384E+01  0.70197616502E+01  0.25405800908E+02  0.51100000000E-03 0.  1.
        -12    1    3    3    0    0 -0.15628282941E+00  0.50290756618E+01  0.18986172098E+02  0.19641556895E+02  0.00000000000E+00 0.  1.
</event>
<event>
 7    1  0.3305651E-013  0.7246131E+02  0.7816164E-02  0.1226709E+00
        -11   -1    0    0    0    0  0.00000000000E+00  0.00000000000E+00  0.45593999997E+02  0.45594000000E+02  0.51100000000E-03 0. -1.
         11   -1    0    0    0    0 -0.00000000000E+00 -0.00000000000E+00 -0.45593999997E+02  0.45594000000E+02  0.51100000000E-03 0.  1.
    9900012    2    1    2    0    0  0.15835220942E+02  0.83076016632E+01 -0.55604351155E+01  0.72461310321E+02  0.69999661335E+02 0.  0.
         12    1    1    2    0    0 -0.15835220942E+02 -0.83076016632E+01  0.55604351155E+01  0.18726689679E+02  0.00000000000E+00 0. -1.
         11    1    3    3    0    0 -0.16825750156E+00  0.49293801249E+01  0.14123172199E+02  0.14959648800E+02  0.51100000000E-03 0. -1.
        -11    1    3    3    0    0  0.34065414119E+02 -0.44262705273E+01 -0.12521547370E+02  0.36562733195E+02  0.51100000000E-03 0.  1.
         12    1    3    3    0    0 -0.18061935676E+02  0.78044920656E+01 -0.71620599444E+01  0.20938928325E+02  0.00000000000E+00 0. -1.
</event>
<event>
 7    1  0.3305651E-013  0.7246160E+02  0.7816164E-02  0.1226708E+00
        -11   -1    0    0    0    0  0.00000000000E+00  0.00000000000E+00  0.45593999997E+02  0.45594000000E+02  0.51100000000E-03 0.  1.
         11   -1    0    0    0    0 -0.00000000000E+00 -0.00000000000E+00 -0.45593999997E+02  0.45594000000E+02  0.51100000000E-03 0. -1.
    9900012    2    1    2    0    0 -0.15317820668E+02 -0.31772308118E+01  0.10293091444E+02  0.72461597326E+02  0.70000035213E+02 0.  0.
         12    1    1    2    0    0  0.15317820668E+02  0.31772308118E+01 -0.10293091444E+02  0.18726402674E+02  0.00000000000E+00 0. -1.
         11    1    3    3    0    0 -0.14511580634E+02 -0.29265693367E+01  0.20937791321E+02  0.25642579556E+02  0.51100000000E-03 0. -1.
        -11    1    3    3    0    0 -0.14838429748E+02  0.17373680333E+02 -0.76398429507E+01  0.24091304786E+02  0.51100000000E-03 0.  1.
        -12    1    3    3    0    0  0.14032189714E+02 -0.17624341808E+02 -0.30048569271E+01  0.22727712984E+02  0.00000000000E+00 0.  1.
</event>
<event>
 7    1  0.3305651E-013  0.7246162E+02  0.7816164E-02  0.1226708E+00
        -11   -1    0    0    0    0  0.00000000000E+00  0.00000000000E+00  0.45593999997E+02  0.45594000000E+02  0.51100000000E-03 0. -1.
         11   -1    0    0    0    0 -0.00000000000E+00 -0.00000000000E+00 -0.45593999997E+02  0.45594000000E+02  0.51100000000E-03 0.  1.
    9900012    2    1    2    0    0 -0.10675214665E+02  0.10719206296E+02 -0.11037017390E+02  0.72461619019E+02  0.70000063473E+02 0.  0.
         12    1    1    2    0    0  0.10675214665E+02 -0.10719206296E+02  0.11037017390E+02  0.18726380981E+02  0.00000000000E+00 0. -1.
         11    1    3    3    0    0  0.15422065396E+02 -0.17602978493E+02  0.90857017721E+01  0.25104878607E+02  0.51100000000E-03 0. -1.
        -11    1    3    3    0    0 -0.12521836639E+01 -0.22318856753E+01  0.90413701741E+00  0.27141742028E+01  0.51100000000E-03 0.  1.
        -12    1    3    3    0    0 -0.24845096397E+02  0.30554070465E+02 -0.21026856180E+02  0.44642566209E+02  0.00000000000E+00 0.  1.
</event>
<event>
 7    1  0.3305651E-013  0.7246162E+02  0.7816164E-02  0.1226708E+00
        -11   -1    0    0    0    0  0.00000000000E+00  0.00000000000E+00  0.45593999997E+02  0.45594000000E+02  0.51100000000E-03 0.  1.
         11   -1    0    0    0    0 -0.00000000000E+00 -0.00000000000E+00 -0.45593999997E+02  0.45594000000E+02  0.51100000000E-03 0. -1.
    9900012    2    1    2    0    0 -0.28815182770E+01 -0.23724276531E+01  0.18350638326E+02  0.72461615204E+02  0.70000058503E+02 0.  0.
         12    1    1    2    0    0  0.28815182770E+01  0.23724276531E+01 -0.18350638326E+02  0.18726384796E+02  0.00000000000E+00 0. -1.
         11    1    3    3    0    0 -0.98376517119E+01 -0.33164720817E+01 -0.79187388864E+01  0.13056982963E+02  0.51100000000E-03 0. -1.
        -11    1    3    3    0    0 -0.10090845051E+02  0.38170114293E+01 -0.12764997426E+02  0.16713464322E+02  0.51100000000E-03 0.  1.
        -12    1    3    3    0    0  0.17046978486E+02 -0.28729670007E+01  0.39034374638E+02  0.42691167919E+02  0.00000000000E+00 0.  1.
</event>
<event>
 7    1  0.3305651E-013  0.7246150E+02  0.7816164E-02  0.1226708E+00
        -11   -1    0    0    0    0  0.00000000000E+00  0.00000000000E+00  0.45593999997E+02  0.45594000000E+02  0.51100000000E-03 0.  1.
         11   -1    0    0    0    0 -0.00000000000E+00 -0.00000000000E+00 -0.45593999997E+02  0.45594000000E+02  0.51100000000E-03 0. -1.
    9900012    2    1    2    0    0 -0.64463922018E+01 -0.17567887468E+02  0.70356795114E+00  0.72461504055E+02  0.69999913711E+02 0.  0.
         12    1    1    2    0    0  0.64463922018E+01  0.17567887468E+02 -0.70356795114E+00  0.18726495945E+02  0.00000000000E+00 0. -1.
         11    1    3    3    0    0  0.56628099795E+01 -0.62369501752E+01  0.10130772183E+02  0.13175716665E+02  0.51100000000E-03 0. -1.
        -11    1    3    3    0    0  0.15741936044E+02 -0.13786166484E+02  0.11944152375E+02  0.24094184214E+02  0.51100000000E-03 0.  1.
         12    1    3    3    0    0 -0.27851138226E+02  0.24552291909E+01 -0.21371356606E+02  0.35191603175E+02  0.00000000000E+00 0. -1.
</event>
<event>
 7    1  0.3305651E-013  0.7246160E+02  0.7816164E-02  0.1226708E+00
        -11   -1    0    0    0    0  0.00000000000E+00  0.00000000000E+00  0.45593999997E+02  0.45594000000E+02  0.51100000000E-03 0. -1.
         11   -1    0    0    0    0 -0.00000000000E+00 -0.00000000000E+00 -0.45593999997E+02  0.45594000000E+02  0.51100000000E-03 0.  1.
    9900012    2    1    2    0    0 -0.66382048653E+01  0.70899573820E+00 -0.17495992542E+02  0.72461596346E+02  0.70000033937E+02 0.  0.
         12    1    1    2    0    0  0.66382048653E+01 -0.70899573820E+00  0.17495992542E+02  0.18726403654E+02  0.00000000000E+00 0. -1.
         11    1    3    3    0    0 -0.53687329265E+01  0.10074369303E+02  0.42185082691E+01  0.12170128280E+02  0.51100000000E-03 0. -1.
        -11    1    3    3    0    0 -0.12067175030E+02  0.80638117221E+01 -0.33594449529E+02  0.36595475296E+02  0.51100000000E-03 0.  1.
         12    1    3    3    0    0  0.10797703092E+02 -0.17429185287E+02  0.11879948718E+02  0.23695992770E+02  0.00000000000E+00 0. -1.
</event>
<event>
 7    1  0.3305651E-013  0.7246155E+02  0.7816164E-02  0.1226708E+00
        -11   -1    0    0    0    0  0.00000000000E+00  0.00000000000E+00  0.45593999997E+02  0.45594000000E+02  0.51100000000E-03 0.  1.
         11   -1    0    0    0    0 -0.00000000000E+00 -0.00000000000E+00 -0.45593999997E+02  0.45594000000E+02  0.51100000000E-03 0. -1.
    9900012    2    1    2    0    0 -0.13975287726E+02  0.12428358586E+02 -0.95247653246E+00  0.72461548769E+02  0.69999971960E+02 0.  0.
         12    1    1    2    0    0  0.13975287726E+02 -0.12428358586E+02  0.95247653246E+00  0.18726451231E+02  0.00000000000E+00 0. -1.
         11    1    3    3    0    0 -0.45885275128E+01  0.10042531455E+02  0.80295260577E+01  0.13652117481E+02  0.51100000000E-03 0. -1.
        -11    1    3    3    0    0 -0.78689129685E+01  0.25709094243E+02 -0.19465758697E+02  0.33193268595E+02  0.51100000000E-03 0.  1.
         12    1    3    3    0    0 -0.15178472444E+01 -0.23323267112E+02  0.10483756107E+02  0.25616162693E+02  0.00000000000E+00 0. -1.
</event>
<event>
 7    1  0.3305651E-013  0.7246178E+02  0.7816164E-02  0.1226707E+00
        -11   -1    0    0    0    0  0.00000000000E+00  0.00000000000E+00  0.45593999997E+02  0.45594000000E+02  0.51100000000E-03 0.  1.
         11   -1    0    0    0    0 -0.00000000000E+00 -0.00000000000E+00 -0.45593999997E+02  0.45594000000E+02  0.51100000000E-03 0. -1.
    9900012    2    1    2    0    0  0.26614839495E+01 -0.58998742176E+01  0.17572112991E+02  0.72461783950E+02  0.70000278325E+02 0.  0.
         12    1    1    2    0    0 -0.26614839495E+01  0.58998742176E+01 -0.17572112991E+02  0.18726216050E+02  0.00000000000E+00 0. -1.
         11    1    3    3    0    0  0.70113115696E+01  0.59237790734E+01  0.34847846471E+01  0.98180126672E+01  0.51100000000E-03 0. -1.
        -11    1    3    3    0    0 -0.52778256723E+01  0.24264638537E+02  0.39235096917E+01  0.25140048840E+02  0.51100000000E-03 0.  1.
         12    1    3    3    0    0  0.92799805220E+00 -0.36088291828E+02  0.10163818652E+02  0.37503722442E+02  0.00000000000E+00 0. -1.
</event>
<event>
 7    1  0.3305651E-013  0.7246154E+02  0.7816164E-02  0.1226708E+00
        -11   -1    0    0    0    0  0.00000000000E+00  0.00000000000E+00  0.45593999997E+02  0.45594000000E+02  0.51100000000E-03 0. -1.
         11   -1    0    0    0    0 -0.00000000000E+00 -0.00000000000E+00 -0.45593999997E+02  0.45594000000E+02  0.51100000000E-03 0.  1.
    9900012    2    1    2    0    0 -0.62661876582E+01 -0.16930460960E+02  0.49774052120E+01  0.72461543348E+02  0.69999964898E+02 0.  0.
         12    1    1    2    0    0  0.62661876582E+01  0.16930460960E+02 -0.49774052120E+01  0.18726456652E+02  0.00000000000E+00 0. -1.
         11    1    3    3    0    0 -0.16194832368E+01 -0.29462707243E+01  0.19182742585E+02  0.19475134158E+02  0.51100000000E-03 0. -1.
        -11    1    3    3    0    0 -0.11220442032E+02 -0.22574174095E+02  0.94922724927E+01  0.26936868653E+02  0.51100000000E-03 0.  1.
        -12    1    3    3    0    0  0.65737376108E+01  0.85899838596E+01 -0.23697609865E+02  0.26049540537E+02  0.00000000000E+00 0.  1.
</event>
<event>
 7    1  0.3305651E-013  0.7246157E+02  0.7816164E-02  0.1226708E+00
        -11   -1    0    0    0    0  0.00000000000E+00  0.00000000000E+00  0.45593999997E+02  0.45594000000E+02  0.51100000000E-03 0.  1.
         11   -1    0    0    0    0 -0.00000000000E+00 -0.00000000000E+00 -0.45593999997E+02  0.45594000000E+02  0.51100000000E-03 0. -1.
    9900012    2    1    2    0    0  0.38503839219E+01 -0.18199791067E+02  0.21496879382E+01  0.72461574568E+02  0.70000005568E+02 0.  0.
         12    1    1    2    0    0 -0.38503839219E+01  0.18199791067E+02 -0.21496879382E+01  0.18726425432E+02  0.00000000000E+00 0. -1.
         11    1    3    3    0    0 -0.12019725526E+02 -0.81523019970E+01 -0.64254611192E+01  0.15881447681E+02  0.51100000000E-03 0. -1.
        -11    1    3    3    0    0  0.31066638056E+02 -0.18898006839E+02 -0.13473569256E+01  0.36387992986E+02  0.51100000000E-03 0.  1.
         12    1    3    3    0    0 -0.15196528608E+02  0.88505177696E+01  0.99225059830E+01  0.20192133902E+02  0.00000000000E+00 0. -1.
</event>
<event>
 7    1  0.3305651E-013  0.7246156E+02  0.7816164E-02  0.1226708E+00
        -11   -1    0    0    0    0  0.00000000000E+00  0.00000000000E+00  0.45593999997E+02  0.45594000000E+02  0.51100000000E-03 0. -1.
         11   -1    0    0    0    0 -0.00000000000E+00 -0.00000000000E+00 -0.45593999997E+02  0.45594000000E+02  0.51100000000E-03 0.  1.
    9900012    2    1    2    0    0  0.62054637003E+01 -0.12818490142E+02 -0.12159687194E+02  0.72461562487E+02  0.69999989830E+02 0.  0.
         12    1    1    2    0    0 -0.62054637003E+01  0.12818490142E+02  0.12159687194E+02  0.18726437513E+02  0.00000000000E+00 0. -1.
         11    1    3    3    0    0  0.11468666847E+02 -0.15132513952E+02 -0.14847244414E+02  0.24103194077E+02  0.51100000000E-03 0. -1.
        -11    1    3    3    0    0 -0.62518329574E+01  0.29505902327E+01 -0.22298046234E+02  0.23345112211E+02  0.51100000000E-03 0.  1.
        -12    1    3    3    0    0  0.98862981025E+00 -0.63656642259E+00  0.24985603454E+02  0.25013256199E+02  0.00000000000E+00 0.  1.
</event>
<event>
 7    1  0.3305651E-013  0.7246155E+02  0.7816164E-02  0.1226708E+00
        -11   -1    0    0    0    0  0.00000000000E+00  0.00000000000E+00  0.45593999997E+02  0.45594000000E+02  0.51100000000E-03 0.  1.
         11   -1    0    0    0    0 -0.00000000000E+00 -0.00000000000E+00 -0.45593999997E+02  0.45594000000E+02  0.51100000000E-03 0. -1.
    9900012    2    1    2    0    0 -0.47913092727E+01  0.17055403134E+02  0.60693056432E+01  0.72461551015E+02  0.69999974885E+02 0.  0.
         12    1    1    2    0    0  0.47913092727E+01 -0.17055403134E+02 -0.60693056432E+01  0.18726448985E+02  0.00000000000E+00 0. -1.
         11    1    3    3    0    0  0.50058051908E+01  0.45642428957E+01  0.33733367972E+01  0.75676812980E+01  0.51100000000E-03 0. -1.
        -11    1    3    3    0    0  0.14538708991E+02  0.18829500951E+02  0.22607302759E+02  0.32817896086E+02  0.51100000000E-03 0.  1.
         12    1    3    3    0    0 -0.24335823454E+02 -0.63383407133E+01 -0.19911333913E+02  0.32075973631E+02  0.00000000000E+00 0. -1.
</event>
<event>
 7    1  0.3305651E-013  0.7246160E+02  0.7816164E-02  0.1226708E+00
        -11   -1    0    0    0    0  0.00000000000E+00  0.00000000000E+00  0.45593999997E+02  0.45594000000E+02  0.51100000000E-03 0.  1.
         11   -1    0    0    0    0 -0.00000000000E+00 -0.00000000000E+00 -0.45593999997E+02  0.45594000000E+02  0.51100000000E-03 0. -1.
    9900012    2    1    2    0    0  0.15325143847E+02 -0.10072685275E+02 -0.37893106784E+01  0.72461604245E+02  0.70000044227E+02 0.  0.
         12    1    1    2    0    0 -0.15325143847E+02  0.10072685275E+02  0.37893106784E+01  0.18726395755E+02  0.00000000000E+00 0. -1.
         11    1    3    3    0    0  0.98026795340E+01 -0.59836103275E+01 -0.15123714077E+02  0.18990072310E+02  0.51100000000E-03 0. -1.
        -11    1    3    3    0    0  0.19559579522E+01  0.22311243309E+02  0.14444115404E+02  0.26650512557E+02  0.51100000000E-03 0.  1.
         12    1    3    3    0    0  0.35665063604E+01 -0.26400318256E+02 -0.31097120050E+01  0.26821019377E+02  0.00000000000E+00 0. -1.
</event>
<event>
 7    1  0.3305651E-013  0.7246157E+02  0.7816164E-02  0.1226708E+00
        -11   -1    0    0    0    0  0.00000000000E+00  0.00000000000E+00  0.45593999997E+02  0.45594000000E+02  0.51100000000E-03 0.  1.
         11   -1    0    0    0    0 -0.00000000000E+00 -0.00000000000E+00 -0.45593999997E+02  0.45594000000E+02  0.51100000000E-03 0. -1.
    9900012    2    1    2    0    0 -0.26420266810E+00 -0.15716193557E+02 -0.10178934317E+02  0.72461568231E+02  0.69999997312E+02 0.  0.
         12    1    1    2    0    0  0.26420266810E+00  0.15716193557E+02  0.10178934317E+02  0.18726431769E+02  0.00000000000E+00 0. -1.
         11    1    3    3    0    0 -0.18179010245E+02 -0.18762068021E+02 -0.24132206392E+02  0.35564799950E+02  0.51100000000E-03 0. -1.
        -11    1    3    3    0    0 -0.27294334159E+01 -0.37326991575E+01 -0.58779849394E+01  0.74788740450E+01  0.51100000000E-03 0.  1.
        -12    1    3    3    0    0  0.20644240992E+02  0.67785736211E+01  0.19831257015E+02  0.29417894236E+02  0.00000000000E+00 0.  1.
</event>
<event>
 7    1  0.3305651E-013  0.7246151E+02  0.7816164E-02  0.1226708E+00
        -11   -1    0    0    0    0  0.00000000000E+00  0.00000000000E+00  0.45593999997E+02  0.45594000000E+02  0.51100000000E-03 0. -1.
         11   -1    0    0    0    0 -0.00000000000E+00 -0.00000000000E+00 -0.45593999997E+02  0.45594000000E+02  0.51100000000E-03 0.  1.
    9900012    2    1    2    0    0 -0.27742441177E+01 -0.16897047568E+01 -0.18442610055E+02  0.72461510788E+02  0.69999922481E+02 0.  0.
         12    1    1    2    0    0  0.27742441177E+01  0.16897047568E+01  0.18442610055E+02  0.18726489212E+02  0.00000000000E+00 0. -1.
         11    1    3    3    0    0  0.12965231654E+02 -0.29248566517E+02 -0.12810822842E+02  0.34462922936E+02  0.51100000000E-03 0. -1.
        -11    1    3    3    0    0  0.26070437672E+01 -0.15075196097E+01  0.58735862778E+00  0.30682703591E+01  0.51100000000E-03 0.  1.
        -12    1    3    3    0    0 -0.18346519539E+02  0.29066381370E+02 -0.62191458410E+01  0.34930317493E+02  0.00000000000E+00 0.  1.
</event>
<event>
 7    1  0.3305651E-013  0.7246161E+02  0.7816164E-02  0.1226708E+00
        -11   -1    0    0    0    0  0.00000000000E+00  0.00000000000E+00  0.45593999997E+02  0.45594000000E+02  0.51100000000E-03 0. -1.
         11   -1    0    0    0    0 -0.00000000000E+00 -0.00000000000E+00 -0.45593999997E+02  0.45594000000E+02  0.51100000000E-03 0.  1.
    9900012    2    1    2    0    0  0.13162760827E+02  0.11761099575E+02 -0.62526676957E+01  0.72461612492E+02  0.70000054970E+02 0.  0.
         12    1    1    2    0    0 -0.13162760827E+02 -0.11761099575E+02  0.62526676957E+01  0.18726387508E+02  0.00000000000E+00 0. -1.
         11    1    3    3    0    0  0.89555877374E+01  0.12592824655E+02  0.18406692870E+02  0.24033063209E+02  0.51100000000E-03 0. -1.
        -11    1    3    3    0    0  0.14265536417E+02  0.12275184386E+02 -0.89001384897E-01  0.18820031947E+02  0.51100000000E-03 0.  1.
        -12    1    3    3    0    0 -0.10058363327E+02 -0.13106909467E+02 -0.24570359181E+02  0.29608517336E+02  0.00000000000E+00 0.  1.
</event>
<event>
 7    1  0.3305651E-013  0.7246160E+02  0.7816164E-02  0.1226708E+00
        -11   -1    0    0    0    0  0.00000000000E+00  0.00000000000E+00  0.45593999997E+02  0.45594000000E+02  0.51100000000E-03 0. -1.
         11   -1    0    0    0    0 -0.00000000000E+00 -0.00000000000E+00 -0.45593999997E+02  0.45594000000E+02  0.51100000000E-03 0.  1.
    9900012    2    1    2    0    0 -0.10745528678E+02 -0.13844061296E+02 -0.65995150134E+01  0.72461601036E+02  0.70000040047E+02 0.  0.
         12    1    1    2    0    0  0.10745528678E+02  0.13844061296E+02  0.65995150134E+01  0.18726398964E+02  0.00000000000E+00 0. -1.
         11    1    3    3    0    0 -0.15840395389E+02  0.33874536100E+01  0.18752747294E+02  0.24780203780E+02  0.51100000000E-03 0. -1.
        -11    1    3    3    0    0  0.96613030421E+01 -0.37688791368E+01  0.68856605421E+01  0.12448194559E+02  0.51100000000E-03 0.  1.
        -12    1    3    3    0    0 -0.45664363309E+01 -0.13462635770E+02 -0.32237922850E+02  0.35233202697E+02  0.00000000000E+00 0.  1.
</event>
<event>
 7    1  0.3305651E-013  0.7246156E+02  0.7816164E-02  0.1226708E+00
        -11   -1    0    0    0    0  0.00000000000E+00  0.00000000000E+00  0.45593999997E+02  0.45594000000E+02  0.51100000000E-03 0. -1.
         11   -1    0    0    0    0 -0.00000000000E+00 -0.00000000000E+00 -0.45593999997E+02  0.45594000000E+02  0.51100000000E-03 0.  1.
    9900012    2    1    2    0    0  0.15935849931E+02 -0.82693806197E+01 -0.53240499872E+01  0.72461562082E+02  0.69999989301E+02 0.  0.
         12    1    1    2    0    0 -0.15935849931E+02  0.82693806197E+01  0.53240499872E+01  0.18726437918E+02  0.00000000000E+00 0. -1.
         11    1    3    3    0    0 -0.72940005312E+01 -0.11721774159E+02 -0.15541983352E+02  0.20788354431E+02  0.51100000000E-03 0. -1.
        -11    1    3    3    0    0  0.13948279077E+01  0.11954602360E+02 -0.13668687736E+02  0.18212388288E+02  0.51100000000E-03 0.  1.
         12    1    3    3    0    0  0.21835022554E+02 -0.85022088206E+01  0.23886621101E+02  0.33460819362E+02  0.00000000000E+00 0. -1.
</event>
<event>
 7    1  0.3305651E-013  0.7246159E+02  0.7816164E-02  0.1226708E+00
        -11   -1    0    0    0    0  0.00000000000E+00  0.00000000000E+00  0.45593999997E+02  0.45594000000E+02  0.51100000000E-03 0.  1.
         11   -1    0    0    0    0 -0.00000000000E+00 -0.00000000000E+00 -0.45593999997E+02  0.45594000000E+02  0.51100000000E-03 0. -1.
    9900012    2    1    2    0    0 -0.47002397259E+01  0.17699393758E+02  0.39137812751E+01  0.72461588792E+02  0.70000024096E+02 0.  0.
         12    1    1    2    0    0  0.47002397259E+01 -0.17699393758E+02 -0.39137812751E+01  0.18726411208E+02  0.00000000000E+00 0. -1.
         11    1    3    3    0    0 -0.21660037910E+02 -0.29055702568E+00 -0.54665785920E+01  0.22341108912E+02  0.51100000000E-03 0. -1.
        -11    1    3    3    0    0 -0.58940048742E+01 -0.97406021158E+01 -0.35576282966E+01  0.11927922803E+02  0.51100000000E-03 0.  1.
        -12    1    3    3    0    0  0.22853803059E+02  0.27730552899E+02  0.12937988164E+02  0.38192557077E+02  0.00000000000E+00 0.  1.
</event>
<event>
 7    1  0.3305651E-013  0.7246154E+02  0.7816164E-02  0.1226708E+00
        -11   -1    0    0    0    0  0.00000000000E+00  0.00000000000E+00  0.45593999997E+02  0.45594000000E+02  0.51100000000E-03 0.  1.
         11   -1    0    0    0    0 -0.00000000000E+00 -0.00000000000E+00 -0.45593999997E+02  0.45594000000E+02  0.51100000000E-03 0. -1.
    9900012    2    1    2    0    0 -0.16837880054E+02  0.71621621314E+01  0.39836350475E+01  0.72461544935E+02  0.69999966964E+02 0.  0.
         12    1    1    2    0    0  0.16837880054E+02 -0.71621621314E+01 -0.39836350475E+01  0.18726455065E+02  0.00000000000E+00 0. -1.
         11    1    3    3    0    0 -0.79453270899E+01 -0.21944697731E+02  0.96974912060E+01  0.25273292564E+02  0.51100000000E-03 0. -1.
        -11    1    3    3    0    0 -0.13215689653E+02  0.65259276473E+01 -0.16214815461E+02  0.21912608821E+02  0.51100000000E-03 0.  1.
        -12    1    3    3    0    0  0.43231366881E+01  0.22580932215E+02  0.10500959303E+02  0.25275643549E+02  0.00000000000E+00 0.  1.
</event>
<event>
 7    1  0.3305651E-013  0.7246155E+02  0.7816164E-02  0.1226708E+00
        -11   -1    0    0    0    0  0.00000000000E+00  0.00000000000E+00  0.45593999997E+02  0.45594000000E+02  0.51100000000E-03 0.  1.
         11   -1    0    0    0    0 -0.00000000000E+00 -0.00000000000E+00 -0.45593999997E+02  0.45594000000E+02  0.51100000000E-03 0. -1.
    9900012    2    1    2    0    0 -0.13283917165E+02  0.32313861686E+00  0.13195185213E+02  0.72461553818E+02  0.69999978536E+02 0.  0.
         12    1    1    2    0    0  0.13283917165E+02 -0.32313861686E+00 -0.13195185213E+02  0.18726446182E+02  0.00000000000E+00 0. -1.
         11    1    3    3    0    0 -0.91040308237E+01  0.57067030485E+01 -0.17743836605E+02  0.20743518859E+02  0.51100000000E-03 0. -1.
        -11    1    3    3    0    0 -0.30496786752E+00  0.57898278652E+01 -0.86427438965E+01  0.10407311585E+02  0.51100000000E-03 0.  1.
        -12    1    3    3    0    0 -0.38749184737E+01 -0.11173392297E+02  0.39581765714E+02  0.41310723374E+02  0.00000000000E+00 0.  1.
</event>
<event>
 7    1  0.3305651E-013  0.7246176E+02  0.7816164E-02  0.1226708E+00
        -11   -1    0    0    0    0  0.00000000000E+00  0.00000000000E+00  0.45593999997E+02  0.45594000000E+02  0.51100000000E-03 0. -1.
         11   -1    0    0    0    0 -0.00000000000E+00 -0.00000000000E+00 -0.45593999997E+02  0.45594000000E+02  0.51100000000E-03 0.  1.
    9900012    2    1    2    0    0 -0.26928511491E+01 -0.13142812823E+02 -0.13064722515E+02  0.72461763042E+02  0.70000251089E+02 0.  0.
         12    1    1    2    0    0  0.26928511491E+01  0.13142812823E+02  0.13064722515E+02  0.18726236958E+02  0.00000000000E+00 0. -1.
         11    1    3    3    0    0  0.19353677807E+02  0.70502806629E+01 -0.15866664038E+02  0.26000429420E+02  0.51100000000E-03 0. -1.
        -11    1    3    3    0    0  0.27756113514E+01 -0.20832865017E+02 -0.22012252050E+01  0.21131911315E+02  0.51100000000E-03 0.  1.
        -12    1    3    3    0    0 -0.24822140307E+02  0.63977153109E+00  0.50031667279E+01  0.25329422306E+02  0.00000000000E+00 0.  1.
</event>
<event>
 7    1  0.3305651E-013  0.7246157E+02  0.7816164E-02  0.1226708E+00
        -11   -1    0    0    0    0  0.00000000000E+00  0.00000000000E+00  0.45593999997E+02  0.45594000000E+02  0.51100000000E-03 0. -1.
         11   -1    0    0    0    0 -0.00000000000E+00 -0.00000000000E+00 -0.45593999997E+02  0.45594000000E+02  0.51100000000E-03 0.  1.
    9900012    2    1    2    0    0  0.11621547276E+02 -0.14498759434E+02 -0.23248004056E+01  0.72461572601E+02  0.70000003005E+02 0.  0.
         12    1    1    2    0    0 -0.11621547276E+02  0.14498759434E+02  0.23248004056E+01  0.18726427399E+02  0.00000000000E+00 0. -1.
         11    1    3    3    0    0 -0.36937217905E+01 -0.28010223786E+01  0.21585310409E+02  0.22077475688E+02  0.51100000000E-03 0. -1.
        -11    1    3    3    0    0  0.20805129386E+02 -0.84090547052E+01  0.30755118038E+01  0.22650041566E+02  0.51100000000E-03 0.  1.
         12    1    3    3    0    0 -0.54898603201E+01 -0.32886823497E+01 -0.26985622618E+02  0.27734055348E+02  0.00000000000E+00 0. -1.
</event>
<event>
 7    1  0.3305651E-013  0.7246157E+02  0.7816164E-02  0.1226708E+00
        -11   -1    0    0    0    0  0.00000000000E+00  0.00000000000E+00  0.45593999997E+02  0.45594000000E+02  0.51100000000E-03 0. -1.
         11   -1    0    0    0    0 -0.00000000000E+00 -0.00000000000E+00 -0.45593999997E+02  0.45594000000E+02  0.51100000000E-03 0.  1.
    9900012    2    1    2    0    0  0.10966505913E+02  0.75248339407E+01  0.13183005279E+02  0.72461574662E+02  0.70000005689E+02 0.  0.
         12    1    1    2    0    0 -0.10966505913E+02 -0.75248339407E+01 -0.13183005279E+02  0.18726425338E+02  0.00000000000E+00 0. -1.
         11    1    3    3    0    0  0.11731779042E+01  0.20128103203E+02  0.11728239359E+02  0.23325275640E+02  0.51100000000E-03 0. -1.
        -11    1    3    3    0    0  0.18397198198E+02 -0.59554934170E+01 -0.18276608539E+02  0.26607503139E+02  0.51100000000E-03 0.  1.
         12    1    3    3    0    0 -0.86038701888E+01 -0.66477758452E+01  0.19731374458E+02  0.22528795882E+02  0.00000000000E+00 0. -1.
</event>
<event>
 7    1  0.3305651E-013  0.7246155E+02  0.7816164E-02  0.1226708E+00
        -11   -1    0    0    0    0  0.00000000000E+00  0.00000000000E+00  0.45593999997E+02  0.45594000000E+02  0.51100000000E-03 0.  1.
         11   -1    0    0    0    0 -0.00000000000E+00 -0.00000000000E+00 -0.45593999997E+02  0.45594000000E+02  0.51100000000E-03 0. -1.
    9900012    2    1    2    0    0  0.79468334463E+01 -0.24182547750E+01  0.16783317263E+02  0.72461551957E+02  0.69999976112E+02 0.  0.
         12    1    1    2    0    0 -0.79468334463E+01  0.24182547750E+01 -0.16783317263E+02  0.18726448043E+02  0.00000000000E+00 0. -1.
         11    1    3    3    0    0 -0.14058583498E+02  0.57923740163E+00 -0.79447340612E+01  0.16158529806E+02  0.51100000000E-03 0. -1.
        -11    1    3    3    0    0 -0.14802147746E+01 -0.47485575159E+01  0.31426850630E+02  0.31818025945E+02  0.51100000000E-03 0.  1.
        -12    1    3    3    0    0  0.23485631719E+02  0.17510653393E+01 -0.66987993058E+01  0.24484996206E+02  0.00000000000E+00 0.  1.
</event>
<event>
 7    1  0.3305651E-013  0.7246155E+02  0.7816164E-02  0.1226708E+00
        -11   -1    0    0    0    0  0.00000000000E+00  0.00000000000E+00  0.45593999997E+02  0.45594000000E+02  0.51100000000E-03 0.  1.
         11   -1    0    0    0    0 -0.00000000000E+00 -0.00000000000E+00 -0.45593999997E+02  0.45594000000E+02  0.51100000000E-03 0. -1.
    9900012    2    1    2    0    0  0.58675781429E-01  0.16672197176E+02 -0.85272788985E+01  0.72461545799E+02  0.69999968091E+02 0.  0.
         12    1    1    2    0    0 -0.58675781429E-01 -0.16672197176E+02  0.85272788985E+01  0.18726454201E+02  0.00000000000E+00 0. -1.
         11    1    3    3    0    0  0.18592940241E+02  0.14669943245E+02  0.13113693306E+02  0.27071638554E+02  0.51100000000E-03 0. -1.
        -11    1    3    3    0    0  0.78774200012E+00  0.13685308921E+02  0.56647598038E+00  0.13719661549E+02  0.51100000000E-03 0.  1.
        -12    1    3    3    0    0 -0.19322006460E+02 -0.11683054990E+02 -0.22207448185E+02  0.31670245696E+02  0.00000000000E+00 0.  1.
</event>
<event>
 7    1  0.3305651E-013  0.7246157E+02  0.7816164E-02  0.1226708E+00
        -11   -1    0    0    0    0  0.00000000000E+00  0.00000000000E+00  0.45593999997E+02  0.45594000000E+02  0.51100000000E-03 0. -1.
         11   -1    0    0    0    0 -0.00000000000E+00 -0.00000000000E+00 -0.45593999997E+02  0.45594000000E+02  0.51100000000E-03 0.  1.
    9900012    2    1    2    0    0 -0.53815712422E+01 -0.13514018374E+00 -0.17935982607E+02  0.72461573646E+02  0.70000004367E+02 0.  0.
         12    1    1    2    0    0  0.53815712422E+01  0.13514018374E+00  0.17935982607E+02  0.18726426354E+02  0.00000000000E+00 0. -1.
         11    1    3    3    0    0  0.33930572094E+01  0.34493865102E+01  0.95120439460E+01  0.10671929761E+02  0.51100000000E-03 0. -1.
        -11    1    3    3    0    0 -0.29506080340E+02  0.93133437664E+01 -0.15555769067E+02  0.34631331200E+02  0.51100000000E-03 0.  1.
         12    1    3    3    0    0  0.20731451889E+02 -0.12897870460E+02 -0.11892257486E+02  0.27158312686E+02  0.00000000000E+00 0. -1.
</event>
<event>
 7    1  0.3305651E-013  0.7246154E+02  0.7816164E-02  0.1226708E+00
        -11   -1    0    0    0    0  0.00000000000E+00  0.00000000000E+00  0.45593999997E+02  0.45594000000E+02  0.51100000000E-03 0. -1.
         11   -1    0    0    0    0 -0.00000000000E+00 -0.00000000000E+00 -0.45593999997E+02  0.45594000000E+02  0.51100000000E-03 0.  1.
    9900012    2    1    2    0    0  0.37873651143E+01  0.72524867021E+01 -0.16844515273E+02  0.72461537636E+02  0.69999957457E+02 0.  0.
         12    1    1    2    0    0 -0.37873651143E+01 -0.72524867021E+01  0.16844515273E+02  0.18726462364E+02  0.00000000000E+00 0. -1.
         11    1    3    3    0    0  0.77478406502E+01  0.83046883439E+01  0.14456294282E+02  0.18384268489E+02  0.51100000000E-03 0. -1.
        -11    1    3    3    0    0  0.49517227162E+01  0.17970136677E+02 -0.30740527270E+01  0.18891669340E+02  0.51100000000E-03 0.  1.
        -12    1    3    3    0    0 -0.89121982520E+01 -0.19022338318E+02 -0.28226756828E+02  0.35185599807E+02  0.00000000000E+00 0.  1.
</event>
<event>
 7    1  0.3305651E-013  0.7246159E+02  0.7816164E-02  0.1226708E+00
        -11   -1    0    0    0    0  0.00000000000E+00  0.00000000000E+00  0.45593999997E+02  0.45594000000E+02  0.51100000000E-03 0. -1.
         11   -1    0    0    0    0 -0.00000000000E+00 -0.00000000000E+00 -0.45593999997E+02  0.45594000000E+02  0.51100000000E-03 0.  1.
    9900012    2    1    2    0    0 -0.10060668425E+02  0.15702551973E+02 -0.17003950843E+01  0.72461587341E+02  0.70000022207E+02 0.  0.
         12    1    1    2    0    0  0.10060668425E+02 -0.15702551973E+02  0.17003950843E+01  0.18726412659E+02  0.00000000000E+00 0. -1.
         11    1    3    3    0    0 -0.79166541534E+01  0.45979256204E+01 -0.12393739558E+02  0.15408410479E+02  0.51100000000E-03 0. -1.
        -11    1    3    3    0    0 -0.26579870862E+02  0.11531463672E+02 -0.28475088593E+01  0.29113098365E+02  0.51100000000E-03 0.  1.
         12    1    3    3    0    0  0.24435856591E+02 -0.42683731905E+00  0.13540853333E+02  0.27940078497E+02  0.00000000000E+00 0. -1.
</event>
<event>
 7    1  0.3305651E-013  0.7246157E+02  0.7816164E-02  0.1226708E+00
        -11   -1    0    0    0    0  0.00000000000E+00  0.00000000000E+00  0.45593999997E+02  0.45594000000E+02  0.51100000000E-03 0.  1.
         11   -1    0    0    0    0 -0.00000000000E+00 -0.00000000000E+00 -0.45593999997E+02  0.45594000000E+02  0.51100000000E-03 0. -1.
    9900012    2    1    2    0    0 -0.14201213303E+02 -0.71496020575E+01  0.98938298004E+01  0.72461571163E+02  0.70000001132E+02 0.  0.
         12    1    1    2    0    0  0.14201213303E+02  0.71496020575E+01 -0.98938298004E+01  0.18726428837E+02  0.00000000000E+00 0. -1.
         11    1    3    3    0    0  0.25362573221E+01 -0.23468367890E+02 -0.21652834666E+02  0.32031892575E+02  0.51100000000E-03 0.  1.
        -11    1    3    3    0    0 -0.11998311752E+02  0.87301509463E+01  0.12559054719E+02  0.19439775620E+02  0.51100000000E-03 0. -1.
        -12    1    3    3    0    0 -0.47391588730E+01  0.75886148861E+01  0.18987609747E+02  0.20989902969E+02  0.00000000000E+00 0.  1.
</event>
<event>
 7    1  0.3305651E-013  0.7246154E+02  0.7816164E-02  0.1226708E+00
        -11   -1    0    0    0    0  0.00000000000E+00  0.00000000000E+00  0.45593999997E+02  0.45594000000E+02  0.51100000000E-03 0. -1.
         11   -1    0    0    0    0 -0.00000000000E+00 -0.00000000000E+00 -0.45593999997E+02  0.45594000000E+02  0.51100000000E-03 0.  1.
    9900012    2    1    2    0    0  0.64795559851E+01 -0.10504551178E+02 -0.14083684892E+02  0.72461536870E+02  0.69999956459E+02 0.  0.
         12    1    1    2    0    0 -0.64795559851E+01  0.10504551178E+02  0.14083684892E+02  0.18726463130E+02  0.00000000000E+00 0. -1.
         11    1    3    3    0    0  0.49955591231E+01 -0.64798618639E+00  0.20906787457E+02  0.21505098443E+02  0.51100000000E-03 0. -1.
        -11    1    3    3    0    0  0.10634499956E+01  0.23612654865E+01  0.68728856987E+01  0.73445938403E+01  0.51100000000E-03 0.  1.
        -12    1    3    3    0    0  0.42054686639E+00 -0.12217830478E+02 -0.41863358047E+02  0.43611844586E+02  0.00000000000E+00 0.  1.
</event>
<event>
 7    1  0.3305651E-013  0.7246158E+02  0.7816164E-02  0.1226708E+00
        -11   -1    0    0    0    0  0.00000000000E+00  0.00000000000E+00  0.45593999997E+02  0.45594000000E+02  0.51100000000E-03 0. -1.
         11   -1    0    0    0    0 -0.00000000000E+00 -0.00000000000E+00 -0.45593999997E+02  0.45594000000E+02  0.51100000000E-03 0.  1.
    9900012    2    1    2    0    0  0.54019883299E+01 -0.97530814606E+01 -0.15045752220E+02  0.72461581876E+02  0.70000015087E+02 0.  0.
         12    1    1    2    0    0 -0.54019883299E+01  0.97530814606E+01  0.15045752220E+02  0.18726418124E+02  0.00000000000E+00 0. -1.
         11    1    3    3    0    0 -0.73238820775E+01 -0.14232986510E+02  0.12833295352E+02  0.20516106442E+02  0.51100000000E-03 0. -1.
        -11    1    3    3    0    0  0.11021325777E+02 -0.15020194312E+02 -0.95044525294E+00  0.18654200746E+02  0.51100000000E-03 0.  1.
        -12    1    3    3    0    0  0.17045446305E+01  0.19500099361E+02 -0.26928602319E+02  0.33291274688E+02  0.00000000000E+00 0.  1.
</event>
<event>
 7    1  0.3305651E-013  0.7246158E+02  0.7816164E-02  0.1226708E+00
        -11   -1    0    0    0    0  0.00000000000E+00  0.00000000000E+00  0.45593999997E+02  0.45594000000E+02  0.51100000000E-03 0.  1.
         11   -1    0    0    0    0 -0.00000000000E+00 -0.00000000000E+00 -0.45593999997E+02  0.45594000000E+02  0.51100000000E-03 0. -1.
    9900012    2    1    2    0    0  0.12292179401E+02  0.10137779444E+02  0.98390282716E+01  0.72461582195E+02  0.70000015503E+02 0.  0.
         12    1    1    2    0    0 -0.12292179401E+02 -0.10137779444E+02 -0.98390282716E+01  0.18726417805E+02  0.00000000000E+00 0. -1.
         11    1    3    3    0    0  0.69529204939E+01 -0.11816245350E+02 -0.46244808434E+01  0.14469021422E+02  0.51100000000E-03 0. -1.
        -11    1    3    3    0    0 -0.97868468082E+01 -0.13290542591E+02 -0.12337980371E+01  0.16551228071E+02  0.51100000000E-03 0.  1.
        -12    1    3    3    0    0  0.15126105716E+02  0.35244567385E+02  0.15697307152E+02  0.41441332702E+02  0.00000000000E+00 0.  1.
</event>
<event>
 7    1  0.3305651E-013  0.7246160E+02  0.7816164E-02  0.1226708E+00
        -11   -1    0    0    0    0  0.00000000000E+00  0.00000000000E+00  0.45593999997E+02  0.45594000000E+02  0.51100000000E-03 0.  1.
         11   -1    0    0    0    0 -0.00000000000E+00 -0.00000000000E+00 -0.45593999997E+02  0.45594000000E+02  0.51100000000E-03 0. -1.
    9900012    2    1    2    0    0  0.28491624845E-01  0.32105394635E+01  0.18449108349E+02  0.72461602207E+02  0.70000041572E+02 0.  0.
         12    1    1    2    0    0 -0.28491624845E-01 -0.32105394635E+01 -0.18449108349E+02  0.18726397793E+02  0.00000000000E+00 0. -1.
         11    1    3    3    0    0 -0.10237316505E+01 -0.19783144951E+00  0.28383257214E+02  0.28402402259E+02  0.51100000000E-03 0. -1.
        -11    1    3    3    0    0 -0.12305105144E+02 -0.14908263256E+02 -0.55759013670E-01  0.19330676016E+02  0.51100000000E-03 0.  1.
         12    1    3    3    0    0  0.13357328419E+02  0.18316634169E+02 -0.98783898507E+01  0.24728523931E+02  0.00000000000E+00 0. -1.
</event>
<event>
 7    1  0.3305651E-013  0.7246158E+02  0.7816164E-02  0.1226708E+00
        -11   -1    0    0    0    0  0.00000000000E+00  0.00000000000E+00  0.45593999997E+02  0.45594000000E+02  0.51100000000E-03 0. -1.
         11   -1    0    0    0    0 -0.00000000000E+00 -0.00000000000E+00 -0.45593999997E+02  0.45594000000E+02  0.51100000000E-03 0.  1.
    9900012    2    1    2    0    0 -0.34411563591E+01 -0.18401599638E+02  0.46744058486E+00  0.72461576769E+02  0.70000008435E+02 0.  0.
         12    1    1    2    0    0  0.34411563591E+01  0.18401599638E+02 -0.46744058486E+00  0.18726423231E+02  0.00000000000E+00 0. -1.
         11    1    3    3    0    0  0.60041987637E+01 -0.26243514459E+02  0.16671601204E+02  0.31665671332E+02  0.51100000000E-03 0. -1.
        -11    1    3    3    0    0  0.12612437190E+02  0.34196025817E+01  0.52511096285E-02  0.13067795588E+02  0.51100000000E-03 0.  1.
         12    1    3    3    0    0 -0.22057792313E+02  0.44223122396E+01 -0.16209411729E+02  0.27728109850E+02  0.00000000000E+00 0. -1.
</event>
<event>
 7    1  0.3305651E-013  0.7246157E+02  0.7816164E-02  0.1226708E+00
        -11   -1    0    0    0    0  0.00000000000E+00  0.00000000000E+00  0.45593999997E+02  0.45594000000E+02  0.51100000000E-03 0. -1.
         11   -1    0    0    0    0 -0.00000000000E+00 -0.00000000000E+00 -0.45593999997E+02  0.45594000000E+02  0.51100000000E-03 0.  1.
    9900012    2    1    2    0    0  0.18279703674E+02  0.98085317577E+00 -0.39458421254E+01  0.72461566558E+02  0.69999995133E+02 0.  0.
         12    1    1    2    0    0 -0.18279703674E+02 -0.98085317577E+00  0.39458421254E+01  0.18726433442E+02  0.00000000000E+00 0. -1.
         11    1    3    3    0    0  0.10808592303E+00 -0.22228052889E+01 -0.22845541584E+01  0.31893155822E+01  0.51100000000E-03 0. -1.
        -11    1    3    3    0    0  0.11906154407E+02 -0.31484276942E+02 -0.42526715247E+01  0.33927885620E+02  0.51100000000E-03 0.  1.
         12    1    3    3    0    0  0.62654633439E+01  0.34687935406E+02  0.25913835577E+01  0.35344365356E+02  0.00000000000E+00 0. -1.
</event>
<event>
 7    1  0.3305651E-013  0.7246143E+02  0.7816164E-02  0.1226708E+00
        -11   -1    0    0    0    0  0.00000000000E+00  0.00000000000E+00  0.45593999997E+02  0.45594000000E+02  0.51100000000E-03 0.  1.
         11   -1    0    0    0    0 -0.00000000000E+00 -0.00000000000E+00 -0.45593999997E+02  0.45594000000E+02  0.51100000000E-03 0. -1.
    9900012    2    1    2    0    0 -0.10277867875E+02  0.11482821663E+02  0.10639304033E+02  0.72461426589E+02  0.69999812797E+02 0.  0.
         12    1    1    2    0    0  0.10277867875E+02 -0.11482821663E+02 -0.10639304033E+02  0.18726573411E+02  0.00000000000E+00 0. -1.
         11    1    3    3    0    0 -0.37096797798E+01 -0.76315774391E+01  0.26609990697E+01  0.88928968614E+01  0.51100000000E-03 0. -1.
        -11    1    3    3    0    0 -0.31943413264E+02  0.16439357408E+02  0.11700246107E+02  0.37782666425E+02  0.51100000000E-03 0.  1.
         12    1    3    3    0    0  0.25375225168E+02  0.26750416942E+01 -0.37219411441E+01  0.25785863303E+02  0.00000000000E+00 0. -1.
</event>
<event>
 7    1  0.3305651E-013  0.7246156E+02  0.7816164E-02  0.1226708E+00
        -11   -1    0    0    0    0  0.00000000000E+00  0.00000000000E+00  0.45593999997E+02  0.45594000000E+02  0.51100000000E-03 0.  1.
         11   -1    0    0    0    0 -0.00000000000E+00 -0.00000000000E+00 -0.45593999997E+02  0.45594000000E+02  0.51100000000E-03 0. -1.
    9900012    2    1    2    0    0  0.18464030351E+02 -0.29070941784E+01 -0.11437329655E+01  0.72461555104E+02  0.69999980212E+02 0.  0.
         12    1    1    2    0    0 -0.18464030351E+02  0.29070941784E+01  0.11437329655E+01  0.18726444896E+02  0.00000000000E+00 0. -1.
         11    1    3    3    0    0  0.86280749736E+01 -0.44739187577E+01  0.18999537219E+02  0.21341088107E+02  0.51100000000E-03 0. -1.
        -11    1    3    3    0    0  0.96684325351E+01 -0.75766357795E+01  0.12317838866E+02  0.17395779719E+02  0.51100000000E-03 0.  1.
         12    1    3    3    0    0  0.16752284187E+00  0.91434603589E+01 -0.32461109050E+02  0.33724687278E+02  0.00000000000E+00 0. -1.
</event>
<event>
 7    1  0.3305651E-013  0.7246146E+02  0.7816164E-02  0.1226708E+00
        -11   -1    0    0    0    0  0.00000000000E+00  0.00000000000E+00  0.45593999997E+02  0.45594000000E+02  0.51100000000E-03 0.  1.
         11   -1    0    0    0    0 -0.00000000000E+00 -0.00000000000E+00 -0.45593999997E+02  0.45594000000E+02  0.51100000000E-03 0. -1.
    9900012    2    1    2    0    0  0.48794569614E+01  0.11031307257E+01  0.18045975661E+02  0.72461461740E+02  0.69999858588E+02 0.  0.
         12    1    1    2    0    0 -0.48794569614E+01 -0.11031307257E+01 -0.18045975661E+02  0.18726538260E+02  0.00000000000E+00 0. -1.
         11    1    3    3    0    0  0.15195173564E+02  0.14883402344E+02 -0.34591875509E+01  0.21549360634E+02  0.51100000000E-03 0. -1.
        -11    1    3    3    0    0 -0.10841270750E+02 -0.26644198704E+01 -0.11532319046E+02  0.16050752865E+02  0.51100000000E-03 0.  1.
        -12    1    3    3    0    0  0.52555414718E+00 -0.11115851748E+02  0.33037482257E+02  0.34861348240E+02  0.00000000000E+00 0.  1.
</event>
<event>
 7    1  0.3643671E-013  0.7246157E+02  0.7816164E-02  0.1226708E+00
        -11   -1    0    0    0    0  0.00000000000E+00  0.00000000000E+00  0.45593999997E+02  0.45594000000E+02  0.51100000000E-03 0. -1.
         11   -1    0    0    0    0 -0.00000000000E+00 -0.00000000000E+00 -0.45593999997E+02  0.45594000000E+02  0.51100000000E-03 0.  1.
    9900012    2    1    2    0    0  0.90500771231E+01  0.11106023634E+02 -0.12059497258E+02  0.72461571323E+02  0.70000001340E+02 0.  0.
         12    1    1    2    0    0 -0.90500771231E+01 -0.11106023634E+02  0.12059497258E+02  0.18726428677E+02  0.00000000000E+00 0. -1.
         11    1    3    3    0    0  0.90324549799E+01  0.12481639452E+02 -0.55782214530E+01  0.16385759708E+02  0.51100000000E-03 0. -1.
        -11    1    3    3    0    0  0.56003347214E+01  0.78446822354E+01 -0.29297183738E+02  0.30841980539E+02  0.51100000000E-03 0.  1.
         12    1    3    3    0    0 -0.55827125782E+01 -0.92202980534E+01  0.22815907933E+02  0.25233831075E+02  0.00000000000E+00 0. -1.
</event>
<event>
 7    1  0.3305651E-013  0.7246156E+02  0.7816164E-02  0.1226708E+00
        -11   -1    0    0    0    0  0.00000000000E+00  0.00000000000E+00  0.45593999997E+02  0.45594000000E+02  0.51100000000E-03 0. -1.
         11   -1    0    0    0    0 -0.00000000000E+00 -0.00000000000E+00 -0.45593999997E+02  0.45594000000E+02  0.51100000000E-03 0.  1.
    9900012    2    1    2    0    0  0.60086996693E+00  0.13325341482E+02 -0.13143585969E+02  0.72461558201E+02  0.69999984246E+02 0.  0.
         12    1    1    2    0    0 -0.60086996693E+00 -0.13325341482E+02  0.13143585969E+02  0.18726441799E+02  0.00000000000E+00 0. -1.
         11    1    3    3    0    0 -0.50312180715E+01 -0.13843673923E+01  0.75605145565E+00  0.52726883489E+01  0.51100000000E-03 0. -1.
        -11    1    3    3    0    0  0.26835936827E+02 -0.11842664524E+02  0.25371066579E+01  0.29442369450E+02  0.51100000000E-03 0.  1.
         12    1    3    3    0    0 -0.21203848788E+02  0.26552373399E+02 -0.16436744083E+02  0.37746500402E+02  0.00000000000E+00 0. -1.
</event>
<event>
 7    1  0.3305651E-013  0.7246158E+02  0.7816164E-02  0.1226708E+00
        -11   -1    0    0    0    0  0.00000000000E+00  0.00000000000E+00  0.45593999997E+02  0.45594000000E+02  0.51100000000E-03 0. -1.
         11   -1    0    0    0    0 -0.00000000000E+00 -0.00000000000E+00 -0.45593999997E+02  0.45594000000E+02  0.51100000000E-03 0.  1.
    9900012    2    1    2    0    0 -0.60844640914E+01 -0.12215741184E+02 -0.12823172207E+02  0.72461580657E+02  0.70000013499E+02 0.  0.
         12    1    1    2    0    0  0.60844640914E+01  0.12215741184E+02  0.12823172207E+02  0.18726419343E+02  0.00000000000E+00 0. -1.
         11    1    3    3    0    0 -0.13274533253E+02 -0.58583410175E+01  0.14587007159E+02  0.20574600134E+02  0.51100000000E-03 0. -1.
        -11    1    3    3    0    0 -0.11496535841E+02 -0.72138225054E+01  0.50014464602E+01  0.14464578751E+02  0.51100000000E-03 0.  1.
        -12    1    3    3    0    0  0.18686605002E+02  0.85642233900E+00 -0.32411625826E+02  0.37422401773E+02  0.00000000000E+00 0.  1.
</event>
<event>
 7    1  0.3305651E-013  0.7246148E+02  0.7816164E-02  0.1226708E+00
        -11   -1    0    0    0    0  0.00000000000E+00  0.00000000000E+00  0.45593999997E+02  0.45594000000E+02  0.51100000000E-03 0. -1.
         11   -1    0    0    0    0 -0.00000000000E+00 -0.00000000000E+00 -0.45593999997E+02  0.45594000000E+02  0.51100000000E-03 0.  1.
    9900012    2    1    2    0    0  0.59060631344E+01  0.13221610825E+02 -0.11873919417E+02  0.72461480386E+02  0.69999882877E+02 0.  0.
         12    1    1    2    0    0 -0.59060631344E+01 -0.13221610825E+02  0.11873919417E+02  0.18726519614E+02  0.00000000000E+00 0. -1.
         11    1    3    3    0    0  0.59960351576E+01  0.14777421516E+00  0.73574573717E+01  0.94924419444E+01  0.51100000000E-03 0. -1.
        -11    1    3    3    0    0  0.25411358521E+02 -0.58254889137E+01 -0.42332969409E+00  0.26073984568E+02  0.51100000000E-03 0.  1.
        -12    1    3    3    0    0 -0.25501330545E+02  0.18899325523E+02 -0.18808047095E+02  0.36895053873E+02  0.00000000000E+00 0.  1.
</event>
<event>
 7    1  0.3305651E-013  0.7246176E+02  0.7816164E-02  0.1226708E+00
        -11   -1    0    0    0    0  0.00000000000E+00  0.00000000000E+00  0.45593999997E+02  0.45594000000E+02  0.51100000000E-03 0. -1.
         11   -1    0    0    0    0 -0.00000000000E+00 -0.00000000000E+00 -0.45593999997E+02  0.45594000000E+02  0.51100000000E-03 0.  1.
    9900012    2    1    2    0    0  0.15140793194E+02  0.31167558154E+01 -0.10569493929E+02  0.72461762063E+02  0.70000249814E+02 0.  0.
         12    1    1    2    0    0 -0.15140793194E+02 -0.31167558154E+01  0.10569493929E+02  0.18726237937E+02  0.00000000000E+00 0. -1.
         11    1    3    3    0    0 -0.51229543366E+01  0.32466954492E+01  0.22951990498E+01  0.64848771317E+01  0.51100000000E-03 0. -1.
        -11    1    3    3    0    0 -0.85613455705E-01  0.38158986424E+01 -0.35257147435E+02  0.35463147881E+02  0.51100000000E-03 0.  1.
         12    1    3    3    0    0  0.20349360986E+02 -0.39458382762E+01  0.22392454456E+02  0.30513737051E+02  0.00000000000E+00 0. -1.
</event>
<event>
 7    1  0.3305651E-013  0.7246160E+02  0.7816164E-02  0.1226708E+00
        -11   -1    0    0    0    0  0.00000000000E+00  0.00000000000E+00  0.45593999997E+02  0.45594000000E+02  0.51100000000E-03 0.  1.
         11   -1    0    0    0    0 -0.00000000000E+00 -0.00000000000E+00 -0.45593999997E+02  0.45594000000E+02  0.51100000000E-03 0. -1.
    9900012    2    1    2    0    0 -0.11669557582E+02 -0.52541140107E+01  0.13670913028E+02  0.72461597483E+02  0.70000035418E+02 0.  0.
         12    1    1    2    0    0  0.11669557582E+02  0.52541140107E+01 -0.13670913028E+02  0.18726402517E+02  0.00000000000E+00 0. -1.
         11    1    3    3    0    0 -0.59277672181E+01 -0.32465398936E+01 -0.10850251183E+02  0.12783051140E+02  0.51100000000E-03 0. -1.
        -11    1    3    3    0    0 -0.19104521788E+02  0.20620148381E+02  0.11879667183E+02  0.30517204404E+02  0.51100000000E-03 0.  1.
        -12    1    3    3    0    0  0.13362731424E+02 -0.22627722498E+02  0.12641497028E+02  0.29161341939E+02  0.00000000000E+00 0.  1.
</event>
<event>
 7    1  0.3305651E-013  0.7246156E+02  0.7816164E-02  0.1226708E+00
        -11   -1    0    0    0    0  0.00000000000E+00  0.00000000000E+00  0.45593999997E+02  0.45594000000E+02  0.51100000000E-03 0.  1.
         11   -1    0    0    0    0 -0.00000000000E+00 -0.00000000000E+00 -0.45593999997E+02  0.45594000000E+02  0.51100000000E-03 0. -1.
    9900012    2    1    2    0    0  0.85252220754E+01  0.10989370315E+02  0.12539291192E+02  0.72461561605E+02  0.69999988680E+02 0.  0.
         12    1    1    2    0    0 -0.85252220754E+01 -0.10989370315E+02 -0.12539291192E+02  0.18726438395E+02  0.00000000000E+00 0. -1.
         11    1    3    3    0    0  0.65026093872E+01 -0.17053160337E+02  0.17739107461E+02  0.25451328847E+02  0.51100000000E-03 0. -1.
        -11    1    3    3    0    0 -0.12290544816E+02  0.10776260343E+02  0.10684008234E+02  0.19527757451E+02  0.51100000000E-03 0.  1.
        -12    1    3    3    0    0  0.14313157504E+02  0.17266270308E+02 -0.15883824503E+02  0.27482475306E+02  0.00000000000E+00 0.  1.
</event>
<event>
 7    1  0.3305651E-013  0.7246152E+02  0.7816164E-02  0.1226708E+00
        -11   -1    0    0    0    0  0.00000000000E+00  0.00000000000E+00  0.45593999997E+02  0.45594000000E+02  0.51100000000E-03 0.  1.
         11   -1    0    0    0    0 -0.00000000000E+00 -0.00000000000E+00 -0.45593999997E+02  0.45594000000E+02  0.51100000000E-03 0. -1.
    9900012    2    1    2    0    0  0.84362189853E+01 -0.16201694634E+02  0.41250709891E+01  0.72461523812E+02  0.69999939448E+02 0.  0.
         12    1    1    2    0    0 -0.84362189853E+01  0.16201694634E+02 -0.41250709891E+01  0.18726476188E+02  0.00000000000E+00 0. -1.
         11    1    3    3    0    0  0.90779666144E+01 -0.27288487321E+02  0.23099487860E+02  0.36887089310E+02  0.51100000000E-03 0. -1.
        -11    1    3    3    0    0  0.29674394893E+01  0.30684181478E+01  0.69739780599E+01  0.81766287242E+01  0.51100000000E-03 0.  1.
        -12    1    3    3    0    0 -0.36091871184E+01  0.80183745396E+01 -0.25948394931E+02  0.27397805777E+02  0.00000000000E+00 0.  1.
</event>
<event>
 7    1  0.3305651E-013  0.7246124E+02  0.7816164E-02  0.1226709E+00
        -11   -1    0    0    0    0  0.00000000000E+00  0.00000000000E+00  0.45593999997E+02  0.45594000000E+02  0.51100000000E-03 0.  1.
         11   -1    0    0    0    0 -0.00000000000E+00 -0.00000000000E+00 -0.45593999997E+02  0.45594000000E+02  0.51100000000E-03 0. -1.
    9900012    2    1    2    0    0  0.70459682108E+01  0.14300545196E+02  0.98254910785E+01  0.72461240113E+02  0.69999569876E+02 0.  0.
         12    1    1    2    0    0 -0.70459682108E+01 -0.14300545196E+02 -0.98254910785E+01  0.18726759887E+02  0.00000000000E+00 0. -1.
         11    1    3    3    0    0  0.90860080557E+01 -0.13379133486E+02  0.10270186738E+02  0.19158118152E+02  0.51100000000E-03 0.  1.
        -11    1    3    3    0    0  0.79407183262E+01  0.28431498090E+02 -0.16920666517E+02  0.34025197234E+02  0.51100000000E-03 0. -1.
         12    1    3    3    0    0 -0.99807581711E+01 -0.75181940784E+00  0.16475970857E+02  0.19277924727E+02  0.00000000000E+00 0. -1.
</event>
<event>
 7    1  0.3305651E-013  0.7246156E+02  0.7816164E-02  0.1226708E+00
        -11   -1    0    0    0    0  0.00000000000E+00  0.00000000000E+00  0.45593999997E+02  0.45594000000E+02  0.51100000000E-03 0. -1.
         11   -1    0    0    0    0 -0.00000000000E+00 -0.00000000000E+00 -0.45593999997E+02  0.45594000000E+02  0.51100000000E-03 0.  1.
    9900012    2    1    2    0    0  0.32999577324E+01  0.37621757913E+01 -0.18045383784E+02  0.72461559771E+02  0.69999986292E+02 0.  0.
         12    1    1    2    0    0 -0.32999577324E+01 -0.37621757913E+01  0.18045383784E+02  0.18726440229E+02  0.00000000000E+00 0. -1.
         11    1    3    3    0    0  0.13217948634E+02  0.56917228401E+01  0.11295015464E+01  0.14435568883E+02  0.51100000000E-03 0. -1.
        -11    1    3    3    0    0 -0.63443861418E+01 -0.21973976159E+02 -0.27726484699E+02  0.35942521027E+02  0.51100000000E-03 0.  1.
         12    1    3    3    0    0 -0.35736047593E+01  0.20044429111E+02  0.85515993683E+01  0.22083469861E+02  0.00000000000E+00 0. -1.
</event>
<event>
 7    1  0.3305651E-013  0.7246159E+02  0.7816164E-02  0.1226708E+00
        -11   -1    0    0    0    0  0.00000000000E+00  0.00000000000E+00  0.45593999997E+02  0.45594000000E+02  0.51100000000E-03 0.  1.
         11   -1    0    0    0    0 -0.00000000000E+00 -0.00000000000E+00 -0.45593999997E+02  0.45594000000E+02  0.51100000000E-03 0. -1.
    9900012    2    1    2    0    0 -0.18534063175E+02  0.21089030556E+01 -0.16491203012E+01  0.72461586365E+02  0.70000020935E+02 0.  0.
         12    1    1    2    0    0  0.18534063175E+02 -0.21089030556E+01  0.16491203012E+01  0.18726413635E+02  0.00000000000E+00 0. -1.
         11    1    3    3    0    0 -0.15971195164E+02  0.10285217495E+02 -0.75100796433E+01  0.20427091580E+02  0.51100000000E-03 0. -1.
        -11    1    3    3    0    0  0.90888250486E+01  0.19514044632E+02  0.42995343545E+01  0.21952008441E+02  0.51100000000E-03 0.  1.
         12    1    3    3    0    0 -0.11651693059E+02 -0.27690359072E+02  0.15614249875E+01  0.30082486345E+02  0.00000000000E+00 0. -1.
</event>
<event>
 7    1  0.3305651E-013  0.7246160E+02  0.7816164E-02  0.1226708E+00
        -11   -1    0    0    0    0  0.00000000000E+00  0.00000000000E+00  0.45593999997E+02  0.45594000000E+02  0.51100000000E-03 0.  1.
         11   -1    0    0    0    0 -0.00000000000E+00 -0.00000000000E+00 -0.45593999997E+02  0.45594000000E+02  0.51100000000E-03 0. -1.
    9900012    2    1    2    0    0  0.11927004673E+02 -0.53778749678E+01  0.13397880500E+02  0.72461596674E+02  0.70000034365E+02 0.  0.
         12    1    1    2    0    0 -0.11927004673E+02  0.53778749678E+01 -0.13397880500E+02  0.18726403326E+02  0.00000000000E+00 0. -1.
         11    1    3    3    0    0  0.12564679627E+01  0.75884915973E+01 -0.34702189428E+01  0.84383846935E+01  0.51100000000E-03 0. -1.
        -11    1    3    3    0    0 -0.16598327757E+02  0.62356974943E+01 -0.10737784809E+02  0.20728927383E+02  0.51100000000E-03 0.  1.
        -12    1    3    3    0    0  0.27268864468E+02 -0.19202064059E+02  0.27605884252E+02  0.43294284598E+02  0.00000000000E+00 0.  1.
</event>
<event>
 7    1  0.3305651E-013  0.7246159E+02  0.7816164E-02  0.1226708E+00
        -11   -1    0    0    0    0  0.00000000000E+00  0.00000000000E+00  0.45593999997E+02  0.45594000000E+02  0.51100000000E-03 0. -1.
         11   -1    0    0    0    0 -0.00000000000E+00 -0.00000000000E+00 -0.45593999997E+02  0.45594000000E+02  0.51100000000E-03 0.  1.
    9900012    2    1    2    0    0  0.17890821142E+02 -0.45638393268E+00 -0.55126065081E+01  0.72461585556E+02  0.70000019881E+02 0.  0.
         12    1    1    2    0    0 -0.17890821142E+02  0.45638393268E+00  0.55126065081E+01  0.18726414444E+02  0.00000000000E+00 0. -1.
         11    1    3    3    0    0  0.63146118971E+01  0.64985196281E+01 -0.13945661714E+02  0.16630891788E+02  0.51100000000E-03 0. -1.
        -11    1    3    3    0    0  0.13711798871E+02 -0.90216784709E+00 -0.21335659937E+02  0.25377898265E+02  0.51100000000E-03 0.  1.
         12    1    3    3    0    0 -0.21355896269E+01 -0.60527357137E+01  0.29768715143E+02  0.30452795503E+02  0.00000000000E+00 0. -1.
</event>
<event>
 7    1  0.3305651E-013  0.7246157E+02  0.7816164E-02  0.1226708E+00
        -11   -1    0    0    0    0  0.00000000000E+00  0.00000000000E+00  0.45593999997E+02  0.45594000000E+02  0.51100000000E-03 0.  1.
         11   -1    0    0    0    0 -0.00000000000E+00 -0.00000000000E+00 -0.45593999997E+02  0.45594000000E+02  0.51100000000E-03 0. -1.
    9900012    2    1    2    0    0 -0.58691791830E+01  0.13741890599E+01  0.17729736687E+02  0.72461568871E+02  0.69999998146E+02 0.  0.
         12    1    1    2    0    0  0.58691791830E+01 -0.13741890599E+01 -0.17729736687E+02  0.18726431129E+02  0.00000000000E+00 0. -1.
         11    1    3    3    0    0  0.46145126117E+01  0.27596806390E+01 -0.14350475489E+02  0.15324676535E+02  0.51100000000E-03 0. -1.
        -11    1    3    3    0    0 -0.18442380031E+02  0.14623308393E+02  0.31405409589E+02  0.39246175371E+02  0.51100000000E-03 0.  1.
         12    1    3    3    0    0  0.79586882359E+01 -0.16008799972E+02  0.67480258655E+00  0.17890716965E+02  0.00000000000E+00 0. -1.
</event>
<event>
 7    1  0.3305651E-013  0.7246154E+02  0.7816164E-02  0.1226708E+00
        -11   -1    0    0    0    0  0.00000000000E+00  0.00000000000E+00  0.45593999997E+02  0.45594000000E+02  0.51100000000E-03 0.  1.
         11   -1    0    0    0    0 -0.00000000000E+00 -0.00000000000E+00 -0.45593999997E+02  0.45594000000E+02  0.51100000000E-03 0. -1.
    9900012    2    1    2    0    0 -0.15887186077E+01  0.18604317540E+02 -0.14267753238E+01  0.72461538888E+02  0.69999959087E+02 0.  0.
         12    1    1    2    0    0  0.15887186077E+01 -0.18604317540E+02  0.14267753238E+01  0.18726461112E+02  0.00000000000E+00 0. -1.
         11    1    3    3    0    0 -0.60482365237E+01  0.10222071261E+02  0.12229982205E+01  0.11940168794E+02  0.51100000000E-03 0. -1.
        -11    1    3    3    0    0  0.19419026871E+02 -0.65589445452E+01  0.20624639794E+02  0.29077381675E+02  0.51100000000E-03 0.  1.
         12    1    3    3    0    0 -0.14959508955E+02  0.14941190825E+02 -0.23274413339E+02  0.31443988419E+02  0.00000000000E+00 0. -1.
</event>
<event>
 7    1  0.3305651E-013  0.7246158E+02  0.7816164E-02  0.1226708E+00
        -11   -1    0    0    0    0  0.00000000000E+00  0.00000000000E+00  0.45593999997E+02  0.45594000000E+02  0.51100000000E-03 0. -1.
         11   -1    0    0    0    0 -0.00000000000E+00 -0.00000000000E+00 -0.45593999997E+02  0.45594000000E+02  0.51100000000E-03 0.  1.
    9900012    2    1    2    0    0  0.99702498284E+01  0.15286343375E+02 -0.41953201569E+01  0.72461577847E+02  0.70000009839E+02 0.  0.
         12    1    1    2    0    0 -0.99702498284E+01 -0.15286343375E+02  0.41953201569E+01  0.18726422153E+02  0.00000000000E+00 0. -1.
         11    1    3    3    0    0 -0.14319792695E+02  0.25855553773E+02 -0.72277049753E+01  0.30427057748E+02  0.51100000000E-03 0. -1.
        -11    1    3    3    0    0  0.10775257287E+02  0.31242615632E+01 -0.12870094447E+02  0.17073561762E+02  0.51100000000E-03 0.  1.
         12    1    3    3    0    0  0.13514785236E+02 -0.13693471961E+02  0.15902479266E+02  0.24960958337E+02  0.00000000000E+00 0. -1.
</event>
<event>
 7    1  0.3305651E-013  0.7246156E+02  0.7816164E-02  0.1226708E+00
        -11   -1    0    0    0    0  0.00000000000E+00  0.00000000000E+00  0.45593999997E+02  0.45594000000E+02  0.51100000000E-03 0.  1.
         11   -1    0    0    0    0 -0.00000000000E+00 -0.00000000000E+00 -0.45593999997E+02  0.45594000000E+02  0.51100000000E-03 0. -1.
    9900012    2    1    2    0    0 -0.10916012987E+02  0.38938196101E+01  0.14709119809E+02  0.72461564775E+02  0.69999992810E+02 0.  0.
         12    1    1    2    0    0  0.10916012987E+02 -0.38938196101E+01 -0.14709119809E+02  0.18726435225E+02  0.00000000000E+00 0. -1.
         11    1    3    3    0    0 -0.10473225144E+02  0.23531928822E+02 -0.13227653849E+02  0.28955326722E+02  0.51100000000E-03 0. -1.
        -11    1    3    3    0    0 -0.17584774259E+01  0.19378146450E+01 -0.40970987586E+01  0.48614387742E+01  0.51100000000E-03 0.  1.
        -12    1    3    3    0    0  0.13156895832E+01 -0.21575923856E+02  0.32033872416E+02  0.38644799279E+02  0.00000000000E+00 0.  1.
</event>
<event>
 7    1  0.3305651E-013  0.7246146E+02  0.7816164E-02  0.1226708E+00
        -11   -1    0    0    0    0  0.00000000000E+00  0.00000000000E+00  0.45593999997E+02  0.45594000000E+02  0.51100000000E-03 0.  1.
         11   -1    0    0    0    0 -0.00000000000E+00 -0.00000000000E+00 -0.45593999997E+02  0.45594000000E+02  0.51100000000E-03 0. -1.
    9900012    2    1    2    0    0 -0.79310474526E+01 -0.12763752253E+02  0.11174455835E+02  0.72461458716E+02  0.69999854648E+02 0.  0.
         12    1    1    2    0    0  0.79310474526E+01  0.12763752253E+02 -0.11174455835E+02  0.18726541284E+02  0.00000000000E+00 0. -1.
         11    1    3    3    0    0 -0.13098155735E+02 -0.52856288957E+01 -0.14046920418E+02  0.19920229165E+02  0.51100000000E-03 0. -1.
        -11    1    3    3    0    0 -0.19036465947E+02 -0.46181273193E+01  0.35089448070E+01  0.19900422850E+02  0.51100000000E-03 0.  1.
        -12    1    3    3    0    0  0.24203574230E+02 -0.28599960378E+01  0.21712431446E+02  0.32640806701E+02  0.00000000000E+00 0.  1.
</event>
<event>
 7    1  0.3305651E-013  0.7246174E+02  0.7816164E-02  0.1226708E+00
        -11   -1    0    0    0    0  0.00000000000E+00  0.00000000000E+00  0.45593999997E+02  0.45594000000E+02  0.51100000000E-03 0. -1.
         11   -1    0    0    0    0 -0.00000000000E+00 -0.00000000000E+00 -0.45593999997E+02  0.45594000000E+02  0.51100000000E-03 0.  1.
    9900012    2    1    2    0    0  0.85263855241E+01 -0.11262879577E+02 -0.12293130358E+02  0.72461741418E+02  0.70000222920E+02 0.  0.
         12    1    1    2    0    0 -0.85263855241E+01  0.11262879577E+02  0.12293130358E+02  0.18726258582E+02  0.00000000000E+00 0. -1.
         11    1    3    3    0    0  0.28416290839E+01  0.53040161890E-02  0.18260688143E+02  0.18480465787E+02  0.51100000000E-03 0. -1.
        -11    1    3    3    0    0  0.37990470519E+00  0.13709428121E+02  0.56588051463E+00  0.13726360333E+02  0.51100000000E-03 0.  1.
        -12    1    3    3    0    0  0.53048517349E+01 -0.24977611714E+02 -0.31119699016E+02  0.40254915298E+02  0.00000000000E+00 0.  1.
</event>
<event>
 7    1  0.3305651E-013  0.7246163E+02  0.7816164E-02  0.1226708E+00
        -11   -1    0    0    0    0  0.00000000000E+00  0.00000000000E+00  0.45593999997E+02  0.45594000000E+02  0.51100000000E-03 0. -1.
         11   -1    0    0    0    0 -0.00000000000E+00 -0.00000000000E+00 -0.45593999997E+02  0.45594000000E+02  0.51100000000E-03 0.  1.
    9900012    2    1    2    0    0  0.13949679072E+02 -0.12210460190E+02  0.26435252155E+01  0.72461625289E+02  0.70000071640E+02 0.  0.
         12    1    1    2    0    0 -0.13949679072E+02  0.12210460190E+02 -0.26435252155E+01  0.18726374711E+02  0.00000000000E+00 0. -1.
         11    1    3    3    0    0  0.11262883168E+01 -0.15354979800E+02  0.17425010936E+02  0.23252417862E+02  0.51100000000E-03 0. -1.
        -11    1    3    3    0    0 -0.10176311383E+02  0.16606464315E+02 -0.17815557719E+01  0.19557758350E+02  0.51100000000E-03 0.  1.
        -12    1    3    3    0    0  0.22999702139E+02 -0.13461944705E+02 -0.12999929949E+02  0.29651449077E+02  0.00000000000E+00 0.  1.
</event>
<event>
 7    1  0.3305651E-013  0.7246159E+02  0.7816164E-02  0.1226708E+00
        -11   -1    0    0    0    0  0.00000000000E+00  0.00000000000E+00  0.45593999997E+02  0.45594000000E+02  0.51100000000E-03 0. -1.
         11   -1    0    0    0    0 -0.00000000000E+00 -0.00000000000E+00 -0.45593999997E+02  0.45594000000E+02  0.51100000000E-03 0.  1.
    9900012    2    1    2    0    0  0.92454574618E+01 -0.85070167238E+01  0.13886342587E+02  0.72461592772E+02  0.70000029282E+02 0.  0.
         12    1    1    2    0    0 -0.92454574618E+01  0.85070167238E+01 -0.13886342587E+02  0.18726407228E+02  0.00000000000E+00 0. -1.
         11    1    3    3    0    0  0.62256018992E+01 -0.94574422807E+01 -0.18050563645E+01  0.11465581636E+02  0.51100000000E-03 0. -1.
        -11    1    3    3    0    0 -0.93565979876E+01  0.13557389502E+01 -0.20591489206E+02  0.22658185761E+02  0.51100000000E-03 0.  1.
         12    1    3    3    0    0  0.12376453550E+02 -0.40531339321E+00  0.36282888158E+02  0.38337825375E+02  0.00000000000E+00 0. -1.
</event>
<event>
 7    1  0.3305651E-013  0.7246163E+02  0.7816164E-02  0.1226708E+00
        -11   -1    0    0    0    0  0.00000000000E+00  0.00000000000E+00  0.45593999997E+02  0.45594000000E+02  0.51100000000E-03 0. -1.
         11   -1    0    0    0    0 -0.00000000000E+00 -0.00000000000E+00 -0.45593999997E+02  0.45594000000E+02  0.51100000000E-03 0.  1.
    9900012    2    1    2    0    0 -0.58500034791E+01 -0.17245651371E+02 -0.43636824943E+01  0.72461634714E+02  0.70000083918E+02 0.  0.
         12    1    1    2    0    0  0.58500034791E+01  0.17245651371E+02  0.43636824943E+01  0.18726365286E+02  0.00000000000E+00 0. -1.
         11    1    3    3    0    0 -0.28993151031E+02 -0.14772168637E+02  0.87033148918E+01  0.33683341035E+02  0.51100000000E-03 0. -1.
        -11    1    3    3    0    0  0.78848342901E-01 -0.44012289560E+01  0.69176684458E+01  0.81994615903E+01  0.51100000000E-03 0.  1.
        -12    1    3    3    0    0  0.23064299209E+02  0.19277462221E+01 -0.19984665832E+02  0.30578832088E+02  0.00000000000E+00 0.  1.
</event>
<event>
 7    1  0.3305651E-013  0.7246159E+02  0.7816164E-02  0.1226708E+00
        -11   -1    0    0    0    0  0.00000000000E+00  0.00000000000E+00  0.45593999997E+02  0.45594000000E+02  0.51100000000E-03 0. -1.
         11   -1    0    0    0    0 -0.00000000000E+00 -0.00000000000E+00 -0.45593999997E+02  0.45594000000E+02  0.51100000000E-03 0.  1.
    9900012    2    1    2    0    0 -0.16439574495E+02  0.84423740296E+00 -0.89278300727E+01  0.72461588272E+02  0.70000023420E+02 0.  0.
         12    1    1    2    0    0  0.16439574495E+02 -0.84423740296E+00  0.89278300727E+01  0.18726411728E+02  0.00000000000E+00 0. -1.
         11    1    3    3    0    0  0.79371857798E+01 -0.39634887848E+01  0.14656316410E+02  0.17132302018E+02  0.51100000000E-03 0. -1.
        -11    1    3    3    0    0  0.37421068969E+01 -0.92689609207E+01  0.64085113997E+01  0.11873753375E+02  0.51100000000E-03 0.  1.
        -12    1    3    3    0    0 -0.28118867172E+02  0.14076687108E+02 -0.29992657883E+02  0.43455532880E+02  0.00000000000E+00 0.  1.
</event>
<event>
 7    1  0.3305651E-013  0.7246158E+02  0.7816164E-02  0.1226708E+00
        -11   -1    0    0    0    0  0.00000000000E+00  0.00000000000E+00  0.45593999997E+02  0.45594000000E+02  0.51100000000E-03 0. -1.
         11   -1    0    0    0    0 -0.00000000000E+00 -0.00000000000E+00 -0.45593999997E+02  0.45594000000E+02  0.51100000000E-03 0.  1.
    9900012    2    1    2    0    0 -0.18437901582E+02  0.26564159984E+01  0.19147176414E+01  0.72461577375E+02  0.70000009223E+02 0.  0.
         12    1    1    2    0    0  0.18437901582E+02 -0.26564159984E+01 -0.19147176414E+01  0.18726422625E+02  0.00000000000E+00 0. -1.
         11    1    3    3    0    0 -0.99569620877E+01 -0.12189901654E+02  0.12230917326E+02  0.19933141630E+02  0.51100000000E-03 0. -1.
        -11    1    3    3    0    0  0.12375361905E+02 -0.47417852200E+01  0.10694967611E+02  0.17029869107E+02  0.51100000000E-03 0.  1.
        -12    1    3    3    0    0 -0.20856301399E+02  0.19588102872E+02 -0.21011167296E+02  0.35498566637E+02  0.00000000000E+00 0.  1.
</event>
<event>
 7    1  0.3305651E-013  0.7246155E+02  0.7816164E-02  0.1226708E+00
        -11   -1    0    0    0    0  0.00000000000E+00  0.00000000000E+00  0.45593999997E+02  0.45594000000E+02  0.51100000000E-03 0.  1.
         11   -1    0    0    0    0 -0.00000000000E+00 -0.00000000000E+00 -0.45593999997E+02  0.45594000000E+02  0.51100000000E-03 0. -1.
    9900012    2    1    2    0    0 -0.83998131221E+01 -0.12862946634E+02 -0.10708305815E+02  0.72461546251E+02  0.69999968679E+02 0.  0.
         12    1    1    2    0    0  0.83998131221E+01  0.12862946634E+02  0.10708305815E+02  0.18726453749E+02  0.00000000000E+00 0. -1.
         11    1    3    3    0    0 -0.12474766921E+01  0.29069805182E+01  0.10708698772E+01  0.33396850729E+01  0.51100000000E-03 0. -1.
        -11    1    3    3    0    0  0.27923220732E+01 -0.16793526801E+02  0.25424836057E+02  0.30598070098E+02  0.51100000000E-03 0.  1.
        -12    1    3    3    0    0 -0.99446585031E+01  0.10235996487E+01 -0.37204011749E+02  0.38523791080E+02  0.00000000000E+00 0.  1.
</event>
<event>
 7    1  0.3305651E-013  0.7246158E+02  0.7816164E-02  0.1226708E+00
        -11   -1    0    0    0    0  0.00000000000E+00  0.00000000000E+00  0.45593999997E+02  0.45594000000E+02  0.51100000000E-03 0.  1.
         11   -1    0    0    0    0 -0.00000000000E+00 -0.00000000000E+00 -0.45593999997E+02  0.45594000000E+02  0.51100000000E-03 0. -1.
    9900012    2    1    2    0    0  0.71760159430E+01 -0.16992647711E+02  0.32301017721E+01  0.72461579133E+02  0.70000011514E+02 0.  0.
         12    1    1    2    0    0 -0.71760159430E+01  0.16992647711E+02 -0.32301017721E+01  0.18726420867E+02  0.00000000000E+00 0. -1.
         11    1    3    3    0    0 -0.14900407232E+02 -0.10107319888E+02  0.62871681417E+01  0.19071144027E+02  0.51100000000E-03 0. -1.
        -11    1    3    3    0    0  0.19605468667E+02 -0.26082904901E+02  0.38125166828E+01  0.32851599862E+02  0.51100000000E-03 0.  1.
         12    1    3    3    0    0  0.24709545080E+01  0.19197577078E+02 -0.68695830523E+01  0.20538835244E+02  0.00000000000E+00 0. -1.
</event>
<event>
 7    1  0.3305651E-013  0.7246161E+02  0.7816164E-02  0.1226708E+00
        -11   -1    0    0    0    0  0.00000000000E+00  0.00000000000E+00  0.45593999997E+02  0.45594000000E+02  0.51100000000E-03 0.  1.
         11   -1    0    0    0    0 -0.00000000000E+00 -0.00000000000E+00 -0.45593999997E+02  0.45594000000E+02  0.51100000000E-03 0. -1.
    9900012    2    1    2    0    0 -0.66803780409E+01  0.17429006335E+02  0.15099196709E+01  0.72461613002E+02  0.70000055634E+02 0.  0.
         12    1    1    2    0    0  0.66803780409E+01 -0.17429006335E+02 -0.15099196709E+01  0.18726386998E+02  0.00000000000E+00 0. -1.
         11    1    3    3    0    0  0.12427447307E+02 -0.31734942451E+01  0.12375491991E+02  0.17823167917E+02  0.51100000000E-03 0. -1.
        -11    1    3    3    0    0 -0.10997750436E+02  0.18868763866E+02  0.15642135307E+02  0.26863677368E+02  0.51100000000E-03 0.  1.
         12    1    3    3    0    0 -0.81100749122E+01  0.17337367137E+01 -0.26507707628E+02  0.27774767717E+02  0.00000000000E+00 0. -1.
</event>
<event>
 7    1  0.3305651E-013  0.7246153E+02  0.7816164E-02  0.1226708E+00
        -11   -1    0    0    0    0  0.00000000000E+00  0.00000000000E+00  0.45593999997E+02  0.45594000000E+02  0.51100000000E-03 0. -1.
         11   -1    0    0    0    0 -0.00000000000E+00 -0.00000000000E+00 -0.45593999997E+02  0.45594000000E+02  0.51100000000E-03 0.  1.
    9900012    2    1    2    0    0 -0.10198393984E+02  0.60115407811E+00 -0.15694331418E+02  0.72461530372E+02  0.69999947994E+02 0.  0.
         12    1    1    2    0    0  0.10198393984E+02 -0.60115407811E+00  0.15694331418E+02  0.18726469628E+02  0.00000000000E+00 0. -1.
         11    1    3    3    0    0  0.81964647994E+01  0.46059377637E+01 -0.27454742929E+01  0.97946070491E+01  0.51100000000E-03 0. -1.
        -11    1    3    3    0    0  0.28736219085E+01  0.46249778202E+01 -0.32232350968E+02  0.32689028311E+02  0.51100000000E-03 0.  1.
         12    1    3    3    0    0 -0.21268480691E+02 -0.86297615058E+01  0.19283493843E+02  0.29977895012E+02  0.00000000000E+00 0. -1.
</event>
<event>
 7    1  0.3305651E-013  0.7246160E+02  0.7816164E-02  0.1226708E+00
        -11   -1    0    0    0    0  0.00000000000E+00  0.00000000000E+00  0.45593999997E+02  0.45594000000E+02  0.51100000000E-03 0.  1.
         11   -1    0    0    0    0 -0.00000000000E+00 -0.00000000000E+00 -0.45593999997E+02  0.45594000000E+02  0.51100000000E-03 0. -1.
    9900012    2    1    2    0    0 -0.68373474647E+01 -0.10623643127E+02  0.13822696668E+02  0.72461600004E+02  0.70000038702E+02 0.  0.
         12    1    1    2    0    0  0.68373474647E+01  0.10623643127E+02 -0.13822696668E+02  0.18726399996E+02  0.00000000000E+00 0. -1.
         11    1    3    3    0    0  0.10671940282E+02 -0.11895696978E+02  0.18499165657E+02  0.24446207196E+02  0.51100000000E-03 0. -1.
        -11    1    3    3    0    0  0.15559689816E+01 -0.12462342477E+02  0.13403030296E+02  0.18367695578E+02  0.51100000000E-03 0.  1.
         12    1    3    3    0    0 -0.19065256728E+02  0.13734396328E+02 -0.18079499285E+02  0.29647697230E+02  0.00000000000E+00 0. -1.
</event>
<event>
 7    1  0.3305651E-013  0.7246153E+02  0.7816164E-02  0.1226708E+00
        -11   -1    0    0    0    0  0.00000000000E+00  0.00000000000E+00  0.45593999997E+02  0.45594000000E+02  0.51100000000E-03 0.  1.
         11   -1    0    0    0    0 -0.00000000000E+00 -0.00000000000E+00 -0.45593999997E+02  0.45594000000E+02  0.51100000000E-03 0. -1.
    9900012    2    1    2    0    0  0.70053843276E+01  0.13938164464E+02  0.10360153287E+02  0.72461531718E+02  0.69999949747E+02 0.  0.
         12    1    1    2    0    0 -0.70053843276E+01 -0.13938164464E+02 -0.10360153287E+02  0.18726468282E+02  0.00000000000E+00 0. -1.
         11    1    3    3    0    0 -0.19877983632E+02  0.18729517956E+02  0.13488403738E+02  0.30460894797E+02  0.51100000000E-03 0. -1.
        -11    1    3    3    0    0 -0.72785931994E+01 -0.18360392739E+01 -0.16110862792E+01  0.76775359613E+01  0.51100000000E-03 0.  1.
        -12    1    3    3    0    0  0.34161961159E+02 -0.29553142184E+01 -0.15171641718E+01  0.34323100960E+02  0.00000000000E+00 0.  1.
</event>
<event>
 7    1  0.3305651E-013  0.7246153E+02  0.7816164E-02  0.1226708E+00
        -11   -1    0    0    0    0  0.00000000000E+00  0.00000000000E+00  0.45593999997E+02  0.45594000000E+02  0.51100000000E-03 0.  1.
         11   -1    0    0    0    0 -0.00000000000E+00 -0.00000000000E+00 -0.45593999997E+02  0.45594000000E+02  0.51100000000E-03 0. -1.
    9900012    2    1    2    0    0  0.63293575661E+01 -0.17573189297E+02 -0.13427526594E+01  0.72461528524E+02  0.69999945586E+02 0.  0.
         12    1    1    2    0    0 -0.63293575661E+01  0.17573189297E+02  0.13427526594E+01  0.18726471476E+02  0.00000000000E+00 0. -1.
         11    1    3    3    0    0 -0.54247509309E+01 -0.18612584424E+02 -0.72570958956E+01  0.20700764785E+02  0.51100000000E-03 0. -1.
        -11    1    3    3    0    0  0.28364365200E+02  0.85644123130E+01 -0.56564425376E+01  0.30164245621E+02  0.51100000000E-03 0.  1.
         12    1    3    3    0    0 -0.16610256703E+02 -0.75250171856E+01  0.11570785774E+02  0.21596518117E+02  0.00000000000E+00 0. -1.
</event>
<event>
 7    1  0.3305651E-013  0.7246152E+02  0.7816164E-02  0.1226708E+00
        -11   -1    0    0    0    0  0.00000000000E+00  0.00000000000E+00  0.45593999997E+02  0.45594000000E+02  0.51100000000E-03 0.  1.
         11   -1    0    0    0    0 -0.00000000000E+00 -0.00000000000E+00 -0.45593999997E+02  0.45594000000E+02  0.51100000000E-03 0. -1.
    9900012    2    1    2    0    0  0.12924795539E+02 -0.35737592657E+01 -0.13071304055E+02  0.72461519159E+02  0.69999933387E+02 0.  0.
         12    1    1    2    0    0 -0.12924795539E+02  0.35737592657E+01  0.13071304055E+02  0.18726480841E+02  0.00000000000E+00 0. -1.
         11    1    3    3    0    0 -0.16815314880E+01  0.33521596031E+01  0.29414230757E+01  0.47661821326E+01  0.51100000000E-03 0. -1.
        -11    1    3    3    0    0  0.17680136274E+02  0.26038722391E+02 -0.13963111212E+01  0.31504792769E+02  0.51100000000E-03 0.  1.
         12    1    3    3    0    0 -0.30738092477E+01 -0.32964641260E+02 -0.14616416009E+02  0.36190544257E+02  0.00000000000E+00 0. -1.
</event>
<event>
 7    1  0.3305651E-013  0.7246165E+02  0.7816164E-02  0.1226708E+00
        -11   -1    0    0    0    0  0.00000000000E+00  0.00000000000E+00  0.45593999997E+02  0.45594000000E+02  0.51100000000E-03 0.  1.
         11   -1    0    0    0    0 -0.00000000000E+00 -0.00000000000E+00 -0.45593999997E+02  0.45594000000E+02  0.51100000000E-03 0. -1.
    9900012    2    1    2    0    0  0.15560011338E+02 -0.84575096501E+01  0.60854602806E+01  0.72461648269E+02  0.70000101576E+02 0.  0.
         12    1    1    2    0    0 -0.15560011338E+02  0.84575096501E+01 -0.60854602806E+01  0.18726351731E+02  0.00000000000E+00 0. -1.
         11    1    3    3    0    0 -0.55326000461E+01  0.17921958355E+01  0.21964762862E+02  0.22721629277E+02  0.51100000000E-03 0. -1.
        -11    1    3    3    0    0  0.16415931589E+02 -0.11989935893E+02  0.10508999857E+02  0.22884065437E+02  0.51100000000E-03 0.  1.
         12    1    3    3    0    0  0.46766797955E+01  0.17402304072E+01 -0.26388302438E+02  0.26855953555E+02  0.00000000000E+00 0. -1.
</event>
<event>
 7    1  0.3305651E-013  0.7246196E+02  0.7816164E-02  0.1226707E+00
        -11   -1    0    0    0    0  0.00000000000E+00  0.00000000000E+00  0.45593999997E+02  0.45594000000E+02  0.51100000000E-03 0.  1.
         11   -1    0    0    0    0 -0.00000000000E+00 -0.00000000000E+00 -0.45593999997E+02  0.45594000000E+02  0.51100000000E-03 0. -1.
    9900012    2    1    2    0    0  0.11935129602E+02  0.14277857234E+02 -0.20880951402E+01  0.72461957515E+02  0.70000504425E+02 0.  0.
         12    1    1    2    0    0 -0.11935129602E+02 -0.14277857234E+02  0.20880951402E+01  0.18726042485E+02  0.00000000000E+00 0. -1.
         11    1    3    3    0    0 -0.96318886741E+00  0.16238664954E+02  0.38983757520E+01  0.16727800395E+02  0.51100000000E-03 0. -1.
        -11    1    3    3    0    0 -0.36676777625E+01  0.83797048218E+01  0.20720134500E+02  0.22649399264E+02  0.51100000000E-03 0.  1.
         12    1    3    3    0    0  0.16565996232E+02 -0.10340512542E+02 -0.26706605393E+02  0.33084757856E+02  0.00000000000E+00 0. -1.
</event>
<event>
 7    1  0.3305651E-013  0.7246157E+02  0.7816164E-02  0.1226708E+00
        -11   -1    0    0    0    0  0.00000000000E+00  0.00000000000E+00  0.45593999997E+02  0.45594000000E+02  0.51100000000E-03 0. -1.
         11   -1    0    0    0    0 -0.00000000000E+00 -0.00000000000E+00 -0.45593999997E+02  0.45594000000E+02  0.51100000000E-03 0.  1.
    9900012    2    1    2    0    0 -0.14734572582E+02 -0.48926100534E+01  0.10470628874E+02  0.72461565975E+02  0.69999994373E+02 0.  0.
         12    1    1    2    0    0  0.14734572582E+02  0.48926100534E+01 -0.10470628874E+02  0.18726434025E+02  0.00000000000E+00 0. -1.
         11    1    3    3    0    0 -0.50182353872E+01 -0.19919995289E+01  0.15741830816E+02  0.16641994658E+02  0.51100000000E-03 0. -1.
        -11    1    3    3    0    0  0.19123865179E+02 -0.91416995868E+01  0.90167064928E+01  0.23034623656E+02  0.51100000000E-03 0.  1.
         12    1    3    3    0    0 -0.28840202374E+02  0.62410890624E+01 -0.14287908435E+02  0.32784947660E+02  0.00000000000E+00 0. -1.
</event>
<event>
 7    1  0.3305651E-013  0.7246152E+02  0.7816164E-02  0.1226708E+00
        -11   -1    0    0    0    0  0.00000000000E+00  0.00000000000E+00  0.45593999997E+02  0.45594000000E+02  0.51100000000E-03 0.  1.
         11   -1    0    0    0    0 -0.00000000000E+00 -0.00000000000E+00 -0.45593999997E+02  0.45594000000E+02  0.51100000000E-03 0. -1.
    9900012    2    1    2    0    0  0.79899562330E+01 -0.35777925676E+01  0.16554180398E+02  0.72461524387E+02  0.69999940197E+02 0.  0.
         12    1    1    2    0    0 -0.79899562330E+01  0.35777925676E+01 -0.16554180398E+02  0.18726475613E+02  0.00000000000E+00 0. -1.
         11    1    3    3    0    0 -0.88096852371E+01 -0.23538624610E+02  0.56235052225E+01  0.25754634801E+02  0.51100000000E-03 0. -1.
        -11    1    3    3    0    0  0.20330975734E+02 -0.40341504183E+01  0.18519196129E+01  0.20809914714E+02  0.51100000000E-03 0.  1.
         12    1    3    3    0    0 -0.35313342637E+01  0.23994982460E+02  0.90787555621E+01  0.25896974872E+02  0.00000000000E+00 0. -1.
</event>
<event>
 7    1  0.3305651E-013  0.7246159E+02  0.7816164E-02  0.1226708E+00
        -11   -1    0    0    0    0  0.00000000000E+00  0.00000000000E+00  0.45593999997E+02  0.45594000000E+02  0.51100000000E-03 0.  1.
         11   -1    0    0    0    0 -0.00000000000E+00 -0.00000000000E+00 -0.45593999997E+02  0.45594000000E+02  0.51100000000E-03 0. -1.
    9900012    2    1    2    0    0 -0.13434938409E+02 -0.11281351713E+02  0.65507190768E+01  0.72461591189E+02  0.70000027220E+02 0.  0.
         12    1    1    2    0    0  0.13434938409E+02  0.11281351713E+02 -0.65507190768E+01  0.18726408811E+02  0.00000000000E+00 0. -1.
         11    1    3    3    0    0 -0.14879342185E+02 -0.22279030838E+01 -0.13878278173E+02  0.20468634085E+02  0.51100000000E-03 0. -1.
        -11    1    3    3    0    0 -0.16928677255E+02  0.11310243762E+02  0.95339839922E+01  0.22481071562E+02  0.51100000000E-03 0.  1.
         12    1    3    3    0    0  0.18373081031E+02 -0.20363692391E+02  0.10895013257E+02  0.29511885542E+02  0.00000000000E+00 0. -1.
</event>
<event>
 7    1  0.3305651E-013  0.7246157E+02  0.7816164E-02  0.1226708E+00
        -11   -1    0    0    0    0  0.00000000000E+00  0.00000000000E+00  0.45593999997E+02  0.45594000000E+02  0.51100000000E-03 0. -1.
         11   -1    0    0    0    0 -0.00000000000E+00 -0.00000000000E+00 -0.45593999997E+02  0.45594000000E+02  0.51100000000E-03 0.  1.
    9900012    2    1    2    0    0  0.17434929172E+02 -0.17488966798E+00 -0.68316890363E+01  0.72461566364E+02  0.69999994880E+02 0.  0.
         12    1    1    2    0    0 -0.17434929172E+02  0.17488966798E+00  0.68316890363E+01  0.18726433636E+02  0.00000000000E+00 0. -1.
         11    1    3    3    0    0 -0.12939931306E+02  0.89183876497E+01  0.83592093439E+01  0.17800444983E+02  0.51100000000E-03 0. -1.
        -11    1    3    3    0    0 -0.64734223166E+01 -0.96410021298E+01  0.49962689064E+01  0.12641867813E+02  0.51100000000E-03 0.  1.
        -12    1    3    3    0    0  0.36848282795E+02  0.54772481208E+00 -0.20187167287E+02  0.42019253568E+02  0.00000000000E+00 0.  1.
</event>
<event>
 7    1  0.3305651E-013  0.7246155E+02  0.7816164E-02  0.1226708E+00
        -11   -1    0    0    0    0  0.00000000000E+00  0.00000000000E+00  0.45593999997E+02  0.45594000000E+02  0.51100000000E-03 0.  1.
         11   -1    0    0    0    0 -0.00000000000E+00 -0.00000000000E+00 -0.45593999997E+02  0.45594000000E+02  0.51100000000E-03 0. -1.
    9900012    2    1    2    0    0  0.13276236969E+02 -0.77202427280E+01  0.10715381077E+02  0.72461547921E+02  0.69999970855E+02 0.  0.
         12    1    1    2    0    0 -0.13276236969E+02  0.77202427280E+01 -0.10715381077E+02  0.18726452079E+02  0.00000000000E+00 0. -1.
         11    1    3    3    0    0  0.26814669383E+02 -0.10217002062E+02  0.21816018305E+02  0.36046529378E+02  0.51100000000E-03 0. -1.
        -11    1    3    3    0    0  0.74499435745E+01  0.73944914843E+01 -0.10511039461E+02  0.14854700077E+02  0.51100000000E-03 0.  1.
         12    1    3    3    0    0 -0.20988375988E+02 -0.48977321504E+01 -0.58959776699E+00  0.21560318466E+02  0.00000000000E+00 0. -1.
</event>
<event>
 7    1  0.3305651E-013  0.7246148E+02  0.7816164E-02  0.1226708E+00
        -11   -1    0    0    0    0  0.00000000000E+00  0.00000000000E+00  0.45593999997E+02  0.45594000000E+02  0.51100000000E-03 0.  1.
         11   -1    0    0    0    0 -0.00000000000E+00 -0.00000000000E+00 -0.45593999997E+02  0.45594000000E+02  0.51100000000E-03 0. -1.
    9900012    2    1    2    0    0 -0.18603951717E+02 -0.10899952466E+01 -0.18404878391E+01  0.72461481247E+02  0.69999883999E+02 0.  0.
         12    1    1    2    0    0  0.18603951717E+02  0.10899952466E+01  0.18404878391E+01  0.18726518753E+02  0.00000000000E+00 0. -1.
         11    1    3    3    0    0 -0.25761967550E+02  0.25729930971E+01 -0.65719194737E+00  0.25898478083E+02  0.51100000000E-03 0. -1.
        -11    1    3    3    0    0 -0.14388676763E+02 -0.60270595911E+01  0.13294682171E+02  0.20496537283E+02  0.51100000000E-03 0.  1.
         12    1    3    3    0    0  0.21546692596E+02  0.23640712474E+01 -0.14477978063E+02  0.26066465880E+02  0.00000000000E+00 0. -1.
</event>
<event>
 7    1  0.3305651E-013  0.7246173E+02  0.7816164E-02  0.1226708E+00
        -11   -1    0    0    0    0  0.00000000000E+00  0.00000000000E+00  0.45593999997E+02  0.45594000000E+02  0.51100000000E-03 0.  1.
         11   -1    0    0    0    0 -0.00000000000E+00 -0.00000000000E+00 -0.45593999997E+02  0.45594000000E+02  0.51100000000E-03 0. -1.
    9900012    2    1    2    0    0 -0.11600815954E+02 -0.14506975986E+02 -0.23752556511E+01  0.72461731753E+02  0.70000210329E+02 0.  0.
         12    1    1    2    0    0  0.11600815954E+02  0.14506975986E+02  0.23752556511E+01  0.18726268247E+02  0.00000000000E+00 0. -1.
         11    1    3    3    0    0 -0.20752131191E+02 -0.91997485088E+01  0.19873312386E+01  0.22786746308E+02  0.51100000000E-03 0. -1.
        -11    1    3    3    0    0 -0.70816498177E+01  0.18434152462E+01  0.18989063232E+02  0.20350244879E+02  0.51100000000E-03 0.  1.
        -12    1    3    3    0    0  0.16232965055E+02 -0.71506427239E+01 -0.23351650122E+02  0.29324740566E+02  0.00000000000E+00 0.  1.
</event>
<event>
 7    1  0.3305651E-013  0.7246151E+02  0.7816164E-02  0.1226708E+00
        -11   -1    0    0    0    0  0.00000000000E+00  0.00000000000E+00  0.45593999997E+02  0.45594000000E+02  0.51100000000E-03 0.  1.
         11   -1    0    0    0    0 -0.00000000000E+00 -0.00000000000E+00 -0.45593999997E+02  0.45594000000E+02  0.51100000000E-03 0. -1.
    9900012    2    1    2    0    0 -0.91641314387E+00 -0.16362404016E+02 -0.90616486602E+01  0.72461506610E+02  0.69999917040E+02 0.  0.
         12    1    1    2    0    0  0.91641314387E+00  0.16362404016E+02  0.90616486602E+01  0.18726493390E+02  0.00000000000E+00 0. -1.
         11    1    3    3    0    0 -0.31423603638E+02 -0.78647659835E+01 -0.19775877687E+02  0.37952374736E+02  0.51100000000E-03 0. -1.
        -11    1    3    3    0    0  0.15722170085E+01  0.22763222686E+00 -0.12334967699E+01  0.20112675841E+01  0.51100000000E-03 0.  1.
        -12    1    3    3    0    0  0.28934973485E+02 -0.87252702594E+01  0.11947725797E+02  0.32497864290E+02  0.00000000000E+00 0.  1.
</event>
<event>
 7    1  0.3305651E-013  0.7246161E+02  0.7816164E-02  0.1226708E+00
        -11   -1    0    0    0    0  0.00000000000E+00  0.00000000000E+00  0.45593999997E+02  0.45594000000E+02  0.51100000000E-03 0.  1.
         11   -1    0    0    0    0 -0.00000000000E+00 -0.00000000000E+00 -0.45593999997E+02  0.45594000000E+02  0.51100000000E-03 0. -1.
    9900012    2    1    2    0    0 -0.44700877929E+01  0.40781622335E+01  0.17721869122E+02  0.72461608536E+02  0.70000049817E+02 0.  0.
         12    1    1    2    0    0  0.44700877929E+01 -0.40781622335E+01 -0.17721869122E+02  0.18726391464E+02  0.00000000000E+00 0. -1.
         11    1    3    3    0    0  0.74593474993E+01 -0.13103485730E+02  0.94724665233E+01  0.17806482687E+02  0.51100000000E-03 0. -1.
        -11    1    3    3    0    0  0.69354905664E+01 -0.11563919469E+02  0.14398366794E+02  0.19726586868E+02  0.51100000000E-03 0.  1.
         12    1    3    3    0    0 -0.18864925858E+02  0.28745567432E+02 -0.61489641947E+01  0.34928538981E+02  0.00000000000E+00 0. -1.
</event>
<event>
 7    1  0.3305651E-013  0.7246096E+02  0.7816164E-02  0.1226710E+00
        -11   -1    0    0    0    0  0.00000000000E+00  0.00000000000E+00  0.45593999997E+02  0.45594000000E+02  0.51100000000E-03 0.  1.
         11   -1    0    0    0    0 -0.00000000000E+00 -0.00000000000E+00 -0.45593999997E+02  0.45594000000E+02  0.51100000000E-03 0. -1.
    9900012    2    1    2    0    0  0.54158314409E+01 -0.19160263604E+01  0.17824129045E+02  0.72460961702E+02  0.69999207191E+02 0.  0.
         12    1    1    2    0    0 -0.54158314409E+01  0.19160263604E+01 -0.17824129045E+02  0.18727038298E+02  0.00000000000E+00 0. -1.
         11    1    3    3    0    0  0.20032690503E+02 -0.13697550434E+02  0.15717912194E+01  0.24318760342E+02  0.51100000000E-03 0. -1.
        -11    1    3    3    0    0 -0.24368844968E+02 -0.36453584123E+01  0.16902028296E+02  0.29879889621E+02  0.51100000000E-03 0.  1.
         12    1    3    3    0    0  0.97519859055E+01  0.15426882486E+02 -0.64969047069E+00  0.18262311738E+02  0.00000000000E+00 0. -1.
</event>
<event>
 7    1  0.3305651E-013  0.7246169E+02  0.7816164E-02  0.1226708E+00
        -11   -1    0    0    0    0  0.00000000000E+00  0.00000000000E+00  0.45593999997E+02  0.45594000000E+02  0.51100000000E-03 0.  1.
         11   -1    0    0    0    0 -0.00000000000E+00 -0.00000000000E+00 -0.45593999997E+02  0.45594000000E+02  0.51100000000E-03 0. -1.
    9900012    2    1    2    0    0  0.42591414732E+01  0.13480440285E+02  0.12280563183E+02  0.72461687270E+02  0.70000152382E+02 0.  0.
         12    1    1    2    0    0 -0.42591414732E+01 -0.13480440285E+02 -0.12280563183E+02  0.18726312730E+02  0.00000000000E+00 0. -1.
         11    1    3    3    0    0  0.49808146286E+01  0.12474225613E+02 -0.11017911551E+02  0.17372656509E+02  0.51100000000E-03 0. -1.
        -11    1    3    3    0    0 -0.45313443993E+01  0.23668186447E+02  0.27367397731E+01  0.24252956038E+02  0.51100000000E-03 0.  1.
         12    1    3    3    0    0  0.38096712439E+01 -0.22661971774E+02  0.20561734961E+02  0.30836074722E+02  0.00000000000E+00 0. -1.
</event>
<event>
 7    1  0.3305651E-013  0.7246154E+02  0.7816164E-02  0.1226708E+00
        -11   -1    0    0    0    0  0.00000000000E+00  0.00000000000E+00  0.45593999997E+02  0.45594000000E+02  0.51100000000E-03 0. -1.
         11   -1    0    0    0    0 -0.00000000000E+00 -0.00000000000E+00 -0.45593999997E+02  0.45594000000E+02  0.51100000000E-03 0.  1.
    9900012    2    1    2    0    0 -0.14498136614E+02 -0.10146494818E+02 -0.61264145403E+01  0.72461540711E+02  0.69999961463E+02 0.  0.
         12    1    1    2    0    0  0.14498136614E+02  0.10146494818E+02  0.61264145403E+01  0.18726459289E+02  0.00000000000E+00 0. -1.
         11    1    3    3    0    0 -0.70317349064E+01 -0.79380615287E+01 -0.15648347481E+02  0.18903145129E+02  0.51100000000E-03 0. -1.
        -11    1    3    3    0    0 -0.16389489962E+02 -0.21446671112E+02 -0.55299945054E+01  0.27552784296E+02  0.51100000000E-03 0.  1.
         12    1    3    3    0    0  0.89230882545E+01  0.19238237822E+02  0.15051927446E+02  0.26005611286E+02  0.00000000000E+00 0. -1.
</event>
<event>
 7    1  0.3305651E-013  0.7246158E+02  0.7816164E-02  0.1226708E+00
        -11   -1    0    0    0    0  0.00000000000E+00  0.00000000000E+00  0.45593999997E+02  0.45594000000E+02  0.51100000000E-03 0.  1.
         11   -1    0    0    0    0 -0.00000000000E+00 -0.00000000000E+00 -0.45593999997E+02  0.45594000000E+02  0.51100000000E-03 0. -1.
    9900012    2    1    2    0    0  0.21220266189E+01 -0.19145144595E+01  0.18507034347E+02  0.72461583287E+02  0.70000016925E+02 0.  0.
         12    1    1    2    0    0 -0.21220266189E+01  0.19145144595E+01 -0.18507034347E+02  0.18726416713E+02  0.00000000000E+00 0. -1.
         11    1    3    3    0    0  0.14127242106E+01  0.75720041412E+00 -0.53653140873E+01  0.55996194227E+01  0.51100000000E-03 0. -1.
        -11    1    3    3    0    0 -0.58255603558E+01  0.22640597656E+02  0.31868769041E+02  0.39524071856E+02  0.51100000000E-03 0.  1.
         12    1    3    3    0    0  0.65348627642E+01 -0.25312312529E+02 -0.79964206059E+01  0.27337892008E+02  0.00000000000E+00 0. -1.
</event>
<event>
 7    1  0.3305651E-013  0.7246155E+02  0.7816164E-02  0.1226708E+00
        -11   -1    0    0    0    0  0.00000000000E+00  0.00000000000E+00  0.45593999997E+02  0.45594000000E+02  0.51100000000E-03 0. -1.
         11   -1    0    0    0    0 -0.00000000000E+00 -0.00000000000E+00 -0.45593999997E+02  0.45594000000E+02  0.51100000000E-03 0.  1.
    9900012    2    1    2    0    0 -0.14018025224E+01  0.30501276286E+01 -0.18423125053E+02  0.72461551710E+02  0.69999975790E+02 0.  0.
         12    1    1    2    0    0  0.14018025224E+01 -0.30501276286E+01  0.18423125053E+02  0.18726448290E+02  0.00000000000E+00 0. -1.
         11    1    3    3    0    0  0.77437329449E+00 -0.37029359400E+01 -0.10172058714E+01  0.39174094273E+01  0.51100000000E-03 0. -1.
        -11    1    3    3    0    0  0.41661035427E+01 -0.26453032171E+02 -0.21698220224E+02  0.34466390743E+02  0.51100000000E-03 0.  1.
         12    1    3    3    0    0 -0.63422793596E+01  0.33206095739E+02  0.42923010423E+01  0.34077751539E+02  0.00000000000E+00 0. -1.
</event>
<event>
 7    1  0.3305651E-013  0.7246150E+02  0.7816164E-02  0.1226708E+00
        -11   -1    0    0    0    0  0.00000000000E+00  0.00000000000E+00  0.45593999997E+02  0.45594000000E+02  0.51100000000E-03 0. -1.
         11   -1    0    0    0    0 -0.00000000000E+00 -0.00000000000E+00 -0.45593999997E+02  0.45594000000E+02  0.51100000000E-03 0.  1.
    9900012    2    1    2    0    0  0.90945639684E+01 -0.13491785467E+02 -0.92705194113E+01  0.72461497416E+02  0.69999905063E+02 0.  0.
         12    1    1    2    0    0 -0.90945639684E+01  0.13491785467E+02  0.92705194113E+01  0.18726502584E+02  0.00000000000E+00 0. -1.
         11    1    3    3    0    0  0.33852229550E+01 -0.33694275554E+01  0.31406235656E+01  0.57163181462E+01  0.51100000000E-03 0. -1.
        -11    1    3    3    0    0  0.19632951617E+02  0.10426206217E+02  0.17199862946E+02  0.28106829257E+02  0.51100000000E-03 0.  1.
         12    1    3    3    0    0 -0.13923610603E+02 -0.20548564129E+02 -0.29611005923E+02  0.38638350013E+02  0.00000000000E+00 0. -1.
</event>
<event>
 7    1  0.3305651E-013  0.7246153E+02  0.7816164E-02  0.1226708E+00
        -11   -1    0    0    0    0  0.00000000000E+00  0.00000000000E+00  0.45593999997E+02  0.45594000000E+02  0.51100000000E-03 0.  1.
         11   -1    0    0    0    0 -0.00000000000E+00 -0.00000000000E+00 -0.45593999997E+02  0.45594000000E+02  0.51100000000E-03 0. -1.
    9900012    2    1    2    0    0 -0.83829633621E+01  0.13153191294E+01  0.16693603647E+02  0.72461533652E+02  0.69999952267E+02 0.  0.
         12    1    1    2    0    0  0.83829633621E+01 -0.13153191294E+01 -0.16693603647E+02  0.18726466348E+02  0.00000000000E+00 0. -1.
         11    1    3    3    0    0 -0.11652920557E+00  0.24442597265E+01 -0.14568994949E+02  0.14773070051E+02  0.51100000000E-03 0. -1.
        -11    1    3    3    0    0 -0.23950021447E+02  0.72105376313E+01  0.42672831162E+01  0.25373314440E+02  0.51100000000E-03 0.  1.
        -12    1    3    3    0    0  0.15683587290E+02 -0.83394782284E+01  0.26995315480E+02  0.32315149161E+02  0.00000000000E+00 0.  1.
</event>
<event>
 7    1  0.3305651E-013  0.7246160E+02  0.7816164E-02  0.1226708E+00
        -11   -1    0    0    0    0  0.00000000000E+00  0.00000000000E+00  0.45593999997E+02  0.45594000000E+02  0.51100000000E-03 0.  1.
         11   -1    0    0    0    0 -0.00000000000E+00 -0.00000000000E+00 -0.45593999997E+02  0.45594000000E+02  0.51100000000E-03 0. -1.
    9900012    2    1    2    0    0  0.45387932782E+01  0.38861201730E+01  0.17747547249E+02  0.72461601313E+02  0.70000040407E+02 0.  0.
         12    1    1    2    0    0 -0.45387932782E+01 -0.38861201730E+01 -0.17747547249E+02  0.18726398687E+02  0.00000000000E+00 0. -1.
         11    1    3    3    0    0 -0.17117045611E+02  0.84048018316E+01 -0.59346044257E+01  0.19971316287E+02  0.51100000000E-03 0. -1.
        -11    1    3    3    0    0 -0.65612762916E+01 -0.13124271768E+02  0.20275071882E-01  0.14673011530E+02  0.51100000000E-03 0.  1.
        -12    1    3    3    0    0  0.28217115181E+02  0.86055901093E+01  0.23661876603E+02  0.37817273496E+02  0.00000000000E+00 0.  1.
</event>
<event>
 7    1  0.3305651E-013  0.7246222E+02  0.7816164E-02  0.1226706E+00
        -11   -1    0    0    0    0  0.00000000000E+00  0.00000000000E+00  0.45593999997E+02  0.45594000000E+02  0.51100000000E-03 0. -1.
         11   -1    0    0    0    0 -0.00000000000E+00 -0.00000000000E+00 -0.45593999997E+02  0.45594000000E+02  0.51100000000E-03 0.  1.
    9900012    2    1    2    0    0 -0.16086501499E+02 -0.89735498208E+01 -0.33696992294E+01  0.72462215643E+02  0.70000840682E+02 0.  0.
         12    1    1    2    0    0  0.16086501499E+02  0.89735498208E+01  0.33696992294E+01  0.18725784357E+02  0.00000000000E+00 0. -1.
         11    1    3    3    0    0  0.23836719315E+01 -0.65168489193E+01  0.10500823532E+01  0.70181112077E+01  0.51100000000E-03 0. -1.
        -11    1    3    3    0    0 -0.17450955253E+02 -0.31523643045E+02 -0.48471051304E+01  0.36356159567E+02  0.51100000000E-03 0.  1.
         12    1    3    3    0    0 -0.10192181778E+01  0.29066942143E+02  0.42732354774E+00  0.29087944869E+02  0.00000000000E+00 0. -1.
</event>
<event>
 7    1  0.3305651E-013  0.7246159E+02  0.7816164E-02  0.1226708E+00
        -11   -1    0    0    0    0  0.00000000000E+00  0.00000000000E+00  0.45593999997E+02  0.45594000000E+02  0.51100000000E-03 0.  1.
         11   -1    0    0    0    0 -0.00000000000E+00 -0.00000000000E+00 -0.45593999997E+02  0.45594000000E+02  0.51100000000E-03 0. -1.
    9900012    2    1    2    0    0 -0.12497183319E+02 -0.13306968841E+02  0.41741585565E+01  0.72461585226E+02  0.70000019451E+02 0.  0.
         12    1    1    2    0    0  0.12497183319E+02  0.13306968841E+02 -0.41741585565E+01  0.18726414774E+02  0.00000000000E+00 0. -1.
         11    1    3    3    0    0  0.18907536297E+02  0.15674137561E+02 -0.30646721650E+01  0.24750065310E+02  0.51100000000E-03 0. -1.
        -11    1    3    3    0    0  0.82312796516E+00 -0.29079075108E+01 -0.37590819031E+01  0.48232937661E+01  0.51100000000E-03 0.  1.
        -12    1    3    3    0    0 -0.32227847581E+02 -0.26073198891E+02  0.10997912625E+02  0.42888226149E+02  0.00000000000E+00 0.  1.
</event>
<event>
 7    1  0.3305651E-013  0.7246162E+02  0.7816164E-02  0.1226708E+00
        -11   -1    0    0    0    0  0.00000000000E+00  0.00000000000E+00  0.45593999997E+02  0.45594000000E+02  0.51100000000E-03 0.  1.
         11   -1    0    0    0    0 -0.00000000000E+00 -0.00000000000E+00 -0.45593999997E+02  0.45594000000E+02  0.51100000000E-03 0. -1.
    9900012    2    1    2    0    0 -0.16820493418E+02 -0.81100475625E+01  0.14055363966E+01  0.72461617464E+02  0.70000061448E+02 0.  0.
         12    1    1    2    0    0  0.16820493418E+02  0.81100475625E+01 -0.14055363966E+01  0.18726382536E+02  0.00000000000E+00 0. -1.
         11    1    3    3    0    0 -0.42336610248E+01  0.11331126019E+02 -0.49750355175E+01  0.13079345595E+02  0.51100000000E-03 0. -1.
        -11    1    3    3    0    0  0.48830326359E+01  0.14004084033E+02  0.14548416112E+02  0.20775340887E+02  0.51100000000E-03 0.  1.
        -12    1    3    3    0    0 -0.17469865030E+02 -0.33445257615E+02 -0.81678441978E+01  0.38606930983E+02  0.00000000000E+00 0.  1.
</event>
<event>
 7    1  0.3305651E-013  0.7246159E+02  0.7816164E-02  0.1226708E+00
        -11   -1    0    0    0    0  0.00000000000E+00  0.00000000000E+00  0.45593999997E+02  0.45594000000E+02  0.51100000000E-03 0.  1.
         11   -1    0    0    0    0 -0.00000000000E+00 -0.00000000000E+00 -0.45593999997E+02  0.45594000000E+02  0.51100000000E-03 0. -1.
    9900012    2    1    2    0    0 -0.57872715246E+01 -0.99212263496E+01  0.14790368669E+02  0.72461594863E+02  0.70000032006E+02 0.  0.
         12    1    1    2    0    0  0.57872715246E+01  0.99212263496E+01 -0.14790368669E+02  0.18726405137E+02  0.00000000000E+00 0. -1.
         11    1    3    3    0    0 -0.11167123010E+01 -0.13500956339E+01  0.17840303595E+02  0.17926132802E+02  0.51100000000E-03 0. -1.
        -11    1    3    3    0    0  0.19051452658E+02 -0.79150050157E+01  0.14331662483E+02  0.25119747263E+02  0.51100000000E-03 0.  1.
         12    1    3    3    0    0 -0.23722011881E+02 -0.65612569994E+00 -0.17381597409E+02  0.29415714799E+02  0.00000000000E+00 0. -1.
</event>
<event>
 7    1  0.3305651E-013  0.7246157E+02  0.7816164E-02  0.1226708E+00
        -11   -1    0    0    0    0  0.00000000000E+00  0.00000000000E+00  0.45593999997E+02  0.45594000000E+02  0.51100000000E-03 0.  1.
         11   -1    0    0    0    0 -0.00000000000E+00 -0.00000000000E+00 -0.45593999997E+02  0.45594000000E+02  0.51100000000E-03 0. -1.
    9900012    2    1    2    0    0  0.89064144462E+01 -0.11471173013E+02  0.11822315620E+02  0.72461570143E+02  0.69999999803E+02 0.  0.
         12    1    1    2    0    0 -0.89064144462E+01  0.11471173013E+02 -0.11822315620E+02  0.18726429857E+02  0.00000000000E+00 0. -1.
         11    1    3    3    0    0  0.79827546296E+01  0.27733344498E+01 -0.23090542459E+02  0.24588389674E+02  0.51100000000E-03 0. -1.
        -11    1    3    3    0    0 -0.11226419605E+01 -0.20397372275E+02  0.11215108501E+02  0.23304329632E+02  0.51100000000E-03 0.  1.
        -12    1    3    3    0    0  0.20463017771E+01  0.61528648121E+01  0.23697749578E+02  0.24568850837E+02  0.00000000000E+00 0.  1.
</event>
<event>
 7    1  0.3305651E-013  0.7246155E+02  0.7816164E-02  0.1226708E+00
        -11   -1    0    0    0    0  0.00000000000E+00  0.00000000000E+00  0.45593999997E+02  0.45594000000E+02  0.51100000000E-03 0. -1.
         11   -1    0    0    0    0 -0.00000000000E+00 -0.00000000000E+00 -0.45593999997E+02  0.45594000000E+02  0.51100000000E-03 0.  1.
    9900012    2    1    2    0    0  0.12465022841E+01 -0.15871329862E+02 -0.98603763384E+01  0.72461550762E+02  0.69999974556E+02 0.  0.
         12    1    1    2    0    0 -0.12465022841E+01  0.15871329862E+02  0.98603763384E+01  0.18726449238E+02  0.00000000000E+00 0. -1.
         11    1    3    3    0    0 -0.26179362966E+02 -0.86753707131E+01  0.41510386900E+01  0.27890002237E+02  0.51100000000E-03 0. -1.
        -11    1    3    3    0    0 -0.40004495175E+01 -0.40728405148E+01 -0.11563164240E+02  0.12895673449E+02  0.51100000000E-03 0.  1.
        -12    1    3    3    0    0  0.31426314768E+02 -0.31231186337E+01 -0.24482507885E+01  0.31675875076E+02  0.00000000000E+00 0.  1.
</event>
<event>
 7    1  0.3305651E-013  0.7246165E+02  0.7816164E-02  0.1226708E+00
        -11   -1    0    0    0    0  0.00000000000E+00  0.00000000000E+00  0.45593999997E+02  0.45594000000E+02  0.51100000000E-03 0. -1.
         11   -1    0    0    0    0 -0.00000000000E+00 -0.00000000000E+00 -0.45593999997E+02  0.45594000000E+02  0.51100000000E-03 0.  1.
    9900012    2    1    2    0    0 -0.17279911180E+02 -0.72165001839E+01  0.54675394472E-01  0.72461649723E+02  0.70000103471E+02 0.  0.
         12    1    1    2    0    0  0.17279911180E+02  0.72165001839E+01 -0.54675394472E-01  0.18726350277E+02  0.00000000000E+00 0. -1.
         11    1    3    3    0    0 -0.27230464621E+01  0.80566353051E+01  0.21574949384E+01  0.87737756494E+01  0.51100000000E-03 0. -1.
        -11    1    3    3    0    0 -0.28771837706E+02  0.99690182752E+01 -0.12490652966E+02  0.32912252766E+02  0.51100000000E-03 0.  1.
         12    1    3    3    0    0  0.14214972988E+02 -0.25242153764E+02  0.10387833422E+02  0.30775621308E+02  0.00000000000E+00 0. -1.
</event>
<event>
 7    1  0.3305651E-013  0.7246167E+02  0.7816164E-02  0.1226708E+00
        -11   -1    0    0    0    0  0.00000000000E+00  0.00000000000E+00  0.45593999997E+02  0.45594000000E+02  0.51100000000E-03 0. -1.
         11   -1    0    0    0    0 -0.00000000000E+00 -0.00000000000E+00 -0.45593999997E+02  0.45594000000E+02  0.51100000000E-03 0.  1.
    9900012    2    1    2    0    0  0.53177810937E+01  0.63159787362E+01 -0.16807886564E+02  0.72461670037E+02  0.70000129933E+02 0.  0.
         12    1    1    2    0    0 -0.53177810937E+01 -0.63159787362E+01  0.16807886564E+02  0.18726329963E+02  0.00000000000E+00 0. -1.
         11    1    3    3    0    0  0.10419264567E+01  0.10415070860E+02 -0.46762842387E+01  0.11464159206E+02  0.51100000000E-03 0. -1.
        -11    1    3    3    0    0 -0.25614043290E+01 -0.49540314152E+01 -0.35858874259E+02  0.36289972207E+02  0.51100000000E-03 0.  1.
         12    1    3    3    0    0  0.68372589659E+01  0.85493929100E+00  0.23727271934E+02  0.24707538623E+02  0.00000000000E+00 0. -1.
</event>
<event>
 7    1  0.3305651E-013  0.7246158E+02  0.7816164E-02  0.1226708E+00
        -11   -1    0    0    0    0  0.00000000000E+00  0.00000000000E+00  0.45593999997E+02  0.45594000000E+02  0.51100000000E-03 0.  1.
         11   -1    0    0    0    0 -0.00000000000E+00 -0.00000000000E+00 -0.45593999997E+02  0.45594000000E+02  0.51100000000E-03 0. -1.
    9900012    2    1    2    0    0 -0.14435392139E+02  0.12648840572E+01  0.11861626827E+02  0.72461583662E+02  0.70000017414E+02 0.  0.
         12    1    1    2    0    0  0.14435392139E+02 -0.12648840572E+01 -0.11861626827E+02  0.18726416338E+02  0.00000000000E+00 0. -1.
         11    1    3    3    0    0  0.51476029773E+01 -0.67733428760E+00  0.83863114454E+00  0.52592680676E+01  0.51100000000E-03 0. -1.
        -11    1    3    3    0    0 -0.10088606001E+02 -0.22919817879E+02  0.26463949314E+02  0.36434031292E+02  0.51100000000E-03 0.  1.
         12    1    3    3    0    0 -0.94943891153E+01  0.24862036224E+02 -0.15440953631E+02  0.30768284302E+02  0.00000000000E+00 0. -1.
</event>
<event>
 7    1  0.3305651E-013  0.7246164E+02  0.7816164E-02  0.1226708E+00
        -11   -1    0    0    0    0  0.00000000000E+00  0.00000000000E+00  0.45593999997E+02  0.45594000000E+02  0.51100000000E-03 0. -1.
         11   -1    0    0    0    0 -0.00000000000E+00 -0.00000000000E+00 -0.45593999997E+02  0.45594000000E+02  0.51100000000E-03 0.  1.
    9900012    2    1    2    0    0  0.13718238188E+02 -0.12542117055E+02  0.22763955774E+01  0.72461635270E+02  0.70000084642E+02 0.  0.
         12    1    1    2    0    0 -0.13718238188E+02  0.12542117055E+02 -0.22763955774E+01  0.18726364730E+02  0.00000000000E+00 0. -1.
         11    1    3    3    0    0 -0.18748907067E+01 -0.65924625260E+01  0.13623040723E+02  0.15250016922E+02  0.51100000000E-03 0. -1.
        -11    1    3    3    0    0 -0.55417899632E+01 -0.24808886518E+02  0.27559391289E+01  0.25569268410E+02  0.51100000000E-03 0.  1.
         12    1    3    3    0    0  0.21134918858E+02  0.18859231989E+02 -0.14102584275E+02  0.31642349938E+02  0.00000000000E+00 0. -1.
</event>
<event>
 7    1  0.3305651E-013  0.7246169E+02  0.7816164E-02  0.1226708E+00
        -11   -1    0    0    0    0  0.00000000000E+00  0.00000000000E+00  0.45593999997E+02  0.45594000000E+02  0.51100000000E-03 0. -1.
         11   -1    0    0    0    0 -0.00000000000E+00 -0.00000000000E+00 -0.45593999997E+02  0.45594000000E+02  0.51100000000E-03 0.  1.
    9900012    2    1    2    0    0  0.15392290420E+02  0.73719336398E+00 -0.10639962373E+02  0.72461685421E+02  0.70000149973E+02 0.  0.
         12    1    1    2    0    0 -0.15392290420E+02 -0.73719336398E+00  0.10639962373E+02  0.18726314579E+02  0.00000000000E+00 0. -1.
         11    1    3    3    0    0  0.14557090913E+02 -0.50244369322E+01  0.68129849240E+01  0.16839555403E+02  0.51100000000E-03 0. -1.
        -11    1    3    3    0    0 -0.68327297065E+01  0.24990289183E+02 -0.22500660064E+02  0.34314435042E+02  0.51100000000E-03 0.  1.
         12    1    3    3    0    0  0.76679292142E+01 -0.19228658887E+02  0.50477127670E+01  0.21307694976E+02  0.00000000000E+00 0. -1.
</event>
<event>
 7    1  0.3305651E-013  0.7246160E+02  0.7816164E-02  0.1226708E+00
        -11   -1    0    0    0    0  0.00000000000E+00  0.00000000000E+00  0.45593999997E+02  0.45594000000E+02  0.51100000000E-03 0. -1.
         11   -1    0    0    0    0 -0.00000000000E+00 -0.00000000000E+00 -0.45593999997E+02  0.45594000000E+02  0.51100000000E-03 0.  1.
    9900012    2    1    2    0    0 -0.18505786155E+01 -0.14004357780E+02 -0.12293546233E+02  0.72461602668E+02  0.70000042173E+02 0.  0.
         12    1    1    2    0    0  0.18505786155E+01  0.14004357780E+02  0.12293546233E+02  0.18726397332E+02  0.00000000000E+00 0. -1.
         11    1    3    3    0    0  0.28376215136E+01 -0.11275712846E+02  0.14309508290E+02  0.18437890980E+02  0.51100000000E-03 0. -1.
        -11    1    3    3    0    0 -0.57675128103E+01 -0.21003542096E+02 -0.28217361923E+02  0.35645932429E+02  0.51100000000E-03 0.  1.
        -12    1    3    3    0    0  0.10793126812E+01  0.18274897162E+02  0.16143073994E+01  0.18377779259E+02  0.00000000000E+00 0.  1.
</event>
<event>
 7    1  0.3305651E-013  0.7246155E+02  0.7816164E-02  0.1226708E+00
        -11   -1    0    0    0    0  0.00000000000E+00  0.00000000000E+00  0.45593999997E+02  0.45594000000E+02  0.51100000000E-03 0.  1.
         11   -1    0    0    0    0 -0.00000000000E+00 -0.00000000000E+00 -0.45593999997E+02  0.45594000000E+02  0.51100000000E-03 0. -1.
    9900012    2    1    2    0    0 -0.18184735287E+01  0.15456351136E+02  0.10415090545E+02  0.72461554863E+02  0.69999979897E+02 0.  0.
         12    1    1    2    0    0  0.18184735287E+01 -0.15456351136E+02 -0.10415090545E+02  0.18726445137E+02  0.00000000000E+00 0. -1.
         11    1    3    3    0    0 -0.53781571587E+01  0.21635959419E+02 -0.19117703797E+02  0.29368791482E+02  0.51100000000E-03 0. -1.
        -11    1    3    3    0    0  0.26729096056E+01  0.73342205163E+01 -0.25958905706E+01  0.82264138273E+01  0.51100000000E-03 0.  1.
        -12    1    3    3    0    0  0.88677402440E+00 -0.13513828799E+02  0.32128684913E+02  0.34866349553E+02  0.00000000000E+00 0.  1.
</event>
<event>
 7    1  0.3305651E-013  0.7246175E+02  0.7816164E-02  0.1226708E+00
        -11   -1    0    0    0    0  0.00000000000E+00  0.00000000000E+00  0.45593999997E+02  0.45594000000E+02  0.51100000000E-03 0.  1.
         11   -1    0    0    0    0 -0.00000000000E+00 -0.00000000000E+00 -0.45593999997E+02  0.45594000000E+02  0.51100000000E-03 0. -1.
    9900012    2    1    2    0    0 -0.10205984492E+02  0.24510018114E+01  0.15508161518E+02  0.72461745622E+02  0.70000228397E+02 0.  0.
         12    1    1    2    0    0  0.10205984492E+02 -0.24510018114E+01 -0.15508161518E+02  0.18726254378E+02  0.00000000000E+00 0. -1.
         11    1    3    3    0    0  0.34177763089E+01  0.41076344708E+00 -0.83643450264E+01  0.90450090928E+01  0.51100000000E-03 0. -1.
        -11    1    3    3    0    0 -0.64255284635E+01  0.59535301925E+01 -0.18388772553E+02  0.20368576142E+02  0.51100000000E-03 0.  1.
        -12    1    3    3    0    0 -0.71982323375E+01 -0.39132918281E+01  0.42261279098E+02  0.43048160387E+02  0.00000000000E+00 0.  1.
</event>
<event>
 7    1  0.3305651E-013  0.7246174E+02  0.7816164E-02  0.1226708E+00
        -11   -1    0    0    0    0  0.00000000000E+00  0.00000000000E+00  0.45593999997E+02  0.45594000000E+02  0.51100000000E-03 0.  1.
         11   -1    0    0    0    0 -0.00000000000E+00 -0.00000000000E+00 -0.45593999997E+02  0.45594000000E+02  0.51100000000E-03 0. -1.
    9900012    2    1    2    0    0  0.17271209402E+01  0.18645737209E+02 -0.16201670851E+00  0.72461742707E+02  0.70000224599E+02 0.  0.
         12    1    1    2    0    0 -0.17271209402E+01 -0.18645737209E+02  0.16201670851E+00  0.18726257293E+02  0.00000000000E+00 0. -1.
         11    1    3    3    0    0 -0.53531991086E+01 -0.19984046367E+01 -0.16812575143E+01  0.59562562805E+01  0.51100000000E-03 0. -1.
        -11    1    3    3    0    0  0.21693879678E+02 -0.10088720499E+02 -0.15448924607E+02  0.28479395509E+02  0.51100000000E-03 0.  1.
         12    1    3    3    0    0 -0.14613559629E+02  0.30732862345E+02  0.16968165413E+02  0.38026090917E+02  0.00000000000E+00 0. -1.
</event>
<event>
 7    1  0.3305651E-013  0.7246159E+02  0.7816164E-02  0.1226708E+00
        -11   -1    0    0    0    0  0.00000000000E+00  0.00000000000E+00  0.45593999997E+02  0.45594000000E+02  0.51100000000E-03 0.  1.
         11   -1    0    0    0    0 -0.00000000000E+00 -0.00000000000E+00 -0.45593999997E+02  0.45594000000E+02  0.51100000000E-03 0. -1.
    9900012    2    1    2    0    0 -0.72686443323E+01  0.13366209446E+02  0.10917411351E+02  0.72461585074E+02  0.70000019253E+02 0.  0.
         12    1    1    2    0    0  0.72686443323E+01 -0.13366209446E+02 -0.10917411351E+02  0.18726414926E+02  0.00000000000E+00 0. -1.
         11    1    3    3    0    0  0.11398182613E+01 -0.24974419981E+00 -0.14659102688E+02  0.14705470061E+02  0.51100000000E-03 0. -1.
        -11    1    3    3    0    0  0.44877787839E+01 -0.16349363313E+02  0.11329881466E+01  0.16991924598E+02  0.51100000000E-03 0.  1.
        -12    1    3    3    0    0 -0.12896241378E+02  0.29965316959E+02  0.24443525892E+02  0.40764190415E+02  0.00000000000E+00 0.  1.
</event>
<event>
 7    1  0.3305651E-013  0.7246159E+02  0.7816164E-02  0.1226708E+00
        -11   -1    0    0    0    0  0.00000000000E+00  0.00000000000E+00  0.45593999997E+02  0.45594000000E+02  0.51100000000E-03 0. -1.
         11   -1    0    0    0    0 -0.00000000000E+00 -0.00000000000E+00 -0.45593999997E+02  0.45594000000E+02  0.51100000000E-03 0.  1.
    9900012    2    1    2    0    0 -0.16656121699E+02 -0.15727268145E+01  0.84129961574E+01  0.72461591801E+02  0.70000028016E+02 0.  0.
         12    1    1    2    0    0  0.16656121699E+02  0.15727268145E+01 -0.84129961574E+01  0.18726408199E+02  0.00000000000E+00 0. -1.
         11    1    3    3    0    0 -0.75272361507E+01 -0.13271791235E+02  0.76491769043E+01  0.17067795236E+02  0.51100000000E-03 0. -1.
        -11    1    3    3    0    0 -0.96109936747E+01 -0.18113787893E+02  0.11730955630E+02  0.23624051970E+02  0.51100000000E-03 0.  1.
        -12    1    3    3    0    0  0.48210812596E+00  0.29812852313E+02 -0.10967136377E+02  0.31769744594E+02  0.00000000000E+00 0.  1.
</event>
<event>
 7    1  0.3305651E-013  0.7246156E+02  0.7816164E-02  0.1226708E+00
        -11   -1    0    0    0    0  0.00000000000E+00  0.00000000000E+00  0.45593999997E+02  0.45594000000E+02  0.51100000000E-03 0. -1.
         11   -1    0    0    0    0 -0.00000000000E+00 -0.00000000000E+00 -0.45593999997E+02  0.45594000000E+02  0.51100000000E-03 0.  1.
    9900012    2    1    2    0    0  0.40616713022E+01  0.16078839648E+02 -0.86978888425E+01  0.72461560710E+02  0.69999987514E+02 0.  0.
         12    1    1    2    0    0 -0.40616713022E+01 -0.16078839648E+02  0.86978888425E+01  0.18726439290E+02  0.00000000000E+00 0. -1.
         11    1    3    3    0    0  0.18305724209E+02 -0.85244094996E+01  0.62089866365E+01  0.21126206746E+02  0.51100000000E-03 0. -1.
        -11    1    3    3    0    0  0.13862511911E+02  0.62188078959E+01 -0.18681453695E+01  0.15307931785E+02  0.51100000000E-03 0.  1.
        -12    1    3    3    0    0 -0.28106564819E+02  0.18384441251E+02 -0.13038730110E+02  0.36027422179E+02  0.00000000000E+00 0.  1.
</event>
<event>
 7    1  0.3305651E-013  0.7246154E+02  0.7816164E-02  0.1226708E+00
        -11   -1    0    0    0    0  0.00000000000E+00  0.00000000000E+00  0.45593999997E+02  0.45594000000E+02  0.51100000000E-03 0. -1.
         11   -1    0    0    0    0 -0.00000000000E+00 -0.00000000000E+00 -0.45593999997E+02  0.45594000000E+02  0.51100000000E-03 0.  1.
    9900012    2    1    2    0    0 -0.81438210769E+01 -0.14254129685E+02 -0.90099051019E+01  0.72461536779E+02  0.69999956341E+02 0.  0.
         12    1    1    2    0    0  0.81438210769E+01  0.14254129685E+02  0.90099051019E+01  0.18726463221E+02  0.00000000000E+00 0. -1.
         11    1    3    3    0    0 -0.55952683045E+01  0.48979860199E+01  0.11673098841E+02  0.13840467162E+02  0.51100000000E-03 0. -1.
        -11    1    3    3    0    0 -0.16135395855E+02  0.52428917596E+01  0.78536298992E+01  0.18695411636E+02  0.51100000000E-03 0.  1.
        -12    1    3    3    0    0  0.13586843083E+02 -0.24395007464E+02 -0.28536633843E+02  0.39925657981E+02  0.00000000000E+00 0.  1.
</event>
<event>
 7    1  0.3305651E-013  0.7246157E+02  0.7816164E-02  0.1226708E+00
        -11   -1    0    0    0    0  0.00000000000E+00  0.00000000000E+00  0.45593999997E+02  0.45594000000E+02  0.51100000000E-03 0. -1.
         11   -1    0    0    0    0 -0.00000000000E+00 -0.00000000000E+00 -0.45593999997E+02  0.45594000000E+02  0.51100000000E-03 0.  1.
    9900012    2    1    2    0    0  0.11380410755E+02  0.61010617271E+00 -0.14859114575E+02  0.72461567760E+02  0.69999996698E+02 0.  0.
         12    1    1    2    0    0 -0.11380410755E+02 -0.61010617271E+00  0.14859114575E+02  0.18726432240E+02  0.00000000000E+00 0. -1.
         11    1    3    3    0    0 -0.14640776043E+02  0.83597104765E-01  0.66211600199E+01  0.16068574047E+02  0.51100000000E-03 0. -1.
        -11    1    3    3    0    0 -0.15840550983E+01  0.10086940225E+02  0.94036102815E+01  0.13881047520E+02  0.51100000000E-03 0.  1.
        -12    1    3    3    0    0  0.27605241896E+02 -0.95604311574E+01 -0.30883884876E+02  0.42511946193E+02  0.00000000000E+00 0.  1.
</event>
<event>
 7    1  0.3305651E-013  0.7246156E+02  0.7816164E-02  0.1226708E+00
        -11   -1    0    0    0    0  0.00000000000E+00  0.00000000000E+00  0.45593999997E+02  0.45594000000E+02  0.51100000000E-03 0.  1.
         11   -1    0    0    0    0 -0.00000000000E+00 -0.00000000000E+00 -0.45593999997E+02  0.45594000000E+02  0.51100000000E-03 0. -1.
    9900012    2    1    2    0    0  0.13992918908E+02 -0.23093817621E+01 -0.12228846165E+02  0.72461556071E+02  0.69999981472E+02 0.  0.
         12    1    1    2    0    0 -0.13992918908E+02  0.23093817621E+01  0.12228846165E+02  0.18726443929E+02  0.00000000000E+00 0. -1.
         11    1    3    3    0    0  0.74474134087E+01 -0.69006726744E+01 -0.36082203273E+01  0.10775087194E+02  0.51100000000E-03 0. -1.
        -11    1    3    3    0    0  0.26224568962E+02 -0.14056555423E+02 -0.15733426293E+02  0.33657918397E+02  0.51100000000E-03 0.  1.
         12    1    3    3    0    0 -0.19679063462E+02  0.18647846336E+02  0.71128004560E+01  0.28028550481E+02  0.00000000000E+00 0. -1.
</event>
<event>
 7    1  0.3305651E-013  0.7246162E+02  0.7816164E-02  0.1226708E+00
        -11   -1    0    0    0    0  0.00000000000E+00  0.00000000000E+00  0.45593999997E+02  0.45594000000E+02  0.51100000000E-03 0.  1.
         11   -1    0    0    0    0 -0.00000000000E+00 -0.00000000000E+00 -0.45593999997E+02  0.45594000000E+02  0.51100000000E-03 0. -1.
    9900012    2    1    2    0    0  0.18700095596E+02 -0.76033567520E+00  0.63686468431E+00  0.72461620684E+02  0.70000065642E+02 0.  0.
         12    1    1    2    0    0 -0.18700095596E+02  0.76033567520E+00 -0.63686468431E+00  0.18726379316E+02  0.00000000000E+00 0. -1.
         11    1    3    3    0    0 -0.78883183495E+01  0.27294656025E+01  0.74823546303E+01  0.11209869755E+02  0.51100000000E-03 0. -1.
        -11    1    3    3    0    0 -0.13741343230E+02 -0.38240486578E+01  0.10128943850E+02  0.17494095166E+02  0.51100000000E-03 0.  1.
         12    1    3    3    0    0  0.40329757176E+02  0.33424738013E+00 -0.16974433796E+02  0.43757655763E+02  0.00000000000E+00 0. -1.
</event>
<event>
 7    1  0.3305651E-013  0.7246177E+02  0.7816164E-02  0.1226707E+00
        -11   -1    0    0    0    0  0.00000000000E+00  0.00000000000E+00  0.45593999997E+02  0.45594000000E+02  0.51100000000E-03 0. -1.
         11   -1    0    0    0    0 -0.00000000000E+00 -0.00000000000E+00 -0.45593999997E+02  0.45594000000E+02  0.51100000000E-03 0.  1.
    9900012    2    1    2    0    0 -0.31096490530E+01  0.18370151129E+02 -0.18812982858E+01  0.72461770988E+02  0.70000261441E+02 0.  0.
         12    1    1    2    0    0  0.31096490530E+01 -0.18370151129E+02  0.18812982858E+01  0.18726229012E+02  0.00000000000E+00 0. -1.
         11    1    3    3    0    0 -0.28566779517E+01 -0.11667603963E+02  0.71692638950E+01  0.13988993395E+02  0.51100000000E-03 0. -1.
        -11    1    3    3    0    0 -0.17249320926E+02  0.25598239964E+02  0.10107350233E+02  0.32480263094E+02  0.51100000000E-03 0.  1.
         12    1    3    3    0    0  0.16996349824E+02  0.44395151288E+01 -0.19157912414E+02  0.25992514499E+02  0.00000000000E+00 0. -1.
</event>
<event>
 7    1  0.3305651E-013  0.7246180E+02  0.7816164E-02  0.1226707E+00
        -11   -1    0    0    0    0  0.00000000000E+00  0.00000000000E+00  0.45593999997E+02  0.45594000000E+02  0.51100000000E-03 0.  1.
         11   -1    0    0    0    0 -0.00000000000E+00 -0.00000000000E+00 -0.45593999997E+02  0.45594000000E+02  0.51100000000E-03 0. -1.
    9900012    2    1    2    0    0 -0.14320523954E+02 -0.10378836627E+02  0.61541106531E+01  0.72461795527E+02  0.70000293406E+02 0.  0.
         12    1    1    2    0    0  0.14320523954E+02  0.10378836627E+02 -0.61541106531E+01  0.18726204473E+02  0.00000000000E+00 0. -1.
         11    1    3    3    0    0 -0.57063643699E+01 -0.36961972471E+01 -0.31977101743E+01  0.75133094593E+01  0.51100000000E-03 0. -1.
        -11    1    3    3    0    0 -0.27825351007E+02 -0.13844517398E+02 -0.13815554001E+02  0.34011620856E+02  0.51100000000E-03 0.  1.
        -12    1    3    3    0    0  0.19211191423E+02  0.71618780177E+01  0.23167374829E+02  0.30936865211E+02  0.00000000000E+00 0.  1.
</event>
<event>
 7    1  0.3305651E-013  0.7246229E+02  0.7816164E-02  0.1226706E+00
        -11   -1    0    0    0    0  0.00000000000E+00  0.00000000000E+00  0.45593999997E+02  0.45594000000E+02  0.51100000000E-03 0.  1.
         11   -1    0    0    0    0 -0.00000000000E+00 -0.00000000000E+00 -0.45593999997E+02  0.45594000000E+02  0.51100000000E-03 0. -1.
    9900012    2    1    2    0    0 -0.25888473449E+01 -0.10997312182E+02  0.14933491789E+02  0.72462290860E+02  0.70000938664E+02 0.  0.
         12    1    1    2    0    0  0.25888473449E+01  0.10997312182E+02 -0.14933491789E+02  0.18725709140E+02  0.00000000000E+00 0. -1.
         11    1    3    3    0    0 -0.26833036094E+02 -0.11779556790E+02  0.23844764066E+01  0.29401624312E+02  0.51100000000E-03 0. -1.
        -11    1    3    3    0    0 -0.21388699270E+01 -0.10327718432E+01 -0.87738959584E+01  0.90896992687E+01  0.51100000000E-03 0.  1.
        -12    1    3    3    0    0  0.26383058676E+02  0.18150164505E+01  0.21322911340E+02  0.33970967279E+02  0.00000000000E+00 0.  1.
</event>
<event>
 7    1  0.3305651E-013  0.7246151E+02  0.7816164E-02  0.1226708E+00
        -11   -1    0    0    0    0  0.00000000000E+00  0.00000000000E+00  0.45593999997E+02  0.45594000000E+02  0.51100000000E-03 0. -1.
         11   -1    0    0    0    0 -0.00000000000E+00 -0.00000000000E+00 -0.45593999997E+02  0.45594000000E+02  0.51100000000E-03 0.  1.
    9900012    2    1    2    0    0  0.46319470715E+01 -0.11666997605E+02 -0.13896321853E+02  0.72461507327E+02  0.69999917974E+02 0.  0.
         12    1    1    2    0    0 -0.46319470715E+01  0.11666997605E+02  0.13896321853E+02  0.18726492673E+02  0.00000000000E+00 0. -1.
         11    1    3    3    0    0  0.57487988598E+01 -0.13871575672E+02  0.13982782506E+02  0.20517980086E+02  0.51100000000E-03 0. -1.
        -11    1    3    3    0    0 -0.14662582284E+02 -0.12657470724E+02 -0.24502842127E+01  0.19524517340E+02  0.51100000000E-03 0.  1.
        -12    1    3    3    0    0  0.13545730496E+02  0.14862048790E+02 -0.25428820146E+02  0.32419009901E+02  0.00000000000E+00 0.  1.
</event>
<event>
 7    1  0.3305651E-013  0.7246153E+02  0.7816164E-02  0.1226708E+00
        -11   -1    0    0    0    0  0.00000000000E+00  0.00000000000E+00  0.45593999997E+02  0.45594000000E+02  0.51100000000E-03 0. -1.
         11   -1    0    0    0    0 -0.00000000000E+00 -0.00000000000E+00 -0.45593999997E+02  0.45594000000E+02  0.51100000000E-03 0.  1.
    9900012    2    1    2    0    0 -0.15092046389E+02  0.34385251138E+01 -0.10539793750E+02  0.72461532863E+02  0.69999951238E+02 0.  0.
         12    1    1    2    0    0  0.15092046389E+02 -0.34385251138E+01  0.10539793750E+02  0.18726467137E+02  0.00000000000E+00 0. -1.
         11    1    3    3    0    0 -0.27667230146E+01  0.36634313523E+01 -0.29857946793E+01  0.54763542289E+01  0.51100000000E-03 0. -1.
        -11    1    3    3    0    0 -0.18692196791E+02  0.25880554043E+01 -0.34408447027E+02  0.39243311261E+02  0.51100000000E-03 0.  1.
         12    1    3    3    0    0  0.63668734168E+01 -0.28129616429E+01  0.26854447956E+02  0.27741867373E+02  0.00000000000E+00 0. -1.
</event>
<event>
 7    1  0.3305651E-013  0.7246156E+02  0.7816164E-02  0.1226708E+00
        -11   -1    0    0    0    0  0.00000000000E+00  0.00000000000E+00  0.45593999997E+02  0.45594000000E+02  0.51100000000E-03 0.  1.
         11   -1    0    0    0    0 -0.00000000000E+00 -0.00000000000E+00 -0.45593999997E+02  0.45594000000E+02  0.51100000000E-03 0. -1.
    9900012    2    1    2    0    0  0.17978716219E+00 -0.11301626521E+02  0.14930525323E+02  0.72461556882E+02  0.69999982527E+02 0.  0.
         12    1    1    2    0    0 -0.17978716219E+00  0.11301626521E+02 -0.14930525323E+02  0.18726443118E+02  0.00000000000E+00 0. -1.
         11    1    3    3    0    0  0.35423041016E+01 -0.12295609716E+02 -0.18460098720E+02  0.22461192792E+02  0.51100000000E-03 0. -1.
        -11    1    3    3    0    0  0.78378737891E+01  0.92250164149E-01 -0.54631292565E+01  0.95543998850E+01  0.51100000000E-03 0.  1.
        -12    1    3    3    0    0 -0.11200390729E+02  0.90173303044E+00  0.38853753300E+02  0.40445964204E+02  0.00000000000E+00 0.  1.
</event>
<event>
 7    1  0.3305651E-013  0.7246161E+02  0.7816164E-02  0.1226708E+00
        -11   -1    0    0    0    0  0.00000000000E+00  0.00000000000E+00  0.45593999997E+02  0.45594000000E+02  0.51100000000E-03 0.  1.
         11   -1    0    0    0    0 -0.00000000000E+00 -0.00000000000E+00 -0.45593999997E+02  0.45594000000E+02  0.51100000000E-03 0. -1.
    9900012    2    1    2    0    0  0.46859987834E+01  0.16355365384E+02  0.78243853657E+01  0.72461613061E+02  0.70000055712E+02 0.  0.
         12    1    1    2    0    0 -0.46859987834E+01 -0.16355365384E+02 -0.78243853657E+01  0.18726386939E+02  0.00000000000E+00 0. -1.
         11    1    3    3    0    0  0.13766121431E+02  0.23417626665E+02  0.77212076296E+01  0.28240190959E+02  0.51100000000E-03 0. -1.
        -11    1    3    3    0    0 -0.12161089112E+02  0.12443241923E+02  0.12028968774E+02  0.21152362704E+02  0.51100000000E-03 0.  1.
        -12    1    3    3    0    0  0.30809664646E+01 -0.19505503204E+02 -0.11925791038E+02  0.23069059398E+02  0.00000000000E+00 0.  1.
</event>
<event>
 7    1  0.3305651E-013  0.7246161E+02  0.7816164E-02  0.1226708E+00
        -11   -1    0    0    0    0  0.00000000000E+00  0.00000000000E+00  0.45593999997E+02  0.45594000000E+02  0.51100000000E-03 0.  1.
         11   -1    0    0    0    0 -0.00000000000E+00 -0.00000000000E+00 -0.45593999997E+02  0.45594000000E+02  0.51100000000E-03 0. -1.
    9900012    2    1    2    0    0  0.47579042702E+01 -0.47576348148E+01  0.17475838744E+02  0.72461610015E+02  0.70000051743E+02 0.  0.
         12    1    1    2    0    0 -0.47579042702E+01  0.47576348148E+01 -0.17475838744E+02  0.18726389985E+02  0.00000000000E+00 0. -1.
         11    1    3    3    0    0 -0.10172872108E+02 -0.40020550535E+01  0.12180854227E+02  0.16366947838E+02  0.51100000000E-03 0. -1.
        -11    1    3    3    0    0  0.81357861634E+01 -0.42964316958E+00  0.29680330544E+02  0.30778200585E+02  0.51100000000E-03 0.  1.
         12    1    3    3    0    0  0.67949902144E+01 -0.32593659171E+00 -0.24385346027E+02  0.25316461592E+02  0.00000000000E+00 0. -1.
</event>
<event>
 7    1  0.3305651E-013  0.7246157E+02  0.7816164E-02  0.1226708E+00
        -11   -1    0    0    0    0  0.00000000000E+00  0.00000000000E+00  0.45593999997E+02  0.45594000000E+02  0.51100000000E-03 0.  1.
         11   -1    0    0    0    0 -0.00000000000E+00 -0.00000000000E+00 -0.45593999997E+02  0.45594000000E+02  0.51100000000E-03 0. -1.
    9900012    2    1    2    0    0 -0.82306939817E+01  0.13853123730E+02  0.95407410689E+01  0.72461572133E+02  0.70000002395E+02 0.  0.
         12    1    1    2    0    0  0.82306939817E+01 -0.13853123730E+02 -0.95407410689E+01  0.18726427867E+02  0.00000000000E+00 0. -1.
         11    1    3    3    0    0 -0.82295722519E+01 -0.74382877188E+01 -0.51413831015E+01  0.12226520523E+02  0.51100000000E-03 0. -1.
        -11    1    3    3    0    0 -0.17913269628E+02 -0.95771756120E+01 -0.27814726943E+01  0.20502295288E+02  0.51100000000E-03 0.  1.
        -12    1    3    3    0    0  0.17912147898E+02  0.30868587061E+02  0.17463596865E+02  0.39732756322E+02  0.00000000000E+00 0.  1.
</event>
<event>
 7    1  0.3305651E-013  0.7246193E+02  0.7816164E-02  0.1226707E+00
        -11   -1    0    0    0    0  0.00000000000E+00  0.00000000000E+00  0.45593999997E+02  0.45594000000E+02  0.51100000000E-03 0. -1.
         11   -1    0    0    0    0 -0.00000000000E+00 -0.00000000000E+00 -0.45593999997E+02  0.45594000000E+02  0.51100000000E-03 0.  1.
    9900012    2    1    2    0    0 -0.76242053916E+00  0.15069072073E+02 -0.11090871273E+02  0.72461931437E+02  0.70000470454E+02 0.  0.
         12    1    1    2    0    0  0.76242053916E+00 -0.15069072073E+02  0.11090871273E+02  0.18726068563E+02  0.00000000000E+00 0. -1.
         11    1    3    3    0    0 -0.12719412257E+02 -0.11951401399E+02  0.21111343246E+02  0.27391755282E+02  0.51100000000E-03 0. -1.
        -11    1    3    3    0    0  0.34108443236E+01  0.66068929625E+01 -0.15998422665E+02  0.17641837253E+02  0.51100000000E-03 0.  1.
        -12    1    3    3    0    0  0.85461473944E+01  0.20413580509E+02 -0.16203791854E+02  0.27428338902E+02  0.00000000000E+00 0.  1.
</event>
<event>
 7    1  0.3305651E-013  0.7246159E+02  0.7816164E-02  0.1226708E+00
        -11   -1    0    0    0    0  0.00000000000E+00  0.00000000000E+00  0.45593999997E+02  0.45594000000E+02  0.51100000000E-03 0.  1.
         11   -1    0    0    0    0 -0.00000000000E+00 -0.00000000000E+00 -0.45593999997E+02  0.45594000000E+02  0.51100000000E-03 0. -1.
    9900012    2    1    2    0    0 -0.18472940810E+02 -0.29369535897E+00  0.30566006043E+01  0.72461585330E+02  0.70000019587E+02 0.  0.
         12    1    1    2    0    0  0.18472940810E+02  0.29369535897E+00 -0.30566006043E+01  0.18726414670E+02  0.00000000000E+00 0. -1.
         11    1    3    3    0    0 -0.26015663095E+02  0.29084260716E+02  0.91363787150E+00  0.39032597686E+02  0.51100000000E-03 0. -1.
        -11    1    3    3    0    0  0.55802911732E+01 -0.47323504326E+01  0.45056003261E+01  0.85927425630E+01  0.51100000000E-03 0.  1.
        -12    1    3    3    0    0  0.19624311115E+01 -0.24645605642E+02 -0.23626375933E+01  0.24836245081E+02  0.00000000000E+00 0.  1.
</event>
<event>
 7    1  0.3305651E-013  0.7246157E+02  0.7816164E-02  0.1226708E+00
        -11   -1    0    0    0    0  0.00000000000E+00  0.00000000000E+00  0.45593999997E+02  0.45594000000E+02  0.51100000000E-03 0.  1.
         11   -1    0    0    0    0 -0.00000000000E+00 -0.00000000000E+00 -0.45593999997E+02  0.45594000000E+02  0.51100000000E-03 0. -1.
    9900012    2    1    2    0    0  0.62163109000E+01 -0.17933653811E+01  0.17573290613E+02  0.72461568851E+02  0.69999998120E+02 0.  0.
         12    1    1    2    0    0 -0.62163109000E+01  0.17933653811E+01 -0.17573290613E+02  0.18726431149E+02  0.00000000000E+00 0. -1.
         11    1    3    3    0    0  0.45104030164E+01  0.16731552216E+01 -0.22672442743E+01  0.53182309677E+01  0.51100000000E-03 0. -1.
        -11    1    3    3    0    0  0.29623330522E+02 -0.17223296394E+01 -0.45634304917E+01  0.30022208925E+02  0.51100000000E-03 0.  1.
        -12    1    3    3    0    0 -0.27917422639E+02 -0.17441909633E+01  0.24403965379E+02  0.37121128958E+02  0.00000000000E+00 0.  1.
</event>
<event>
 7    1  0.3305651E-013  0.7246158E+02  0.7816164E-02  0.1226708E+00
        -11   -1    0    0    0    0  0.00000000000E+00  0.00000000000E+00  0.45593999997E+02  0.45594000000E+02  0.51100000000E-03 0. -1.
         11   -1    0    0    0    0 -0.00000000000E+00 -0.00000000000E+00 -0.45593999997E+02  0.45594000000E+02  0.51100000000E-03 0.  1.
    9900012    2    1    2    0    0 -0.87659613288E+01  0.16544773387E+02 -0.32739724992E+00  0.72461580336E+02  0.70000013082E+02 0.  0.
         12    1    1    2    0    0  0.87659613288E+01 -0.16544773387E+02  0.32739724992E+00  0.18726419664E+02  0.00000000000E+00 0. -1.
         11    1    3    3    0    0  0.13451121852E+00 -0.12762093331E+02  0.78087883379E+01  0.14962162111E+02  0.51100000000E-03 0. -1.
        -11    1    3    3    0    0 -0.22837840458E+02  0.14955765084E+01 -0.12514267732E+02  0.26084681386E+02  0.51100000000E-03 0.  1.
         12    1    3    3    0    0  0.13937367911E+02  0.27811290210E+02  0.43780821439E+01  0.31414736840E+02  0.00000000000E+00 0. -1.
</event>
<event>
 7    1  0.3305651E-013  0.7246154E+02  0.7816164E-02  0.1226708E+00
        -11   -1    0    0    0    0  0.00000000000E+00  0.00000000000E+00  0.45593999997E+02  0.45594000000E+02  0.51100000000E-03 0. -1.
         11   -1    0    0    0    0 -0.00000000000E+00 -0.00000000000E+00 -0.45593999997E+02  0.45594000000E+02  0.51100000000E-03 0.  1.
    9900012    2    1    2    0    0  0.17168565819E+01  0.16624730139E+02  0.84469658316E+01  0.72461535291E+02  0.69999954402E+02 0.  0.
         12    1    1    2    0    0 -0.17168565819E+01 -0.16624730139E+02 -0.84469658316E+01  0.18726464709E+02  0.00000000000E+00 0. -1.
         11    1    3    3    0    0  0.72051190937E+01  0.23254943228E+01 -0.14113951040E+01  0.77015388982E+01  0.51100000000E-03 0. -1.
        -11    1    3    3    0    0 -0.11822033791E+02  0.34941765096E+02  0.18784937174E+02  0.41395184453E+02  0.51100000000E-03 0.  1.
         12    1    3    3    0    0  0.63337712797E+01 -0.20642529279E+02 -0.89265762382E+01  0.23364811940E+02  0.00000000000E+00 0. -1.
</event>
<event>
 7    1  0.3305651E-013  0.7246161E+02  0.7816164E-02  0.1226708E+00
        -11   -1    0    0    0    0  0.00000000000E+00  0.00000000000E+00  0.45593999997E+02  0.45594000000E+02  0.51100000000E-03 0. -1.
         11   -1    0    0    0    0 -0.00000000000E+00 -0.00000000000E+00 -0.45593999997E+02  0.45594000000E+02  0.51100000000E-03 0.  1.
    9900012    2    1    2    0    0 -0.11555810009E+02  0.13301655853E+02 -0.63408933840E+01  0.72461608935E+02  0.70000050337E+02 0.  0.
         12    1    1    2    0    0  0.11555810009E+02 -0.13301655853E+02  0.63408933840E+01  0.18726391065E+02  0.00000000000E+00 0. -1.
         11    1    3    3    0    0  0.70857955728E+01  0.50118231700E+01  0.40905098155E+01  0.95947454994E+01  0.51100000000E-03 0. -1.
        -11    1    3    3    0    0 -0.28876046014E+02 -0.45280875786E+01  0.14807943206E+02  0.32765909003E+02  0.51100000000E-03 0.  1.
         12    1    3    3    0    0  0.10234440432E+02  0.12817920261E+02 -0.25239346406E+02  0.30100954433E+02  0.00000000000E+00 0. -1.
</event>
<event>
 7    1  0.3305651E-013  0.7246162E+02  0.7816164E-02  0.1226708E+00
        -11   -1    0    0    0    0  0.00000000000E+00  0.00000000000E+00  0.45593999997E+02  0.45594000000E+02  0.51100000000E-03 0. -1.
         11   -1    0    0    0    0 -0.00000000000E+00 -0.00000000000E+00 -0.45593999997E+02  0.45594000000E+02  0.51100000000E-03 0.  1.
    9900012    2    1    2    0    0  0.14977482394E+02  0.76566132615E+01 -0.82297392736E+01  0.72461619837E+02  0.70000064538E+02 0.  0.
         12    1    1    2    0    0 -0.14977482394E+02 -0.76566132615E+01  0.82297392736E+01  0.18726380163E+02  0.00000000000E+00 0. -1.
         11    1    3    3    0    0 -0.14828496761E+02  0.77210293159E+01 -0.19665627844E+01  0.16833477933E+02  0.51100000000E-03 0. -1.
        -11    1    3    3    0    0  0.75524607987E+01 -0.19285068882E+02  0.89015290176E+01  0.22543086856E+02  0.51100000000E-03 0.  1.
        -12    1    3    3    0    0  0.22253518356E+02  0.19220652828E+02 -0.15164705507E+02  0.33085055047E+02  0.00000000000E+00 0.  1.
</event>
<event>
 7    1  0.3305651E-013  0.7246131E+02  0.7816164E-02  0.1226709E+00
        -11   -1    0    0    0    0  0.00000000000E+00  0.00000000000E+00  0.45593999997E+02  0.45594000000E+02  0.51100000000E-03 0. -1.
         11   -1    0    0    0    0 -0.00000000000E+00 -0.00000000000E+00 -0.45593999997E+02  0.45594000000E+02  0.51100000000E-03 0.  1.
    9900012    2    1    2    0    0  0.34913679721E+01  0.10540009338E+01 -0.18368131365E+02  0.72461312676E+02  0.69999664404E+02 0.  0.
         12    1    1    2    0    0 -0.34913679721E+01 -0.10540009338E+01  0.18368131365E+02  0.18726687324E+02  0.00000000000E+00 0. -1.
         11    1    3    3    0    0  0.76722613518E+01 -0.17107396206E+01  0.67316046645E+01  0.10349141313E+02  0.51100000000E-03 0. -1.
        -11    1    3    3    0    0 -0.26039908596E+02 -0.13391153045E+02 -0.95614364471E+01  0.30802936333E+02  0.51100000000E-03 0.  1.
         12    1    3    3    0    0  0.21859015216E+02  0.16155893600E+02 -0.15538299582E+02  0.31309235030E+02  0.00000000000E+00 0. -1.
</event>
<event>
 7    1  0.3305651E-013  0.7246145E+02  0.7816164E-02  0.1226708E+00
        -11   -1    0    0    0    0  0.00000000000E+00  0.00000000000E+00  0.45593999997E+02  0.45594000000E+02  0.51100000000E-03 0.  1.
         11   -1    0    0    0    0 -0.00000000000E+00 -0.00000000000E+00 -0.45593999997E+02  0.45594000000E+02  0.51100000000E-03 0. -1.
    9900012    2    1    2    0    0  0.15776465771E+02  0.13342225044E+01  0.10000325667E+02  0.72461453726E+02  0.69999848148E+02 0.  0.
         12    1    1    2    0    0 -0.15776465771E+02 -0.13342225044E+01 -0.10000325667E+02  0.18726546274E+02  0.00000000000E+00 0. -1.
         11    1    3    3    0    0 -0.10488516562E+02  0.41396257523E+00  0.27833763532E+01  0.10859444225E+02  0.51100000000E-03 0. -1.
        -11    1    3    3    0    0 -0.16287615061E+02  0.16382023158E+01 -0.53581557383E+01  0.17224399681E+02  0.51100000000E-03 0.  1.
        -12    1    3    3    0    0  0.42552597394E+02 -0.71794238658E+00  0.12575105052E+02  0.44377609820E+02  0.00000000000E+00 0.  1.
</event>
<event>
 7    1  0.3305651E-013  0.7246153E+02  0.7816164E-02  0.1226708E+00
        -11   -1    0    0    0    0  0.00000000000E+00  0.00000000000E+00  0.45593999997E+02  0.45594000000E+02  0.51100000000E-03 0.  1.
         11   -1    0    0    0    0 -0.00000000000E+00 -0.00000000000E+00 -0.45593999997E+02  0.45594000000E+02  0.51100000000E-03 0. -1.
    9900012    2    1    2    0    0 -0.42176634651E+00  0.11724148172E+01  0.18684977259E+02  0.72461526266E+02  0.69999942644E+02 0.  0.
         12    1    1    2    0    0  0.42176634651E+00 -0.11724148172E+01 -0.18684977259E+02  0.18726473734E+02  0.00000000000E+00 0. -1.
         11    1    3    3    0    0 -0.32706960363E+01 -0.11551276155E+02  0.11100950967E+02  0.16351163445E+02  0.51100000000E-03 0. -1.
        -11    1    3    3    0    0  0.15594616591E+02 -0.17111384798E+02  0.30513642778E+01  0.23351710442E+02  0.51100000000E-03 0.  1.
         12    1    3    3    0    0 -0.12745686901E+02  0.29835075770E+02  0.45326620142E+01  0.32758652379E+02  0.00000000000E+00 0. -1.
</event>
<event>
 7    1  0.3305651E-013  0.7246158E+02  0.7816164E-02  0.1226708E+00
        -11   -1    0    0    0    0  0.00000000000E+00  0.00000000000E+00  0.45593999997E+02  0.45594000000E+02  0.51100000000E-03 0.  1.
         11   -1    0    0    0    0 -0.00000000000E+00 -0.00000000000E+00 -0.45593999997E+02  0.45594000000E+02  0.51100000000E-03 0. -1.
    9900012    2    1    2    0    0  0.12658869070E+02 -0.10620537018E+02 -0.88111243710E+01  0.72461583221E+02  0.70000016840E+02 0.  0.
         12    1    1    2    0    0 -0.12658869070E+02  0.10620537018E+02  0.88111243710E+01  0.18726416779E+02  0.00000000000E+00 0. -1.
         11    1    3    3    0    0 -0.60906034185E+01  0.33338413578E+01  0.18592361881E+02  0.19846558109E+02  0.51100000000E-03 0. -1.
        -11    1    3    3    0    0  0.12987124148E+02 -0.93824091080E+01  0.69635704322E+01  0.17469582357E+02  0.51100000000E-03 0.  1.
         12    1    3    3    0    0  0.57623483413E+01 -0.45719692677E+01 -0.34367056684E+02  0.35145442756E+02  0.00000000000E+00 0. -1.
</event>
<event>
 7    1  0.3305651E-013  0.7246161E+02  0.7816164E-02  0.1226708E+00
        -11   -1    0    0    0    0  0.00000000000E+00  0.00000000000E+00  0.45593999997E+02  0.45594000000E+02  0.51100000000E-03 0. -1.
         11   -1    0    0    0    0 -0.00000000000E+00 -0.00000000000E+00 -0.45593999997E+02  0.45594000000E+02  0.51100000000E-03 0.  1.
    9900012    2    1    2    0    0 -0.16139054875E+02 -0.89842571986E+01 -0.30808760109E+01  0.72461607751E+02  0.70000048795E+02 0.  0.
         12    1    1    2    0    0  0.16139054875E+02  0.89842571986E+01  0.30808760109E+01  0.18726392249E+02  0.00000000000E+00 0. -1.
         11    1    3    3    0    0  0.95644951227E+01 -0.12698863885E+02  0.18290701744E+01  0.16002693801E+02  0.51100000000E-03 0.  1.
        -11    1    3    3    0    0  0.12094290255E+02  0.39291571972E+01  0.96393092590E+01  0.15957017776E+02  0.51100000000E-03 0. -1.
        -12    1    3    3    0    0 -0.37797840253E+02 -0.21455051036E+00 -0.14549255444E+02  0.40501896174E+02  0.00000000000E+00 0.  1.
</event>
<event>
 7    1  0.3305651E-013  0.7246161E+02  0.7816164E-02  0.1226708E+00
        -11   -1    0    0    0    0  0.00000000000E+00  0.00000000000E+00  0.45593999997E+02  0.45594000000E+02  0.51100000000E-03 0.  1.
         11   -1    0    0    0    0 -0.00000000000E+00 -0.00000000000E+00 -0.45593999997E+02  0.45594000000E+02  0.51100000000E-03 0. -1.
    9900012    2    1    2    0    0 -0.14974021586E+02 -0.54253429963E+01  0.98499685166E+01  0.72461613566E+02  0.70000056370E+02 0.  0.
         12    1    1    2    0    0  0.14974021586E+02  0.54253429963E+01 -0.98499685166E+01  0.18726386434E+02  0.00000000000E+00 0. -1.
         11    1    3    3    0    0  0.45076992316E+01 -0.10992551227E+02 -0.12295660256E+01  0.11944344591E+02  0.51100000000E-03 0. -1.
        -11    1    3    3    0    0  0.13463157375E+02 -0.63934223640E+01  0.19429503359E+02  0.24487508184E+02  0.51100000000E-03 0.  1.
        -12    1    3    3    0    0 -0.32944878193E+02  0.11960630595E+02 -0.83499688166E+01  0.36029760791E+02  0.00000000000E+00 0.  1.
</event>
<event>
 7    1  0.3305651E-013  0.7246163E+02  0.7816164E-02  0.1226708E+00
        -11   -1    0    0    0    0  0.00000000000E+00  0.00000000000E+00  0.45593999997E+02  0.45594000000E+02  0.51100000000E-03 0.  1.
         11   -1    0    0    0    0 -0.00000000000E+00 -0.00000000000E+00 -0.45593999997E+02  0.45594000000E+02  0.51100000000E-03 0. -1.
    9900012    2    1    2    0    0 -0.12102662695E+02 -0.66786415690E+01  0.12633216760E+02  0.72461631873E+02  0.70000080218E+02 0.  0.
         12    1    1    2    0    0  0.12102662695E+02  0.66786415690E+01 -0.12633216760E+02  0.18726368127E+02  0.00000000000E+00 0. -1.
         11    1    3    3    0    0 -0.68065243909E+01 -0.81792128064E+01  0.93479646290E+01  0.14163782665E+02  0.51100000000E-03 0. -1.
        -11    1    3    3    0    0 -0.26512934350E+02  0.23644115109E+00  0.18351251451E+02  0.32245310083E+02  0.51100000000E-03 0.  1.
         12    1    3    3    0    0  0.21216796046E+02  0.12641300862E+01 -0.15065999320E+02  0.26052539125E+02  0.00000000000E+00 0. -1.
</event>
<event>
 7    1  0.3305651E-013  0.7246156E+02  0.7816164E-02  0.1226708E+00
        -11   -1    0    0    0    0  0.00000000000E+00  0.00000000000E+00  0.45593999997E+02  0.45594000000E+02  0.51100000000E-03 0.  1.
         11   -1    0    0    0    0 -0.00000000000E+00 -0.00000000000E+00 -0.45593999997E+02  0.45594000000E+02  0.51100000000E-03 0. -1.
    9900012    2    1    2    0    0 -0.20668093135E+00  0.17038926281E+02  0.77660594159E+01  0.72461564016E+02  0.69999991821E+02 0.  0.
         12    1    1    2    0    0  0.20668093135E+00 -0.17038926281E+02 -0.77660594159E+01  0.18726435984E+02  0.00000000000E+00 0. -1.
         11    1    3    3    0    0  0.97016769986E+01 -0.13865629808E+02  0.51293735846E+01  0.17683005972E+02  0.51100000000E-03 0. -1.
        -11    1    3    3    0    0 -0.10237157896E+02 -0.37560515334E+01  0.14499787599E+02  0.18142523683E+02  0.51100000000E-03 0.  1.
        -12    1    3    3    0    0  0.32879996589E+00  0.34660607623E+02 -0.11863101768E+02  0.36636034361E+02  0.00000000000E+00 0.  1.
</event>
<event>
 7    1  0.3305651E-013  0.7246160E+02  0.7816164E-02  0.1226708E+00
        -11   -1    0    0    0    0  0.00000000000E+00  0.00000000000E+00  0.45593999997E+02  0.45594000000E+02  0.51100000000E-03 0.  1.
         11   -1    0    0    0    0 -0.00000000000E+00 -0.00000000000E+00 -0.45593999997E+02  0.45594000000E+02  0.51100000000E-03 0. -1.
    9900012    2    1    2    0    0  0.97532593896E+01 -0.11510858719E+02  0.11092885138E+02  0.72461600510E+02  0.70000039361E+02 0.  0.
         12    1    1    2    0    0 -0.97532593896E+01  0.11510858719E+02 -0.11092885138E+02  0.18726399490E+02  0.00000000000E+00 0. -1.
         11    1    3    3    0    0 -0.15916854976E+02 -0.11192665427E+02 -0.13711384165E+01  0.19506461815E+02  0.51100000000E-03 0. -1.
        -11    1    3    3    0    0  0.12099993720E+02  0.89917629611E+01  0.27048485474E+02  0.30965823352E+02  0.51100000000E-03 0.  1.
         12    1    3    3    0    0  0.13570120646E+02 -0.93099562531E+01 -0.14584461919E+02  0.21989315343E+02  0.00000000000E+00 0. -1.
</event>
<event>
 7    1  0.3305651E-013  0.7246157E+02  0.7816164E-02  0.1226708E+00
        -11   -1    0    0    0    0  0.00000000000E+00  0.00000000000E+00  0.45593999997E+02  0.45594000000E+02  0.51100000000E-03 0. -1.
         11   -1    0    0    0    0 -0.00000000000E+00 -0.00000000000E+00 -0.45593999997E+02  0.45594000000E+02  0.51100000000E-03 0.  1.
    9900012    2    1    2    0    0 -0.52485456764E+01  0.11810673493E+01 -0.17937028581E+02  0.72461570919E+02  0.70000000814E+02 0.  0.
         12    1    1    2    0    0  0.52485456764E+01 -0.11810673493E+01  0.17937028581E+02  0.18726429081E+02  0.00000000000E+00 0. -1.
         11    1    3    3    0    0 -0.26803855757E+02  0.62930966672E+01 -0.43204460974E+01  0.27869625112E+02  0.51100000000E-03 0. -1.
        -11    1    3    3    0    0 -0.48027741536E+01  0.23614622820E+01  0.80473232026E+01  0.96644997112E+01  0.51100000000E-03 0.  1.
        -12    1    3    3    0    0  0.26358084235E+02 -0.74734915999E+01 -0.21663905686E+02  0.34927446096E+02  0.00000000000E+00 0.  1.
</event>
<event>
 7    1  0.3305651E-013  0.7246160E+02  0.7816164E-02  0.1226708E+00
        -11   -1    0    0    0    0  0.00000000000E+00  0.00000000000E+00  0.45593999997E+02  0.45594000000E+02  0.51100000000E-03 0. -1.
         11   -1    0    0    0    0 -0.00000000000E+00 -0.00000000000E+00 -0.45593999997E+02  0.45594000000E+02  0.51100000000E-03 0.  1.
    9900012    2    1    2    0    0  0.10798777251E+02  0.12596372400E+02 -0.86830804841E+01  0.72461599533E+02  0.70000038089E+02 0.  0.
         12    1    1    2    0    0 -0.10798777251E+02 -0.12596372400E+02  0.86830804841E+01  0.18726400467E+02  0.00000000000E+00 0. -1.
         11    1    3    3    0    0 -0.43625152399E+01  0.25723033119E+02  0.19816327458E+01  0.26165489497E+02  0.51100000000E-03 0. -1.
        -11    1    3    3    0    0  0.17279187626E+02  0.85336258361E+01 -0.14602644940E+02  0.24179130142E+02  0.51100000000E-03 0.  1.
        -12    1    3    3    0    0 -0.21178951348E+01 -0.21660286555E+02  0.39379317104E+01  0.22116979893E+02  0.00000000000E+00 0.  1.
</event>
<event>
 7    1  0.3305651E-013  0.7246158E+02  0.7816164E-02  0.1226708E+00
        -11   -1    0    0    0    0  0.00000000000E+00  0.00000000000E+00  0.45593999997E+02  0.45594000000E+02  0.51100000000E-03 0.  1.
         11   -1    0    0    0    0 -0.00000000000E+00 -0.00000000000E+00 -0.45593999997E+02  0.45594000000E+02  0.51100000000E-03 0. -1.
    9900012    2    1    2    0    0 -0.65952012889E+01  0.12285984563E+02  0.12499462080E+02  0.72461584192E+02  0.70000018104E+02 0.  0.
         12    1    1    2    0    0  0.65952012889E+01 -0.12285984563E+02 -0.12499462080E+02  0.18726415808E+02  0.00000000000E+00 0. -1.
         11    1    3    3    0    0 -0.49362899895E+01  0.16293981497E+02  0.15863201545E+02  0.23270194572E+02  0.51100000000E-03 0. -1.
        -11    1    3    3    0    0 -0.22467487819E+02 -0.11964760929E+01 -0.13112027569E+02  0.26041214088E+02  0.51100000000E-03 0.  1.
         12    1    3    3    0    0  0.20808576520E+02 -0.28115208409E+01  0.97482881044E+01  0.23150175532E+02  0.00000000000E+00 0. -1.
</event>
<event>
 7    1  0.3305651E-013  0.7246154E+02  0.7816164E-02  0.1226708E+00
        -11   -1    0    0    0    0  0.00000000000E+00  0.00000000000E+00  0.45593999997E+02  0.45594000000E+02  0.51100000000E-03 0. -1.
         11   -1    0    0    0    0 -0.00000000000E+00 -0.00000000000E+00 -0.45593999997E+02  0.45594000000E+02  0.51100000000E-03 0.  1.
    9900012    2    1    2    0    0 -0.33991042569E+01 -0.13407317248E+02 -0.12624186057E+02  0.72461544406E+02  0.69999966275E+02 0.  0.
         12    1    1    2    0    0  0.33991042569E+01  0.13407317248E+02  0.12624186057E+02  0.18726455594E+02  0.00000000000E+00 0. -1.
         11    1    3    3    0    0 -0.58295889420E+01 -0.12929963503E+02  0.68392634848E+01  0.15746224586E+02  0.51100000000E-03 0. -1.
        -11    1    3    3    0    0 -0.76215973242E+01 -0.25322706521E+02 -0.10525011872E+02  0.28462327496E+02  0.51100000000E-03 0.  1.
        -12    1    3    3    0    0  0.10052082009E+02  0.24845352777E+02 -0.89384376700E+01  0.28252992325E+02  0.00000000000E+00 0.  1.
</event>
<event>
 7    1  0.3305651E-013  0.7246142E+02  0.7816164E-02  0.1226708E+00
        -11   -1    0    0    0    0  0.00000000000E+00  0.00000000000E+00  0.45593999997E+02  0.45594000000E+02  0.51100000000E-03 0. -1.
         11   -1    0    0    0    0 -0.00000000000E+00 -0.00000000000E+00 -0.45593999997E+02  0.45594000000E+02  0.51100000000E-03 0.  1.
    9900012    2    1    2    0    0  0.72624906903E+01 -0.54213937676E+01 -0.16387474986E+02  0.72461424824E+02  0.69999810497E+02 0.  0.
         12    1    1    2    0    0 -0.72624906903E+01  0.54213937676E+01  0.16387474986E+02  0.18726575176E+02  0.00000000000E+00 0. -1.
         11    1    3    3    0    0  0.14073373729E+02  0.27745496078E+00 -0.35622998153E+01  0.14519876364E+02  0.51100000000E-03 0. -1.
        -11    1    3    3    0    0  0.82263472190E+01 -0.53236251529E+01  0.19757782985E+02  0.22054109868E+02  0.51100000000E-03 0.  1.
        -12    1    3    3    0    0 -0.15037230258E+02 -0.37522357545E+00 -0.32582958155E+02  0.35887438592E+02  0.00000000000E+00 0.  1.
</event>
<event>
 7    1  0.3305651E-013  0.7246157E+02  0.7816164E-02  0.1226708E+00
        -11   -1    0    0    0    0  0.00000000000E+00  0.00000000000E+00  0.45593999997E+02  0.45594000000E+02  0.51100000000E-03 0. -1.
         11   -1    0    0    0    0 -0.00000000000E+00 -0.00000000000E+00 -0.45593999997E+02  0.45594000000E+02  0.51100000000E-03 0.  1.
    9900012    2    1    2    0    0 -0.14390434523E+02 -0.27337700068E+01 -0.11667089517E+02  0.72461572632E+02  0.70000003045E+02 0.  0.
         12    1    1    2    0    0  0.14390434523E+02  0.27337700068E+01  0.11667089517E+02  0.18726427368E+02  0.00000000000E+00 0. -1.
         11    1    3    3    0    0 -0.77028640194E+01 -0.19229132445E+02  0.25156789421E+01  0.20866774775E+02  0.51100000000E-03 0. -1.
        -11    1    3    3    0    0  0.21760861308E+01  0.45234574666E+01 -0.29678737798E+02  0.30100240794E+02  0.51100000000E-03 0.  1.
        -12    1    3    3    0    0 -0.88636566340E+01  0.11971904972E+02  0.15495969339E+02  0.21494557063E+02  0.00000000000E+00 0.  1.
</event>
<event>
 7    1  0.3305651E-013  0.7246149E+02  0.7816164E-02  0.1226708E+00
        -11   -1    0    0    0    0  0.00000000000E+00  0.00000000000E+00  0.45593999997E+02  0.45594000000E+02  0.51100000000E-03 0.  1.
         11   -1    0    0    0    0 -0.00000000000E+00 -0.00000000000E+00 -0.45593999997E+02  0.45594000000E+02  0.51100000000E-03 0. -1.
    9900012    2    1    2    0    0 -0.30995800957E+00 -0.10180176452E+02  0.15714646482E+02  0.72461489897E+02  0.69999895268E+02 0.  0.
         12    1    1    2    0    0  0.30995800957E+00  0.10180176452E+02 -0.15714646482E+02  0.18726510103E+02  0.00000000000E+00 0. -1.
         11    1    3    3    0    0 -0.23096602828E+02 -0.76959794288E+01  0.54785899438E+01  0.24953879650E+02  0.51100000000E-03 0. -1.
        -11    1    3    3    0    0 -0.42125218408E+01 -0.92939956716E+01  0.16091260180E+02  0.19053932671E+02  0.51100000000E-03 0.  1.
        -12    1    3    3    0    0  0.26999166659E+02  0.68097986486E+01 -0.58552036415E+01  0.28453677576E+02  0.00000000000E+00 0.  1.
</event>
<event>
 7    1  0.3305651E-013  0.7246153E+02  0.7816164E-02  0.1226708E+00
        -11   -1    0    0    0    0  0.00000000000E+00  0.00000000000E+00  0.45593999997E+02  0.45594000000E+02  0.51100000000E-03 0. -1.
         11   -1    0    0    0    0 -0.00000000000E+00 -0.00000000000E+00 -0.45593999997E+02  0.45594000000E+02  0.51100000000E-03 0.  1.
    9900012    2    1    2    0    0 -0.12590541792E+02  0.90625011914E+00 -0.13832485403E+02  0.72461529848E+02  0.69999947312E+02 0.  0.
         12    1    1    2    0    0  0.12590541792E+02 -0.90625011914E+00  0.13832485403E+02  0.18726470152E+02  0.00000000000E+00 0. -1.
         11    1    3    3    0    0 -0.15255777654E+02 -0.19367095065E+01 -0.67680072116E+01  0.16801652223E+02  0.51100000000E-03 0. -1.
        -11    1    3    3    0    0 -0.15017815618E+02 -0.25414634080E+01  0.18594279510E+02  0.24036244568E+02  0.51100000000E-03 0.  1.
        -12    1    3    3    0    0  0.17683051479E+02  0.53844230336E+01 -0.25658757701E+02  0.31623633058E+02  0.00000000000E+00 0.  1.
</event>
<event>
 7    1  0.3305651E-013  0.7246161E+02  0.7816164E-02  0.1226708E+00
        -11   -1    0    0    0    0  0.00000000000E+00  0.00000000000E+00  0.45593999997E+02  0.45594000000E+02  0.51100000000E-03 0. -1.
         11   -1    0    0    0    0 -0.00000000000E+00 -0.00000000000E+00 -0.45593999997E+02  0.45594000000E+02  0.51100000000E-03 0.  1.
    9900012    2    1    2    0    0  0.55057648302E+00  0.18369204492E+02  0.35981810955E+01  0.72461609121E+02  0.70000050579E+02 0.  0.
         12    1    1    2    0    0 -0.55057648302E+00 -0.18369204492E+02 -0.35981810955E+01  0.18726390879E+02  0.00000000000E+00 0. -1.
         11    1    3    3    0    0 -0.15191696750E+02  0.97003584581E+01 -0.46346825411E+01  0.18610880873E+02  0.51100000000E-03 0.  1.
        -11    1    3    3    0    0 -0.14886102089E+02  0.41280506392E+01  0.15672869303E+02  0.22006264333E+02  0.51100000000E-03 0. -1.
         12    1    3    3    0    0  0.30628375322E+02  0.45407953951E+01 -0.74400056661E+01  0.31844463914E+02  0.00000000000E+00 0. -1.
</event>
<event>
 7    1  0.3305651E-013  0.7246156E+02  0.7816164E-02  0.1226708E+00
        -11   -1    0    0    0    0  0.00000000000E+00  0.00000000000E+00  0.45593999997E+02  0.45594000000E+02  0.51100000000E-03 0. -1.
         11   -1    0    0    0    0 -0.00000000000E+00 -0.00000000000E+00 -0.45593999997E+02  0.45594000000E+02  0.51100000000E-03 0.  1.
    9900012    2    1    2    0    0 -0.13884690941E+02 -0.97968084383E+01 -0.78687589135E+01  0.72461562406E+02  0.69999989725E+02 0.  0.
         12    1    1    2    0    0  0.13884690941E+02  0.97968084383E+01  0.78687589135E+01  0.18726437594E+02  0.00000000000E+00 0. -1.
         11    1    3    3    0    0 -0.17888142312E+02 -0.25525356087E+02  0.91641346895E+01  0.32488625757E+02  0.51100000000E-03 0. -1.
        -11    1    3    3    0    0 -0.12347067170E+02 -0.11302519981E+01 -0.35695986711E+01  0.12902308794E+02  0.51100000000E-03 0.  1.
         12    1    3    3    0    0  0.16350518541E+02  0.16858799647E+02 -0.13463294932E+02  0.27070627856E+02  0.00000000000E+00 0. -1.
</event>
<event>
 7    1  0.3305651E-013  0.7246150E+02  0.7816164E-02  0.1226708E+00
        -11   -1    0    0    0    0  0.00000000000E+00  0.00000000000E+00  0.45593999997E+02  0.45594000000E+02  0.51100000000E-03 0. -1.
         11   -1    0    0    0    0 -0.00000000000E+00 -0.00000000000E+00 -0.45593999997E+02  0.45594000000E+02  0.51100000000E-03 0.  1.
    9900012    2    1    2    0    0 -0.10996784876E+02 -0.67971627229E+01  0.13548101806E+02  0.72461501095E+02  0.69999909855E+02 0.  0.
         12    1    1    2    0    0  0.10996784876E+02  0.67971627229E+01 -0.13548101806E+02  0.18726498905E+02  0.00000000000E+00 0. -1.
         11    1    3    3    0    0  0.63267078428E+01  0.14121578930E+02 -0.10758217323E+02  0.18846364738E+02  0.51100000000E-03 0. -1.
        -11    1    3    3    0    0 -0.55104423357E+01 -0.96605669607E+01 -0.10423388605E+02  0.15242655904E+02  0.51100000000E-03 0.  1.
        -12    1    3    3    0    0 -0.11813050383E+02 -0.11258174692E+02  0.34729707735E+02  0.38372480453E+02  0.00000000000E+00 0.  1.
</event>
<event>
 7    1  0.3305651E-013  0.7246168E+02  0.7816164E-02  0.1226708E+00
        -11   -1    0    0    0    0  0.00000000000E+00  0.00000000000E+00  0.45593999997E+02  0.45594000000E+02  0.51100000000E-03 0.  1.
         11   -1    0    0    0    0 -0.00000000000E+00 -0.00000000000E+00 -0.45593999997E+02  0.45594000000E+02  0.51100000000E-03 0. -1.
    9900012    2    1    2    0    0  0.16802578155E+02  0.66368984783E+01  0.49294956011E+01  0.72461682131E+02  0.70000145688E+02 0.  0.
         12    1    1    2    0    0 -0.16802578155E+02 -0.66368984783E+01 -0.49294956011E+01  0.18726317869E+02  0.00000000000E+00 0. -1.
         11    1    3    3    0    0  0.26536498628E+02  0.28172562480E+01  0.60252807805E+01  0.27357388416E+02  0.51100000000E-03 0. -1.
        -11    1    3    3    0    0  0.13105792462E+02 -0.11572615936E+02 -0.16044117763E+01  0.17557373752E+02  0.51100000000E-03 0.  1.
         12    1    3    3    0    0 -0.22839712935E+02  0.15392258166E+02  0.50862659685E+00  0.27546919963E+02  0.00000000000E+00 0. -1.
</event>
<event>
 7    1  0.3305651E-013  0.7246159E+02  0.7816164E-02  0.1226708E+00
        -11   -1    0    0    0    0  0.00000000000E+00  0.00000000000E+00  0.45593999997E+02  0.45594000000E+02  0.51100000000E-03 0.  1.
         11   -1    0    0    0    0 -0.00000000000E+00 -0.00000000000E+00 -0.45593999997E+02  0.45594000000E+02  0.51100000000E-03 0. -1.
    9900012    2    1    2    0    0 -0.77246691946E+01 -0.15583174043E+02  0.69406539330E+01  0.72461588052E+02  0.70000023133E+02 0.  0.
         12    1    1    2    0    0  0.77246691946E+01  0.15583174043E+02 -0.69406539330E+01  0.18726411948E+02  0.00000000000E+00 0. -1.
         11    1    3    3    0    0  0.62308104367E+01 -0.18422436665E+02  0.31769762202E+01  0.19705388846E+02  0.51100000000E-03 0. -1.
        -11    1    3    3    0    0  0.17992652903E+02 -0.66021526869E+01 -0.48841516420E+00  0.19171920306E+02  0.51100000000E-03 0.  1.
        -12    1    3    3    0    0 -0.31948132534E+02  0.94414153091E+01  0.42520928769E+01  0.33584278901E+02  0.00000000000E+00 0.  1.
</event>
<event>
 7    1  0.3305651E-013  0.7246156E+02  0.7816164E-02  0.1226708E+00
        -11   -1    0    0    0    0  0.00000000000E+00  0.00000000000E+00  0.45593999997E+02  0.45594000000E+02  0.51100000000E-03 0.  1.
         11   -1    0    0    0    0 -0.00000000000E+00 -0.00000000000E+00 -0.45593999997E+02  0.45594000000E+02  0.51100000000E-03 0. -1.
    9900012    2    1    2    0    0  0.83251258742E+00  0.12475227923E+02 -0.13941133777E+02  0.72461558802E+02  0.69999985030E+02 0.  0.
         12    1    1    2    0    0 -0.83251258742E+00 -0.12475227923E+02  0.13941133777E+02  0.18726441198E+02  0.00000000000E+00 0. -1.
         11    1    3    3    0    0  0.14512111630E+02  0.71773409700E+01 -0.27122022034E+02  0.31586701107E+02  0.51100000000E-03 0. -1.
        -11    1    3    3    0    0  0.10300993435E+02  0.88412575350E+01  0.89701806304E+01  0.16270907822E+02  0.51100000000E-03 0.  1.
         12    1    3    3    0    0 -0.23980592478E+02 -0.35433705817E+01  0.42107076267E+01  0.24603949873E+02  0.00000000000E+00 0. -1.
</event>
<event>
 7    1  0.3305651E-013  0.7246156E+02  0.7816164E-02  0.1226708E+00
        -11   -1    0    0    0    0  0.00000000000E+00  0.00000000000E+00  0.45593999997E+02  0.45594000000E+02  0.51100000000E-03 0. -1.
         11   -1    0    0    0    0 -0.00000000000E+00 -0.00000000000E+00 -0.45593999997E+02  0.45594000000E+02  0.51100000000E-03 0.  1.
    9900012    2    1    2    0    0  0.80530582424E+01 -0.14155229033E+02 -0.92443061332E+01  0.72461562754E+02  0.69999990178E+02 0.  0.
         12    1    1    2    0    0 -0.80530582424E+01  0.14155229033E+02  0.92443061332E+01  0.18726437246E+02  0.00000000000E+00 0. -1.
         11    1    3    3    0    0  0.87416401591E+01 -0.72714320851E+01  0.15683902220E+02  0.19372010385E+02  0.51100000000E-03 0. -1.
        -11    1    3    3    0    0  0.21173664147E+02 -0.70414157166E+01 -0.37041000040E+01  0.22619149979E+02  0.51100000000E-03 0.  1.
        -12    1    3    3    0    0 -0.21862246063E+02  0.15761876854E+00 -0.21224108349E+02  0.30470402390E+02  0.00000000000E+00 0.  1.
</event>
<event>
 7    1  0.3305651E-013  0.7246155E+02  0.7816164E-02  0.1226708E+00
        -11   -1    0    0    0    0  0.00000000000E+00  0.00000000000E+00  0.45593999997E+02  0.45594000000E+02  0.51100000000E-03 0.  1.
         11   -1    0    0    0    0 -0.00000000000E+00 -0.00000000000E+00 -0.45593999997E+02  0.45594000000E+02  0.51100000000E-03 0. -1.
    9900012    2    1    2    0    0 -0.16497361058E+01  0.10962312497E+02  0.15092575506E+02  0.72461554531E+02  0.69999979465E+02 0.  0.
         12    1    1    2    0    0  0.16497361058E+01 -0.10962312497E+02 -0.15092575506E+02  0.18726445469E+02  0.00000000000E+00 0. -1.
         11    1    3    3    0    0  0.34558131694E+01 -0.39923628397E+01  0.13761457982E+01  0.54566824376E+01  0.51100000000E-03 0. -1.
        -11    1    3    3    0    0  0.11074786103E+02  0.35125001816E+02  0.17665105277E+02  0.40846940944E+02  0.51100000000E-03 0.  1.
         12    1    3    3    0    0 -0.16180335378E+02 -0.20170326479E+02 -0.39486755686E+01  0.26157931149E+02  0.00000000000E+00 0. -1.
</event>
<event>
 7    1  0.3305651E-013  0.7246151E+02  0.7816164E-02  0.1226708E+00
        -11   -1    0    0    0    0  0.00000000000E+00  0.00000000000E+00  0.45593999997E+02  0.45594000000E+02  0.51100000000E-03 0.  1.
         11   -1    0    0    0    0 -0.00000000000E+00 -0.00000000000E+00 -0.45593999997E+02  0.45594000000E+02  0.51100000000E-03 0. -1.
    9900012    2    1    2    0    0 -0.13560645604E+02  0.47317875344E+01  0.12016671326E+02  0.72461513084E+02  0.69999925473E+02 0.  0.
         12    1    1    2    0    0  0.13560645604E+02 -0.47317875344E+01 -0.12016671326E+02  0.18726486916E+02  0.00000000000E+00 0. -1.
         11    1    3    3    0    0 -0.22096229907E+02  0.29731698154E+01 -0.12001425145E+02  0.25320294639E+02  0.51100000000E-03 0. -1.
        -11    1    3    3    0    0 -0.33029886344E+00  0.14614562878E+02 -0.39199581570E+01  0.15134748682E+02  0.51100000000E-03 0.  1.
        -12    1    3    3    0    0  0.88658831670E+01 -0.12855945159E+02  0.27938054628E+02  0.32006469762E+02  0.00000000000E+00 0.  1.
</event>
<event>
 7    1  0.3305651E-013  0.7246157E+02  0.7816164E-02  0.1226708E+00
        -11   -1    0    0    0    0  0.00000000000E+00  0.00000000000E+00  0.45593999997E+02  0.45594000000E+02  0.51100000000E-03 0.  1.
         11   -1    0    0    0    0 -0.00000000000E+00 -0.00000000000E+00 -0.45593999997E+02  0.45594000000E+02  0.51100000000E-03 0. -1.
    9900012    2    1    2    0    0 -0.13040534140E+02  0.11929486245E+02  0.61895799934E+01  0.72461572865E+02  0.70000003349E+02 0.  0.
         12    1    1    2    0    0  0.13040534140E+02 -0.11929486245E+02 -0.61895799934E+01  0.18726427135E+02  0.00000000000E+00 0. -1.
         11    1    3    3    0    0  0.20028938360E+02  0.46090295740E+01 -0.13403954912E+02  0.24537064474E+02  0.51100000000E-03 0. -1.
        -11    1    3    3    0    0 -0.70087272934E+01 -0.16059004384E+01  0.19061172919E+02  0.20372272524E+02  0.51100000000E-03 0.  1.
        -12    1    3    3    0    0 -0.26060745207E+02  0.89263571096E+01  0.53236198661E+00  0.27552235867E+02  0.00000000000E+00 0.  1.
</event>
<event>
 7    1  0.3305651E-013  0.7246148E+02  0.7816164E-02  0.1226708E+00
        -11   -1    0    0    0    0  0.00000000000E+00  0.00000000000E+00  0.45593999997E+02  0.45594000000E+02  0.51100000000E-03 0.  1.
         11   -1    0    0    0    0 -0.00000000000E+00 -0.00000000000E+00 -0.45593999997E+02  0.45594000000E+02  0.51100000000E-03 0. -1.
    9900012    2    1    2    0    0  0.55328787177E+01 -0.16631906219E+02  0.65916197223E+01  0.72461481318E+02  0.69999884092E+02 0.  0.
         12    1    1    2    0    0 -0.55328787177E+01  0.16631906219E+02 -0.65916197223E+01  0.18726518682E+02  0.00000000000E+00 0. -1.
         11    1    3    3    0    0 -0.10164537077E+02  0.25663201399E+01 -0.97752644727E+01  0.14333862314E+02  0.51100000000E-03 0. -1.
        -11    1    3    3    0    0 -0.17278645435E+01 -0.10833975883E+02 -0.16608526758E+02  0.19904866507E+02  0.51100000000E-03 0.  1.
        -12    1    3    3    0    0  0.17425280339E+02 -0.83642504755E+01  0.32975410953E+02  0.38222752497E+02  0.00000000000E+00 0.  1.
</event>
<event>
 7    1  0.3305651E-013  0.7246156E+02  0.7816164E-02  0.1226708E+00
        -11   -1    0    0    0    0  0.00000000000E+00  0.00000000000E+00  0.45593999997E+02  0.45594000000E+02  0.51100000000E-03 0.  1.
         11   -1    0    0    0    0 -0.00000000000E+00 -0.00000000000E+00 -0.45593999997E+02  0.45594000000E+02  0.51100000000E-03 0. -1.
    9900012    2    1    2    0    0  0.36150786909E+01  0.18103334581E+02  0.31432499448E+01  0.72461560480E+02  0.69999987215E+02 0.  0.
         12    1    1    2    0    0 -0.36150786909E+01 -0.18103334581E+02 -0.31432499448E+01  0.18726439520E+02  0.00000000000E+00 0. -1.
         11    1    3    3    0    0  0.97834343777E+01  0.17679047783E+02 -0.13611137209E+02  0.24362417268E+02  0.51100000000E-03 0. -1.
        -11    1    3    3    0    0 -0.45867898386E+01  0.19569410111E+02  0.20296687022E+02  0.28564942805E+02  0.51100000000E-03 0.  1.
        -12    1    3    3    0    0 -0.15815658482E+01 -0.19145123313E+02 -0.35422998675E+01  0.19534200407E+02  0.00000000000E+00 0.  1.
</event>
<event>
 7    1  0.3305651E-013  0.7246165E+02  0.7816164E-02  0.1226708E+00
        -11   -1    0    0    0    0  0.00000000000E+00  0.00000000000E+00  0.45593999997E+02  0.45594000000E+02  0.51100000000E-03 0.  1.
         11   -1    0    0    0    0 -0.00000000000E+00 -0.00000000000E+00 -0.45593999997E+02  0.45594000000E+02  0.51100000000E-03 0. -1.
    9900012    2    1    2    0    0  0.23416651386E+01 -0.13649465134E+02  0.12604956071E+02  0.72461649271E+02  0.70000102882E+02 0.  0.
         12    1    1    2    0    0 -0.23416651386E+01  0.13649465134E+02 -0.12604956071E+02  0.18726350729E+02  0.00000000000E+00 0. -1.
         11    1    3    3    0    0  0.28905677185E+02 -0.23607149665E+02  0.53677868742E+01  0.37704758653E+02  0.51100000000E-03 0. -1.
        -11    1    3    3    0    0 -0.20513534713E+01  0.51970484275E+01  0.80195493512E+01  0.97739723490E+01  0.51100000000E-03 0.  1.
        -12    1    3    3    0    0 -0.24512658576E+02  0.47606361040E+01 -0.78238015443E+00  0.24982918270E+02  0.00000000000E+00 0.  1.
</event>
<event>
 7    1  0.3305651E-013  0.7246161E+02  0.7816164E-02  0.1226708E+00
        -11   -1    0    0    0    0  0.00000000000E+00  0.00000000000E+00  0.45593999997E+02  0.45594000000E+02  0.51100000000E-03 0. -1.
         11   -1    0    0    0    0 -0.00000000000E+00 -0.00000000000E+00 -0.45593999997E+02  0.45594000000E+02  0.51100000000E-03 0.  1.
    9900012    2    1    2    0    0  0.43414769639E+00 -0.18526017714E+02  0.26974133396E+01  0.72461605385E+02  0.70000045712E+02 0.  0.
         12    1    1    2    0    0 -0.43414769639E+00  0.18526017714E+02 -0.26974133396E+01  0.18726394615E+02  0.00000000000E+00 0. -1.
         11    1    3    3    0    0 -0.13700019055E+02  0.14529208336E+02  0.25202834568E+01  0.20128095935E+02  0.51100000000E-03 0. -1.
        -11    1    3    3    0    0 -0.25186002751E+01  0.75856150320E+01  0.24342055352E+01  0.83552534138E+01  0.51100000000E-03 0.  1.
        -12    1    3    3    0    0  0.16652767027E+02 -0.40640841082E+02 -0.22570756523E+01  0.43978256036E+02  0.00000000000E+00 0.  1.
</event>
<event>
 7    1  0.3305651E-013  0.7246145E+02  0.7816164E-02  0.1226708E+00
        -11   -1    0    0    0    0  0.00000000000E+00  0.00000000000E+00  0.45593999997E+02  0.45594000000E+02  0.51100000000E-03 0.  1.
         11   -1    0    0    0    0 -0.00000000000E+00 -0.00000000000E+00 -0.45593999997E+02  0.45594000000E+02  0.51100000000E-03 0. -1.
    9900012    2    1    2    0    0  0.38101372521E+01 -0.12312800991E+02  0.13585336986E+02  0.72461452129E+02  0.69999846068E+02 0.  0.
         12    1    1    2    0    0 -0.38101372521E+01  0.12312800991E+02 -0.13585336986E+02  0.18726547871E+02  0.00000000000E+00 0. -1.
         11    1    3    3    0    0  0.79269752979E+01 -0.43559378518E+01 -0.23443987204E+02  0.25128304125E+02  0.51100000000E-03 0. -1.
        -11    1    3    3    0    0 -0.64273287386E+01  0.12215587866E+01 -0.22585692340E+01  0.69212640341E+01  0.51100000000E-03 0.  1.
        -12    1    3    3    0    0  0.23104906928E+01 -0.91784219261E+01  0.39287893424E+02  0.40411883970E+02  0.00000000000E+00 0.  1.
</event>
<event>
 7    1  0.3305651E-013  0.7246158E+02  0.7816164E-02  0.1226708E+00
        -11   -1    0    0    0    0  0.00000000000E+00  0.00000000000E+00  0.45593999997E+02  0.45594000000E+02  0.51100000000E-03 0.  1.
         11   -1    0    0    0    0 -0.00000000000E+00 -0.00000000000E+00 -0.45593999997E+02  0.45594000000E+02  0.51100000000E-03 0. -1.
    9900012    2    1    2    0    0  0.10433317930E+02 -0.36563783133E+01  0.15114745037E+02  0.72461581684E+02  0.70000014837E+02 0.  0.
         12    1    1    2    0    0 -0.10433317930E+02  0.36563783133E+01 -0.15114745037E+02  0.18726418316E+02  0.00000000000E+00 0. -1.
         11    1    3    3    0    0  0.14583181863E+02  0.47060156277E+01  0.12467528378E+02  0.19754873841E+02  0.51100000000E-03 0. -1.
        -11    1    3    3    0    0  0.14495424252E+02  0.10961672666E+02  0.14602154480E+02  0.23313054446E+02  0.51100000000E-03 0.  1.
         12    1    3    3    0    0 -0.18645288185E+02 -0.19324066607E+02 -0.11954937821E+02  0.29393653397E+02  0.00000000000E+00 0. -1.
</event>
<event>
 7    1  0.3305651E-013  0.7246157E+02  0.7816164E-02  0.1226708E+00
        -11   -1    0    0    0    0  0.00000000000E+00  0.00000000000E+00  0.45593999997E+02  0.45594000000E+02  0.51100000000E-03 0.  1.
         11   -1    0    0    0    0 -0.00000000000E+00 -0.00000000000E+00 -0.45593999997E+02  0.45594000000E+02  0.51100000000E-03 0. -1.
    9900012    2    1    2    0    0 -0.11924911897E+02 -0.90468497530E+01  0.11253007146E+02  0.72461569906E+02  0.69999999495E+02 0.  0.
         12    1    1    2    0    0  0.11924911897E+02  0.90468497530E+01 -0.11253007146E+02  0.18726430094E+02  0.00000000000E+00 0. -1.
         11    1    3    3    0    0  0.14144018182E+02  0.49635117407E+01 -0.75460060963E+01  0.16781892247E+02  0.51100000000E-03 0. -1.
        -11    1    3    3    0    0 -0.28066954410E+01 -0.15475264961E+01 -0.13554335428E+02  0.13928114973E+02  0.51100000000E-03 0.  1.
         12    1    3    3    0    0 -0.23262234638E+02 -0.12462834998E+02  0.32353348670E+02  0.41751562686E+02  0.00000000000E+00 0. -1.
</event>
<event>
 7    1  0.3305651E-013  0.7246167E+02  0.7816164E-02  0.1226708E+00
        -11   -1    0    0    0    0  0.00000000000E+00  0.00000000000E+00  0.45593999997E+02  0.45594000000E+02  0.51100000000E-03 0.  1.
         11   -1    0    0    0    0 -0.00000000000E+00 -0.00000000000E+00 -0.45593999997E+02  0.45594000000E+02  0.51100000000E-03 0. -1.
    9900012    2    1    2    0    0  0.14940150216E+01  0.18371988540E+02 -0.33035235008E+01  0.72461673310E+02  0.70000134197E+02 0.  0.
         12    1    1    2    0    0 -0.14940150216E+01 -0.18371988540E+02  0.33035235008E+01  0.18726326690E+02  0.00000000000E+00 0. -1.
         11    1    3    3    0    0  0.23248159416E+01 -0.13764734202E+02 -0.10618820517E+02  0.17539442016E+02  0.51100000000E-03 0. -1.
        -11    1    3    3    0    0  0.19447718277E+02  0.96611561964E+01  0.11146884230E+02  0.24409111281E+02  0.51100000000E-03 0.  1.
        -12    1    3    3    0    0 -0.20278519197E+02  0.22475566545E+02 -0.38315872139E+01  0.30513120013E+02  0.00000000000E+00 0.  1.
</event>
<event>
 7    1  0.3305651E-013  0.7246165E+02  0.7816164E-02  0.1226708E+00
        -11   -1    0    0    0    0  0.00000000000E+00  0.00000000000E+00  0.45593999997E+02  0.45594000000E+02  0.51100000000E-03 0.  1.
         11   -1    0    0    0    0 -0.00000000000E+00 -0.00000000000E+00 -0.45593999997E+02  0.45594000000E+02  0.51100000000E-03 0. -1.
    9900012    2    1    2    0    0 -0.12399029476E+02  0.59227140955E+01  0.12722495588E+02  0.72461645090E+02  0.70000097436E+02 0.  0.
         12    1    1    2    0    0  0.12399029476E+02 -0.59227140955E+01 -0.12722495588E+02  0.18726354910E+02  0.00000000000E+00 0. -1.
         11    1    3    3    0    0 -0.38090781321E+01  0.56873464301E+01  0.11132555815E+02  0.13068618323E+02  0.51100000000E-03 0. -1.
        -11    1    3    3    0    0  0.30718544493E+00  0.22797243689E+02  0.18885196713E+02  0.29605055951E+02  0.51100000000E-03 0.  1.
         12    1    3    3    0    0 -0.88971367891E+01 -0.22561876024E+02 -0.17295256940E+02  0.29787970817E+02  0.00000000000E+00 0. -1.
</event>
<event>
 7    1  0.3305651E-013  0.7246158E+02  0.7816164E-02  0.1226708E+00
        -11   -1    0    0    0    0  0.00000000000E+00  0.00000000000E+00  0.45593999997E+02  0.45594000000E+02  0.51100000000E-03 0. -1.
         11   -1    0    0    0    0 -0.00000000000E+00 -0.00000000000E+00 -0.45593999997E+02  0.45594000000E+02  0.51100000000E-03 0.  1.
    9900012    2    1    2    0    0 -0.88621161592E+01  0.91115193225E+01 -0.13752165269E+02  0.72461576509E+02  0.70000008095E+02 0.  0.
         12    1    1    2    0    0  0.88621161592E+01 -0.91115193225E+01  0.13752165269E+02  0.18726423491E+02  0.00000000000E+00 0. -1.
         11    1    3    3    0    0  0.70949668093E+01  0.13915311638E+02 -0.34634260984E+00  0.15623520905E+02  0.51100000000E-03 0. -1.
        -11    1    3    3    0    0 -0.61150040239E+01 -0.27230528202E+01 -0.33608906684E+02  0.34269037040E+02  0.51100000000E-03 0.  1.
         12    1    3    3    0    0 -0.98420789446E+01 -0.20807394955E+01  0.20203084025E+02  0.22569018563E+02  0.00000000000E+00 0. -1.
</event>
<event>
 7    1  0.3305651E-013  0.7246159E+02  0.7816164E-02  0.1226708E+00
        -11   -1    0    0    0    0  0.00000000000E+00  0.00000000000E+00  0.45593999997E+02  0.45594000000E+02  0.51100000000E-03 0. -1.
         11   -1    0    0    0    0 -0.00000000000E+00 -0.00000000000E+00 -0.45593999997E+02  0.45594000000E+02  0.51100000000E-03 0.  1.
    9900012    2    1    2    0    0  0.16721655212E+02  0.81542062471E+01 -0.21385807268E+01  0.72461591906E+02  0.70000028154E+02 0.  0.
         12    1    1    2    0    0 -0.16721655212E+02 -0.81542062471E+01  0.21385807268E+01  0.18726408094E+02  0.00000000000E+00 0. -1.
         11    1    3    3    0    0 -0.97548588364E+01  0.22052702643E+02  0.54245529982E+01  0.24716487215E+02  0.51100000000E-03 0. -1.
        -11    1    3    3    0    0 -0.35160014150E+01 -0.28207647251E+01 -0.14365905346E+02  0.15056500797E+02  0.51100000000E-03 0.  1.
        -12    1    3    3    0    0  0.29992515464E+02 -0.11077731671E+02  0.68027716210E+01  0.32688603894E+02  0.00000000000E+00 0.  1.
</event>
<event>
 7    1  0.3305651E-013  0.7246150E+02  0.7816164E-02  0.1226708E+00
        -11   -1    0    0    0    0  0.00000000000E+00  0.00000000000E+00  0.45593999997E+02  0.45594000000E+02  0.51100000000E-03 0. -1.
         11   -1    0    0    0    0 -0.00000000000E+00 -0.00000000000E+00 -0.45593999997E+02  0.45594000000E+02  0.51100000000E-03 0.  1.
    9900012    2    1    2    0    0 -0.12792984715E+02  0.37713252213E+01 -0.13145287947E+02  0.72461496134E+02  0.69999903392E+02 0.  0.
         12    1    1    2    0    0  0.12792984715E+02 -0.37713252213E+01  0.13145287947E+02  0.18726503866E+02  0.00000000000E+00 0. -1.
         11    1    3    3    0    0 -0.17746478066E+02 -0.23645437931E+02 -0.88806983150E+01  0.30869256899E+02  0.51100000000E-03 0. -1.
        -11    1    3    3    0    0 -0.11220634741E+02  0.46925073768E+01 -0.61639025195E+01  0.13635100440E+02  0.51100000000E-03 0.  1.
         12    1    3    3    0    0  0.16174128093E+02  0.22724255776E+02  0.18993128872E+01  0.27957138794E+02  0.00000000000E+00 0. -1.
</event>
<event>
 7    1  0.3305651E-013  0.7246160E+02  0.7816164E-02  0.1226708E+00
        -11   -1    0    0    0    0  0.00000000000E+00  0.00000000000E+00  0.45593999997E+02  0.45594000000E+02  0.51100000000E-03 0.  1.
         11   -1    0    0    0    0 -0.00000000000E+00 -0.00000000000E+00 -0.45593999997E+02  0.45594000000E+02  0.51100000000E-03 0. -1.
    9900012    2    1    2    0    0 -0.17425078192E+02  0.67009183140E+01 -0.14637003260E+01  0.72461599521E+02  0.70000038073E+02 0.  0.
         12    1    1    2    0    0  0.17425078192E+02 -0.67009183140E+01  0.14637003260E+01  0.18726400479E+02  0.00000000000E+00 0. -1.
         11    1    3    3    0    0 -0.46845054278E+01 -0.57556735959E+01 -0.28844244670E+02  0.29783599858E+02  0.51100000000E-03 0. -1.
        -11    1    3    3    0    0  0.65504504011E+01  0.10488415341E+02  0.57788456923E+01  0.13649553642E+02  0.51100000000E-03 0.  1.
        -12    1    3    3    0    0 -0.19291023166E+02  0.19681765690E+01  0.21601698652E+02  0.29028446021E+02  0.00000000000E+00 0.  1.
</event>
<event>
 7    1  0.3305651E-013  0.7246166E+02  0.7816164E-02  0.1226708E+00
        -11   -1    0    0    0    0  0.00000000000E+00  0.00000000000E+00  0.45593999997E+02  0.45594000000E+02  0.51100000000E-03 0.  1.
         11   -1    0    0    0    0 -0.00000000000E+00 -0.00000000000E+00 -0.45593999997E+02  0.45594000000E+02  0.51100000000E-03 0. -1.
    9900012    2    1    2    0    0  0.12965987722E+02 -0.96499731818E+01 -0.94571078551E+01  0.72461662691E+02  0.70000120364E+02 0.  0.
         12    1    1    2    0    0 -0.12965987722E+02  0.96499731818E+01  0.94571078551E+01  0.18726337309E+02  0.00000000000E+00 0. -1.
         11    1    3    3    0    0  0.20584599409E+02 -0.78862830897E+01 -0.31284866274E+01  0.22264469961E+02  0.51100000000E-03 0. -1.
        -11    1    3    3    0    0  0.17166903302E+02  0.12378124870E+02 -0.42401720282E+01  0.21584707627E+02  0.51100000000E-03 0.  1.
        -12    1    3    3    0    0 -0.24785514989E+02 -0.14141814962E+02 -0.20884491996E+01  0.28612485103E+02  0.00000000000E+00 0.  1.
</event>
<event>
 7    1  0.3305651E-013  0.7246169E+02  0.7816164E-02  0.1226708E+00
        -11   -1    0    0    0    0  0.00000000000E+00  0.00000000000E+00  0.45593999997E+02  0.45594000000E+02  0.51100000000E-03 0.  1.
         11   -1    0    0    0    0 -0.00000000000E+00 -0.00000000000E+00 -0.45593999997E+02  0.45594000000E+02  0.51100000000E-03 0. -1.
    9900012    2    1    2    0    0 -0.23835003374E+01 -0.10960475541E+02  0.14995388005E+02  0.72461688047E+02  0.70000153395E+02 0.  0.
         12    1    1    2    0    0  0.23835003374E+01  0.10960475541E+02 -0.14995388005E+02  0.18726311953E+02  0.00000000000E+00 0. -1.
         11    1    3    3    0    0 -0.74566496191E+01  0.78178790311E+01 -0.81444003940E+01  0.13529675315E+02  0.51100000000E-03 0. -1.
        -11    1    3    3    0    0  0.41508449610E+00  0.62721791993E+01 -0.13158882056E+02  0.14583165098E+02  0.51100000000E-03 0.  1.
        -12    1    3    3    0    0  0.46580647856E+01 -0.25050533771E+02  0.36298670454E+02  0.44348847635E+02  0.00000000000E+00 0.  1.
</event>
<event>
 7    1  0.3305651E-013  0.7246156E+02  0.7816164E-02  0.1226708E+00
        -11   -1    0    0    0    0  0.00000000000E+00  0.00000000000E+00  0.45593999997E+02  0.45594000000E+02  0.51100000000E-03 0.  1.
         11   -1    0    0    0    0 -0.00000000000E+00 -0.00000000000E+00 -0.45593999997E+02  0.45594000000E+02  0.51100000000E-03 0. -1.
    9900012    2    1    2    0    0 -0.18701531732E+02 -0.18490835552E+00 -0.94757870762E+00  0.72461564524E+02  0.69999992483E+02 0.  0.
         12    1    1    2    0    0  0.18701531732E+02  0.18490835552E+00  0.94757870762E+00  0.18726435476E+02  0.00000000000E+00 0. -1.
         11    1    3    3    0    0  0.16450397421E+02  0.95693557938E+01 -0.11962002043E+02  0.22478381587E+02  0.51100000000E-03 0. -1.
        -11    1    3    3    0    0  0.11187630992E+00  0.88069069931E+01  0.79576069691E+00  0.88434926608E+01  0.51100000000E-03 0.  1.
         12    1    3    3    0    0 -0.35263805463E+02 -0.18561171142E+02  0.10218662639E+02  0.41139690276E+02  0.00000000000E+00 0. -1.
</event>
<event>
 7    1  0.3305651E-013  0.7246155E+02  0.7816164E-02  0.1226708E+00
        -11   -1    0    0    0    0  0.00000000000E+00  0.00000000000E+00  0.45593999997E+02  0.45594000000E+02  0.51100000000E-03 0.  1.
         11   -1    0    0    0    0 -0.00000000000E+00 -0.00000000000E+00 -0.45593999997E+02  0.45594000000E+02  0.51100000000E-03 0. -1.
    9900012    2    1    2    0    0 -0.13857604074E+02 -0.67505763422E+01 -0.10633738163E+02  0.72461551887E+02  0.69999976021E+02 0.  0.
         12    1    1    2    0    0  0.13857604074E+02  0.67505763422E+01  0.10633738163E+02  0.18726448113E+02  0.00000000000E+00 0. -1.
         11    1    3    3    0    0 -0.90356563461E+01 -0.80218168545E+01 -0.54503115896E+01  0.13255132136E+02  0.51100000000E-03 0. -1.
        -11    1    3    3    0    0  0.24065333664E+02  0.38723333574E+01 -0.14959139180E+02  0.28599145009E+02  0.51100000000E-03 0.  1.
         12    1    3    3    0    0 -0.28887281391E+02 -0.26010928451E+01  0.97757126068E+01  0.30607274742E+02  0.00000000000E+00 0. -1.
</event>
<event>
 7    1  0.3305651E-013  0.7246154E+02  0.7816164E-02  0.1226708E+00
        -11   -1    0    0    0    0  0.00000000000E+00  0.00000000000E+00  0.45593999997E+02  0.45594000000E+02  0.51100000000E-03 0.  1.
         11   -1    0    0    0    0 -0.00000000000E+00 -0.00000000000E+00 -0.45593999997E+02  0.45594000000E+02  0.51100000000E-03 0. -1.
    9900012    2    1    2    0    0 -0.16251048964E+02  0.34761746727E+01  0.86313249976E+01  0.72461544009E+02  0.69999965758E+02 0.  0.
         12    1    1    2    0    0  0.16251048964E+02 -0.34761746727E+01 -0.86313249976E+01  0.18726455991E+02  0.00000000000E+00 0. -1.
         11    1    3    3    0    0 -0.12687306647E+02 -0.69721588836E+01  0.38143579881E+01  0.14970907674E+02  0.51100000000E-03 0. -1.
        -11    1    3    3    0    0 -0.18184538250E+02 -0.16960107235E+02 -0.40313113667E+01  0.25190755057E+02  0.51100000000E-03 0.  1.
         12    1    3    3    0    0  0.14620795933E+02  0.27408440791E+02  0.88482783762E+01  0.32299881277E+02  0.00000000000E+00 0. -1.
</event>
<event>
 7    1  0.3305651E-013  0.7246155E+02  0.7816164E-02  0.1226708E+00
        -11   -1    0    0    0    0  0.00000000000E+00  0.00000000000E+00  0.45593999997E+02  0.45594000000E+02  0.51100000000E-03 0. -1.
         11   -1    0    0    0    0 -0.00000000000E+00 -0.00000000000E+00 -0.45593999997E+02  0.45594000000E+02  0.51100000000E-03 0.  1.
    9900012    2    1    2    0    0 -0.68988650009E+01 -0.17246583687E+02  0.23750552671E+01  0.72461551466E+02  0.69999975473E+02 0.  0.
         12    1    1    2    0    0  0.68988650009E+01  0.17246583687E+02 -0.23750552671E+01  0.18726448534E+02  0.00000000000E+00 0. -1.
         11    1    3    3    0    0 -0.12557512722E+02 -0.18465569629E+02  0.32338206915E+02  0.39299211369E+02  0.51100000000E-03 0. -1.
        -11    1    3    3    0    0 -0.23551393583E+01 -0.17935874034E+01 -0.12737117876E+01  0.32227285256E+01  0.51100000000E-03 0.  1.
        -12    1    3    3    0    0  0.80137870799E+01  0.30125733451E+01 -0.28689439860E+02  0.29939611571E+02  0.00000000000E+00 0.  1.
</event>
<event>
 7    1  0.3305651E-013  0.7246158E+02  0.7816164E-02  0.1226708E+00
        -11   -1    0    0    0    0  0.00000000000E+00  0.00000000000E+00  0.45593999997E+02  0.45594000000E+02  0.51100000000E-03 0.  1.
         11   -1    0    0    0    0 -0.00000000000E+00 -0.00000000000E+00 -0.45593999997E+02  0.45594000000E+02  0.51100000000E-03 0. -1.
    9900012    2    1    2    0    0  0.84708035768E+01 -0.14264742511E+02  0.86856979055E+01  0.72461581756E+02  0.70000014931E+02 0.  0.
         12    1    1    2    0    0 -0.84708035768E+01  0.14264742511E+02 -0.86856979055E+01  0.18726418244E+02  0.00000000000E+00 0. -1.
         11    1    3    3    0    0  0.84422362278E+01 -0.10447847617E+02 -0.22257129275E+02  0.25996320436E+02  0.51100000000E-03 0. -1.
        -11    1    3    3    0    0 -0.16132774400E+02 -0.41317557141E+01  0.81989131057E+01  0.18562327211E+02  0.51100000000E-03 0.  1.
        -12    1    3    3    0    0  0.16161341749E+02  0.31486082068E+00  0.22743914075E+02  0.27902934109E+02  0.00000000000E+00 0.  1.
</event>
<event>
 7    1  0.3305651E-013  0.7246160E+02  0.7816164E-02  0.1226708E+00
        -11   -1    0    0    0    0  0.00000000000E+00  0.00000000000E+00  0.45593999997E+02  0.45594000000E+02  0.51100000000E-03 0. -1.
         11   -1    0    0    0    0 -0.00000000000E+00 -0.00000000000E+00 -0.45593999997E+02  0.45594000000E+02  0.51100000000E-03 0.  1.
    9900012    2    1    2    0    0 -0.11303275103E+02  0.30765220713E+00 -0.14927141233E+02  0.72461595558E+02  0.70000032911E+02 0.  0.
         12    1    1    2    0    0  0.11303275103E+02 -0.30765220713E+00  0.14927141233E+02  0.18726404442E+02  0.00000000000E+00 0. -1.
         11    1    3    3    0    0  0.12579953001E+02  0.17645987663E+02  0.92384862802E+01  0.23558135052E+02  0.51100000000E-03 0. -1.
        -11    1    3    3    0    0  0.66315088536E+01  0.84187017778E+00 -0.61165771618E+01  0.90608041315E+01  0.51100000000E-03 0.  1.
        -12    1    3    3    0    0 -0.30514736958E+02 -0.18180205633E+02 -0.18049050351E+02  0.39842656375E+02  0.00000000000E+00 0.  1.
</event>
<event>
 7    1  0.3305651E-013  0.7246154E+02  0.7816164E-02  0.1226708E+00
        -11   -1    0    0    0    0  0.00000000000E+00  0.00000000000E+00  0.45593999997E+02  0.45594000000E+02  0.51100000000E-03 0. -1.
         11   -1    0    0    0    0 -0.00000000000E+00 -0.00000000000E+00 -0.45593999997E+02  0.45594000000E+02  0.51100000000E-03 0.  1.
    9900012    2    1    2    0    0 -0.89765564186E+00  0.16464051388E+02 -0.88774837436E+01  0.72461535000E+02  0.69999954023E+02 0.  0.
         12    1    1    2    0    0  0.89765564186E+00 -0.16464051388E+02  0.88774837436E+01  0.18726465000E+02  0.00000000000E+00 0. -1.
         11    1    3    3    0    0 -0.12283718361E+02  0.23047178720E+02 -0.17735076799E+01  0.26176468698E+02  0.51100000000E-03 0. -1.
        -11    1    3    3    0    0 -0.61656548638E+01  0.15852106358E+02 -0.36131443275E+00  0.17012792959E+02  0.51100000000E-03 0.  1.
        -12    1    3    3    0    0  0.17551717583E+02 -0.22435233690E+02 -0.67426616309E+01  0.29272273343E+02  0.00000000000E+00 0.  1.
</event>
<event>
 7    1  0.3305651E-013  0.7246158E+02  0.7816164E-02  0.1226708E+00
        -11   -1    0    0    0    0  0.00000000000E+00  0.00000000000E+00  0.45593999997E+02  0.45594000000E+02  0.51100000000E-03 0.  1.
         11   -1    0    0    0    0 -0.00000000000E+00 -0.00000000000E+00 -0.45593999997E+02  0.45594000000E+02  0.51100000000E-03 0. -1.
    9900012    2    1    2    0    0 -0.27426335405E+01  0.43808987323E+01  0.17999011999E+02  0.72461581619E+02  0.70000014752E+02 0.  0.
         12    1    1    2    0    0  0.27426335405E+01 -0.43808987323E+01 -0.17999011999E+02  0.18726418381E+02  0.00000000000E+00 0. -1.
         11    1    3    3    0    0 -0.13681396490E+02  0.35542253373E+01  0.13126986880E+02  0.19290694971E+02  0.51100000000E-03 0. -1.
        -11    1    3    3    0    0 -0.30014694122E+01 -0.24073455236E+02  0.24258285469E+00  0.24261057527E+02  0.51100000000E-03 0.  1.
         12    1    3    3    0    0  0.13940232361E+02  0.24900128631E+02  0.46294422649E+01  0.28909829121E+02  0.00000000000E+00 0. -1.
</event>
<event>
 7    1  0.3305651E-013  0.7246159E+02  0.7816164E-02  0.1226708E+00
        -11   -1    0    0    0    0  0.00000000000E+00  0.00000000000E+00  0.45593999997E+02  0.45594000000E+02  0.51100000000E-03 0.  1.
         11   -1    0    0    0    0 -0.00000000000E+00 -0.00000000000E+00 -0.45593999997E+02  0.45594000000E+02  0.51100000000E-03 0. -1.
    9900012    2    1    2    0    0  0.89002990796E+01  0.75555656746E+01 -0.14641605271E+02  0.72461588137E+02  0.70000023243E+02 0.  0.
         12    1    1    2    0    0 -0.89002990796E+01 -0.75555656746E+01  0.14641605271E+02  0.18726411863E+02  0.00000000000E+00 0. -1.
         11    1    3    3    0    0  0.75506547959E+01  0.45427457834E+01 -0.14521132244E+02  0.16985647148E+02  0.51100000000E-03 0. -1.
        -11    1    3    3    0    0  0.26988693316E+02  0.91855706172E+00 -0.86796579155E+01  0.28364939199E+02  0.51100000000E-03 0.  1.
        -12    1    3    3    0    0 -0.25639049032E+02  0.20942628294E+01  0.85591848890E+01  0.27111001790E+02  0.00000000000E+00 0.  1.
</event>
<event>
 7    1  0.3305651E-013  0.7246155E+02  0.7816164E-02  0.1226708E+00
        -11   -1    0    0    0    0  0.00000000000E+00  0.00000000000E+00  0.45593999997E+02  0.45594000000E+02  0.51100000000E-03 0.  1.
         11   -1    0    0    0    0 -0.00000000000E+00 -0.00000000000E+00 -0.45593999997E+02  0.45594000000E+02  0.51100000000E-03 0. -1.
    9900012    2    1    2    0    0  0.21409425437E+01  0.15849141169E+02  0.97417136345E+01  0.72461550915E+02  0.69999974755E+02 0.  0.
         12    1    1    2    0    0 -0.21409425437E+01 -0.15849141169E+02 -0.97417136345E+01  0.18726449085E+02  0.00000000000E+00 0. -1.
         11    1    3    3    0    0  0.74604035782E+01  0.10279432212E+02 -0.14260092525E+02  0.19096454834E+02  0.51100000000E-03 0. -1.
        -11    1    3    3    0    0  0.32522041716E+01 -0.20214481116E+02  0.11016204210E+02  0.23249921166E+02  0.51100000000E-03 0.  1.
        -12    1    3    3    0    0 -0.85716652061E+01  0.25784190074E+02  0.12985601950E+02  0.30115174915E+02  0.00000000000E+00 0.  1.
</event>
<event>
 7    1  0.3305651E-013  0.7246163E+02  0.7816164E-02  0.1226708E+00
        -11   -1    0    0    0    0  0.00000000000E+00  0.00000000000E+00  0.45593999997E+02  0.45594000000E+02  0.51100000000E-03 0.  1.
         11   -1    0    0    0    0 -0.00000000000E+00 -0.00000000000E+00 -0.45593999997E+02  0.45594000000E+02  0.51100000000E-03 0. -1.
    9900012    2    1    2    0    0 -0.14493381903E+02  0.11642572432E+02 -0.22514878414E+01  0.72461633312E+02  0.70000082092E+02 0.  0.
         12    1    1    2    0    0  0.14493381903E+02 -0.11642572432E+02  0.22514878414E+01  0.18726366688E+02  0.00000000000E+00 0. -1.
         11    1    3    3    0    0 -0.42250832031E+01  0.73280533182E+01 -0.10807791725E+01  0.85275891897E+01  0.51100000000E-03 0. -1.
        -11    1    3    3    0    0 -0.87059801498E+01  0.29745483516E+02 -0.15552245817E+02  0.34676508333E+02  0.51100000000E-03 0.  1.
         12    1    3    3    0    0 -0.15623185506E+01 -0.25430964403E+02  0.14381537148E+02  0.29257535789E+02  0.00000000000E+00 0. -1.
</event>
<event>
 7    1  0.3305651E-013  0.7246155E+02  0.7816164E-02  0.1226708E+00
        -11   -1    0    0    0    0  0.00000000000E+00  0.00000000000E+00  0.45593999997E+02  0.45594000000E+02  0.51100000000E-03 0.  1.
         11   -1    0    0    0    0 -0.00000000000E+00 -0.00000000000E+00 -0.45593999997E+02  0.45594000000E+02  0.51100000000E-03 0. -1.
    9900012    2    1    2    0    0  0.83502834192E+00  0.15090047481E+02  0.11057715721E+02  0.72461551264E+02  0.69999975210E+02 0.  0.
         12    1    1    2    0    0 -0.83502834192E+00 -0.15090047481E+02 -0.11057715721E+02  0.18726448736E+02  0.00000000000E+00 0. -1.
         11    1    3    3    0    0 -0.11457068569E+02  0.26328077096E+02  0.17259630717E+00  0.28713443777E+02  0.51100000000E-03 0. -1.
        -11    1    3    3    0    0  0.80718438402E+01  0.11954654942E+02 -0.50622567968E+01  0.15287082190E+02  0.51100000000E-03 0.  1.
        -12    1    3    3    0    0  0.42202530710E+01 -0.23192684557E+02  0.15947376210E+02  0.28461025297E+02  0.00000000000E+00 0.  1.
</event>
<event>
 7    1  0.3305651E-013  0.7246157E+02  0.7816164E-02  0.1226708E+00
        -11   -1    0    0    0    0  0.00000000000E+00  0.00000000000E+00  0.45593999997E+02  0.45594000000E+02  0.51100000000E-03 0. -1.
         11   -1    0    0    0    0 -0.00000000000E+00 -0.00000000000E+00 -0.45593999997E+02  0.45594000000E+02  0.51100000000E-03 0.  1.
    9900012    2    1    2    0    0  0.14010997276E+02 -0.69227960645E+01 -0.10317275840E+02  0.72461565989E+02  0.69999994391E+02 0.  0.
         12    1    1    2    0    0 -0.14010997276E+02  0.69227960645E+01  0.10317275840E+02  0.18726434011E+02  0.00000000000E+00 0. -1.
         11    1    3    3    0    0  0.33533121441E+01  0.13840057504E+01  0.85927380762E+01  0.93271282912E+01  0.51100000000E-03 0. -1.
        -11    1    3    3    0    0  0.19185364481E+02 -0.78554653808E+01  0.16633592047E+02  0.26579370408E+02  0.51100000000E-03 0.  1.
        -12    1    3    3    0    0 -0.85276793491E+01 -0.45133643409E+00 -0.35543605964E+02  0.36555067290E+02  0.00000000000E+00 0.  1.
</event>
<event>
 7    1  0.3305651E-013  0.7246158E+02  0.7816164E-02  0.1226708E+00
        -11   -1    0    0    0    0  0.00000000000E+00  0.00000000000E+00  0.45593999997E+02  0.45594000000E+02  0.51100000000E-03 0.  1.
         11   -1    0    0    0    0 -0.00000000000E+00 -0.00000000000E+00 -0.45593999997E+02  0.45594000000E+02  0.51100000000E-03 0. -1.
    9900012    2    1    2    0    0 -0.80230011250E+01 -0.16563146374E+02 -0.34600948200E+01  0.72461584940E+02  0.70000019078E+02 0.  0.
         12    1    1    2    0    0  0.80230011250E+01  0.16563146374E+02  0.34600948200E+01  0.18726415060E+02  0.00000000000E+00 0. -1.
         11    1    3    3    0    0  0.96462649789E+01 -0.18055247845E+02 -0.23290897493E+02  0.31008197449E+02  0.51100000000E-03 0. -1.
        -11    1    3    3    0    0  0.41837530005E+01  0.35753556503E+01 -0.56046844705E+01  0.78548994564E+01  0.51100000000E-03 0.  1.
        -12    1    3    3    0    0 -0.21853019104E+02 -0.20832541790E+01  0.25435487143E+02  0.33598488034E+02  0.00000000000E+00 0.  1.
</event>
<event>
 7    1  0.3305651E-013  0.7246150E+02  0.7816164E-02  0.1226708E+00
        -11   -1    0    0    0    0  0.00000000000E+00  0.00000000000E+00  0.45593999997E+02  0.45594000000E+02  0.51100000000E-03 0.  1.
         11   -1    0    0    0    0 -0.00000000000E+00 -0.00000000000E+00 -0.45593999997E+02  0.45594000000E+02  0.51100000000E-03 0. -1.
    9900012    2    1    2    0    0  0.94683175329E+01 -0.12154117028E+02  0.10644735301E+02  0.72461495060E+02  0.69999901994E+02 0.  0.
         12    1    1    2    0    0 -0.94683175329E+01  0.12154117028E+02 -0.10644735301E+02  0.18726504940E+02  0.00000000000E+00 0. -1.
         11    1    3    3    0    0 -0.33954102385E+01  0.14240216335E+02 -0.81054297111E+01  0.16733516159E+02  0.51100000000E-03 0. -1.
        -11    1    3    3    0    0 -0.83852483978E+01 -0.95088047443E+01  0.24861421785E+02  0.27907347631E+02  0.51100000000E-03 0.  1.
         12    1    3    3    0    0  0.21248976169E+02 -0.16885528619E+02 -0.61112567727E+01  0.27820631271E+02  0.00000000000E+00 0. -1.
</event>
<event>
 7    1  0.3305651E-013  0.7246157E+02  0.7816164E-02  0.1226708E+00
        -11   -1    0    0    0    0  0.00000000000E+00  0.00000000000E+00  0.45593999997E+02  0.45594000000E+02  0.51100000000E-03 0. -1.
         11   -1    0    0    0    0 -0.00000000000E+00 -0.00000000000E+00 -0.45593999997E+02  0.45594000000E+02  0.51100000000E-03 0.  1.
    9900012    2    1    2    0    0 -0.88953106777E+01 -0.15179138779E+02  0.64145378772E+01  0.72461572089E+02  0.70000002338E+02 0.  0.
         12    1    1    2    0    0  0.88953106777E+01  0.15179138779E+02 -0.64145378772E+01  0.18726427911E+02  0.00000000000E+00 0. -1.
         11    1    3    3    0    0  0.38655011379E+01 -0.28912197203E+02 -0.14063883652E+02  0.32382866917E+02  0.51100000000E-03 0.  1.
        -11    1    3    3    0    0 -0.59367887491E+01 -0.24506397326E+01 -0.56779158654E+01  0.85726206370E+01  0.51100000000E-03 0. -1.
         12    1    3    3    0    0 -0.68240230666E+01  0.16183698156E+02  0.26156337394E+02  0.31506084535E+02  0.00000000000E+00 0. -1.
</event>
<event>
 7    1  0.3305651E-013  0.7246156E+02  0.7816164E-02  0.1226708E+00
        -11   -1    0    0    0    0  0.00000000000E+00  0.00000000000E+00  0.45593999997E+02  0.45594000000E+02  0.51100000000E-03 0.  1.
         11   -1    0    0    0    0 -0.00000000000E+00 -0.00000000000E+00 -0.45593999997E+02  0.45594000000E+02  0.51100000000E-03 0. -1.
    9900012    2    1    2    0    0  0.15000255685E+02  0.18379267611E+01  0.11058652145E+02  0.72461563268E+02  0.69999990847E+02 0.  0.
         12    1    1    2    0    0 -0.15000255685E+02 -0.18379267611E+01 -0.11058652145E+02  0.18726436732E+02  0.00000000000E+00 0. -1.
         11    1    3    3    0    0 -0.15076758993E+02 -0.88277055887E+01  0.11820944219E+02  0.21094353988E+02  0.51100000000E-03 0. -1.
        -11    1    3    3    0    0  0.93871307444E+01  0.96992003639E+01  0.18621734715E+02  0.22999167710E+02  0.51100000000E-03 0.  1.
         12    1    3    3    0    0  0.20689883934E+02  0.96643198587E+00 -0.19384026788E+02  0.28368041570E+02  0.00000000000E+00 0. -1.
</event>
<event>
 7    1  0.3305651E-013  0.7246166E+02  0.7816164E-02  0.1226708E+00
        -11   -1    0    0    0    0  0.00000000000E+00  0.00000000000E+00  0.45593999997E+02  0.45594000000E+02  0.51100000000E-03 0. -1.
         11   -1    0    0    0    0 -0.00000000000E+00 -0.00000000000E+00 -0.45593999997E+02  0.45594000000E+02  0.51100000000E-03 0.  1.
    9900012    2    1    2    0    0  0.15665234938E+02 -0.97281787516E+01 -0.32616990768E+01  0.72461662174E+02  0.70000119691E+02 0.  0.
         12    1    1    2    0    0 -0.15665234938E+02  0.97281787516E+01  0.32616990768E+01  0.18726337826E+02  0.00000000000E+00 0. -1.
         11    1    3    3    0    0  0.13131639442E+02 -0.15527250844E+01  0.27176489571E+02  0.30222714889E+02  0.51100000000E-03 0. -1.
        -11    1    3    3    0    0  0.48057537570E+01 -0.11994926509E+02 -0.15540855166E+01  0.13014941920E+02  0.51100000000E-03 0.  1.
        -12    1    3    3    0    0 -0.22721582603E+01  0.38194728415E+01 -0.28884103131E+02  0.29224005366E+02  0.00000000000E+00 0.  1.
</event>
<event>
 7    1  0.3305651E-013  0.7246163E+02  0.7816164E-02  0.1226708E+00
        -11   -1    0    0    0    0  0.00000000000E+00  0.00000000000E+00  0.45593999997E+02  0.45594000000E+02  0.51100000000E-03 0. -1.
         11   -1    0    0    0    0 -0.00000000000E+00 -0.00000000000E+00 -0.45593999997E+02  0.45594000000E+02  0.51100000000E-03 0.  1.
    9900012    2    1    2    0    0 -0.16918954957E+02 -0.58601160164E+01  0.54849852021E+01  0.72461626639E+02  0.70000073400E+02 0.  0.
         12    1    1    2    0    0  0.16918954957E+02  0.58601160164E+01 -0.54849852021E+01  0.18726373361E+02  0.00000000000E+00 0. -1.
         11    1    3    3    0    0  0.93189610112E+01 -0.18436201747E+02  0.14601440619E+01  0.20709142670E+02  0.51100000000E-03 0. -1.
        -11    1    3    3    0    0  0.11067948811E+02 -0.69742920885E+00  0.49507117650E+01  0.12144770299E+02  0.51100000000E-03 0.  1.
         12    1    3    3    0    0 -0.37305864780E+02  0.13273514939E+02 -0.92587062476E+00  0.39607713670E+02  0.00000000000E+00 0. -1.
</event>
<event>
 7    1  0.3305651E-013  0.7246160E+02  0.7816164E-02  0.1226708E+00
        -11   -1    0    0    0    0  0.00000000000E+00  0.00000000000E+00  0.45593999997E+02  0.45594000000E+02  0.51100000000E-03 0.  1.
         11   -1    0    0    0    0 -0.00000000000E+00 -0.00000000000E+00 -0.45593999997E+02  0.45594000000E+02  0.51100000000E-03 0. -1.
    9900012    2    1    2    0    0 -0.75810885858E+01 -0.17107834750E+02 -0.72615151982E+00  0.72461595914E+02  0.70000033374E+02 0.  0.
         12    1    1    2    0    0  0.75810885858E+01  0.17107834750E+02  0.72615151982E+00  0.18726404086E+02  0.00000000000E+00 0. -1.
         11    1    3    3    0    0  0.23787784709E+02 -0.16175486423E+02  0.84152428038E+01  0.29972009844E+02  0.51100000000E-03 0.  1.
        -11    1    3    3    0    0 -0.17376195699E+01  0.82586362339E+01 -0.77125485096E+01  0.11432751156E+02  0.51100000000E-03 0. -1.
         12    1    3    3    0    0 -0.29631253725E+02 -0.91909845602E+01 -0.14288458140E+01  0.31056834914E+02  0.00000000000E+00 0. -1.
</event>
<event>
 7    1  0.3305651E-013  0.7246165E+02  0.7816164E-02  0.1226708E+00
        -11   -1    0    0    0    0  0.00000000000E+00  0.00000000000E+00  0.45593999997E+02  0.45594000000E+02  0.51100000000E-03 0.  1.
         11   -1    0    0    0    0 -0.00000000000E+00 -0.00000000000E+00 -0.45593999997E+02  0.45594000000E+02  0.51100000000E-03 0. -1.
    9900012    2    1    2    0    0 -0.52434609280E+00 -0.12506957926E+02 -0.13927574887E+02  0.72461647509E+02  0.70000100586E+02 0.  0.
         12    1    1    2    0    0  0.52434609280E+00  0.12506957926E+02  0.13927574887E+02  0.18726352491E+02  0.00000000000E+00 0. -1.
         11    1    3    3    0    0 -0.16155532595E+02 -0.17137261110E+02 -0.27829207377E+02  0.36457533313E+02  0.51100000000E-03 0. -1.
        -11    1    3    3    0    0  0.68484691947E+00  0.14590768498E+02  0.97724057378E+01  0.17574397709E+02  0.51100000000E-03 0.  1.
        -12    1    3    3    0    0  0.14946339583E+02 -0.99604653139E+01  0.41292267526E+01  0.18429716487E+02  0.00000000000E+00 0.  1.
</event>
<event>
 7    1  0.3305651E-013  0.7246156E+02  0.7816164E-02  0.1226708E+00
        -11   -1    0    0    0    0  0.00000000000E+00  0.00000000000E+00  0.45593999997E+02  0.45594000000E+02  0.51100000000E-03 0. -1.
         11   -1    0    0    0    0 -0.00000000000E+00 -0.00000000000E+00 -0.45593999997E+02  0.45594000000E+02  0.51100000000E-03 0.  1.
    9900012    2    1    2    0    0 -0.26988255615E+01 -0.12607331048E+02 -0.13581281329E+02  0.72461557249E+02  0.69999983006E+02 0.  0.
         12    1    1    2    0    0  0.26988255615E+01  0.12607331048E+02  0.13581281329E+02  0.18726442751E+02  0.00000000000E+00 0. -1.
         11    1    3    3    0    0 -0.13046161212E+02 -0.26949762329E+01  0.29466629801E+01  0.13643608110E+02  0.51100000000E-03 0. -1.
        -11    1    3    3    0    0 -0.21386660749E+02 -0.67334012530E+01 -0.14825345225E+02  0.26879710038E+02  0.51100000000E-03 0.  1.
         12    1    3    3    0    0  0.31733996400E+02 -0.31789535617E+01 -0.17025990841E+01  0.31938239101E+02  0.00000000000E+00 0. -1.
</event>
<event>
 7    1  0.3305651E-013  0.7246157E+02  0.7816164E-02  0.1226708E+00
        -11   -1    0    0    0    0  0.00000000000E+00  0.00000000000E+00  0.45593999997E+02  0.45594000000E+02  0.51100000000E-03 0. -1.
         11   -1    0    0    0    0 -0.00000000000E+00 -0.00000000000E+00 -0.45593999997E+02  0.45594000000E+02  0.51100000000E-03 0.  1.
    9900012    2    1    2    0    0 -0.56508550832E+01 -0.54321484460E+01 -0.17007016229E+02  0.72461574796E+02  0.70000005864E+02 0.  0.
         12    1    1    2    0    0  0.56508550832E+01  0.54321484460E+01  0.17007016229E+02  0.18726425204E+02  0.00000000000E+00 0. -1.
         11    1    3    3    0    0 -0.49506994974E+01 -0.26366613140E+02 -0.10872706971E+02  0.28946907799E+02  0.51100000000E-03 0. -1.
        -11    1    3    3    0    0  0.77693404255E+01  0.10367248275E+01 -0.17434151048E+02  0.19115100629E+02  0.51100000000E-03 0.  1.
         12    1    3    3    0    0 -0.84694960113E+01  0.19897739867E+02  0.11299841790E+02  0.24399566368E+02  0.00000000000E+00 0. -1.
</event>
<event>
 7    1  0.3305651E-013  0.7246158E+02  0.7816164E-02  0.1226708E+00
        -11   -1    0    0    0    0  0.00000000000E+00  0.00000000000E+00  0.45593999997E+02  0.45594000000E+02  0.51100000000E-03 0.  1.
         11   -1    0    0    0    0 -0.00000000000E+00 -0.00000000000E+00 -0.45593999997E+02  0.45594000000E+02  0.51100000000E-03 0. -1.
    9900012    2    1    2    0    0  0.17714521255E+02 -0.18513355758E+01  0.57833441890E+01  0.72461580782E+02  0.70000013662E+02 0.  0.
         12    1    1    2    0    0 -0.17714521255E+02  0.18513355758E+01 -0.57833441890E+01  0.18726419218E+02  0.00000000000E+00 0. -1.
         11    1    3    3    0    0  0.17990071295E+02 -0.19241953050E+02 -0.13227479501E+02  0.29476459024E+02  0.51100000000E-03 0. -1.
        -11    1    3    3    0    0 -0.12598367928E+02 -0.38033791000E+01  0.24140504287E+01  0.13379544341E+02  0.51100000000E-03 0.  1.
        -12    1    3    3    0    0  0.12322817889E+02  0.21193996575E+02  0.16596773261E+02  0.29605577417E+02  0.00000000000E+00 0.  1.
</event>
<event>
 7    1  0.3305651E-013  0.7246154E+02  0.7816164E-02  0.1226708E+00
        -11   -1    0    0    0    0  0.00000000000E+00  0.00000000000E+00  0.45593999997E+02  0.45594000000E+02  0.51100000000E-03 0.  1.
         11   -1    0    0    0    0 -0.00000000000E+00 -0.00000000000E+00 -0.45593999997E+02  0.45594000000E+02  0.51100000000E-03 0. -1.
    9900012    2    1    2    0    0  0.14492277542E+02  0.90009221718E+01  0.77225474923E+01  0.72461536157E+02  0.69999955530E+02 0.  0.
         12    1    1    2    0    0 -0.14492277542E+02 -0.90009221718E+01 -0.77225474923E+01  0.18726463843E+02  0.00000000000E+00 0. -1.
         11    1    3    3    0    0 -0.86995137541E+01 -0.96934929258E+01 -0.12544266333E+02  0.18083250890E+02  0.51100000000E-03 0. -1.
        -11    1    3    3    0    0 -0.34947835347E+01 -0.53922877071E+00  0.21177106675E+02  0.21470308032E+02  0.51100000000E-03 0.  1.
        -12    1    3    3    0    0  0.26686574830E+02  0.19233643868E+02 -0.91029284914E+00  0.32907977235E+02  0.00000000000E+00 0.  1.
</event>
<event>
 7    1  0.3305651E-013  0.7246155E+02  0.7816164E-02  0.1226708E+00
        -11   -1    0    0    0    0  0.00000000000E+00  0.00000000000E+00  0.45593999997E+02  0.45594000000E+02  0.51100000000E-03 0.  1.
         11   -1    0    0    0    0 -0.00000000000E+00 -0.00000000000E+00 -0.45593999997E+02  0.45594000000E+02  0.51100000000E-03 0. -1.
    9900012    2    1    2    0    0 -0.14242032414E+01 -0.67823886554E+01  0.17396857292E+02  0.72461553610E+02  0.69999978266E+02 0.  0.
         12    1    1    2    0    0  0.14242032414E+01  0.67823886554E+01 -0.17396857292E+02  0.18726446390E+02  0.00000000000E+00 0. -1.
         11    1    3    3    0    0 -0.19527796319E+02  0.24836337400E+01  0.63111918608E+01  0.20672068320E+02  0.51100000000E-03 0. -1.
        -11    1    3    3    0    0 -0.12256135867E+02  0.34183787310E+01  0.13804948645E+02  0.18774311889E+02  0.51100000000E-03 0.  1.
         12    1    3    3    0    0  0.30359728945E+02 -0.12684401126E+02 -0.27192832142E+01  0.33015173402E+02  0.00000000000E+00 0. -1.
</event>
<event>
 7    1  0.3305651E-013  0.7246157E+02  0.7816164E-02  0.1226708E+00
        -11   -1    0    0    0    0  0.00000000000E+00  0.00000000000E+00  0.45593999997E+02  0.45594000000E+02  0.51100000000E-03 0. -1.
         11   -1    0    0    0    0 -0.00000000000E+00 -0.00000000000E+00 -0.45593999997E+02  0.45594000000E+02  0.51100000000E-03 0.  1.
    9900012    2    1    2    0    0  0.14493730816E+02  0.10859691392E+02 -0.47621556883E+01  0.72461567961E+02  0.69999996961E+02 0.  0.
         12    1    1    2    0    0 -0.14493730816E+02 -0.10859691392E+02  0.47621556883E+01  0.18726432039E+02  0.00000000000E+00 0. -1.
         11    1    3    3    0    0 -0.40473899436E+01  0.17722862140E+01  0.74310101878E+01  0.86453615571E+01  0.51100000000E-03 0. -1.
        -11    1    3    3    0    0 -0.15808938779E+02  0.12863800211E+02  0.10044841159E+02  0.22722207977E+02  0.51100000000E-03 0.  1.
        -12    1    3    3    0    0  0.34350059539E+02 -0.37763950331E+01 -0.22238007035E+02  0.41093998427E+02  0.00000000000E+00 0.  1.
</event>
<event>
 7    1  0.3305651E-013  0.7246136E+02  0.7816164E-02  0.1226709E+00
        -11   -1    0    0    0    0  0.00000000000E+00  0.00000000000E+00  0.45593999997E+02  0.45594000000E+02  0.51100000000E-03 0.  1.
         11   -1    0    0    0    0 -0.00000000000E+00 -0.00000000000E+00 -0.45593999997E+02  0.45594000000E+02  0.51100000000E-03 0. -1.
    9900012    2    1    2    0    0 -0.47150562268E+01 -0.15539435048E+02  0.93263709209E+01  0.72461361450E+02  0.69999727941E+02 0.  0.
         12    1    1    2    0    0  0.47150562268E+01  0.15539435048E+02 -0.93263709209E+01  0.18726638550E+02  0.00000000000E+00 0. -1.
         11    1    3    3    0    0 -0.14664896563E+02 -0.23326394583E+02 -0.16090826594E+02  0.31907594334E+02  0.51100000000E-03 0. -1.
        -11    1    3    3    0    0 -0.64324768788E+01 -0.70045068208E+01  0.70254428520E+01  0.11823566388E+02  0.51100000000E-03 0.  1.
        -12    1    3    3    0    0  0.16382317216E+02  0.14791466355E+02  0.18391754663E+02  0.28730200728E+02  0.00000000000E+00 0.  1.
</event>
<event>
 7    1  0.3305651E-013  0.7246156E+02  0.7816164E-02  0.1226708E+00
        -11   -1    0    0    0    0  0.00000000000E+00  0.00000000000E+00  0.45593999997E+02  0.45594000000E+02  0.51100000000E-03 0.  1.
         11   -1    0    0    0    0 -0.00000000000E+00 -0.00000000000E+00 -0.45593999997E+02  0.45594000000E+02  0.51100000000E-03 0. -1.
    9900012    2    1    2    0    0  0.95718083580E+01  0.15586983032E+02 -0.40132247721E+01  0.72461560713E+02  0.69999987519E+02 0.  0.
         12    1    1    2    0    0 -0.95718083580E+01 -0.15586983032E+02  0.40132247721E+01  0.18726439287E+02  0.00000000000E+00 0. -1.
         11    1    3    3    0    0 -0.52590294324E+01  0.53414589699E+01  0.28212815141E+00  0.75012113057E+01  0.51100000000E-03 0. -1.
        -11    1    3    3    0    0 -0.24311103177E+02  0.80531223720E+01 -0.20792450879E+01  0.25694469794E+02  0.51100000000E-03 0.  1.
         12    1    3    3    0    0  0.39141940967E+02  0.21924016904E+01 -0.22161078356E+01  0.39265879613E+02  0.00000000000E+00 0. -1.
</event>
<event>
 7    1  0.3305651E-013  0.7246158E+02  0.7816164E-02  0.1226708E+00
        -11   -1    0    0    0    0  0.00000000000E+00  0.00000000000E+00  0.45593999997E+02  0.45594000000E+02  0.51100000000E-03 0.  1.
         11   -1    0    0    0    0 -0.00000000000E+00 -0.00000000000E+00 -0.45593999997E+02  0.45594000000E+02  0.51100000000E-03 0. -1.
    9900012    2    1    2    0    0  0.65543143523E+01 -0.46591557177E+01  0.16911890164E+02  0.72461580226E+02  0.70000012938E+02 0.  0.
         12    1    1    2    0    0 -0.65543143523E+01  0.46591557177E+01 -0.16911890164E+02  0.18726419774E+02  0.00000000000E+00 0. -1.
         11    1    3    3    0    0  0.20561470173E+02 -0.65982559558E+01  0.22946705899E+02  0.31509718330E+02  0.51100000000E-03 0. -1.
        -11    1    3    3    0    0 -0.17241868188E+02 -0.10883321918E+02  0.77842220495E+01  0.21824821368E+02  0.51100000000E-03 0.  1.
         12    1    3    3    0    0  0.32347123672E+01  0.12822422156E+02 -0.13819037785E+02  0.19127040528E+02  0.00000000000E+00 0. -1.
</event>
<event>
 7    1  0.3305651E-013  0.7246157E+02  0.7816164E-02  0.1226708E+00
        -11   -1    0    0    0    0  0.00000000000E+00  0.00000000000E+00  0.45593999997E+02  0.45594000000E+02  0.51100000000E-03 0. -1.
         11   -1    0    0    0    0 -0.00000000000E+00 -0.00000000000E+00 -0.45593999997E+02  0.45594000000E+02  0.51100000000E-03 0.  1.
    9900012    2    1    2    0    0 -0.15731277276E+02 -0.64280424893E+01 -0.78667987767E+01  0.72461565797E+02  0.69999994141E+02 0.  0.
         12    1    1    2    0    0  0.15731277276E+02  0.64280424893E+01  0.78667987767E+01  0.18726434203E+02  0.00000000000E+00 0. -1.
         11    1    3    3    0    0 -0.55056643406E+00  0.14659684299E+01  0.23730840120E+02  0.23782450671E+02  0.51100000000E-03 0. -1.
        -11    1    3    3    0    0  0.82325968618E+01  0.28905538623E+01 -0.16864928917E+02  0.18988332743E+02  0.51100000000E-03 0.  1.
        -12    1    3    3    0    0 -0.23413307704E+02 -0.10784564782E+02 -0.14732709980E+02  0.29690782383E+02  0.00000000000E+00 0.  1.
</event>
<event>
 7    1  0.3305651E-013  0.7246159E+02  0.7816164E-02  0.1226708E+00
        -11   -1    0    0    0    0  0.00000000000E+00  0.00000000000E+00  0.45593999997E+02  0.45594000000E+02  0.51100000000E-03 0. -1.
         11   -1    0    0    0    0 -0.00000000000E+00 -0.00000000000E+00 -0.45593999997E+02  0.45594000000E+02  0.51100000000E-03 0.  1.
    9900012    2    1    2    0    0  0.22753651143E+01  0.10655859411E+02  0.15230034314E+02  0.72461586265E+02  0.70000020805E+02 0.  0.
         12    1    1    2    0    0 -0.22753651143E+01 -0.10655859411E+02 -0.15230034314E+02  0.18726413735E+02  0.00000000000E+00 0. -1.
         11    1    3    3    0    0  0.12006688582E+02 -0.56755715006E+01  0.19343580318E+02  0.23463733342E+02  0.51100000000E-03 0. -1.
        -11    1    3    3    0    0  0.77160703682E+01 -0.90938121294E+01  0.95418876343E+01  0.15273597509E+02  0.51100000000E-03 0.  1.
        -12    1    3    3    0    0 -0.17447393836E+02  0.25425243041E+02 -0.13655433639E+02  0.33724255414E+02  0.00000000000E+00 0.  1.
</event>
<event>
 7    1  0.3305651E-013  0.7246157E+02  0.7816164E-02  0.1226708E+00
        -11   -1    0    0    0    0  0.00000000000E+00  0.00000000000E+00  0.45593999997E+02  0.45594000000E+02  0.51100000000E-03 0.  1.
         11   -1    0    0    0    0 -0.00000000000E+00 -0.00000000000E+00 -0.45593999997E+02  0.45594000000E+02  0.51100000000E-03 0. -1.
    9900012    2    1    2    0    0 -0.15821086613E+02 -0.75138989418E-01  0.10018314700E+02  0.72461573301E+02  0.70000003917E+02 0.  0.
         12    1    1    2    0    0  0.15821086613E+02  0.75138989418E-01 -0.10018314700E+02  0.18726426699E+02  0.00000000000E+00 0. -1.
         11    1    3    3    0    0 -0.18107029723E+02 -0.15705417385E+01 -0.21069116133E+02  0.27825146570E+02  0.51100000000E-03 0. -1.
        -11    1    3    3    0    0 -0.75867040042E+01  0.10894497842E+02  0.32912338973E+01  0.13677733062E+02  0.51100000000E-03 0.  1.
         12    1    3    3    0    0  0.98726471143E+01 -0.93990950932E+01  0.27796196936E+02  0.30958693670E+02  0.00000000000E+00 0. -1.
</event>
<event>
 7    1  0.3305651E-013  0.7246164E+02  0.7816164E-02  0.1226708E+00
        -11   -1    0    0    0    0  0.00000000000E+00  0.00000000000E+00  0.45593999997E+02  0.45594000000E+02  0.51100000000E-03 0. -1.
         11   -1    0    0    0    0 -0.00000000000E+00 -0.00000000000E+00 -0.45593999997E+02  0.45594000000E+02  0.51100000000E-03 0.  1.
    9900012    2    1    2    0    0  0.10566448145E+02  0.14921405279E+02 -0.40470199615E+01  0.72461640705E+02  0.70000091723E+02 0.  0.
         12    1    1    2    0    0 -0.10566448145E+02 -0.14921405279E+02  0.40470199615E+01  0.18726359295E+02  0.00000000000E+00 0. -1.
         11    1    3    3    0    0  0.10240582249E+02 -0.12874836678E+02 -0.17910319145E+02  0.24318932468E+02  0.51100000000E-03 0. -1.
        -11    1    3    3    0    0  0.14764721950E+02  0.46408148119E+01 -0.34083583573E+01  0.15847746948E+02  0.51100000000E-03 0.  1.
         12    1    3    3    0    0 -0.14438856055E+02  0.23155427145E+02  0.17271657540E+02  0.32294961288E+02  0.00000000000E+00 0. -1.
</event>
<event>
 7    1  0.3305651E-013  0.7246211E+02  0.7816164E-02  0.1226707E+00
        -11   -1    0    0    0    0  0.00000000000E+00  0.00000000000E+00  0.45593999997E+02  0.45594000000E+02  0.51100000000E-03 0. -1.
         11   -1    0    0    0    0 -0.00000000000E+00 -0.00000000000E+00 -0.45593999997E+02  0.45594000000E+02  0.51100000000E-03 0.  1.
    9900012    2    1    2    0    0  0.11035074802E+01  0.17839572833E+02 -0.55848915854E+01  0.72462106119E+02  0.70000698008E+02 0.  0.
         12    1    1    2    0    0 -0.11035074802E+01 -0.17839572833E+02  0.55848915854E+01  0.18725893881E+02  0.00000000000E+00 0. -1.
         11    1    3    3    0    0  0.98030332010E+01  0.39166329671E+01 -0.17623395215E+02  0.20543211358E+02  0.51100000000E-03 0.  1.
        -11    1    3    3    0    0 -0.12739114562E+01  0.11975238921E+02 -0.17586917756E+02  0.21314991767E+02  0.51100000000E-03 0. -1.
         12    1    3    3    0    0 -0.74256142647E+01  0.19477009444E+01  0.29625421386E+02  0.30603902994E+02  0.00000000000E+00 0. -1.
</event>
<event>
 7    1  0.3305651E-013  0.7246158E+02  0.7816164E-02  0.1226708E+00
        -11   -1    0    0    0    0  0.00000000000E+00  0.00000000000E+00  0.45593999997E+02  0.45594000000E+02  0.51100000000E-03 0.  1.
         11   -1    0    0    0    0 -0.00000000000E+00 -0.00000000000E+00 -0.45593999997E+02  0.45594000000E+02  0.51100000000E-03 0. -1.
    9900012    2    1    2    0    0  0.33432774681E+01 -0.17363379163E+02  0.61655928955E+01  0.72461575463E+02  0.70000006733E+02 0.  0.
         12    1    1    2    0    0 -0.33432774681E+01  0.17363379163E+02 -0.61655928955E+01  0.18726424537E+02  0.00000000000E+00 0. -1.
         11    1    3    3    0    0 -0.12306513148E+02 -0.26492224595E+02 -0.17728183316E+02  0.34169821682E+02  0.51100000000E-03 0. -1.
        -11    1    3    3    0    0  0.12595239801E+02 -0.52192805570E+01  0.53472732976E+01  0.14644940667E+02  0.51100000000E-03 0.  1.
        -12    1    3    3    0    0  0.30545508155E+01  0.14348125989E+02  0.18546502914E+02  0.23646813113E+02  0.00000000000E+00 0.  1.
</event>
<event>
 7    1  0.3305651E-013  0.7246163E+02  0.7816164E-02  0.1226708E+00
        -11   -1    0    0    0    0  0.00000000000E+00  0.00000000000E+00  0.45593999997E+02  0.45594000000E+02  0.51100000000E-03 0.  1.
         11   -1    0    0    0    0 -0.00000000000E+00 -0.00000000000E+00 -0.45593999997E+02  0.45594000000E+02  0.51100000000E-03 0. -1.
    9900012    2    1    2    0    0  0.16253640616E+02  0.70950673018E+01  0.60130103184E+01  0.72461625381E+02  0.70000071760E+02 0.  0.
         12    1    1    2    0    0 -0.16253640616E+02 -0.70950673018E+01 -0.60130103184E+01  0.18726374619E+02  0.00000000000E+00 0. -1.
         11    1    3    3    0    0 -0.92012489927E+01 -0.22886307693E+02  0.11749342724E+02  0.27322026235E+02  0.51100000000E-03 0.  1.
        -11    1    3    3    0    0  0.84670991247E+01  0.18358403535E+02  0.64479567647E+01  0.21220247281E+02  0.51100000000E-03 0. -1.
        -12    1    3    3    0    0  0.16987790484E+02  0.11622971460E+02 -0.12184289171E+02  0.23919351866E+02  0.00000000000E+00 0.  1.
</event>
<event>
 7    1  0.3305651E-013  0.7246155E+02  0.7816164E-02  0.1226708E+00
        -11   -1    0    0    0    0  0.00000000000E+00  0.00000000000E+00  0.45593999997E+02  0.45594000000E+02  0.51100000000E-03 0. -1.
         11   -1    0    0    0    0 -0.00000000000E+00 -0.00000000000E+00 -0.45593999997E+02  0.45594000000E+02  0.51100000000E-03 0.  1.
    9900012    2    1    2    0    0 -0.11542196113E+02 -0.13350514049E+02 -0.62626852594E+01  0.72461554979E+02  0.69999980049E+02 0.  0.
         12    1    1    2    0    0  0.11542196113E+02  0.13350514049E+02  0.62626852594E+01  0.18726445021E+02  0.00000000000E+00 0. -1.
         11    1    3    3    0    0 -0.15302601610E+02 -0.25574623779E+01  0.72826192501E+01  0.17139042367E+02  0.51100000000E-03 0. -1.
        -11    1    3    3    0    0 -0.20597668160E+02  0.80593450742E+01 -0.10145225896E+02  0.24333980057E+02  0.51100000000E-03 0.  1.
        -12    1    3    3    0    0  0.24358073657E+02 -0.18852396745E+02 -0.34000786137E+01  0.30988532555E+02  0.00000000000E+00 0.  1.
</event>
<event>
 7    1  0.3305651E-013  0.7246155E+02  0.7816164E-02  0.1226708E+00
        -11   -1    0    0    0    0  0.00000000000E+00  0.00000000000E+00  0.45593999997E+02  0.45594000000E+02  0.51100000000E-03 0.  1.
         11   -1    0    0    0    0 -0.00000000000E+00 -0.00000000000E+00 -0.45593999997E+02  0.45594000000E+02  0.51100000000E-03 0. -1.
    9900012    2    1    2    0    0  0.36209121626E+01  0.12195148468E+02  0.13742176287E+02  0.72461546515E+02  0.69999969023E+02 0.  0.
         12    1    1    2    0    0 -0.36209121626E+01 -0.12195148468E+02 -0.13742176287E+02  0.18726453485E+02  0.00000000000E+00 0. -1.
         11    1    3    3    0    0  0.87993208454E+01 -0.56039176068E+01  0.23464245470E+02  0.25678838674E+02  0.51100000000E-03 0. -1.
        -11    1    3    3    0    0 -0.10761187391E+02  0.16252164478E+02  0.12937213297E+02  0.23394603917E+02  0.51100000000E-03 0.  1.
        -12    1    3    3    0    0  0.55827787080E+01  0.15469015961E+01 -0.22659282480E+02  0.23388103924E+02  0.00000000000E+00 0.  1.
</event>
<event>
 7    1  0.3305651E-013  0.7246160E+02  0.7816164E-02  0.1226708E+00
        -11   -1    0    0    0    0  0.00000000000E+00  0.00000000000E+00  0.45593999997E+02  0.45594000000E+02  0.51100000000E-03 0.  1.
         11   -1    0    0    0    0 -0.00000000000E+00 -0.00000000000E+00 -0.45593999997E+02  0.45594000000E+02  0.51100000000E-03 0. -1.
    9900012    2    1    2    0    0  0.14374246398E+02 -0.91227978240E+01  0.77995834780E+01  0.72461604136E+02  0.70000044084E+02 0.  0.
         12    1    1    2    0    0 -0.14374246398E+02  0.91227978240E+01 -0.77995834780E+01  0.18726395864E+02  0.00000000000E+00 0. -1.
         11    1    3    3    0    0 -0.14624616506E+02 -0.22614162648E+02  0.80992326401E+01  0.28122541311E+02  0.51100000000E-03 0. -1.
        -11    1    3    3    0    0 -0.26628064632E+01 -0.39767464562E+01  0.59566705977E+01  0.76411370560E+01  0.51100000000E-03 0.  1.
         12    1    3    3    0    0  0.31661669367E+02  0.17468111280E+02 -0.62563197598E+01  0.36697925768E+02  0.00000000000E+00 0. -1.
</event>
<event>
 7    1  0.3305651E-013  0.7246202E+02  0.7816164E-02  0.1226707E+00
        -11   -1    0    0    0    0  0.00000000000E+00  0.00000000000E+00  0.45593999997E+02  0.45594000000E+02  0.51100000000E-03 0. -1.
         11   -1    0    0    0    0 -0.00000000000E+00 -0.00000000000E+00 -0.45593999997E+02  0.45594000000E+02  0.51100000000E-03 0.  1.
    9900012    2    1    2    0    0  0.12465602909E+02  0.13439249708E+02 -0.38285220665E+01  0.72462021526E+02  0.70000587810E+02 0.  0.
         12    1    1    2    0    0 -0.12465602909E+02 -0.13439249708E+02  0.38285220665E+01  0.18725978474E+02  0.00000000000E+00 0. -1.
         11    1    3    3    0    0  0.16436676562E+02  0.98558744478E+01  0.14100208665E+01  0.19216939315E+02  0.51100000000E-03 0. -1.
        -11    1    3    3    0    0  0.23111999611E+02  0.26395979447E+01  0.58148784431E+01  0.23978006900E+02  0.51100000000E-03 0.  1.
         12    1    3    3    0    0 -0.27083073265E+02  0.94377731575E+00 -0.11053421376E+02  0.29267075310E+02  0.00000000000E+00 0. -1.
</event>
<event>
 7    1  0.3305651E-013  0.7246158E+02  0.7816164E-02  0.1226708E+00
        -11   -1    0    0    0    0  0.00000000000E+00  0.00000000000E+00  0.45593999997E+02  0.45594000000E+02  0.51100000000E-03 0. -1.
         11   -1    0    0    0    0 -0.00000000000E+00 -0.00000000000E+00 -0.45593999997E+02  0.45594000000E+02  0.51100000000E-03 0.  1.
    9900012    2    1    2    0    0  0.44081229020E+01 -0.43941293102E+01 -0.17661790534E+02  0.72461581101E+02  0.70000014078E+02 0.  0.
         12    1    1    2    0    0 -0.44081229020E+01  0.43941293102E+01  0.17661790534E+02  0.18726418899E+02  0.00000000000E+00 0. -1.
         11    1    3    3    0    0  0.44290353258E+01  0.20962097332E+02 -0.18156351414E+02  0.28083428840E+02  0.51100000000E-03 0. -1.
        -11    1    3    3    0    0 -0.78735075839E+01  0.18303682864E+01  0.11464982782E+02  0.14028121762E+02  0.51100000000E-03 0.  1.
        -12    1    3    3    0    0  0.78525951601E+01 -0.27186594929E+02 -0.10970421902E+02  0.30350030499E+02  0.00000000000E+00 0.  1.
</event>
<event>
 7    1  0.3305651E-013  0.7246162E+02  0.7816164E-02  0.1226708E+00
        -11   -1    0    0    0    0  0.00000000000E+00  0.00000000000E+00  0.45593999997E+02  0.45594000000E+02  0.51100000000E-03 0.  1.
         11   -1    0    0    0    0 -0.00000000000E+00 -0.00000000000E+00 -0.45593999997E+02  0.45594000000E+02  0.51100000000E-03 0. -1.
    9900012    2    1    2    0    0  0.10347214582E+02  0.93207449522E+01  0.12519436679E+02  0.72461616718E+02  0.70000060476E+02 0.  0.
         12    1    1    2    0    0 -0.10347214582E+02 -0.93207449522E+01 -0.12519436679E+02  0.18726383282E+02  0.00000000000E+00 0. -1.
         11    1    3    3    0    0 -0.12314180393E+02  0.25364842023E+02  0.10403431319E+02  0.30054045203E+02  0.51100000000E-03 0. -1.
        -11    1    3    3    0    0  0.18626784372E+02  0.62892232282E+01  0.95947399955E+00  0.19683292800E+02  0.51100000000E-03 0.  1.
        -12    1    3    3    0    0  0.40346106029E+01 -0.22333320299E+02  0.11565313606E+01  0.22724278714E+02  0.00000000000E+00 0.  1.
</event>
<event>
 7    1  0.3305651E-013  0.7246158E+02  0.7816164E-02  0.1226708E+00
        -11   -1    0    0    0    0  0.00000000000E+00  0.00000000000E+00  0.45593999997E+02  0.45594000000E+02  0.51100000000E-03 0. -1.
         11   -1    0    0    0    0 -0.00000000000E+00 -0.00000000000E+00 -0.45593999997E+02  0.45594000000E+02  0.51100000000E-03 0.  1.
    9900012    2    1    2    0    0  0.35676035647E+01  0.17989473600E+02 -0.37854861225E+01  0.72461578537E+02  0.70000010738E+02 0.  0.
         12    1    1    2    0    0 -0.35676035647E+01 -0.17989473600E+02  0.37854861225E+01  0.18726421463E+02  0.00000000000E+00 0. -1.
         11    1    3    3    0    0  0.10223741855E+02  0.21058395153E+01  0.51427745830E+01  0.11636476626E+02  0.51100000000E-03 0. -1.
        -11    1    3    3    0    0 -0.13929572192E+02  0.35823097329E+02 -0.19603683996E+01  0.38485975734E+02  0.51100000000E-03 0.  1.
         12    1    3    3    0    0  0.72734339015E+01 -0.19939463244E+02 -0.69678923059E+01  0.22339126177E+02  0.00000000000E+00 0. -1.
</event>
<event>
 7    1  0.3305651E-013  0.7246168E+02  0.7816164E-02  0.1226708E+00
        -11   -1    0    0    0    0  0.00000000000E+00  0.00000000000E+00  0.45593999997E+02  0.45594000000E+02  0.51100000000E-03 0. -1.
         11   -1    0    0    0    0 -0.00000000000E+00 -0.00000000000E+00 -0.45593999997E+02  0.45594000000E+02  0.51100000000E-03 0.  1.
    9900012    2    1    2    0    0  0.10835853976E+02  0.82913276762E+01  0.12826270872E+02  0.72461679739E+02  0.70000142572E+02 0.  0.
         12    1    1    2    0    0 -0.10835853976E+02 -0.82913276762E+01 -0.12826270872E+02  0.18726320261E+02  0.00000000000E+00 0. -1.
         11    1    3    3    0    0  0.30347773023E+02  0.78567586787E+01  0.12694458569E+02  0.33821077201E+02  0.51100000000E-03 0. -1.
        -11    1    3    3    0    0 -0.53759320136E+00  0.40474859786E+01  0.14180512891E+02  0.14756628860E+02  0.51100000000E-03 0.  1.
        -12    1    3    3    0    0 -0.18974325846E+02 -0.36129169811E+01 -0.14048700589E+02  0.23883973678E+02  0.00000000000E+00 0.  1.
</event>
<event>
 7    1  0.3305651E-013  0.7246159E+02  0.7816164E-02  0.1226708E+00
        -11   -1    0    0    0    0  0.00000000000E+00  0.00000000000E+00  0.45593999997E+02  0.45594000000E+02  0.51100000000E-03 0. -1.
         11   -1    0    0    0    0 -0.00000000000E+00 -0.00000000000E+00 -0.45593999997E+02  0.45594000000E+02  0.51100000000E-03 0.  1.
    9900012    2    1    2    0    0 -0.14248967111E+02  0.70077942049E+00 -0.12130711866E+02  0.72461592819E+02  0.70000029343E+02 0.  0.
         12    1    1    2    0    0  0.14248967111E+02 -0.70077942049E+00  0.12130711866E+02  0.18726407181E+02  0.00000000000E+00 0. -1.
         11    1    3    3    0    0  0.12277204925E+01 -0.72242862035E+01  0.14821641524E+02  0.16534166640E+02  0.51100000000E-03 0. -1.
        -11    1    3    3    0    0 -0.30330022524E+01 -0.49390165155E+01  0.11852639107E+02  0.13193863758E+02  0.51100000000E-03 0.  1.
        -12    1    3    3    0    0 -0.12443685351E+02  0.12864082140E+02 -0.38804992497E+02  0.42733562420E+02  0.00000000000E+00 0.  1.
</event>
<event>
 7    1  0.3305651E-013  0.7246156E+02  0.7816164E-02  0.1226708E+00
        -11   -1    0    0    0    0  0.00000000000E+00  0.00000000000E+00  0.45593999997E+02  0.45594000000E+02  0.51100000000E-03 0.  1.
         11   -1    0    0    0    0 -0.00000000000E+00 -0.00000000000E+00 -0.45593999997E+02  0.45594000000E+02  0.51100000000E-03 0. -1.
    9900012    2    1    2    0    0 -0.42652832788E+01  0.15642709335E+02  0.93697608150E+01  0.72461563753E+02  0.69999991479E+02 0.  0.
         12    1    1    2    0    0  0.42652832788E+01 -0.15642709335E+02 -0.93697608150E+01  0.18726436247E+02  0.00000000000E+00 0. -1.
         11    1    3    3    0    0 -0.50511442540E+01 -0.15383514967E+02  0.67375478068E+01  0.17537421182E+02  0.51100000000E-03 0. -1.
        -11    1    3    3    0    0 -0.80589281442E+01 -0.80084305231E+01 -0.75297734861E+01  0.13630068646E+02  0.51100000000E-03 0.  1.
        -12    1    3    3    0    0  0.88447891194E+01  0.39034654825E+02  0.10161986494E+02  0.41294073925E+02  0.00000000000E+00 0.  1.
</event>
<event>
 7    1  0.3305651E-013  0.7246140E+02  0.7816164E-02  0.1226708E+00
        -11   -1    0    0    0    0  0.00000000000E+00  0.00000000000E+00  0.45593999997E+02  0.45594000000E+02  0.51100000000E-03 0. -1.
         11   -1    0    0    0    0 -0.00000000000E+00 -0.00000000000E+00 -0.45593999997E+02  0.45594000000E+02  0.51100000000E-03 0.  1.
    9900012    2    1    2    0    0  0.24783785275E+01  0.91051157010E+01 -0.16175286082E+02  0.72461404690E+02  0.69999784270E+02 0.  0.
         12    1    1    2    0    0 -0.24783785275E+01 -0.91051157010E+01  0.16175286082E+02  0.18726595310E+02  0.00000000000E+00 0. -1.
         11    1    3    3    0    0  0.48898100977E+01  0.49098997643E+01  0.94319186488E+01  0.11703779225E+02  0.51100000000E-03 0. -1.
        -11    1    3    3    0    0 -0.94518654561E+01 -0.17116251394E+02  0.73460559301E+01  0.20887038095E+02  0.51100000000E-03 0.  1.
         12    1    3    3    0    0  0.70404338860E+01  0.21311467331E+02 -0.32953260661E+02  0.39870587371E+02  0.00000000000E+00 0. -1.
</event>
<event>
 7    1  0.3305651E-013  0.7246157E+02  0.7816164E-02  0.1226708E+00
        -11   -1    0    0    0    0  0.00000000000E+00  0.00000000000E+00  0.45593999997E+02  0.45594000000E+02  0.51100000000E-03 0. -1.
         11   -1    0    0    0    0 -0.00000000000E+00 -0.00000000000E+00 -0.45593999997E+02  0.45594000000E+02  0.51100000000E-03 0.  1.
    9900012    2    1    2    0    0 -0.84995498942E+01  0.16363022845E+02 -0.32693016027E+01  0.72461569534E+02  0.69999999009E+02 0.  0.
         12    1    1    2    0    0  0.84995498942E+01 -0.16363022845E+02  0.32693016027E+01  0.18726430466E+02  0.00000000000E+00 0. -1.
         11    1    3    3    0    0  0.15114729066E+02  0.12349117616E+02  0.12248976044E+02  0.23043288719E+02  0.51100000000E-03 0. -1.
        -11    1    3    3    0    0  0.40448639576E+01 -0.12900545000E+02 -0.10580202283E+00  0.13520213758E+02  0.51100000000E-03 0.  1.
        -12    1    3    3    0    0 -0.27659142917E+02  0.16914450230E+02 -0.15412475623E+02  0.35898067056E+02  0.00000000000E+00 0.  1.
</event>
<event>
 7    1  0.3305651E-013  0.7246152E+02  0.7816164E-02  0.1226708E+00
        -11   -1    0    0    0    0  0.00000000000E+00  0.00000000000E+00  0.45593999997E+02  0.45594000000E+02  0.51100000000E-03 0. -1.
         11   -1    0    0    0    0 -0.00000000000E+00 -0.00000000000E+00 -0.45593999997E+02  0.45594000000E+02  0.51100000000E-03 0.  1.
    9900012    2    1    2    0    0 -0.14117995261E+02  0.11489199524E+02 -0.44001787004E+01  0.72461519592E+02  0.69999933950E+02 0.  0.
         12    1    1    2    0    0  0.14117995261E+02 -0.11489199524E+02  0.44001787004E+01  0.18726480408E+02  0.00000000000E+00 0. -1.
         11    1    3    3    0    0  0.11484432211E+02  0.41077430161E+01 -0.12337969821E+02  0.17349098982E+02  0.51100000000E-03 0. -1.
        -11    1    3    3    0    0  0.45048917797E+01 -0.15370857727E+02 -0.18565237185E+01  0.16124639463E+02  0.51100000000E-03 0.  1.
        -12    1    3    3    0    0 -0.30107319252E+02  0.22752314235E+02  0.97943148394E+01  0.38987781147E+02  0.00000000000E+00 0.  1.
</event>
<event>
 7    1  0.3305651E-013  0.7246160E+02  0.7816164E-02  0.1226708E+00
        -11   -1    0    0    0    0  0.00000000000E+00  0.00000000000E+00  0.45593999997E+02  0.45594000000E+02  0.51100000000E-03 0. -1.
         11   -1    0    0    0    0 -0.00000000000E+00 -0.00000000000E+00 -0.45593999997E+02  0.45594000000E+02  0.51100000000E-03 0.  1.
    9900012    2    1    2    0    0  0.18110432719E+02 -0.27207305147E+01 -0.39099575721E+01  0.72461603763E+02  0.70000043599E+02 0.  0.
         12    1    1    2    0    0 -0.18110432719E+02  0.27207305147E+01  0.39099575721E+01  0.18726396237E+02  0.00000000000E+00 0. -1.
         11    1    3    3    0    0  0.37900100045E+01  0.67096530433E+01 -0.21575312031E+02  0.22910209718E+02  0.51100000000E-03 0. -1.
        -11    1    3    3    0    0  0.24258258065E+02  0.64027140338E+01  0.17961243868E+02  0.30855536179E+02  0.51100000000E-03 0.  1.
         12    1    3    3    0    0 -0.99378353510E+01 -0.15833097592E+02 -0.29588940834E+00  0.18695857866E+02  0.00000000000E+00 0. -1.
</event>
<event>
 7    1  0.3305651E-013  0.7246160E+02  0.7816164E-02  0.1226708E+00
        -11   -1    0    0    0    0  0.00000000000E+00  0.00000000000E+00  0.45593999997E+02  0.45594000000E+02  0.51100000000E-03 0. -1.
         11   -1    0    0    0    0 -0.00000000000E+00 -0.00000000000E+00 -0.45593999997E+02  0.45594000000E+02  0.51100000000E-03 0.  1.
    9900012    2    1    2    0    0 -0.59933894742E+00 -0.82196355841E+01 -0.16815360093E+02  0.72461602819E+02  0.70000042370E+02 0.  0.
         12    1    1    2    0    0  0.59933894742E+00  0.82196355841E+01  0.16815360093E+02  0.18726397181E+02  0.00000000000E+00 0. -1.
         11    1    3    3    0    0  0.45568808905E+01 -0.97438974828E+01 -0.26956858641E+02  0.29023799366E+02  0.51100000000E-03 0. -1.
        -11    1    3    3    0    0 -0.90909970582E+01 -0.12170066720E+02 -0.10420694921E+02  0.18421390674E+02  0.51100000000E-03 0.  1.
         12    1    3    3    0    0  0.39347772203E+01  0.13694328619E+02  0.20562193468E+02  0.25016412779E+02  0.00000000000E+00 0. -1.
</event>
<event>
 7    1  0.3305651E-013  0.7246161E+02  0.7816164E-02  0.1226708E+00
        -11   -1    0    0    0    0  0.00000000000E+00  0.00000000000E+00  0.45593999997E+02  0.45594000000E+02  0.51100000000E-03 0.  1.
         11   -1    0    0    0    0 -0.00000000000E+00 -0.00000000000E+00 -0.45593999997E+02  0.45594000000E+02  0.51100000000E-03 0. -1.
    9900012    2    1    2    0    0 -0.10642863470E+02  0.32346783818E+01  0.15064657168E+02  0.72461612664E+02  0.70000055194E+02 0.  0.
         12    1    1    2    0    0  0.10642863470E+02 -0.32346783818E+01 -0.15064657168E+02  0.18726387336E+02  0.00000000000E+00 0. -1.
         11    1    3    3    0    0  0.48277975928E+01 -0.19785831012E+01  0.20799171151E+02  0.21443599080E+02  0.51100000000E-03 0. -1.
        -11    1    3    3    0    0 -0.29963469628E+02  0.30489900623E+01  0.77553177609E+01  0.31100656044E+02  0.51100000000E-03 0.  1.
         12    1    3    3    0    0  0.14492808565E+02  0.21642714206E+01 -0.13489831743E+02  0.19917357540E+02  0.00000000000E+00 0. -1.
</event>
<event>
 7    1  0.3305651E-013  0.7246157E+02  0.7816164E-02  0.1226708E+00
        -11   -1    0    0    0    0  0.00000000000E+00  0.00000000000E+00  0.45593999997E+02  0.45594000000E+02  0.51100000000E-03 0. -1.
         11   -1    0    0    0    0 -0.00000000000E+00 -0.00000000000E+00 -0.45593999997E+02  0.45594000000E+02  0.51100000000E-03 0.  1.
    9900012    2    1    2    0    0 -0.14196822998E+02 -0.12207087007E+02  0.34098458610E+00  0.72461574101E+02  0.70000004960E+02 0.  0.
         12    1    1    2    0    0  0.14196822998E+02  0.12207087007E+02 -0.34098458610E+00  0.18726425899E+02  0.00000000000E+00 0. -1.
         11    1    3    3    0    0  0.71961869258E+01  0.14713729178E+02  0.11064425509E+02  0.19766143900E+02  0.51100000000E-03 0. -1.
        -11    1    3    3    0    0 -0.15302854174E+01  0.93083121249E+01  0.16263001397E+01  0.95724239605E+01  0.51100000000E-03 0.  1.
         12    1    3    3    0    0 -0.19862724507E+02 -0.36229128310E+02 -0.12349741063E+02  0.43123006241E+02  0.00000000000E+00 0. -1.
</event>
<event>
 7    1  0.3305651E-013  0.7246145E+02  0.7816164E-02  0.1226708E+00
        -11   -1    0    0    0    0  0.00000000000E+00  0.00000000000E+00  0.45593999997E+02  0.45594000000E+02  0.51100000000E-03 0. -1.
         11   -1    0    0    0    0 -0.00000000000E+00 -0.00000000000E+00 -0.45593999997E+02  0.45594000000E+02  0.51100000000E-03 0.  1.
    9900012    2    1    2    0    0 -0.12622739510E+02  0.13163199059E+01 -0.13770161766E+02  0.72461451843E+02  0.69999845695E+02 0.  0.
         12    1    1    2    0    0  0.12622739510E+02 -0.13163199059E+01  0.13770161766E+02  0.18726548157E+02  0.00000000000E+00 0. -1.
         11    1    3    3    0    0 -0.11174656922E+02 -0.11170114192E+02  0.11871716599E+02  0.19763149133E+02  0.51100000000E-03 0. -1.
        -11    1    3    3    0    0 -0.62098934744E+01 -0.10169212648E+02  0.61196748255E+01  0.13395002167E+02  0.51100000000E-03 0.  1.
        -12    1    3    3    0    0  0.47618108869E+01  0.22655646745E+02 -0.31761553191E+02  0.39303300542E+02  0.00000000000E+00 0.  1.
</event>
<event>
 7    1  0.3305651E-013  0.7246151E+02  0.7816164E-02  0.1226708E+00
        -11   -1    0    0    0    0  0.00000000000E+00  0.00000000000E+00  0.45593999997E+02  0.45594000000E+02  0.51100000000E-03 0.  1.
         11   -1    0    0    0    0 -0.00000000000E+00 -0.00000000000E+00 -0.45593999997E+02  0.45594000000E+02  0.51100000000E-03 0. -1.
    9900012    2    1    2    0    0 -0.75318900690E+01 -0.10562410770E+02  0.13505087168E+02  0.72461514245E+02  0.69999926986E+02 0.  0.
         12    1    1    2    0    0  0.75318900690E+01  0.10562410770E+02 -0.13505087168E+02  0.18726485755E+02  0.00000000000E+00 0. -1.
         11    1    3    3    0    0 -0.67251037278E+01  0.29508895737E+01 -0.48986551568E+01  0.88278871782E+01  0.51100000000E-03 0. -1.
        -11    1    3    3    0    0 -0.19988747623E+02 -0.75413465043E+01 -0.13974799391E+02  0.25528747656E+02  0.51100000000E-03 0.  1.
         12    1    3    3    0    0  0.19181961282E+02 -0.59719538399E+01  0.32378541715E+02  0.38104879411E+02  0.00000000000E+00 0. -1.
</event>
<event>
 7    1  0.3305651E-013  0.7246162E+02  0.7816164E-02  0.1226708E+00
        -11   -1    0    0    0    0  0.00000000000E+00  0.00000000000E+00  0.45593999997E+02  0.45594000000E+02  0.51100000000E-03 0.  1.
         11   -1    0    0    0    0 -0.00000000000E+00 -0.00000000000E+00 -0.45593999997E+02  0.45594000000E+02  0.51100000000E-03 0. -1.
    9900012    2    1    2    0    0  0.16028747144E+02 -0.79587456884E+01  0.55149757581E+01  0.72461619529E+02  0.70000064137E+02 0.  0.
         12    1    1    2    0    0 -0.16028747144E+02  0.79587456884E+01 -0.55149757581E+01  0.18726380471E+02  0.00000000000E+00 0. -1.
         11    1    3    3    0    0  0.23819009156E+02 -0.50281600001E+01  0.15795593237E+02  0.29019447896E+02  0.51100000000E-03 0. -1.
        -11    1    3    3    0    0  0.27879690806E+01  0.11980627695E+01  0.15224220770E+02  0.15523692354E+02  0.51100000000E-03 0.  1.
         12    1    3    3    0    0 -0.10578231093E+02 -0.41286484578E+01 -0.25504838249E+02  0.27918479279E+02  0.00000000000E+00 0. -1.
</event>
<event>
 7    1  0.3305651E-013  0.7246161E+02  0.7816164E-02  0.1226708E+00
        -11   -1    0    0    0    0  0.00000000000E+00  0.00000000000E+00  0.45593999997E+02  0.45594000000E+02  0.51100000000E-03 0.  1.
         11   -1    0    0    0    0 -0.00000000000E+00 -0.00000000000E+00 -0.45593999997E+02  0.45594000000E+02  0.51100000000E-03 0. -1.
    9900012    2    1    2    0    0 -0.10010410842E+02 -0.14189941982E+02  0.70081947553E+01  0.72461612937E+02  0.70000055551E+02 0.  0.
         12    1    1    2    0    0  0.10010410842E+02  0.14189941982E+02 -0.70081947553E+01  0.18726387063E+02  0.00000000000E+00 0. -1.
         11    1    3    3    0    0  0.10078963668E+02  0.74424524137E+01  0.61009281914E+01  0.13935455916E+02  0.51100000000E-03 0. -1.
        -11    1    3    3    0    0 -0.77470766584E+01  0.16236285618E+02  0.44730961908E+01  0.18537603869E+02  0.51100000000E-03 0.  1.
        -12    1    3    3    0    0 -0.12342297851E+02 -0.37868680014E+02 -0.35658296269E+01  0.39988553152E+02  0.00000000000E+00 0.  1.
</event>
<event>
 7    1  0.3305651E-013  0.7246155E+02  0.7816164E-02  0.1226708E+00
        -11   -1    0    0    0    0  0.00000000000E+00  0.00000000000E+00  0.45593999997E+02  0.45594000000E+02  0.51100000000E-03 0.  1.
         11   -1    0    0    0    0 -0.00000000000E+00 -0.00000000000E+00 -0.45593999997E+02  0.45594000000E+02  0.51100000000E-03 0. -1.
    9900012    2    1    2    0    0 -0.85235795274E+01 -0.98741644607E+01  0.13436120508E+02  0.72461551697E+02  0.69999975773E+02 0.  0.
         12    1    1    2    0    0  0.85235795274E+01  0.98741644607E+01 -0.13436120508E+02  0.18726448303E+02  0.00000000000E+00 0. -1.
         11    1    3    3    0    0 -0.76520159119E+01 -0.13412801919E+02  0.21943489975E+01  0.15597171878E+02  0.51100000000E-03 0. -1.
        -11    1    3    3    0    0  0.14681918456E+02 -0.12566812570E+02  0.24219901376E+02  0.30985272802E+02  0.51100000000E-03 0.  1.
         12    1    3    3    0    0 -0.15553482072E+02  0.16105450028E+02 -0.12978129865E+02  0.25879107016E+02  0.00000000000E+00 0. -1.
</event>
<event>
 7    1  0.3305651E-013  0.7246159E+02  0.7816164E-02  0.1226708E+00
        -11   -1    0    0    0    0  0.00000000000E+00  0.00000000000E+00  0.45593999997E+02  0.45594000000E+02  0.51100000000E-03 0. -1.
         11   -1    0    0    0    0 -0.00000000000E+00 -0.00000000000E+00 -0.45593999997E+02  0.45594000000E+02  0.51100000000E-03 0.  1.
    9900012    2    1    2    0    0  0.15023013673E+02 -0.24007499438E+01  0.10918976382E+02  0.72461585891E+02  0.70000020318E+02 0.  0.
         12    1    1    2    0    0 -0.15023013673E+02  0.24007499438E+01 -0.10918976382E+02  0.18726414109E+02  0.00000000000E+00 0. -1.
         11    1    3    3    0    0 -0.83609393223E+01  0.76027254167E+01  0.10655659297E+02  0.15532218625E+02  0.51100000000E-03 0. -1.
        -11    1    3    3    0    0  0.34991166886E+01 -0.10557501355E+02 -0.23463943511E+02  0.25966541892E+02  0.51100000000E-03 0.  1.
         12    1    3    3    0    0  0.19884836307E+02  0.55402599445E+00  0.23727260597E+02  0.30962825375E+02  0.00000000000E+00 0. -1.
</event>
<event>
 7    1  0.3305651E-013  0.7246143E+02  0.7816164E-02  0.1226708E+00
        -11   -1    0    0    0    0  0.00000000000E+00  0.00000000000E+00  0.45593999997E+02  0.45594000000E+02  0.51100000000E-03 0. -1.
         11   -1    0    0    0    0 -0.00000000000E+00 -0.00000000000E+00 -0.45593999997E+02  0.45594000000E+02  0.51100000000E-03 0.  1.
    9900012    2    1    2    0    0 -0.11583980055E+02  0.13891163524E+02 -0.48509143070E+01  0.72461430971E+02  0.69999818505E+02 0.  0.
         12    1    1    2    0    0  0.11583980055E+02 -0.13891163524E+02  0.48509143070E+01  0.18726569029E+02  0.00000000000E+00 0. -1.
         11    1    3    3    0    0  0.30864847123E+01 -0.51627322737E+00  0.24558903594E+01  0.39779798445E+01  0.51100000000E-03 0. -1.
        -11    1    3    3    0    0  0.91106774545E+01  0.33222119563E+02  0.66782853091E+01  0.35090072198E+02  0.51100000000E-03 0.  1.
         12    1    3    3    0    0 -0.23781142222E+02 -0.18814682811E+02 -0.13985089975E+02  0.33393378929E+02  0.00000000000E+00 0. -1.
</event>
<event>
 7    1  0.3305651E-013  0.7246156E+02  0.7816164E-02  0.1226708E+00
        -11   -1    0    0    0    0  0.00000000000E+00  0.00000000000E+00  0.45593999997E+02  0.45594000000E+02  0.51100000000E-03 0.  1.
         11   -1    0    0    0    0 -0.00000000000E+00 -0.00000000000E+00 -0.45593999997E+02  0.45594000000E+02  0.51100000000E-03 0. -1.
    9900012    2    1    2    0    0  0.10822477938E+02 -0.96273095342E+01  0.11868806274E+02  0.72461556666E+02  0.69999982247E+02 0.  0.
         12    1    1    2    0    0 -0.10822477938E+02  0.96273095342E+01 -0.11868806274E+02  0.18726443334E+02  0.00000000000E+00 0. -1.
         11    1    3    3    0    0 -0.25127976716E+01 -0.27766273590E+02  0.18412755300E+02  0.33411220558E+02  0.51100000000E-03 0. -1.
        -11    1    3    3    0    0 -0.59385644747E+01 -0.53028899192E+01 -0.29486986958E+01  0.84901127068E+01  0.51100000000E-03 0.  1.
        -12    1    3    3    0    0  0.19273840084E+02  0.23441853975E+02 -0.35952503300E+01  0.30560223401E+02  0.00000000000E+00 0.  1.
</event>
<event>
 7    1  0.3305651E-013  0.7246157E+02  0.7816164E-02  0.1226708E+00
        -11   -1    0    0    0    0  0.00000000000E+00  0.00000000000E+00  0.45593999997E+02  0.45594000000E+02  0.51100000000E-03 0.  1.
         11   -1    0    0    0    0 -0.00000000000E+00 -0.00000000000E+00 -0.45593999997E+02  0.45594000000E+02  0.51100000000E-03 0. -1.
    9900012    2    1    2    0    0 -0.11829983287E+02 -0.12518210309E+02  0.73501863749E+01  0.72461565912E+02  0.69999994291E+02 0.  0.
         12    1    1    2    0    0  0.11829983287E+02  0.12518210309E+02 -0.73501863749E+01  0.18726434088E+02  0.00000000000E+00 0. -1.
         11    1    3    3    0    0  0.10986886316E+02  0.14234999547E+02 -0.58428967260E+01  0.18907308784E+02  0.51100000000E-03 0. -1.
        -11    1    3    3    0    0 -0.10292334241E+00 -0.20326023232E+02 -0.79872718839E+01  0.21839284009E+02  0.51100000000E-03 0.  1.
        -12    1    3    3    0    0 -0.22713946261E+02 -0.64271866244E+01  0.21180354985E+02  0.31714973119E+02  0.00000000000E+00 0.  1.
</event>
<event>
 7    1  0.3305651E-013  0.7246161E+02  0.7816164E-02  0.1226708E+00
        -11   -1    0    0    0    0  0.00000000000E+00  0.00000000000E+00  0.45593999997E+02  0.45594000000E+02  0.51100000000E-03 0. -1.
         11   -1    0    0    0    0 -0.00000000000E+00 -0.00000000000E+00 -0.45593999997E+02  0.45594000000E+02  0.51100000000E-03 0.  1.
    9900012    2    1    2    0    0  0.28007950497E+01  0.10378493143E+02 -0.15333632095E+02  0.72461605631E+02  0.70000046033E+02 0.  0.
         12    1    1    2    0    0 -0.28007950497E+01 -0.10378493143E+02  0.15333632095E+02  0.18726394369E+02  0.00000000000E+00 0. -1.
         11    1    3    3    0    0 -0.18515779306E+02  0.15163137737E+02 -0.27777619402E+02  0.36665391983E+02  0.51100000000E-03 0. -1.
        -11    1    3    3    0    0 -0.36680267032E+01 -0.14284237317E+01  0.96633239289E+01  0.10434301312E+02  0.51100000000E-03 0.  1.
        -12    1    3    3    0    0  0.24984601059E+02 -0.33562208622E+01  0.27806633781E+01  0.25361912336E+02  0.00000000000E+00 0.  1.
</event>
<event>
 7    1  0.3305651E-013  0.7246149E+02  0.7816164E-02  0.1226708E+00
        -11   -1    0    0    0    0  0.00000000000E+00  0.00000000000E+00  0.45593999997E+02  0.45594000000E+02  0.51100000000E-03 0.  1.
         11   -1    0    0    0    0 -0.00000000000E+00 -0.00000000000E+00 -0.45593999997E+02  0.45594000000E+02  0.51100000000E-03 0. -1.
    9900012    2    1    2    0    0  0.77620978351E+01 -0.15798705855E+02  0.63900541049E+01  0.72461493092E+02  0.69999899430E+02 0.  0.
         12    1    1    2    0    0 -0.77620978351E+01  0.15798705855E+02 -0.63900541049E+01  0.18726506908E+02  0.00000000000E+00 0. -1.
         11    1    3    3    0    0  0.65769504366E+00  0.78705051684E+01 -0.44264028707E+01  0.90537537525E+01  0.51100000000E-03 0. -1.
        -11    1    3    3    0    0 -0.15269197508E+02 -0.12114147285E+02  0.27128719563E+02  0.33404616184E+02  0.51100000000E-03 0.  1.
         12    1    3    3    0    0  0.22373600299E+02 -0.11555063739E+02 -0.16312262588E+02  0.30003123156E+02  0.00000000000E+00 0. -1.
</event>
<event>
 7    1  0.3305651E-013  0.7246154E+02  0.7816164E-02  0.1226708E+00
        -11   -1    0    0    0    0  0.00000000000E+00  0.00000000000E+00  0.45593999997E+02  0.45594000000E+02  0.51100000000E-03 0.  1.
         11   -1    0    0    0    0 -0.00000000000E+00 -0.00000000000E+00 -0.45593999997E+02  0.45594000000E+02  0.51100000000E-03 0. -1.
    9900012    2    1    2    0    0  0.18434597569E+02  0.90165338751E+00  0.31675036949E+01  0.72461536212E+02  0.69999955601E+02 0.  0.
         12    1    1    2    0    0 -0.18434597569E+02 -0.90165338751E+00 -0.31675036949E+01  0.18726463788E+02  0.00000000000E+00 0. -1.
         11    1    3    3    0    0  0.20383655760E+02  0.11408527018E+02 -0.11172470142E+01  0.23385810912E+02  0.51100000000E-03 0. -1.
        -11    1    3    3    0    0  0.18539921217E+02 -0.80472202886E+01  0.15608902471E+02  0.25536723943E+02  0.51100000000E-03 0.  1.
        -12    1    3    3    0    0 -0.20488979408E+02 -0.24596533421E+01 -0.11324151762E+02  0.23539001357E+02  0.00000000000E+00 0.  1.
</event>
<event>
 7    1  0.3305651E-013  0.7246164E+02  0.7816164E-02  0.1226708E+00
        -11   -1    0    0    0    0  0.00000000000E+00  0.00000000000E+00  0.45593999997E+02  0.45594000000E+02  0.51100000000E-03 0.  1.
         11   -1    0    0    0    0 -0.00000000000E+00 -0.00000000000E+00 -0.45593999997E+02  0.45594000000E+02  0.51100000000E-03 0. -1.
    9900012    2    1    2    0    0  0.18677174481E+02 -0.12507019792E+01  0.52501725455E+00  0.72461635026E+02  0.70000084324E+02 0.  0.
         12    1    1    2    0    0 -0.18677174481E+02  0.12507019792E+01 -0.52501725455E+00  0.18726364974E+02  0.00000000000E+00 0. -1.
         11    1    3    3    0    0 -0.60632215075E+00  0.29099242240E+01  0.83362307626E+01  0.88503123746E+01  0.51100000000E-03 0. -1.
        -11    1    3    3    0    0  0.14180948450E+02  0.88142989933E+01  0.23793753916E+02  0.29067746582E+02  0.51100000000E-03 0.  1.
         12    1    3    3    0    0  0.51025481820E+01 -0.12974925197E+02 -0.31604967424E+02  0.34543576069E+02  0.00000000000E+00 0. -1.
</event>
<event>
 7    1  0.3305651E-013  0.7246154E+02  0.7816164E-02  0.1226708E+00
        -11   -1    0    0    0    0  0.00000000000E+00  0.00000000000E+00  0.45593999997E+02  0.45594000000E+02  0.51100000000E-03 0.  1.
         11   -1    0    0    0    0 -0.00000000000E+00 -0.00000000000E+00 -0.45593999997E+02  0.45594000000E+02  0.51100000000E-03 0. -1.
    9900012    2    1    2    0    0 -0.96962775049E+01  0.14800974187E+02  0.61313672443E+01  0.72461540147E+02  0.69999960728E+02 0.  0.
         12    1    1    2    0    0  0.96962775049E+01 -0.14800974187E+02 -0.61313672443E+01  0.18726459853E+02  0.00000000000E+00 0. -1.
         11    1    3    3    0    0 -0.68267159770E+01  0.84370372919E+01 -0.29031408592E+02  0.30993714434E+02  0.51100000000E-03 0. -1.
        -11    1    3    3    0    0  0.17055566284E+01  0.65453511859E+01  0.81113082359E+00  0.68123769005E+01  0.51100000000E-03 0.  1.
        -12    1    3    3    0    0 -0.45751181563E+01 -0.18141429079E+00  0.34351645013E+02  0.34655448813E+02  0.00000000000E+00 0.  1.
</event>
<event>
 7    1  0.3305651E-013  0.7246155E+02  0.7816164E-02  0.1226708E+00
        -11   -1    0    0    0    0  0.00000000000E+00  0.00000000000E+00  0.45593999997E+02  0.45594000000E+02  0.51100000000E-03 0.  1.
         11   -1    0    0    0    0 -0.00000000000E+00 -0.00000000000E+00 -0.45593999997E+02  0.45594000000E+02  0.51100000000E-03 0. -1.
    9900012    2    1    2    0    0 -0.79715823177E+00  0.14115638385E+02  0.12279782153E+02  0.72461554582E+02  0.69999979532E+02 0.  0.
         12    1    1    2    0    0  0.79715823177E+00 -0.14115638385E+02 -0.12279782153E+02  0.18726445418E+02  0.00000000000E+00 0. -1.
         11    1    3    3    0    0  0.20354780655E+02  0.60626340920E+01 -0.45719733573E+01  0.21724998695E+02  0.51100000000E-03 0. -1.
        -11    1    3    3    0    0  0.78010522642E+01  0.57561366388E+01 -0.79548949560E+01  0.12540728825E+02  0.51100000000E-03 0.  1.
        -12    1    3    3    0    0 -0.28952991151E+02  0.22968676541E+01  0.24806650466E+02  0.38195827062E+02  0.00000000000E+00 0.  1.
</event>
<event>
 7    1  0.3305651E-013  0.7246154E+02  0.7816164E-02  0.1226708E+00
        -11   -1    0    0    0    0  0.00000000000E+00  0.00000000000E+00  0.45593999997E+02  0.45594000000E+02  0.51100000000E-03 0.  1.
         11   -1    0    0    0    0 -0.00000000000E+00 -0.00000000000E+00 -0.45593999997E+02  0.45594000000E+02  0.51100000000E-03 0. -1.
    9900012    2    1    2    0    0  0.12727423994E+02  0.28240956632E+01  0.13443118228E+02  0.72461541030E+02  0.69999961878E+02 0.  0.
         12    1    1    2    0    0 -0.12727423994E+02 -0.28240956632E+01 -0.13443118228E+02  0.18726458970E+02  0.00000000000E+00 0. -1.
         11    1    3    3    0    0 -0.16076176995E+02 -0.15692336847E+02  0.51362654950E+00  0.22471241955E+02  0.51100000000E-03 0. -1.
        -11    1    3    3    0    0  0.50107141090E+01 -0.19890347682E+01 -0.98233359516E+01  0.11205420326E+02  0.51100000000E-03 0.  1.
        -12    1    3    3    0    0  0.23792886881E+02  0.20505467279E+02  0.22752827630E+02  0.38784878750E+02  0.00000000000E+00 0.  1.
</event>
<event>
 7    1  0.3305651E-013  0.7246162E+02  0.7816164E-02  0.1226708E+00
        -11   -1    0    0    0    0  0.00000000000E+00  0.00000000000E+00  0.45593999997E+02  0.45594000000E+02  0.51100000000E-03 0.  1.
         11   -1    0    0    0    0 -0.00000000000E+00 -0.00000000000E+00 -0.45593999997E+02  0.45594000000E+02  0.51100000000E-03 0. -1.
    9900012    2    1    2    0    0  0.42074139682E+01  0.55729992044E+01  0.17375748152E+02  0.72461620844E+02  0.70000065851E+02 0.  0.
         12    1    1    2    0    0 -0.42074139682E+01 -0.55729992044E+01 -0.17375748152E+02  0.18726379156E+02  0.00000000000E+00 0. -1.
         11    1    3    3    0    0  0.14807460519E+01  0.13225199207E+01  0.13809887153E+01  0.24184288090E+01  0.51100000000E-03 0. -1.
        -11    1    3    3    0    0  0.55616369091E+01  0.11651160943E+02  0.41433610627E+02  0.43398449814E+02  0.51100000000E-03 0.  1.
         12    1    3    3    0    0 -0.28349689928E+01 -0.74006816590E+01 -0.25438851190E+02  0.26644742222E+02  0.00000000000E+00 0. -1.
</event>
<event>
 7    1  0.3305651E-013  0.7246109E+02  0.7816164E-02  0.1226709E+00
        -11   -1    0    0    0    0  0.00000000000E+00  0.00000000000E+00  0.45593999997E+02  0.45594000000E+02  0.51100000000E-03 0. -1.
         11   -1    0    0    0    0 -0.00000000000E+00 -0.00000000000E+00 -0.45593999997E+02  0.45594000000E+02  0.51100000000E-03 0.  1.
    9900012    2    1    2    0    0  0.11893935927E+02 -0.90698810482E+01 -0.11268045467E+02  0.72461086140E+02  0.69999369297E+02 0.  0.
         12    1    1    2    0    0 -0.11893935927E+02  0.90698810482E+01  0.11268045467E+02  0.18726913860E+02  0.00000000000E+00 0. -1.
         11    1    3    3    0    0  0.10466311018E+02 -0.18691774489E+01  0.13717210986E+02  0.17355096317E+02  0.51100000000E-03 0. -1.
        -11    1    3    3    0    0  0.31698938221E+01  0.19743378744E+02 -0.18713179947E+02  0.27386718224E+02  0.51100000000E-03 0.  1.
         12    1    3    3    0    0 -0.17422689137E+01 -0.26944082344E+02 -0.62720765061E+01  0.27719271600E+02  0.00000000000E+00 0. -1.
</event>
<event>
 7    1  0.3305651E-013  0.7246162E+02  0.7816164E-02  0.1226708E+00
        -11   -1    0    0    0    0  0.00000000000E+00  0.00000000000E+00  0.45593999997E+02  0.45594000000E+02  0.51100000000E-03 0.  1.
         11   -1    0    0    0    0 -0.00000000000E+00 -0.00000000000E+00 -0.45593999997E+02  0.45594000000E+02  0.51100000000E-03 0. -1.
    9900012    2    1    2    0    0  0.99368116739E+01 -0.15866636325E+02 -0.43225268447E+00  0.72461622430E+02  0.70000067917E+02 0.  0.
         12    1    1    2    0    0 -0.99368116739E+01  0.15866636325E+02  0.43225268447E+00  0.18726377570E+02  0.00000000000E+00 0. -1.
         11    1    3    3    0    0 -0.24920215715E+02 -0.10308913869E+02 -0.15016742018E+02  0.30867351645E+02  0.51100000000E-03 0. -1.
        -11    1    3    3    0    0  0.50643429745E+00  0.27278643031E+01 -0.10337703357E+01  0.29608108217E+01  0.51100000000E-03 0.  1.
        -12    1    3    3    0    0  0.34350593092E+02 -0.82855867591E+01  0.15618259669E+02  0.38633459964E+02  0.00000000000E+00 0.  1.
</event>
<event>
 7    1  0.3305651E-013  0.7246140E+02  0.7816164E-02  0.1226708E+00
        -11   -1    0    0    0    0  0.00000000000E+00  0.00000000000E+00  0.45593999997E+02  0.45594000000E+02  0.51100000000E-03 0.  1.
         11   -1    0    0    0    0 -0.00000000000E+00 -0.00000000000E+00 -0.45593999997E+02  0.45594000000E+02  0.51100000000E-03 0. -1.
    9900012    2    1    2    0    0 -0.11951501893E+02 -0.10279227155E+02 -0.10108638430E+02  0.72461401822E+02  0.69999780533E+02 0.  0.
         12    1    1    2    0    0  0.11951501893E+02  0.10279227155E+02  0.10108638430E+02  0.18726598178E+02  0.00000000000E+00 0. -1.
         11    1    3    3    0    0  0.20640521406E+02  0.12609288804E+02  0.29817328239E+00  0.24189133834E+02  0.51100000000E-03 0. -1.
        -11    1    3    3    0    0 -0.11527069704E+02  0.34175876719E+01  0.23266913652E+01  0.12246090578E+02  0.51100000000E-03 0.  1.
        -12    1    3    3    0    0 -0.21064953595E+02 -0.26306103631E+02 -0.12733503078E+02  0.36026177411E+02  0.00000000000E+00 0.  1.
</event>
<event>
 7    1  0.3305651E-013  0.7246157E+02  0.7816164E-02  0.1226708E+00
        -11   -1    0    0    0    0  0.00000000000E+00  0.00000000000E+00  0.45593999997E+02  0.45594000000E+02  0.51100000000E-03 0. -1.
         11   -1    0    0    0    0 -0.00000000000E+00 -0.00000000000E+00 -0.45593999997E+02  0.45594000000E+02  0.51100000000E-03 0.  1.
    9900012    2    1    2    0    0 -0.11049012475E+02  0.13766457827E+02 -0.62516378733E+01  0.72461574450E+02  0.70000005413E+02 0.  0.
         12    1    1    2    0    0  0.11049012475E+02 -0.13766457827E+02  0.62516378733E+01  0.18726425550E+02  0.00000000000E+00 0. -1.
         11    1    3    3    0    0  0.15991846848E+02  0.24634559335E+02 -0.17201102829E+02  0.34036430747E+02  0.51100000000E-03 0. -1.
        -11    1    3    3    0    0 -0.83961102081E+00  0.34033895128E+00 -0.54638820258E+01  0.55384821315E+01  0.51100000000E-03 0.  1.
        -12    1    3    3    0    0 -0.26201248302E+02 -0.11208440459E+02  0.16413346982E+02  0.32886661571E+02  0.00000000000E+00 0.  1.
</event>
<event>
 7    1  0.3305651E-013  0.7246166E+02  0.7816164E-02  0.1226708E+00
        -11   -1    0    0    0    0  0.00000000000E+00  0.00000000000E+00  0.45593999997E+02  0.45594000000E+02  0.51100000000E-03 0. -1.
         11   -1    0    0    0    0 -0.00000000000E+00 -0.00000000000E+00 -0.45593999997E+02  0.45594000000E+02  0.51100000000E-03 0.  1.
    9900012    2    1    2    0    0 -0.61813948613E+01  0.13520958562E+02 -0.11386392625E+02  0.72461657595E+02  0.70000113725E+02 0.  0.
         12    1    1    2    0    0  0.61813948613E+01 -0.13520958562E+02  0.11386392625E+02  0.18726342405E+02  0.00000000000E+00 0. -1.
         11    1    3    3    0    0 -0.80550150219E+01  0.71691394875E+01 -0.93388264164E+01  0.14265115040E+02  0.51100000000E-03 0. -1.
        -11    1    3    3    0    0 -0.62079166705E+01  0.12292297056E+02 -0.27545948044E+02  0.30796396708E+02  0.51100000000E-03 0.  1.
         12    1    3    3    0    0  0.80815368311E+01 -0.59404779815E+01  0.25498381835E+02  0.27400145847E+02  0.00000000000E+00 0. -1.
</event>
<event>
 7    1  0.3305651E-013  0.7246153E+02  0.7816164E-02  0.1226708E+00
        -11   -1    0    0    0    0  0.00000000000E+00  0.00000000000E+00  0.45593999997E+02  0.45594000000E+02  0.51100000000E-03 0.  1.
         11   -1    0    0    0    0 -0.00000000000E+00 -0.00000000000E+00 -0.45593999997E+02  0.45594000000E+02  0.51100000000E-03 0. -1.
    9900012    2    1    2    0    0  0.13741861517E+02 -0.12312397854E+02  0.32010521092E+01  0.72461531206E+02  0.69999949081E+02 0.  0.
         12    1    1    2    0    0 -0.13741861517E+02  0.12312397854E+02 -0.32010521092E+01  0.18726468794E+02  0.00000000000E+00 0. -1.
         11    1    3    3    0    0  0.24911636330E+02 -0.15568091863E+02  0.91980950493E+01  0.30782463542E+02  0.51100000000E-03 0. -1.
        -11    1    3    3    0    0 -0.17338895892E+01  0.14975840430E+02  0.11235463724E+02  0.18802069435E+02  0.51100000000E-03 0.  1.
        -12    1    3    3    0    0 -0.94358852236E+01 -0.11720146420E+02 -0.17232506664E+02  0.22876998229E+02  0.00000000000E+00 0.  1.
</event>
<event>
 7    1  0.3305651E-013  0.7246202E+02  0.7816164E-02  0.1226707E+00
        -11   -1    0    0    0    0  0.00000000000E+00  0.00000000000E+00  0.45593999997E+02  0.45594000000E+02  0.51100000000E-03 0.  1.
         11   -1    0    0    0    0 -0.00000000000E+00 -0.00000000000E+00 -0.45593999997E+02  0.45594000000E+02  0.51100000000E-03 0. -1.
    9900012    2    1    2    0    0 -0.66697637866E+01 -0.83954002196E+00  0.17477747157E+02  0.72462022800E+02  0.70000589470E+02 0.  0.
         12    1    1    2    0    0  0.66697637866E+01  0.83954002196E+00 -0.17477747157E+02  0.18725977200E+02  0.00000000000E+00 0. -1.
         11    1    3    3    0    0 -0.18472938894E+02 -0.12629497445E+01 -0.14910287478E+02  0.23773118987E+02  0.51100000000E-03 0. -1.
        -11    1    3    3    0    0 -0.27734465616E+01  0.14656418026E+01 -0.64609418933E+01  0.71821920145E+01  0.51100000000E-03 0.  1.
        -12    1    3    3    0    0  0.14576621669E+02 -0.10422320801E+01  0.38848976528E+02  0.41506711798E+02  0.00000000000E+00 0.  1.
</event>
<event>
 7    1  0.3305651E-013  0.7246145E+02  0.7816164E-02  0.1226708E+00
        -11   -1    0    0    0    0  0.00000000000E+00  0.00000000000E+00  0.45593999997E+02  0.45594000000E+02  0.51100000000E-03 0.  1.
         11   -1    0    0    0    0 -0.00000000000E+00 -0.00000000000E+00 -0.45593999997E+02  0.45594000000E+02  0.51100000000E-03 0. -1.
    9900012    2    1    2    0    0 -0.73901964588E+01  0.36957020861E+01  0.16805067265E+02  0.72461454579E+02  0.69999849260E+02 0.  0.
         12    1    1    2    0    0  0.73901964588E+01 -0.36957020861E+01 -0.16805067265E+02  0.18726545421E+02  0.00000000000E+00 0. -1.
         11    1    3    3    0    0  0.83121891705E+01 -0.26157478250E+02  0.12099248507E+02  0.29994965776E+02  0.51100000000E-03 0. -1.
        -11    1    3    3    0    0 -0.23214077601E+01  0.38171646463E+01 -0.90723896146E+01  0.10112760924E+02  0.51100000000E-03 0.  1.
        -12    1    3    3    0    0 -0.13380977869E+02  0.26036015690E+02  0.13778208373E+02  0.32353727879E+02  0.00000000000E+00 0.  1.
</event>
<event>
 7    1  0.3305651E-013  0.7246157E+02  0.7816164E-02  0.1226708E+00
        -11   -1    0    0    0    0  0.00000000000E+00  0.00000000000E+00  0.45593999997E+02  0.45594000000E+02  0.51100000000E-03 0. -1.
         11   -1    0    0    0    0 -0.00000000000E+00 -0.00000000000E+00 -0.45593999997E+02  0.45594000000E+02  0.51100000000E-03 0.  1.
    9900012    2    1    2    0    0 -0.10224612595E+02 -0.15644010979E+02 -0.11837644245E+01  0.72461572672E+02  0.70000003098E+02 0.  0.
         12    1    1    2    0    0  0.10224612595E+02  0.15644010979E+02  0.11837644245E+01  0.18726427328E+02  0.00000000000E+00 0. -1.
         11    1    3    3    0    0 -0.20667675806E+02 -0.97432216408E+01  0.83699410936E+01  0.24333908551E+02  0.51100000000E-03 0. -1.
        -11    1    3    3    0    0 -0.81122733943E+01  0.15131899854E+02  0.29469349330E+01  0.17420327166E+02  0.51100000000E-03 0.  1.
        -12    1    3    3    0    0  0.18555336605E+02 -0.21032689192E+02 -0.12500640451E+02  0.30707336955E+02  0.00000000000E+00 0.  1.
</event>
<event>
 7    1  0.3305651E-013  0.7246157E+02  0.7816164E-02  0.1226708E+00
        -11   -1    0    0    0    0  0.00000000000E+00  0.00000000000E+00  0.45593999997E+02  0.45594000000E+02  0.51100000000E-03 0. -1.
         11   -1    0    0    0    0 -0.00000000000E+00 -0.00000000000E+00 -0.45593999997E+02  0.45594000000E+02  0.51100000000E-03 0.  1.
    9900012    2    1    2    0    0  0.17451145857E+02 -0.55027931807E+01  0.39819693967E+01  0.72461566683E+02  0.69999995295E+02 0.  0.
         12    1    1    2    0    0 -0.17451145857E+02  0.55027931807E+01 -0.39819693967E+01  0.18726433317E+02  0.00000000000E+00 0. -1.
         11    1    3    3    0    0 -0.33403624055E+01  0.87048190752E+01 -0.38799716777E+01  0.10098815604E+02  0.51100000000E-03 0. -1.
        -11    1    3    3    0    0  0.26176223254E+02  0.19042109947E+01 -0.17710501497E+02  0.31662004783E+02  0.51100000000E-03 0.  1.
         12    1    3    3    0    0 -0.53847149920E+01 -0.16111823251E+02  0.25572442571E+02  0.30700746295E+02  0.00000000000E+00 0. -1.
</event>
<event>
 7    1  0.3305651E-013  0.7246162E+02  0.7816164E-02  0.1226708E+00
        -11   -1    0    0    0    0  0.00000000000E+00  0.00000000000E+00  0.45593999997E+02  0.45594000000E+02  0.51100000000E-03 0.  1.
         11   -1    0    0    0    0 -0.00000000000E+00 -0.00000000000E+00 -0.45593999997E+02  0.45594000000E+02  0.51100000000E-03 0. -1.
    9900012    2    1    2    0    0 -0.38565518499E+01  0.77349230567E+01  0.16612498749E+02  0.72461624442E+02  0.70000070537E+02 0.  0.
         12    1    1    2    0    0  0.38565518499E+01 -0.77349230567E+01 -0.16612498749E+02  0.18726375558E+02  0.00000000000E+00 0. -1.
         11    1    3    3    0    0  0.11186223806E+02 -0.55867692963E+01 -0.11424447541E+02  0.16936988991E+02  0.51100000000E-03 0. -1.
        -11    1    3    3    0    0  0.79121202998E+01 -0.90580757685E+01 -0.12633135890E+01  0.12093235537E+02  0.51100000000E-03 0.  1.
         12    1    3    3    0    0 -0.22954895956E+02  0.22379768121E+02  0.29300259879E+02  0.43431399914E+02  0.00000000000E+00 0. -1.
</event>
<event>
 7    1  0.3305651E-013  0.7246158E+02  0.7816164E-02  0.1226708E+00
        -11   -1    0    0    0    0  0.00000000000E+00  0.00000000000E+00  0.45593999997E+02  0.45594000000E+02  0.51100000000E-03 0. -1.
         11   -1    0    0    0    0 -0.00000000000E+00 -0.00000000000E+00 -0.45593999997E+02  0.45594000000E+02  0.51100000000E-03 0.  1.
    9900012    2    1    2    0    0  0.90563348295E+01  0.15558000365E+02  0.51585141677E+01  0.72461578978E+02  0.70000011312E+02 0.  0.
         12    1    1    2    0    0 -0.90563348295E+01 -0.15558000365E+02 -0.51585141677E+01  0.18726421022E+02  0.00000000000E+00 0. -1.
         11    1    3    3    0    0 -0.11169930431E+02  0.66138783743E+01 -0.68379196227E+01  0.14672010019E+02  0.51100000000E-03 0. -1.
        -11    1    3    3    0    0  0.99393536552E+00  0.28727197937E+02  0.85207088259E+01  0.29980698591E+02  0.51100000000E-03 0.  1.
        -12    1    3    3    0    0  0.19232329895E+02 -0.19783075947E+02  0.34757249644E+01  0.27808870368E+02  0.00000000000E+00 0.  1.
</event>
<event>
 7    1  0.3305651E-013  0.7246159E+02  0.7816164E-02  0.1226708E+00
        -11   -1    0    0    0    0  0.00000000000E+00  0.00000000000E+00  0.45593999997E+02  0.45594000000E+02  0.51100000000E-03 0.  1.
         11   -1    0    0    0    0 -0.00000000000E+00 -0.00000000000E+00 -0.45593999997E+02  0.45594000000E+02  0.51100000000E-03 0. -1.
    9900012    2    1    2    0    0 -0.30132815589E+01  0.96650180035E+01  0.15753923942E+02  0.72461586613E+02  0.70000021258E+02 0.  0.
         12    1    1    2    0    0  0.30132815589E+01 -0.96650180035E+01 -0.15753923942E+02  0.18726413387E+02  0.00000000000E+00 0. -1.
         11    1    3    3    0    0  0.94935105084E+01 -0.70322303694E+01  0.43306722509E+01  0.12583073080E+02  0.51100000000E-03 0. -1.
        -11    1    3    3    0    0 -0.23199306680E+02 -0.12055122298E+02  0.12926461765E+02  0.29165514192E+02  0.51100000000E-03 0.  1.
         12    1    3    3    0    0  0.10692514613E+02  0.28752370671E+02 -0.15032100739E+01  0.30712999340E+02  0.00000000000E+00 0. -1.
</event>
<event>
 7    1  0.3305651E-013  0.7246150E+02  0.7816164E-02  0.1226708E+00
        -11   -1    0    0    0    0  0.00000000000E+00  0.00000000000E+00  0.45593999997E+02  0.45594000000E+02  0.51100000000E-03 0. -1.
         11   -1    0    0    0    0 -0.00000000000E+00 -0.00000000000E+00 -0.45593999997E+02  0.45594000000E+02  0.51100000000E-03 0.  1.
    9900012    2    1    2    0    0  0.11711822771E+02  0.83245838973E+01 -0.12009007735E+02  0.72461501223E+02  0.69999910021E+02 0.  0.
         12    1    1    2    0    0 -0.11711822771E+02 -0.83245838973E+01  0.12009007735E+02  0.18726498777E+02  0.00000000000E+00 0. -1.
         11    1    3    3    0    0 -0.10796889106E+02  0.62698521829E+01 -0.45964204570E+01  0.13304545916E+02  0.51100000000E-03 0. -1.
        -11    1    3    3    0    0 -0.14644707432E+02  0.13294243308E+02 -0.91020371812E+00  0.19799818988E+02  0.51100000000E-03 0.  1.
        -12    1    3    3    0    0  0.37153419309E+02 -0.11239511593E+02 -0.65023835599E+01  0.39357136318E+02  0.00000000000E+00 0.  1.
</event>
<event>
 7    1  0.3305651E-013  0.7246161E+02  0.7816164E-02  0.1226708E+00
        -11   -1    0    0    0    0  0.00000000000E+00  0.00000000000E+00  0.45593999997E+02  0.45594000000E+02  0.51100000000E-03 0. -1.
         11   -1    0    0    0    0 -0.00000000000E+00 -0.00000000000E+00 -0.45593999997E+02  0.45594000000E+02  0.51100000000E-03 0.  1.
    9900012    2    1    2    0    0 -0.10586442013E+02 -0.15378036721E+02 -0.14563345510E+01  0.72461610113E+02  0.70000051871E+02 0.  0.
         12    1    1    2    0    0  0.10586442013E+02  0.15378036721E+02  0.14563345510E+01  0.18726389887E+02  0.00000000000E+00 0. -1.
         11    1    3    3    0    0  0.12352564553E+02 -0.13258275443E+01 -0.11888529898E+02  0.17195371852E+02  0.51100000000E-03 0. -1.
        -11    1    3    3    0    0 -0.16490082760E+02  0.61308698676E+01 -0.14319701437E+02  0.22684008558E+02  0.51100000000E-03 0.  1.
         12    1    3    3    0    0 -0.64489238055E+01 -0.20183079044E+02  0.24751896784E+02  0.32582229702E+02  0.00000000000E+00 0. -1.
</event>
<event>
 7    1  0.3305651E-013  0.7246167E+02  0.7816164E-02  0.1226708E+00
        -11   -1    0    0    0    0  0.00000000000E+00  0.00000000000E+00  0.45593999997E+02  0.45594000000E+02  0.51100000000E-03 0.  1.
         11   -1    0    0    0    0 -0.00000000000E+00 -0.00000000000E+00 -0.45593999997E+02  0.45594000000E+02  0.51100000000E-03 0. -1.
    9900012    2    1    2    0    0 -0.36455340454E+01  0.13467658386E+02  0.12490303390E+02  0.72461670417E+02  0.70000130429E+02 0.  0.
         12    1    1    2    0    0  0.36455340454E+01 -0.13467658386E+02 -0.12490303390E+02  0.18726329583E+02  0.00000000000E+00 0. -1.
         11    1    3    3    0    0 -0.10910623725E+02  0.86625295038E+01 -0.96305401780E+01  0.16936009915E+02  0.51100000000E-03 0. -1.
        -11    1    3    3    0    0 -0.20592020865E+02 -0.19078996553E+01  0.25757331341E+01  0.20840004938E+02  0.51100000000E-03 0.  1.
         12    1    3    3    0    0  0.27857110544E+02  0.67130285371E+01  0.19545110434E+02  0.34685655564E+02  0.00000000000E+00 0. -1.
</event>
<event>
 7    1  0.3305651E-013  0.7246155E+02  0.7816164E-02  0.1226708E+00
        -11   -1    0    0    0    0  0.00000000000E+00  0.00000000000E+00  0.45593999997E+02  0.45594000000E+02  0.51100000000E-03 0. -1.
         11   -1    0    0    0    0 -0.00000000000E+00 -0.00000000000E+00 -0.45593999997E+02  0.45594000000E+02  0.51100000000E-03 0.  1.
    9900012    2    1    2    0    0 -0.14651252683E+02 -0.75947833337E+01 -0.88509970916E+01  0.72461545755E+02  0.69999968033E+02 0.  0.
         12    1    1    2    0    0  0.14651252683E+02  0.75947833337E+01  0.88509970916E+01  0.18726454245E+02  0.00000000000E+00 0. -1.
         11    1    3    3    0    0 -0.17664943998E+02  0.43970063036E+00  0.21736396374E+02  0.28012756214E+02  0.51100000000E-03 0. -1.
        -11    1    3    3    0    0 -0.76005895792E+01  0.10989580393E+01  0.28549462246E+01  0.81931305940E+01  0.51100000000E-03 0.  1.
        -12    1    3    3    0    0  0.10614280894E+02 -0.91334420034E+01 -0.33442339690E+02  0.36255658947E+02  0.00000000000E+00 0.  1.
</event>
<event>
 7    1  0.3305651E-013  0.7246153E+02  0.7816164E-02  0.1226708E+00
        -11   -1    0    0    0    0  0.00000000000E+00  0.00000000000E+00  0.45593999997E+02  0.45594000000E+02  0.51100000000E-03 0. -1.
         11   -1    0    0    0    0 -0.00000000000E+00 -0.00000000000E+00 -0.45593999997E+02  0.45594000000E+02  0.51100000000E-03 0.  1.
    9900012    2    1    2    0    0 -0.86273972829E+01  0.14661682661E+02  0.78283995455E+01  0.72461527781E+02  0.69999944618E+02 0.  0.
         12    1    1    2    0    0  0.86273972829E+01 -0.14661682661E+02 -0.78283995455E+01  0.18726472219E+02  0.00000000000E+00 0. -1.
         11    1    3    3    0    0  0.74510643340E+01 -0.44864509794E+01 -0.11669476005E+02  0.14554149670E+02  0.51100000000E-03 0. -1.
        -11    1    3    3    0    0  0.24043640035E+01 -0.10936058495E+02 -0.74855293224E+01  0.13468908314E+02  0.51100000000E-03 0.  1.
         12    1    3    3    0    0 -0.18482825620E+02  0.30084192136E+02  0.26983404873E+02  0.44438469797E+02  0.00000000000E+00 0. -1.
</event>
<event>
 7    1  0.3305651E-013  0.7246158E+02  0.7816164E-02  0.1226708E+00
        -11   -1    0    0    0    0  0.00000000000E+00  0.00000000000E+00  0.45593999997E+02  0.45594000000E+02  0.51100000000E-03 0.  1.
         11   -1    0    0    0    0 -0.00000000000E+00 -0.00000000000E+00 -0.45593999997E+02  0.45594000000E+02  0.51100000000E-03 0. -1.
    9900012    2    1    2    0    0 -0.11744838639E+02  0.78366419611E+01  0.12301414582E+02  0.72461575018E+02  0.70000006153E+02 0.  0.
         12    1    1    2    0    0  0.11744838639E+02 -0.78366419611E+01 -0.12301414582E+02  0.18726424982E+02  0.00000000000E+00 0. -1.
         11    1    3    3    0    0 -0.15768129971E+01  0.94116708454E+01  0.17126649481E+02  0.19605815720E+02  0.51100000000E-03 0. -1.
        -11    1    3    3    0    0 -0.26686391760E+00  0.24582474983E+02 -0.78231600775E+00  0.24596367846E+02  0.51100000000E-03 0.  1.
        -12    1    3    3    0    0 -0.99011617243E+01 -0.26157503867E+02 -0.40429188910E+01  0.28259391452E+02  0.00000000000E+00 0.  1.
</event>
<event>
 7    1  0.3305651E-013  0.7246156E+02  0.7816164E-02  0.1226708E+00
        -11   -1    0    0    0    0  0.00000000000E+00  0.00000000000E+00  0.45593999997E+02  0.45594000000E+02  0.51100000000E-03 0. -1.
         11   -1    0    0    0    0 -0.00000000000E+00 -0.00000000000E+00 -0.45593999997E+02  0.45594000000E+02  0.51100000000E-03 0.  1.
    9900012    2    1    2    0    0 -0.11142628511E+02 -0.13762992714E+02 -0.60910827377E+01  0.72461563407E+02  0.69999991027E+02 0.  0.
         12    1    1    2    0    0  0.11142628511E+02  0.13762992714E+02  0.60910827377E+01  0.18726436593E+02  0.00000000000E+00 0. -1.
         11    1    3    3    0    0 -0.32522382101E+01 -0.24000614973E+02  0.23553728320E+01  0.24334221868E+02  0.51100000000E-03 0. -1.
        -11    1    3    3    0    0  0.36304966525E+01 -0.13281965235E+02  0.91886641639E+01  0.16553629687E+02  0.51100000000E-03 0.  1.
        -12    1    3    3    0    0 -0.11520886953E+02  0.23519587494E+02 -0.17635119734E+02  0.31573711852E+02  0.00000000000E+00 0.  1.
</event>
<event>
 7    1  0.3305651E-013  0.7246156E+02  0.7816164E-02  0.1226708E+00
        -11   -1    0    0    0    0  0.00000000000E+00  0.00000000000E+00  0.45593999997E+02  0.45594000000E+02  0.51100000000E-03 0.  1.
         11   -1    0    0    0    0 -0.00000000000E+00 -0.00000000000E+00 -0.45593999997E+02  0.45594000000E+02  0.51100000000E-03 0. -1.
    9900012    2    1    2    0    0 -0.13936102934E+02  0.11024663207E+02 -0.59094242123E+01  0.72461562583E+02  0.69999989955E+02 0.  0.
         12    1    1    2    0    0  0.13936102934E+02 -0.11024663207E+02  0.59094242123E+01  0.18726437417E+02  0.00000000000E+00 0. -1.
         11    1    3    3    0    0  0.50481372243E+01  0.11064851421E+00 -0.14798761268E+00  0.50515179029E+01  0.51100000000E-03 0. -1.
        -11    1    3    3    0    0 -0.20079494827E+01 -0.26229256169E+02 -0.30291304573E+01  0.26479829529E+02  0.51100000000E-03 0.  1.
         12    1    3    3    0    0 -0.16976290675E+02  0.37143270862E+02 -0.27323061424E+01  0.40930215151E+02  0.00000000000E+00 0. -1.
</event>
<event>
 7    1  0.3305651E-013  0.7246156E+02  0.7816164E-02  0.1226708E+00
        -11   -1    0    0    0    0  0.00000000000E+00  0.00000000000E+00  0.45593999997E+02  0.45594000000E+02  0.51100000000E-03 0. -1.
         11   -1    0    0    0    0 -0.00000000000E+00 -0.00000000000E+00 -0.45593999997E+02  0.45594000000E+02  0.51100000000E-03 0.  1.
    9900012    2    1    2    0    0 -0.33928831526E+01  0.17860426076E+02  0.44914459667E+01  0.72461559800E+02  0.69999986329E+02 0.  0.
         12    1    1    2    0    0  0.33928831526E+01 -0.17860426076E+02 -0.44914459667E+01  0.18726440200E+02  0.00000000000E+00 0. -1.
         11    1    3    3    0    0 -0.89171646814E+01 -0.79101418058E+01  0.10893041094E+02  0.16147585389E+02  0.51100000000E-03 0. -1.
        -11    1    3    3    0    0  0.34822313359E+01 -0.13495981200E+02 -0.95075217682E+01  0.16871882351E+02  0.51100000000E-03 0.  1.
        -12    1    3    3    0    0  0.20420501929E+01  0.39266549082E+02  0.31059266409E+01  0.39442092060E+02  0.00000000000E+00 0.  1.
</event>
<event>
 7    1  0.3305651E-013  0.7246157E+02  0.7816164E-02  0.1226708E+00
        -11   -1    0    0    0    0  0.00000000000E+00  0.00000000000E+00  0.45593999997E+02  0.45594000000E+02  0.51100000000E-03 0.  1.
         11   -1    0    0    0    0 -0.00000000000E+00 -0.00000000000E+00 -0.45593999997E+02  0.45594000000E+02  0.51100000000E-03 0. -1.
    9900012    2    1    2    0    0 -0.14457692052E+02 -0.11771577258E+02 -0.17562668651E+01  0.72461565104E+02  0.69999993238E+02 0.  0.
         12    1    1    2    0    0  0.14457692052E+02  0.11771577258E+02  0.17562668651E+01  0.18726434896E+02  0.00000000000E+00 0. -1.
         11    1    3    3    0    0 -0.17428125438E+01  0.65913439207E+01 -0.44661698582E+01  0.81504529756E+01  0.51100000000E-03 0. -1.
        -11    1    3    3    0    0 -0.22957819931E+02 -0.33274921880E+02  0.14236823341E+02  0.42859877056E+02  0.51100000000E-03 0.  1.
         12    1    3    3    0    0  0.10242940423E+02  0.14912000701E+02 -0.11526920348E+02  0.21451235072E+02  0.00000000000E+00 0. -1.
</event>
<event>
 7    1  0.3305651E-013  0.7246161E+02  0.7816164E-02  0.1226708E+00
        -11   -1    0    0    0    0  0.00000000000E+00  0.00000000000E+00  0.45593999997E+02  0.45594000000E+02  0.51100000000E-03 0. -1.
         11   -1    0    0    0    0 -0.00000000000E+00 -0.00000000000E+00 -0.45593999997E+02  0.45594000000E+02  0.51100000000E-03 0.  1.
    9900012    2    1    2    0    0 -0.15152960831E+02 -0.96882991851E+01 -0.52155932135E+01  0.72461607512E+02  0.70000048483E+02 0.  0.
         12    1    1    2    0    0  0.15152960831E+02  0.96882991851E+01  0.52155932135E+01  0.18726392488E+02  0.00000000000E+00 0. -1.
         11    1    3    3    0    0 -0.78403076440E+01  0.17255740302E+02  0.12413707392E+02  0.22656811974E+02  0.51100000000E-03 0. -1.
        -11    1    3    3    0    0 -0.47076137521E+01 -0.14721321152E+02  0.10729173464E+02  0.18814730590E+02  0.51100000000E-03 0.  1.
        -12    1    3    3    0    0 -0.26050394350E+01 -0.12222718336E+02 -0.28358474069E+02  0.30990064948E+02  0.00000000000E+00 0.  1.
</event>
<event>
 7    1  0.3305651E-013  0.7246160E+02  0.7816164E-02  0.1226708E+00
        -11   -1    0    0    0    0  0.00000000000E+00  0.00000000000E+00  0.45593999997E+02  0.45594000000E+02  0.51100000000E-03 0.  1.
         11   -1    0    0    0    0 -0.00000000000E+00 -0.00000000000E+00 -0.45593999997E+02  0.45594000000E+02  0.51100000000E-03 0. -1.
    9900012    2    1    2    0    0  0.94686415047E+00  0.28043595748E+01  0.18491001700E+02  0.72461598097E+02  0.70000036219E+02 0.  0.
         12    1    1    2    0    0 -0.94686415047E+00 -0.28043595748E+01 -0.18491001700E+02  0.18726401903E+02  0.00000000000E+00 0. -1.
         11    1    3    3    0    0  0.33193181463E+01  0.17305698567E+02  0.22670796587E+01  0.17766393171E+02  0.51100000000E-03 0. -1.
        -11    1    3    3    0    0 -0.47529053418E+01  0.14791669947E+02  0.19712698738E+02  0.25099284867E+02  0.51100000000E-03 0.  1.
         12    1    3    3    0    0  0.23804513460E+01 -0.29293008940E+02 -0.34887766965E+01  0.29595920060E+02  0.00000000000E+00 0. -1.
</event>
<event>
 7    1  0.3305651E-013  0.7246162E+02  0.7816164E-02  0.1226708E+00
        -11   -1    0    0    0    0  0.00000000000E+00  0.00000000000E+00  0.45593999997E+02  0.45594000000E+02  0.51100000000E-03 0.  1.
         11   -1    0    0    0    0 -0.00000000000E+00 -0.00000000000E+00 -0.45593999997E+02  0.45594000000E+02  0.51100000000E-03 0. -1.
    9900012    2    1    2    0    0 -0.12096654421E+02 -0.83527611869E+01  0.11600840283E+02  0.72461623871E+02  0.70000069794E+02 0.  0.
         12    1    1    2    0    0  0.12096654421E+02  0.83527611869E+01 -0.11600840283E+02  0.18726376129E+02  0.00000000000E+00 0. -1.
         11    1    3    3    0    0 -0.28075240725E+02 -0.11944012631E+02 -0.18234854140E+02  0.35544176531E+02  0.51100000000E-03 0. -1.
        -11    1    3    3    0    0 -0.13139874919E+01  0.22245588159E+01  0.11049342720E+02  0.11347387358E+02  0.51100000000E-03 0.  1.
        -12    1    3    3    0    0  0.17292573795E+02  0.13666926287E+01  0.18786351703E+02  0.25570059983E+02  0.00000000000E+00 0.  1.
</event>
<event>
 7    1  0.3305651E-013  0.7246154E+02  0.7816164E-02  0.1226708E+00
        -11   -1    0    0    0    0  0.00000000000E+00  0.00000000000E+00  0.45593999997E+02  0.45594000000E+02  0.51100000000E-03 0.  1.
         11   -1    0    0    0    0 -0.00000000000E+00 -0.00000000000E+00 -0.45593999997E+02  0.45594000000E+02  0.51100000000E-03 0. -1.
    9900012    2    1    2    0    0 -0.90595594500E+01 -0.61246753436E+01  0.15201740499E+02  0.72461543322E+02  0.69999964864E+02 0.  0.
         12    1    1    2    0    0  0.90595594500E+01  0.61246753436E+01 -0.15201740499E+02  0.18726456678E+02  0.00000000000E+00 0. -1.
         11    1    3    3    0    0  0.99299604386E+01  0.95082504502E+01  0.91193076068E+01  0.16497657786E+02  0.51100000000E-03 0. -1.
        -11    1    3    3    0    0  0.17976549737E+00 -0.10264845360E+02  0.25908538573E+02  0.27868472099E+02  0.51100000000E-03 0.  1.
        -12    1    3    3    0    0 -0.19169285386E+02 -0.53680804339E+01 -0.19826105681E+02  0.28095413437E+02  0.00000000000E+00 0.  1.
</event>
<event>
 7    1  0.3305651E-013  0.7246154E+02  0.7816164E-02  0.1226708E+00
        -11   -1    0    0    0    0  0.00000000000E+00  0.00000000000E+00  0.45593999997E+02  0.45594000000E+02  0.51100000000E-03 0.  1.
         11   -1    0    0    0    0 -0.00000000000E+00 -0.00000000000E+00 -0.45593999997E+02  0.45594000000E+02  0.51100000000E-03 0. -1.
    9900012    2    1    2    0    0  0.74656819019E+01 -0.15155025698E+02  0.80789245603E+01  0.72461541920E+02  0.69999963038E+02 0.  0.
         12    1    1    2    0    0 -0.74656819019E+01  0.15155025698E+02 -0.80789245603E+01  0.18726458080E+02  0.00000000000E+00 0. -1.
         11    1    3    3    0    0 -0.17519840643E+02  0.82904562418E+01 -0.76614932965E+01  0.20841664056E+02  0.51100000000E-03 0. -1.
        -11    1    3    3    0    0  0.67643994055E+01 -0.28428518835E+02  0.14673970084E+02  0.32699589917E+02  0.51100000000E-03 0.  1.
         12    1    3    3    0    0  0.18221123139E+02  0.49830368953E+01  0.10664477724E+01  0.18920287947E+02  0.00000000000E+00 0. -1.
</event>
<event>
 7    1  0.3305651E-013  0.7246149E+02  0.7816164E-02  0.1226708E+00
        -11   -1    0    0    0    0  0.00000000000E+00  0.00000000000E+00  0.45593999997E+02  0.45594000000E+02  0.51100000000E-03 0.  1.
         11   -1    0    0    0    0 -0.00000000000E+00 -0.00000000000E+00 -0.45593999997E+02  0.45594000000E+02  0.51100000000E-03 0. -1.
    9900012    2    1    2    0    0 -0.11830561500E+02  0.14009181732E+02  0.38030198846E+01  0.72461486218E+02  0.69999890474E+02 0.  0.
         12    1    1    2    0    0  0.11830561500E+02 -0.14009181732E+02 -0.38030198846E+01  0.18726513782E+02  0.00000000000E+00 0. -1.
         11    1    3    3    0    0 -0.81843217287E+01 -0.49867934616E+00 -0.62346948395E-01  0.81997372307E+01  0.51100000000E-03 0. -1.
        -11    1    3    3    0    0 -0.31721541170E+02  0.60321137241E+00  0.78377297174E+01  0.32681034952E+02  0.51100000000E-03 0.  1.
         12    1    3    3    0    0  0.28075301399E+02  0.13904649705E+02 -0.39723628844E+01  0.31580714035E+02  0.00000000000E+00 0. -1.
</event>
<event>
 7    1  0.3305651E-013  0.7246158E+02  0.7816164E-02  0.1226708E+00
        -11   -1    0    0    0    0  0.00000000000E+00  0.00000000000E+00  0.45593999997E+02  0.45594000000E+02  0.51100000000E-03 0. -1.
         11   -1    0    0    0    0 -0.00000000000E+00 -0.00000000000E+00 -0.45593999997E+02  0.45594000000E+02  0.51100000000E-03 0.  1.
    9900012    2    1    2    0    0  0.24077099899E+01  0.85734165893E+01 -0.16473567914E+02  0.72461575375E+02  0.70000006619E+02 0.  0.
         12    1    1    2    0    0 -0.24077099899E+01 -0.85734165893E+01  0.16473567914E+02  0.18726424625E+02  0.00000000000E+00 0. -1.
         11    1    3    3    0    0  0.25180725028E+02  0.11458344927E+02 -0.38064687086E+01  0.27925826499E+02  0.51100000000E-03 0. -1.
        -11    1    3    3    0    0 -0.80427283108E+00 -0.18347213531E+01 -0.20941378887E+02  0.21036977140E+02  0.51100000000E-03 0.  1.
         12    1    3    3    0    0 -0.21968742207E+02 -0.10502069843E+01  0.82742796817E+01  0.23498771736E+02  0.00000000000E+00 0. -1.
</event>
<event>
 7    1  0.3305651E-013  0.7246159E+02  0.7816164E-02  0.1226708E+00
        -11   -1    0    0    0    0  0.00000000000E+00  0.00000000000E+00  0.45593999997E+02  0.45594000000E+02  0.51100000000E-03 0.  1.
         11   -1    0    0    0    0 -0.00000000000E+00 -0.00000000000E+00 -0.45593999997E+02  0.45594000000E+02  0.51100000000E-03 0. -1.
    9900012    2    1    2    0    0 -0.14276005359E+02  0.37052862224E-01 -0.12119110780E+02  0.72461586888E+02  0.70000021617E+02 0.  0.
         12    1    1    2    0    0  0.14276005359E+02 -0.37052862224E-01  0.12119110780E+02  0.18726413112E+02  0.00000000000E+00 0. -1.
         11    1    3    3    0    0 -0.24923344236E+02  0.21415848623E+02 -0.10309111650E+02  0.34439649293E+02  0.51100000000E-03 0. -1.
        -11    1    3    3    0    0 -0.53573112011E+01  0.28269817070E+01 -0.62062719018E+01  0.86723941364E+01  0.51100000000E-03 0.  1.
        -12    1    3    3    0    0  0.16004650078E+02 -0.24205777468E+02  0.43962727717E+01  0.29349543459E+02  0.00000000000E+00 0.  1.
</event>
<event>
 7    1  0.3305651E-013  0.7246146E+02  0.7816164E-02  0.1226708E+00
        -11   -1    0    0    0    0  0.00000000000E+00  0.00000000000E+00  0.45593999997E+02  0.45594000000E+02  0.51100000000E-03 0. -1.
         11   -1    0    0    0    0 -0.00000000000E+00 -0.00000000000E+00 -0.45593999997E+02  0.45594000000E+02  0.51100000000E-03 0.  1.
    9900012    2    1    2    0    0 -0.80098923924E+01 -0.96403198049E+01 -0.13913630926E+02  0.72461460874E+02  0.69999857460E+02 0.  0.
         12    1    1    2    0    0  0.80098923924E+01  0.96403198049E+01  0.13913630926E+02  0.18726539126E+02  0.00000000000E+00 0. -1.
         11    1    3    3    0    0 -0.30251896278E+01  0.53091109826E+01 -0.13015671538E+02  0.14378669534E+02  0.51100000000E-03 0. -1.
        -11    1    3    3    0    0 -0.44555169530E+01 -0.19820808254E+01 -0.27794386702E+02  0.28218933504E+02  0.51100000000E-03 0.  1.
         12    1    3    3    0    0 -0.52918581165E+00 -0.12967349962E+02  0.26896427314E+02  0.29863857837E+02  0.00000000000E+00 0. -1.
</event>
<event>
 7    1  0.3305651E-013  0.7246152E+02  0.7816164E-02  0.1226708E+00
        -11   -1    0    0    0    0  0.00000000000E+00  0.00000000000E+00  0.45593999997E+02  0.45594000000E+02  0.51100000000E-03 0.  1.
         11   -1    0    0    0    0 -0.00000000000E+00 -0.00000000000E+00 -0.45593999997E+02  0.45594000000E+02  0.51100000000E-03 0. -1.
    9900012    2    1    2    0    0  0.16791946484E+02  0.63207697206E+01  0.53627887917E+01  0.72461518745E+02  0.69999932847E+02 0.  0.
         12    1    1    2    0    0 -0.16791946484E+02 -0.63207697206E+01 -0.53627887917E+01  0.18726481255E+02  0.00000000000E+00 0. -1.
         11    1    3    3    0    0  0.84660836259E+01 -0.31905908840E+01  0.44159662831E+01  0.10067532003E+02  0.51100000000E-03 0. -1.
        -11    1    3    3    0    0 -0.14767859473E+02 -0.14683302674E+02  0.15457464548E+02  0.25934962143E+02  0.51100000000E-03 0.  1.
         12    1    3    3    0    0  0.23093722331E+02  0.24194663279E+02 -0.14510642040E+02  0.36459024599E+02  0.00000000000E+00 0. -1.
</event>
<event>
 7    1  0.3305651E-013  0.7246159E+02  0.7816164E-02  0.1226708E+00
        -11   -1    0    0    0    0  0.00000000000E+00  0.00000000000E+00  0.45593999997E+02  0.45594000000E+02  0.51100000000E-03 0. -1.
         11   -1    0    0    0    0 -0.00000000000E+00 -0.00000000000E+00 -0.45593999997E+02  0.45594000000E+02  0.51100000000E-03 0.  1.
    9900012    2    1    2    0    0  0.18227824093E+01  0.13399210967E+02 -0.12954422442E+02  0.72461589478E+02  0.70000024990E+02 0.  0.
         12    1    1    2    0    0 -0.18227824093E+01 -0.13399210967E+02  0.12954422442E+02  0.18726410522E+02  0.00000000000E+00 0. -1.
         11    1    3    3    0    0 -0.46217620372E+01  0.13561191725E+02  0.11876163608E+01  0.14376266491E+02  0.51100000000E-03 0. -1.
        -11    1    3    3    0    0  0.59957421955E+01  0.18410053370E+02 -0.28605085459E+02  0.34541712522E+02  0.51100000000E-03 0.  1.
         12    1    3    3    0    0  0.44880225092E+00 -0.18572034128E+02  0.14463046657E+02  0.23543610465E+02  0.00000000000E+00 0. -1.
</event>
<event>
 7    1  0.3305651E-013  0.7246209E+02  0.7816164E-02  0.1226707E+00
        -11   -1    0    0    0    0  0.00000000000E+00  0.00000000000E+00  0.45593999997E+02  0.45594000000E+02  0.51100000000E-03 0. -1.
         11   -1    0    0    0    0 -0.00000000000E+00 -0.00000000000E+00 -0.45593999997E+02  0.45594000000E+02  0.51100000000E-03 0.  1.
    9900012    2    1    2    0    0 -0.55624908150E+01 -0.19333784111E+01 -0.17775838001E+02  0.72462090869E+02  0.70000678142E+02 0.  0.
         12    1    1    2    0    0  0.55624908150E+01  0.19333784111E+01  0.17775838001E+02  0.18725909131E+02  0.00000000000E+00 0. -1.
         11    1    3    3    0    0  0.14290324353E+01  0.49338798029E+00 -0.70000307428E+00  0.16660041913E+01  0.51100000000E-03 0. -1.
        -11    1    3    3    0    0 -0.14481185330E+01  0.11021629885E+02 -0.41173917049E+02  0.42648151403E+02  0.51100000000E-03 0.  1.
         12    1    3    3    0    0 -0.55434047174E+01 -0.13448396276E+02  0.24098082123E+02  0.28147935275E+02  0.00000000000E+00 0. -1.
</event>
<event>
 7    1  0.3305651E-013  0.7246152E+02  0.7816164E-02  0.1226708E+00
        -11   -1    0    0    0    0  0.00000000000E+00  0.00000000000E+00  0.45593999997E+02  0.45594000000E+02  0.51100000000E-03 0.  1.
         11   -1    0    0    0    0 -0.00000000000E+00 -0.00000000000E+00 -0.45593999997E+02  0.45594000000E+02  0.51100000000E-03 0. -1.
    9900012    2    1    2    0    0 -0.13475887161E+02  0.90097059801E+01  0.93758607015E+01  0.72461518737E+02  0.69999932836E+02 0.  0.
         12    1    1    2    0    0  0.13475887161E+02 -0.90097059801E+01 -0.93758607015E+01  0.18726481263E+02  0.00000000000E+00 0. -1.
         11    1    3    3    0    0 -0.67215372308E+01 -0.10867807265E+02 -0.47293456899E+01  0.13625527821E+02  0.51100000000E-03 0. -1.
        -11    1    3    3    0    0  0.14495001864E+02 -0.11506648936E+02  0.90432449437E+01  0.20598260319E+02  0.51100000000E-03 0.  1.
         12    1    3    3    0    0 -0.21249351794E+02  0.31384162181E+02  0.50619614477E+01  0.38237730597E+02  0.00000000000E+00 0. -1.
</event>
<event>
 7    1  0.3305651E-013  0.7246152E+02  0.7816164E-02  0.1226708E+00
        -11   -1    0    0    0    0  0.00000000000E+00  0.00000000000E+00  0.45593999997E+02  0.45594000000E+02  0.51100000000E-03 0.  1.
         11   -1    0    0    0    0 -0.00000000000E+00 -0.00000000000E+00 -0.45593999997E+02  0.45594000000E+02  0.51100000000E-03 0. -1.
    9900012    2    1    2    0    0  0.55354626415E+01  0.27580465402E+01  0.17675771126E+02  0.72461520024E+02  0.69999934514E+02 0.  0.
         12    1    1    2    0    0 -0.55354626415E+01 -0.27580465402E+01 -0.17675771126E+02  0.18726479976E+02  0.00000000000E+00 0. -1.
         11    1    3    3    0    0  0.47290743771E+01  0.76617035486E+00 -0.22806039653E+02  0.23303789529E+02  0.51100000000E-03 0. -1.
        -11    1    3    3    0    0 -0.37114725881E+01 -0.48331731496E+01 -0.15894445660E+01  0.62976920976E+01  0.51100000000E-03 0.  1.
        -12    1    3    3    0    0  0.45178608526E+01  0.68250493349E+01  0.42071255346E+02  0.42860038398E+02  0.00000000000E+00 0.  1.
</event>
<event>
 7    1  0.3305651E-013  0.7246157E+02  0.7816164E-02  0.1226708E+00
        -11   -1    0    0    0    0  0.00000000000E+00  0.00000000000E+00  0.45593999997E+02  0.45594000000E+02  0.51100000000E-03 0. -1.
         11   -1    0    0    0    0 -0.00000000000E+00 -0.00000000000E+00 -0.45593999997E+02  0.45594000000E+02  0.51100000000E-03 0.  1.
    9900012    2    1    2    0    0 -0.49177419526E+00 -0.11870669611E+02 -0.14474956138E+02  0.72461574979E+02  0.70000006103E+02 0.  0.
         12    1    1    2    0    0  0.49177419526E+00  0.11870669611E+02  0.14474956138E+02  0.18726425021E+02  0.00000000000E+00 0. -1.
         11    1    3    3    0    0  0.13529587060E+02  0.61206528746E+01 -0.51189072208E+01  0.15707174444E+02  0.51100000000E-03 0. -1.
        -11    1    3    3    0    0 -0.17869169027E+01 -0.29155520761E+02 -0.21455253704E+02  0.36243142450E+02  0.51100000000E-03 0.  1.
        -12    1    3    3    0    0 -0.12234444353E+02  0.11164198276E+02  0.12099204787E+02  0.20511258085E+02  0.00000000000E+00 0.  1.
</event>
<event>
 7    1  0.3305651E-013  0.7246157E+02  0.7816164E-02  0.1226708E+00
        -11   -1    0    0    0    0  0.00000000000E+00  0.00000000000E+00  0.45593999997E+02  0.45594000000E+02  0.51100000000E-03 0. -1.
         11   -1    0    0    0    0 -0.00000000000E+00 -0.00000000000E+00 -0.45593999997E+02  0.45594000000E+02  0.51100000000E-03 0.  1.
    9900012    2    1    2    0    0 -0.15952381600E+02  0.75128133030E+01  0.63054132317E+01  0.72461572726E+02  0.70000003168E+02 0.  0.
         12    1    1    2    0    0  0.15952381600E+02 -0.75128133030E+01 -0.63054132317E+01  0.18726427274E+02  0.00000000000E+00 0. -1.
         11    1    3    3    0    0  0.14482645546E+02  0.25779607806E+02  0.72053603287E+01  0.30434395318E+02  0.51100000000E-03 0. -1.
        -11    1    3    3    0    0 -0.90382522724E+00  0.45865924311E+01  0.11161133293E-01  0.46748106916E+01  0.51100000000E-03 0.  1.
        -12    1    3    3    0    0 -0.29531201918E+02 -0.22853386934E+02 -0.91110823029E+00  0.37352366716E+02  0.00000000000E+00 0.  1.
</event>
<event>
 7    1  0.3305651E-013  0.7246163E+02  0.7816164E-02  0.1226708E+00
        -11   -1    0    0    0    0  0.00000000000E+00  0.00000000000E+00  0.45593999997E+02  0.45594000000E+02  0.51100000000E-03 0.  1.
         11   -1    0    0    0    0 -0.00000000000E+00 -0.00000000000E+00 -0.45593999997E+02  0.45594000000E+02  0.51100000000E-03 0. -1.
    9900012    2    1    2    0    0 -0.11742581286E+02  0.89808628817E+01  0.11494904132E+02  0.72461629974E+02  0.70000077743E+02 0.  0.
         12    1    1    2    0    0  0.11742581286E+02 -0.89808628817E+01 -0.11494904132E+02  0.18726370026E+02  0.00000000000E+00 0. -1.
         11    1    3    3    0    0  0.12098625249E+02 -0.78233221263E+01  0.20741647031E+02  0.25254643609E+02  0.51100000000E-03 0. -1.
        -11    1    3    3    0    0 -0.14917066392E+01 -0.88938850044E+01  0.49753633530E+01  0.10299544646E+02  0.51100000000E-03 0.  1.
         12    1    3    3    0    0 -0.22349499896E+02  0.25698070013E+02 -0.14222106252E+02  0.36907441718E+02  0.00000000000E+00 0. -1.
</event>
<event>
 7    1  0.3305651E-013  0.7246167E+02  0.7816164E-02  0.1226708E+00
        -11   -1    0    0    0    0  0.00000000000E+00  0.00000000000E+00  0.45593999997E+02  0.45594000000E+02  0.51100000000E-03 0.  1.
         11   -1    0    0    0    0 -0.00000000000E+00 -0.00000000000E+00 -0.45593999997E+02  0.45594000000E+02  0.51100000000E-03 0. -1.
    9900012    2    1    2    0    0  0.19398031490E-01 -0.14717875478E+02  0.11578397989E+02  0.72461667341E+02  0.70000126421E+02 0.  0.
         12    1    1    2    0    0 -0.19398031490E-01  0.14717875478E+02 -0.11578397989E+02  0.18726332659E+02  0.00000000000E+00 0. -1.
         11    1    3    3    0    0 -0.12476011334E+01  0.34531629826E+01 -0.13256042119E+02  0.13755126175E+02  0.51100000000E-03 0. -1.
        -11    1    3    3    0    0 -0.14506045833E+01  0.34110920489E+00 -0.14801471285E+02  0.14876295292E+02  0.51100000000E-03 0.  1.
        -12    1    3    3    0    0  0.27176037482E+01 -0.18512147666E+02  0.39635911393E+02  0.43830245873E+02  0.00000000000E+00 0.  1.
</event>
<event>
 7    1  0.3305651E-013  0.7246147E+02  0.7816164E-02  0.1226708E+00
        -11   -1    0    0    0    0  0.00000000000E+00  0.00000000000E+00  0.45593999997E+02  0.45594000000E+02  0.51100000000E-03 0. -1.
         11   -1    0    0    0    0 -0.00000000000E+00 -0.00000000000E+00 -0.45593999997E+02  0.45594000000E+02  0.51100000000E-03 0.  1.
    9900012    2    1    2    0    0 -0.88066807711E+01  0.54319833471E+01 -0.15608299232E+02  0.72461466039E+02  0.69999864187E+02 0.  0.
         12    1    1    2    0    0  0.88066807711E+01 -0.54319833471E+01  0.15608299232E+02  0.18726533961E+02  0.00000000000E+00 0. -1.
         11    1    3    3    0    0 -0.10007214261E+02  0.17696357755E+02 -0.13130502465E+02  0.24201560080E+02  0.51100000000E-03 0. -1.
        -11    1    3    3    0    0  0.93459629248E+01  0.98395239301E+01 -0.16093235263E+02  0.21051258292E+02  0.51100000000E-03 0.  1.
         12    1    3    3    0    0 -0.81454294348E+01 -0.22103898338E+02  0.13615438496E+02  0.27208647667E+02  0.00000000000E+00 0. -1.
</event>
<event>
 7    1  0.3305651E-013  0.7246151E+02  0.7816164E-02  0.1226708E+00
        -11   -1    0    0    0    0  0.00000000000E+00  0.00000000000E+00  0.45593999997E+02  0.45594000000E+02  0.51100000000E-03 0.  1.
         11   -1    0    0    0    0 -0.00000000000E+00 -0.00000000000E+00 -0.45593999997E+02  0.45594000000E+02  0.51100000000E-03 0. -1.
    9900012    2    1    2    0    0  0.28224800354E+01  0.99809127312E+01  0.15591544313E+02  0.72461514303E+02  0.69999927060E+02 0.  0.
         12    1    1    2    0    0 -0.28224800354E+01 -0.99809127312E+01 -0.15591544313E+02  0.18726485697E+02  0.00000000000E+00 0. -1.
         11    1    3    3    0    0  0.12453849662E+02  0.16272121849E+02  0.90877212421E+01  0.22415775662E+02  0.51100000000E-03 0. -1.
        -11    1    3    3    0    0  0.13647015095E+02  0.13073460284E+02 -0.73389919305E+00  0.18912826153E+02  0.51100000000E-03 0.  1.
        -12    1    3    3    0    0 -0.23278384723E+02 -0.19364669402E+02  0.72377222644E+01  0.31132912487E+02  0.00000000000E+00 0.  1.
</event>
<event>
 7    1  0.3305651E-013  0.7246168E+02  0.7816164E-02  0.1226708E+00
        -11   -1    0    0    0    0  0.00000000000E+00  0.00000000000E+00  0.45593999997E+02  0.45594000000E+02  0.51100000000E-03 0. -1.
         11   -1    0    0    0    0 -0.00000000000E+00 -0.00000000000E+00 -0.45593999997E+02  0.45594000000E+02  0.51100000000E-03 0.  1.
    9900012    2    1    2    0    0  0.66146528012E+01  0.14869291933E+02 -0.92642010494E+01  0.72461684416E+02  0.70000148665E+02 0.  0.
         12    1    1    2    0    0 -0.66146528012E+01 -0.14869291933E+02  0.92642010494E+01  0.18726315584E+02  0.00000000000E+00 0. -1.
         11    1    3    3    0    0  0.34531149478E+01  0.58689887563E+01  0.34168828705E+01  0.76186692195E+01  0.51100000000E-03 0. -1.
        -11    1    3    3    0    0 -0.26845001811E+02 -0.85915948031E+01 -0.11920362287E+01  0.28211532644E+02  0.51100000000E-03 0.  1.
         12    1    3    3    0    0  0.30006539664E+02  0.17591897979E+02 -0.11489047691E+02  0.36631482553E+02  0.00000000000E+00 0. -1.
</event>
<event>
 7    1  0.3305651E-013  0.7246154E+02  0.7816164E-02  0.1226708E+00
        -11   -1    0    0    0    0  0.00000000000E+00  0.00000000000E+00  0.45593999997E+02  0.45594000000E+02  0.51100000000E-03 0. -1.
         11   -1    0    0    0    0 -0.00000000000E+00 -0.00000000000E+00 -0.45593999997E+02  0.45594000000E+02  0.51100000000E-03 0.  1.
    9900012    2    1    2    0    0  0.10868059169E+02 -0.12341356515E-01 -0.15250091398E+02  0.72461544114E+02  0.69999965895E+02 0.  0.
         12    1    1    2    0    0 -0.10868059169E+02  0.12341356515E-01  0.15250091398E+02  0.18726455886E+02  0.00000000000E+00 0. -1.
         11    1    3    3    0    0  0.60746883641E+01 -0.19056221464E+01  0.71133517433E+01  0.95463609701E+01  0.51100000000E-03 0. -1.
        -11    1    3    3    0    0 -0.13560256769E+02 -0.16804317968E+02  0.78025702683E+01  0.22959655247E+02  0.51100000000E-03 0.  1.
         12    1    3    3    0    0  0.18353627573E+02  0.18697598758E+02 -0.30166013410E+02  0.39955527896E+02  0.00000000000E+00 0. -1.
</event>
<event>
 7    1  0.3305651E-013  0.7246147E+02  0.7816164E-02  0.1226708E+00
        -11   -1    0    0    0    0  0.00000000000E+00  0.00000000000E+00  0.45593999997E+02  0.45594000000E+02  0.51100000000E-03 0.  1.
         11   -1    0    0    0    0 -0.00000000000E+00 -0.00000000000E+00 -0.45593999997E+02  0.45594000000E+02  0.51100000000E-03 0. -1.
    9900012    2    1    2    0    0  0.69268148139E+01 -0.86059493302E+01  0.15120834602E+02  0.72461474257E+02  0.69999874894E+02 0.  0.
         12    1    1    2    0    0 -0.69268148139E+01  0.86059493302E+01 -0.15120834602E+02  0.18726525743E+02  0.00000000000E+00 0. -1.
         11    1    3    3    0    0  0.29614986676E+02 -0.15631474498E+02 -0.62095494318E+00  0.33492924866E+02  0.51100000000E-03 0. -1.
        -11    1    3    3    0    0 -0.27655271724E+01  0.12356353295E+02  0.13027647952E+02  0.18167201730E+02  0.51100000000E-03 0.  1.
        -12    1    3    3    0    0 -0.19922644689E+02 -0.53308281273E+01  0.27141415932E+01  0.20801347661E+02  0.00000000000E+00 0.  1.
</event>
<event>
 7    1  0.3305651E-013  0.7246175E+02  0.7816164E-02  0.1226708E+00
        -11   -1    0    0    0    0  0.00000000000E+00  0.00000000000E+00  0.45593999997E+02  0.45594000000E+02  0.51100000000E-03 0.  1.
         11   -1    0    0    0    0 -0.00000000000E+00 -0.00000000000E+00 -0.45593999997E+02  0.45594000000E+02  0.51100000000E-03 0. -1.
    9900012    2    1    2    0    0  0.11902846979E+02  0.14329882290E+02  0.19102508405E+01  0.72461752354E+02  0.70000237166E+02 0.  0.
         12    1    1    2    0    0 -0.11902846979E+02 -0.14329882290E+02 -0.19102508405E+01  0.18726247646E+02  0.00000000000E+00 0. -1.
         11    1    3    3    0    0  0.76676094532E+01  0.97107981549E+01  0.62089514362E+01  0.13843515223E+02  0.51100000000E-03 0. -1.
        -11    1    3    3    0    0  0.23444644951E+02  0.84489949556E+01  0.16624868217E+02  0.29957021483E+02  0.51100000000E-03 0.  1.
         12    1    3    3    0    0 -0.19209407426E+02 -0.38299108206E+01 -0.20923568813E+02  0.28661215648E+02  0.00000000000E+00 0. -1.
</event>
<event>
 7    1  0.3305651E-013  0.7246158E+02  0.7816164E-02  0.1226708E+00
        -11   -1    0    0    0    0  0.00000000000E+00  0.00000000000E+00  0.45593999997E+02  0.45594000000E+02  0.51100000000E-03 0.  1.
         11   -1    0    0    0    0 -0.00000000000E+00 -0.00000000000E+00 -0.45593999997E+02  0.45594000000E+02  0.51100000000E-03 0. -1.
    9900012    2    1    2    0    0 -0.16061403396E+02 -0.31920898731E+00  0.96233178782E+01  0.72461579615E+02  0.70000012142E+02 0.  0.
         12    1    1    2    0    0  0.16061403396E+02  0.31920898731E+00 -0.96233178782E+01  0.18726420385E+02  0.00000000000E+00 0. -1.
         11    1    3    3    0    0 -0.25235710225E+02  0.45883646714E+01 -0.21230667616E+02  0.33296177087E+02  0.51100000000E-03 0. -1.
        -11    1    3    3    0    0 -0.48882642034E+00  0.23422252557E+01 -0.26379309207E+01  0.35614112682E+01  0.51100000000E-03 0.  1.
        -12    1    3    3    0    0  0.96631332488E+01 -0.72497989144E+01  0.33491916415E+02  0.35603991260E+02  0.00000000000E+00 0.  1.
</event>
<event>
 7    1  0.3305651E-013  0.7246159E+02  0.7816164E-02  0.1226708E+00
        -11   -1    0    0    0    0  0.00000000000E+00  0.00000000000E+00  0.45593999997E+02  0.45594000000E+02  0.51100000000E-03 0.  1.
         11   -1    0    0    0    0 -0.00000000000E+00 -0.00000000000E+00 -0.45593999997E+02  0.45594000000E+02  0.51100000000E-03 0. -1.
    9900012    2    1    2    0    0 -0.52614362846E+01  0.72743342987E+01  0.16434105837E+02  0.72461588547E+02  0.70000023777E+02 0.  0.
         12    1    1    2    0    0  0.52614362846E+01 -0.72743342987E+01 -0.16434105837E+02  0.18726411453E+02  0.00000000000E+00 0. -1.
         11    1    3    3    0    0 -0.11984334198E+01  0.18021978822E+02 -0.20542764466E+01  0.18178229157E+02  0.51100000000E-03 0. -1.
        -11    1    3    3    0    0  0.21047247357E+01 -0.76907659067E+01 -0.16658645035E+02  0.18468573337E+02  0.51100000000E-03 0.  1.
        -12    1    3    3    0    0 -0.61677276005E+01 -0.30568786163E+01  0.35147027319E+02  0.35814786052E+02  0.00000000000E+00 0.  1.
</event>
<event>
 7    1  0.3305651E-013  0.7246155E+02  0.7816164E-02  0.1226708E+00
        -11   -1    0    0    0    0  0.00000000000E+00  0.00000000000E+00  0.45593999997E+02  0.45594000000E+02  0.51100000000E-03 0. -1.
         11   -1    0    0    0    0 -0.00000000000E+00 -0.00000000000E+00 -0.45593999997E+02  0.45594000000E+02  0.51100000000E-03 0.  1.
    9900012    2    1    2    0    0  0.71377260954E+01 -0.17255567870E+02 -0.14064196666E+01  0.72461554191E+02  0.69999979023E+02 0.  0.
         12    1    1    2    0    0 -0.71377260954E+01  0.17255567870E+02  0.14064196666E+01  0.18726445809E+02  0.00000000000E+00 0. -1.
         11    1    3    3    0    0 -0.11263320538E+02  0.67677001334E+01  0.26719630631E+00  0.13142889666E+02  0.51100000000E-03 0. -1.
        -11    1    3    3    0    0 -0.11468934837E+02  0.69482591129E+01  0.74405883672E+01  0.15335485858E+02  0.51100000000E-03 0.  1.
        -12    1    3    3    0    0  0.29869981470E+02 -0.30971527117E+02 -0.91142043402E+01  0.43983178668E+02  0.00000000000E+00 0.  1.
</event>
<event>
 7    1  0.3305651E-013  0.7246113E+02  0.7816164E-02  0.1226709E+00
        -11   -1    0    0    0    0  0.00000000000E+00  0.00000000000E+00  0.45593999997E+02  0.45594000000E+02  0.51100000000E-03 0.  1.
         11   -1    0    0    0    0 -0.00000000000E+00 -0.00000000000E+00 -0.45593999997E+02  0.45594000000E+02  0.51100000000E-03 0. -1.
    9900012    2    1    2    0    0  0.24296512820E+00 -0.18580715806E+02 -0.23223946190E+01  0.72461132972E+02  0.69999430304E+02 0.  0.
         12    1    1    2    0    0 -0.24296512820E+00  0.18580715806E+02  0.23223946190E+01  0.18726867028E+02  0.00000000000E+00 0. -1.
         11    1    3    3    0    0 -0.87485408207E+01 -0.29371288979E-01 -0.21536390930E+02  0.23245514916E+02  0.51100000000E-03 0. -1.
        -11    1    3    3    0    0 -0.16139948042E+02 -0.70334371111E+01  0.87057778971E+01  0.19640716113E+02  0.51100000000E-03 0.  1.
         12    1    3    3    0    0  0.25131453991E+02 -0.11517907406E+02  0.10508218413E+02  0.29574901943E+02  0.00000000000E+00 0. -1.
</event>
<event>
 7    1  0.3305651E-013  0.7246146E+02  0.7816164E-02  0.1226708E+00
        -11   -1    0    0    0    0  0.00000000000E+00  0.00000000000E+00  0.45593999997E+02  0.45594000000E+02  0.51100000000E-03 0. -1.
         11   -1    0    0    0    0 -0.00000000000E+00 -0.00000000000E+00 -0.45593999997E+02  0.45594000000E+02  0.51100000000E-03 0.  1.
    9900012    2    1    2    0    0 -0.42074885420E+01 -0.15680428142E+02 -0.93329760633E+01  0.72461461913E+02  0.69999858813E+02 0.  0.
         12    1    1    2    0    0  0.42074885420E+01  0.15680428142E+02  0.93329760633E+01  0.18726538087E+02  0.00000000000E+00 0. -1.
         11    1    3    3    0    0 -0.14143363906E+02 -0.19025899150E+02  0.65533984128E+01  0.24596069037E+02  0.51100000000E-03 0. -1.
        -11    1    3    3    0    0 -0.10785250448E+01  0.19289511440E+02  0.43961256105E+01  0.19813490064E+02  0.51100000000E-03 0.  1.
         12    1    3    3    0    0  0.11014400408E+02 -0.15944040431E+02 -0.20282500087E+02  0.28051902812E+02  0.00000000000E+00 0. -1.
</event>
<event>
 7    1  0.3305651E-013  0.7246161E+02  0.7816164E-02  0.1226708E+00
        -11   -1    0    0    0    0  0.00000000000E+00  0.00000000000E+00  0.45593999997E+02  0.45594000000E+02  0.51100000000E-03 0. -1.
         11   -1    0    0    0    0 -0.00000000000E+00 -0.00000000000E+00 -0.45593999997E+02  0.45594000000E+02  0.51100000000E-03 0.  1.
    9900012    2    1    2    0    0  0.11835225609E+02 -0.11272097651E+02 -0.91402913258E+01  0.72461610167E+02  0.70000051941E+02 0.  0.
         12    1    1    2    0    0 -0.11835225609E+02  0.11272097651E+02  0.91402913258E+01  0.18726389833E+02  0.00000000000E+00 0. -1.
         11    1    3    3    0    0 -0.14178549480E+02  0.78095652573E+00  0.34597362870E+01  0.14615434782E+02  0.51100000000E-03 0. -1.
        -11    1    3    3    0    0 -0.63845655518E+01  0.72851588306E+01 -0.17296273760E+02  0.19824159572E+02  0.51100000000E-03 0.  1.
         12    1    3    3    0    0  0.32398340640E+02 -0.19338213008E+02  0.46962461477E+01  0.38022015812E+02  0.00000000000E+00 0. -1.
</event>
<event>
 7    1  0.3305651E-013  0.7246160E+02  0.7816164E-02  0.1226708E+00
        -11   -1    0    0    0    0  0.00000000000E+00  0.00000000000E+00  0.45593999997E+02  0.45594000000E+02  0.51100000000E-03 0.  1.
         11   -1    0    0    0    0 -0.00000000000E+00 -0.00000000000E+00 -0.45593999997E+02  0.45594000000E+02  0.51100000000E-03 0. -1.
    9900012    2    1    2    0    0  0.51914259937E+01 -0.40038471235E+01  0.17541273172E+02  0.72461602586E+02  0.70000042066E+02 0.  0.
         12    1    1    2    0    0 -0.51914259937E+01  0.40038471235E+01 -0.17541273172E+02  0.18726397414E+02  0.00000000000E+00 0. -1.
         11    1    3    3    0    0  0.20752424239E+02  0.30479598009E+00 -0.16797827488E+02  0.26700618363E+02  0.51100000000E-03 0. -1.
        -11    1    3    3    0    0 -0.64192270032E+01  0.79060423228E+00 -0.28930720021E+01  0.70852943652E+01  0.51100000000E-03 0.  1.
        -12    1    3    3    0    0 -0.91417712417E+01 -0.50992473359E+01  0.37232172662E+02  0.38675689858E+02  0.00000000000E+00 0.  1.
</event>
<event>
 7    1  0.3305651E-013  0.7246157E+02  0.7816164E-02  0.1226708E+00
        -11   -1    0    0    0    0  0.00000000000E+00  0.00000000000E+00  0.45593999997E+02  0.45594000000E+02  0.51100000000E-03 0.  1.
         11   -1    0    0    0    0 -0.00000000000E+00 -0.00000000000E+00 -0.45593999997E+02  0.45594000000E+02  0.51100000000E-03 0. -1.
    9900012    2    1    2    0    0 -0.94299367750E+01  0.15578069009E+02  0.43679995614E+01  0.72461565161E+02  0.69999993312E+02 0.  0.
         12    1    1    2    0    0  0.94299367750E+01 -0.15578069009E+02 -0.43679995614E+01  0.18726434839E+02  0.00000000000E+00 0. -1.
         11    1    3    3    0    0 -0.26841039797E+02  0.18301522793E+02 -0.99786980693E+01  0.33984725530E+02  0.51100000000E-03 0. -1.
        -11    1    3    3    0    0 -0.78373180535E+01 -0.50377645766E+01  0.81449906101E+01  0.12375116100E+02  0.51100000000E-03 0.  1.
         12    1    3    3    0    0  0.25248421076E+02  0.23143107923E+01  0.62017070205E+01  0.26101723530E+02  0.00000000000E+00 0. -1.
</event>
<event>
 7    1  0.3305651E-013  0.7246156E+02  0.7816164E-02  0.1226708E+00
        -11   -1    0    0    0    0  0.00000000000E+00  0.00000000000E+00  0.45593999997E+02  0.45594000000E+02  0.51100000000E-03 0. -1.
         11   -1    0    0    0    0 -0.00000000000E+00 -0.00000000000E+00 -0.45593999997E+02  0.45594000000E+02  0.51100000000E-03 0.  1.
    9900012    2    1    2    0    0  0.18720463459E+02 -0.30607485830E+00  0.36075193870E+00  0.72461559444E+02  0.69999985865E+02 0.  0.
         12    1    1    2    0    0 -0.18720463459E+02  0.30607485830E+00 -0.36075193870E+00  0.18726440556E+02  0.00000000000E+00 0. -1.
         11    1    3    3    0    0 -0.42088177312E+01  0.14835905725E+01 -0.70135846869E+01  0.83129752859E+01  0.51100000000E-03 0. -1.
        -11    1    3    3    0    0  0.10819327083E+02  0.28734151846E+02  0.11467386655E+01  0.30724978937E+02  0.51100000000E-03 0.  1.
         12    1    3    3    0    0  0.12109954107E+02 -0.30523817277E+02  0.62275979601E+01  0.33423605221E+02  0.00000000000E+00 0. -1.
</event>
<event>
 7    1  0.3305651E-013  0.7246155E+02  0.7816164E-02  0.1226708E+00
        -11   -1    0    0    0    0  0.00000000000E+00  0.00000000000E+00  0.45593999997E+02  0.45594000000E+02  0.51100000000E-03 0.  1.
         11   -1    0    0    0    0 -0.00000000000E+00 -0.00000000000E+00 -0.45593999997E+02  0.45594000000E+02  0.51100000000E-03 0. -1.
    9900012    2    1    2    0    0 -0.16862526352E+02 -0.31434256451E+01  0.75135824458E+01  0.72461552368E+02  0.69999976647E+02 0.  0.
         12    1    1    2    0    0  0.16862526352E+02  0.31434256451E+01 -0.75135824458E+01  0.18726447632E+02  0.00000000000E+00 0. -1.
         11    1    3    3    0    0  0.13337025888E+02 -0.20586814208E+02 -0.43717154962E+01  0.24915960254E+02  0.51100000000E-03 0. -1.
        -11    1    3    3    0    0  0.77960706356E+00  0.13937306997E+02  0.81019445070E+01  0.16139944813E+02  0.51100000000E-03 0.  1.
        -12    1    3    3    0    0 -0.30979159304E+02  0.35060815652E+01  0.37833534350E+01  0.31405647300E+02  0.00000000000E+00 0.  1.
</event>
<event>
 7    1  0.3305651E-013  0.7246154E+02  0.7816164E-02  0.1226708E+00
        -11   -1    0    0    0    0  0.00000000000E+00  0.00000000000E+00  0.45593999997E+02  0.45594000000E+02  0.51100000000E-03 0.  1.
         11   -1    0    0    0    0 -0.00000000000E+00 -0.00000000000E+00 -0.45593999997E+02  0.45594000000E+02  0.51100000000E-03 0. -1.
    9900012    2    1    2    0    0 -0.15866835125E+02  0.51384890299E+01  0.85158515906E+01  0.72461541319E+02  0.69999962255E+02 0.  0.
         12    1    1    2    0    0  0.15866835125E+02 -0.51384890299E+01 -0.85158515906E+01  0.18726458681E+02  0.00000000000E+00 0. -1.
         11    1    3    3    0    0  0.71741133025E+01 -0.74285817224E+01  0.11010584069E+02  0.15095850088E+02  0.51100000000E-03 0. -1.
        -11    1    3    3    0    0 -0.85779614707E-01  0.14452986705E+02  0.20326940632E+02  0.24941545633E+02  0.51100000000E-03 0.  1.
         12    1    3    3    0    0 -0.22955168813E+02 -0.18859159529E+01 -0.22821673111E+02  0.32424145598E+02  0.00000000000E+00 0. -1.
</event>
<event>
 7    1  0.3305651E-013  0.7246153E+02  0.7816164E-02  0.1226708E+00
        -11   -1    0    0    0    0  0.00000000000E+00  0.00000000000E+00  0.45593999997E+02  0.45594000000E+02  0.51100000000E-03 0.  1.
         11   -1    0    0    0    0 -0.00000000000E+00 -0.00000000000E+00 -0.45593999997E+02  0.45594000000E+02  0.51100000000E-03 0. -1.
    9900012    2    1    2    0    0 -0.12243082695E+02 -0.34552619993E+01  0.13742229170E+02  0.72461527510E+02  0.69999944266E+02 0.  0.
         12    1    1    2    0    0  0.12243082695E+02  0.34552619993E+01 -0.13742229170E+02  0.18726472490E+02  0.00000000000E+00 0. -1.
         11    1    3    3    0    0 -0.20871101965E+02 -0.12738931709E+02 -0.88226099901E+01  0.25994648018E+02  0.51100000000E-03 0. -1.
        -11    1    3    3    0    0 -0.12311111472E+02  0.11286937828E+02  0.16161647114E+01  0.16780060186E+02  0.51100000000E-03 0.  1.
        -12    1    3    3    0    0  0.20939130742E+02 -0.20032681187E+01  0.20948674448E+02  0.29686819306E+02  0.00000000000E+00 0.  1.
</event>
<event>
 7    1  0.3305651E-013  0.7246154E+02  0.7816164E-02  0.1226708E+00
        -11   -1    0    0    0    0  0.00000000000E+00  0.00000000000E+00  0.45593999997E+02  0.45594000000E+02  0.51100000000E-03 0.  1.
         11   -1    0    0    0    0 -0.00000000000E+00 -0.00000000000E+00 -0.45593999997E+02  0.45594000000E+02  0.51100000000E-03 0. -1.
    9900012    2    1    2    0    0 -0.54365236861E+00  0.22087207260E+01  0.18587800542E+02  0.72461539199E+02  0.69999959492E+02 0.  0.
         12    1    1    2    0    0  0.54365236861E+00 -0.22087207260E+01 -0.18587800542E+02  0.18726460801E+02  0.00000000000E+00 0. -1.
         11    1    3    3    0    0 -0.31451772053E+01 -0.16759666793E+02 -0.49496683971E+01  0.17756063420E+02  0.51100000000E-03 0. -1.
        -11    1    3    3    0    0 -0.18408158655E+02  0.21398469542E+02  0.13020673820E+02  0.31085249730E+02  0.51100000000E-03 0.  1.
        -12    1    3    3    0    0  0.21009683491E+02 -0.24300820224E+01  0.10516795119E+02  0.23620226049E+02  0.00000000000E+00 0.  1.
</event>
<event>
 7    1  0.3305651E-013  0.7246158E+02  0.7816164E-02  0.1226708E+00
        -11   -1    0    0    0    0  0.00000000000E+00  0.00000000000E+00  0.45593999997E+02  0.45594000000E+02  0.51100000000E-03 0.  1.
         11   -1    0    0    0    0 -0.00000000000E+00 -0.00000000000E+00 -0.45593999997E+02  0.45594000000E+02  0.51100000000E-03 0. -1.
    9900012    2    1    2    0    0  0.13590496910E+02  0.12837796883E+02  0.10808036765E+01  0.72461580917E+02  0.70000013838E+02 0.  0.
         12    1    1    2    0    0 -0.13590496910E+02 -0.12837796883E+02 -0.10808036765E+01  0.18726419083E+02  0.00000000000E+00 0. -1.
         11    1    3    3    0    0  0.28248105634E+02 -0.97903976640E+01  0.46773095921E+01  0.30260280627E+02  0.51100000000E-03 0. -1.
        -11    1    3    3    0    0  0.92855371698E+01  0.71174610934E+00  0.11991707889E+01  0.93896642058E+01  0.51100000000E-03 0.  1.
        -12    1    3    3    0    0 -0.23943145894E+02  0.21916448438E+02 -0.47956767046E+01  0.32811636084E+02  0.00000000000E+00 0.  1.
</event>
<event>
 7    1  0.3305651E-013  0.7246162E+02  0.7816164E-02  0.1226708E+00
        -11   -1    0    0    0    0  0.00000000000E+00  0.00000000000E+00  0.45593999997E+02  0.45594000000E+02  0.51100000000E-03 0.  1.
         11   -1    0    0    0    0 -0.00000000000E+00 -0.00000000000E+00 -0.45593999997E+02  0.45594000000E+02  0.51100000000E-03 0. -1.
    9900012    2    1    2    0    0  0.13318242664E+02  0.59996559432E+01  0.11717761932E+02  0.72461617440E+02  0.70000061416E+02 0.  0.
         12    1    1    2    0    0 -0.13318242664E+02 -0.59996559432E+01 -0.11717761932E+02  0.18726382560E+02  0.00000000000E+00 0. -1.
         11    1    3    3    0    0  0.96830204124E+01 -0.91534494482E+00 -0.15073894620E+02  0.17939371225E+02  0.51100000000E-03 0. -1.
        -11    1    3    3    0    0 -0.11085756189E+02 -0.15564803167E+02  0.45570591447E+01  0.19644945309E+02  0.51100000000E-03 0.  1.
        -12    1    3    3    0    0  0.14720978441E+02  0.22479804055E+02  0.22234597407E+02  0.34877300905E+02  0.00000000000E+00 0.  1.
</event>
<event>
 7    1  0.3305651E-013  0.7246156E+02  0.7816164E-02  0.1226708E+00
        -11   -1    0    0    0    0  0.00000000000E+00  0.00000000000E+00  0.45593999997E+02  0.45594000000E+02  0.51100000000E-03 0.  1.
         11   -1    0    0    0    0 -0.00000000000E+00 -0.00000000000E+00 -0.45593999997E+02  0.45594000000E+02  0.51100000000E-03 0. -1.
    9900012    2    1    2    0    0  0.17691618997E+01 -0.18589483760E+00  0.18641753982E+02  0.72461561945E+02  0.69999989123E+02 0.  0.
         12    1    1    2    0    0 -0.17691618997E+01  0.18589483760E+00 -0.18641753982E+02  0.18726438055E+02  0.00000000000E+00 0. -1.
         11    1    3    3    0    0 -0.78976460610E+01 -0.14538149174E+02 -0.84673438805E+01  0.18585653267E+02  0.51100000000E-03 0. -1.
        -11    1    3    3    0    0 -0.34646645482E+01  0.43586818254E+01 -0.11010260009E+02  0.12338064411E+02  0.51100000000E-03 0.  1.
        -12    1    3    3    0    0  0.13131472509E+02  0.99935725114E+01  0.38119357871E+02  0.41537844266E+02  0.00000000000E+00 0.  1.
</event>
<event>
 7    1  0.3305651E-013  0.7246153E+02  0.7816164E-02  0.1226708E+00
        -11   -1    0    0    0    0  0.00000000000E+00  0.00000000000E+00  0.45593999997E+02  0.45594000000E+02  0.51100000000E-03 0. -1.
         11   -1    0    0    0    0 -0.00000000000E+00 -0.00000000000E+00 -0.45593999997E+02  0.45594000000E+02  0.51100000000E-03 0.  1.
    9900012    2    1    2    0    0  0.96764871101E+01  0.11651993044E+02 -0.11012594335E+02  0.72461532670E+02  0.69999950987E+02 0.  0.
         12    1    1    2    0    0 -0.96764871101E+01 -0.11651993044E+02  0.11012594335E+02  0.18726467330E+02  0.00000000000E+00 0. -1.
         11    1    3    3    0    0  0.75525146794E+01  0.27539305774E+01  0.91780762634E+01  0.12200889138E+02  0.51100000000E-03 0. -1.
        -11    1    3    3    0    0 -0.18084689353E+01 -0.23740601227E+02 -0.67808795756E+01  0.24756151449E+02  0.51100000000E-03 0.  1.
         12    1    3    3    0    0  0.39324413661E+01  0.32638663693E+02 -0.13409791023E+02  0.35504492082E+02  0.00000000000E+00 0. -1.
</event>
<event>
 7    1  0.3305651E-013  0.7246161E+02  0.7816164E-02  0.1226708E+00
        -11   -1    0    0    0    0  0.00000000000E+00  0.00000000000E+00  0.45593999997E+02  0.45594000000E+02  0.51100000000E-03 0. -1.
         11   -1    0    0    0    0 -0.00000000000E+00 -0.00000000000E+00 -0.45593999997E+02  0.45594000000E+02  0.51100000000E-03 0.  1.
    9900012    2    1    2    0    0  0.16115447570E+02 -0.15949973399E+01  0.94035172851E+01  0.72461606748E+02  0.70000047487E+02 0.  0.
         12    1    1    2    0    0 -0.16115447570E+02  0.15949973399E+01 -0.94035172851E+01  0.18726393252E+02  0.00000000000E+00 0. -1.
         11    1    3    3    0    0  0.69865819294E-02  0.55437740163E+01  0.93635421023E+01  0.10881608342E+02  0.51100000000E-03 0. -1.
        -11    1    3    3    0    0 -0.20687487422E+02  0.19505971556E+01 -0.89527255067E+01  0.22625831683E+02  0.51100000000E-03 0.  1.
         12    1    3    3    0    0  0.36795948410E+02 -0.90893685118E+01  0.89927006896E+01  0.38954166722E+02  0.00000000000E+00 0. -1.
</event>
<event>
 7    1  0.3305651E-013  0.7246161E+02  0.7816164E-02  0.1226708E+00
        -11   -1    0    0    0    0  0.00000000000E+00  0.00000000000E+00  0.45593999997E+02  0.45594000000E+02  0.51100000000E-03 0.  1.
         11   -1    0    0    0    0 -0.00000000000E+00 -0.00000000000E+00 -0.45593999997E+02  0.45594000000E+02  0.51100000000E-03 0. -1.
    9900012    2    1    2    0    0  0.47332255835E+00  0.18435328352E+02  0.32545737460E+01  0.72461611775E+02  0.70000054036E+02 0.  0.
         12    1    1    2    0    0 -0.47332255835E+00 -0.18435328352E+02 -0.32545737460E+01  0.18726388225E+02  0.00000000000E+00 0. -1.
         11    1    3    3    0    0 -0.16272415572E+01 -0.22104564736E+01  0.37678854705E+00  0.27705600115E+01  0.51100000000E-03 0. -1.
        -11    1    3    3    0    0  0.15926468485E+02  0.15019642238E+02  0.30942563749E+02  0.37903618600E+02  0.51100000000E-03 0.  1.
         12    1    3    3    0    0 -0.13825904369E+02  0.56261425876E+01 -0.28064778550E+02  0.31787433163E+02  0.00000000000E+00 0. -1.
</event>
<event>
 7    1  0.3305651E-013  0.7246160E+02  0.7816164E-02  0.1226708E+00
        -11   -1    0    0    0    0  0.00000000000E+00  0.00000000000E+00  0.45593999997E+02  0.45594000000E+02  0.51100000000E-03 0. -1.
         11   -1    0    0    0    0 -0.00000000000E+00 -0.00000000000E+00 -0.45593999997E+02  0.45594000000E+02  0.51100000000E-03 0.  1.
    9900012    2    1    2    0    0  0.33337828196E+00 -0.97289277074E+00 -0.18698137424E+02  0.72461601399E+02  0.70000040520E+02 0.  0.
         12    1    1    2    0    0 -0.33337828196E+00  0.97289277074E+00  0.18698137424E+02  0.18726398601E+02  0.00000000000E+00 0. -1.
         11    1    3    3    0    0  0.17898715217E+02  0.15558090856E+02  0.76414684542E+01  0.24916063853E+02  0.51100000000E-03 0. -1.
        -11    1    3    3    0    0  0.67384495315E+01  0.39220610607E+01 -0.45783995669E+01  0.90416263973E+01  0.51100000000E-03 0.  1.
        -12    1    3    3    0    0 -0.24303786467E+02 -0.20453044688E+02 -0.21761206312E+02  0.38503911149E+02  0.00000000000E+00 0.  1.
</event>
<event>
 7    1  0.3305651E-013  0.7246156E+02  0.7816164E-02  0.1226708E+00
        -11   -1    0    0    0    0  0.00000000000E+00  0.00000000000E+00  0.45593999997E+02  0.45594000000E+02  0.51100000000E-03 0. -1.
         11   -1    0    0    0    0 -0.00000000000E+00 -0.00000000000E+00 -0.45593999997E+02  0.45594000000E+02  0.51100000000E-03 0.  1.
    9900012    2    1    2    0    0 -0.13153494050E+02 -0.15044838636E+01 -0.13243933743E+02  0.72461557241E+02  0.69999982995E+02 0.  0.
         12    1    1    2    0    0  0.13153494050E+02  0.15044838636E+01  0.13243933743E+02  0.18726442759E+02  0.00000000000E+00 0. -1.
         11    1    3    3    0    0 -0.24423241819E+01  0.64075066303E+01  0.16770253256E+02  0.18118015431E+02  0.51100000000E-03 0. -1.
        -11    1    3    3    0    0 -0.18473561556E+02 -0.65263826588E+01  0.35100861622E+01  0.19904443029E+02  0.51100000000E-03 0.  1.
        -12    1    3    3    0    0  0.77623916882E+01 -0.13856078351E+01 -0.33524273162E+02  0.34439098780E+02  0.00000000000E+00 0.  1.
</event>
<event>
 7    1  0.3305651E-013  0.7246150E+02  0.7816164E-02  0.1226708E+00
        -11   -1    0    0    0    0  0.00000000000E+00  0.00000000000E+00  0.45593999997E+02  0.45594000000E+02  0.51100000000E-03 0.  1.
         11   -1    0    0    0    0 -0.00000000000E+00 -0.00000000000E+00 -0.45593999997E+02  0.45594000000E+02  0.51100000000E-03 0. -1.
    9900012    2    1    2    0    0  0.34585809398E+00 -0.18265632758E+02  0.41144592028E+01  0.72461501865E+02  0.69999910858E+02 0.  0.
         12    1    1    2    0    0 -0.34585809398E+00  0.18265632758E+02 -0.41144592028E+01  0.18726498135E+02  0.00000000000E+00 0. -1.
         11    1    3    3    0    0  0.24120648346E+01  0.16180543693E+02  0.75372010235E+01  0.18012147304E+02  0.51100000000E-03 0. -1.
        -11    1    3    3    0    0 -0.71270030462E+01 -0.11861000995E+01 -0.16766385391E+02  0.18256853102E+02  0.51100000000E-03 0.  1.
        -12    1    3    3    0    0  0.50607963056E+01 -0.33260076351E+02  0.13343643570E+02  0.36192501459E+02  0.00000000000E+00 0.  1.
</event>
<event>
 7    1  0.3305651E-013  0.7246154E+02  0.7816164E-02  0.1226708E+00
        -11   -1    0    0    0    0  0.00000000000E+00  0.00000000000E+00  0.45593999997E+02  0.45594000000E+02  0.51100000000E-03 0. -1.
         11   -1    0    0    0    0 -0.00000000000E+00 -0.00000000000E+00 -0.45593999997E+02  0.45594000000E+02  0.51100000000E-03 0.  1.
    9900012    2    1    2    0    0  0.41777208043E+00  0.17831348754E+02  0.57051367710E+01  0.72461544984E+02  0.69999967028E+02 0.  0.
         12    1    1    2    0    0 -0.41777208043E+00 -0.17831348754E+02 -0.57051367710E+01  0.18726455016E+02  0.00000000000E+00 0. -1.
         11    1    3    3    0    0 -0.33324934457E+00  0.42265568716E+01  0.85458081643E+01  0.95396894896E+01  0.51100000000E-03 0. -1.
        -11    1    3    3    0    0 -0.27187427885E+01  0.35488372112E+02 -0.13835570522E+02  0.38186897353E+02  0.51100000000E-03 0.  1.
        -12    1    3    3    0    0  0.34697642135E+01 -0.21883580230E+02  0.10994899129E+02  0.24734958141E+02  0.00000000000E+00 0.  1.
</event>
<event>
 7    1  0.3305651E-013  0.7246157E+02  0.7816164E-02  0.1226708E+00
        -11   -1    0    0    0    0  0.00000000000E+00  0.00000000000E+00  0.45593999997E+02  0.45594000000E+02  0.51100000000E-03 0.  1.
         11   -1    0    0    0    0 -0.00000000000E+00 -0.00000000000E+00 -0.45593999997E+02  0.45594000000E+02  0.51100000000E-03 0. -1.
    9900012    2    1    2    0    0  0.30735146454E+01 -0.17502108068E+02  0.59083650950E+01  0.72461573293E+02  0.70000003906E+02 0.  0.
         12    1    1    2    0    0 -0.30735146454E+01  0.17502108068E+02 -0.59083650950E+01  0.18726426707E+02  0.00000000000E+00 0. -1.
         11    1    3    3    0    0 -0.23259922959E+01  0.10171786996E+02  0.10794218442E+02  0.15013015782E+02  0.51100000000E-03 0. -1.
        -11    1    3    3    0    0 -0.14830997805E+02 -0.31599743774E+02 -0.98123871596E+01  0.36259967520E+02  0.51100000000E-03 0.  1.
         12    1    3    3    0    0  0.20230504747E+02  0.39258487101E+01  0.49265338129E+01  0.21188589991E+02  0.00000000000E+00 0. -1.
</event>
<event>
 7    1  0.3305651E-013  0.7246151E+02  0.7816164E-02  0.1226708E+00
        -11   -1    0    0    0    0  0.00000000000E+00  0.00000000000E+00  0.45593999997E+02  0.45594000000E+02  0.51100000000E-03 0.  1.
         11   -1    0    0    0    0 -0.00000000000E+00 -0.00000000000E+00 -0.45593999997E+02  0.45594000000E+02  0.51100000000E-03 0. -1.
    9900012    2    1    2    0    0  0.10973013164E+02  0.59545454050E+01  0.13957708148E+02  0.72461514862E+02  0.69999927789E+02 0.  0.
         12    1    1    2    0    0 -0.10973013164E+02 -0.59545454050E+01 -0.13957708148E+02  0.18726485138E+02  0.00000000000E+00 0. -1.
         11    1    3    3    0    0  0.27904593887E+01  0.50825776511E+01  0.19650340872E+02  0.20487927075E+02  0.51100000000E-03 0. -1.
        -11    1    3    3    0    0 -0.48335098758E+01  0.17688456104E+02  0.13937897919E+02  0.23032787406E+02  0.51100000000E-03 0.  1.
         12    1    3    3    0    0  0.13016063651E+02 -0.16816488350E+02 -0.19630530643E+02  0.28940800381E+02  0.00000000000E+00 0. -1.
</event>
<event>
 7    1  0.3305651E-013  0.7246154E+02  0.7816164E-02  0.1226708E+00
        -11   -1    0    0    0    0  0.00000000000E+00  0.00000000000E+00  0.45593999997E+02  0.45594000000E+02  0.51100000000E-03 0.  1.
         11   -1    0    0    0    0 -0.00000000000E+00 -0.00000000000E+00 -0.45593999997E+02  0.45594000000E+02  0.51100000000E-03 0. -1.
    9900012    2    1    2    0    0 -0.20042836335E+01  0.18011883635E+02  0.47154154770E+01  0.72461541496E+02  0.69999962485E+02 0.  0.
         12    1    1    2    0    0  0.20042836335E+01 -0.18011883635E+02 -0.47154154770E+01  0.18726458504E+02  0.00000000000E+00 0. -1.
         11    1    3    3    0    0 -0.12339551953E+02 -0.73375924423E+01  0.66076860106E+01  0.15803996960E+02  0.51100000000E-03 0. -1.
        -11    1    3    3    0    0  0.19712507544E+02  0.71869008393E+01 -0.20267418644E+02  0.29171951531E+02  0.51100000000E-03 0.  1.
         12    1    3    3    0    0 -0.93772392248E+01  0.18162575238E+02  0.18375148111E+02  0.27485593005E+02  0.00000000000E+00 0. -1.
</event>
<event>
 7    1  0.3305651E-013  0.7246166E+02  0.7816164E-02  0.1226708E+00
        -11   -1    0    0    0    0  0.00000000000E+00  0.00000000000E+00  0.45593999997E+02  0.45594000000E+02  0.51100000000E-03 0. -1.
         11   -1    0    0    0    0 -0.00000000000E+00 -0.00000000000E+00 -0.45593999997E+02  0.45594000000E+02  0.51100000000E-03 0.  1.
    9900012    2    1    2    0    0 -0.43944663380E+00 -0.13166293770E+02 -0.13309075839E+02  0.72461657467E+02  0.70000113558E+02 0.  0.
         12    1    1    2    0    0  0.43944663380E+00  0.13166293770E+02  0.13309075839E+02  0.18726342533E+02  0.00000000000E+00 0. -1.
         11    1    3    3    0    0  0.25787824657E+02 -0.24492384819E+02  0.38618785725E+01  0.35774333272E+02  0.51100000000E-03 0. -1.
        -11    1    3    3    0    0  0.65426190919E+00 -0.21479693579E+01 -0.48005925673E+00  0.22961463715E+01  0.51100000000E-03 0.  1.
        -12    1    3    3    0    0 -0.26881533200E+02  0.13474060406E+02 -0.16690895155E+02  0.34391177824E+02  0.00000000000E+00 0.  1.
</event>
<event>
 7    1  0.3305651E-013  0.7246157E+02  0.7816164E-02  0.1226708E+00
        -11   -1    0    0    0    0  0.00000000000E+00  0.00000000000E+00  0.45593999997E+02  0.45594000000E+02  0.51100000000E-03 0.  1.
         11   -1    0    0    0    0 -0.00000000000E+00 -0.00000000000E+00 -0.45593999997E+02  0.45594000000E+02  0.51100000000E-03 0. -1.
    9900012    2    1    2    0    0 -0.17404367757E+02 -0.64715928762E+01  0.24260204544E+01  0.72461571974E+02  0.70000002188E+02 0.  0.
         12    1    1    2    0    0  0.17404367757E+02  0.64715928762E+01 -0.24260204544E+01  0.18726428026E+02  0.00000000000E+00 0. -1.
         11    1    3    3    0    0 -0.54489114058E+01  0.45886193625E+01 -0.88177395494E+00  0.71779933638E+01  0.51100000000E-03 0. -1.
        -11    1    3    3    0    0 -0.19432930665E+02 -0.44718837619E+00  0.29916381693E+02  0.35676724423E+02  0.51100000000E-03 0.  1.
         12    1    3    3    0    0  0.74774743144E+01 -0.10613023862E+02 -0.26608587284E+02  0.29606854187E+02  0.00000000000E+00 0. -1.
</event>
<event>
 7    1  0.3305651E-013  0.7246147E+02  0.7816164E-02  0.1226708E+00
        -11   -1    0    0    0    0  0.00000000000E+00  0.00000000000E+00  0.45593999997E+02  0.45594000000E+02  0.51100000000E-03 0.  1.
         11   -1    0    0    0    0 -0.00000000000E+00 -0.00000000000E+00 -0.45593999997E+02  0.45594000000E+02  0.51100000000E-03 0. -1.
    9900012    2    1    2    0    0 -0.13666181004E+02  0.10000168882E+02  0.79946800726E+01  0.72461473617E+02  0.69999874059E+02 0.  0.
         12    1    1    2    0    0  0.13666181004E+02 -0.10000168882E+02 -0.79946800726E+01  0.18726526383E+02  0.00000000000E+00 0. -1.
         11    1    3    3    0    0  0.33340687158E+01  0.60458239958E+01 -0.84899288733E+01  0.10942892420E+02  0.51100000000E-03 0. -1.
        -11    1    3    3    0    0 -0.30834719717E+02  0.18003661993E+02 -0.17361706645E+00  0.35706328967E+02  0.51100000000E-03 0.  1.
        -12    1    3    3    0    0  0.13834469997E+02 -0.14049317106E+02  0.16658226012E+02  0.25812252229E+02  0.00000000000E+00 0.  1.
</event>
<event>
 7    1  0.3305651E-013  0.7246160E+02  0.7816164E-02  0.1226708E+00
        -11   -1    0    0    0    0  0.00000000000E+00  0.00000000000E+00  0.45593999997E+02  0.45594000000E+02  0.51100000000E-03 0. -1.
         11   -1    0    0    0    0 -0.00000000000E+00 -0.00000000000E+00 -0.45593999997E+02  0.45594000000E+02  0.51100000000E-03 0.  1.
    9900012    2    1    2    0    0 -0.12646942509E+02 -0.28943025611E+01 -0.13503929068E+02  0.72461595048E+02  0.70000032246E+02 0.  0.
         12    1    1    2    0    0  0.12646942509E+02  0.28943025611E+01  0.13503929068E+02  0.18726404952E+02  0.00000000000E+00 0. -1.
         11    1    3    3    0    0  0.18729833889E+01 -0.30957009443E+02  0.94015140135E+01  0.32407298043E+02  0.51100000000E-03 0. -1.
        -11    1    3    3    0    0 -0.27090126997E+00  0.12465643123E+01  0.82141907601E+00  0.15172473899E+01  0.51100000000E-03 0.  1.
        -12    1    3    3    0    0 -0.14249024628E+02  0.26816142570E+02 -0.23726862158E+02  0.38537049615E+02  0.00000000000E+00 0.  1.
</event>
<event>
 7    1  0.3305651E-013  0.7246155E+02  0.7816164E-02  0.1226708E+00
        -11   -1    0    0    0    0  0.00000000000E+00  0.00000000000E+00  0.45593999997E+02  0.45594000000E+02  0.51100000000E-03 0. -1.
         11   -1    0    0    0    0 -0.00000000000E+00 -0.00000000000E+00 -0.45593999997E+02  0.45594000000E+02  0.51100000000E-03 0.  1.
    9900012    2    1    2    0    0 -0.16913207598E+02 -0.37506959011E+01 -0.71102485759E+01  0.72461549568E+02  0.69999973000E+02 0.  0.
         12    1    1    2    0    0  0.16913207598E+02  0.37506959011E+01  0.71102485759E+01  0.18726450432E+02  0.00000000000E+00 0. -1.
         11    1    3    3    0    0 -0.99589284937E+01 -0.20814989519E+02 -0.14398070869E+02  0.27198317787E+02  0.51100000000E-03 0. -1.
        -11    1    3    3    0    0 -0.87917594996E+01 -0.10460238842E+01 -0.14427453027E+02  0.16927510218E+02  0.51100000000E-03 0.  1.
         12    1    3    3    0    0  0.18374803956E+01  0.18110317502E+02  0.21715275321E+02  0.28335721563E+02  0.00000000000E+00 0. -1.
</event>
<event>
 7    1  0.3305651E-013  0.7246159E+02  0.7816164E-02  0.1226708E+00
        -11   -1    0    0    0    0  0.00000000000E+00  0.00000000000E+00  0.45593999997E+02  0.45594000000E+02  0.51100000000E-03 0.  1.
         11   -1    0    0    0    0 -0.00000000000E+00 -0.00000000000E+00 -0.45593999997E+02  0.45594000000E+02  0.51100000000E-03 0. -1.
    9900012    2    1    2    0    0  0.17435314942E+02 -0.13297649645E+01  0.67022284028E+01  0.72461592241E+02  0.70000028589E+02 0.  0.
         12    1    1    2    0    0 -0.17435314942E+02  0.13297649645E+01 -0.67022284028E+01  0.18726407759E+02  0.00000000000E+00 0. -1.
         11    1    3    3    0    0 -0.14085263534E+02 -0.13033450091E+02  0.16384752373E+02  0.25233421898E+02  0.51100000000E-03 0. -1.
        -11    1    3    3    0    0 -0.45706168834E+01  0.58196275954E+01  0.37192595406E+01  0.82819982996E+01  0.51100000000E-03 0.  1.
        -12    1    3    3    0    0  0.36091195360E+02  0.58840575313E+01 -0.13401783510E+02  0.38946172043E+02  0.00000000000E+00 0.  1.
</event>
<event>
 7    1  0.3305651E-013  0.7246163E+02  0.7816164E-02  0.1226708E+00
        -11   -1    0    0    0    0  0.00000000000E+00  0.00000000000E+00  0.45593999997E+02  0.45594000000E+02  0.51100000000E-03 0. -1.
         11   -1    0    0    0    0 -0.00000000000E+00 -0.00000000000E+00 -0.45593999997E+02  0.45594000000E+02  0.51100000000E-03 0.  1.
    9900012    2    1    2    0    0 -0.15018621970E+02  0.99414861816E+01 -0.51268775232E+01  0.72461627513E+02  0.70000074538E+02 0.  0.
         12    1    1    2    0    0  0.15018621970E+02 -0.99414861816E+01  0.51268775232E+01  0.18726372487E+02  0.00000000000E+00 0. -1.
         11    1    3    3    0    0  0.35636201528E+01 -0.55567196478E+01 -0.14250369830E+01  0.67533141865E+01  0.51100000000E-03 0. -1.
        -11    1    3    3    0    0 -0.15774428544E+02  0.29723459233E+02 -0.23590459191E+02  0.41095332944E+02  0.51100000000E-03 0.  1.
         12    1    3    3    0    0 -0.28078135789E+01 -0.14225253404E+02  0.19888618651E+02  0.24612980383E+02  0.00000000000E+00 0. -1.
</event>
<event>
 7    1  0.3305651E-013  0.7246139E+02  0.7816164E-02  0.1226708E+00
        -11   -1    0    0    0    0  0.00000000000E+00  0.00000000000E+00  0.45593999997E+02  0.45594000000E+02  0.51100000000E-03 0.  1.
         11   -1    0    0    0    0 -0.00000000000E+00 -0.00000000000E+00 -0.45593999997E+02  0.45594000000E+02  0.51100000000E-03 0. -1.
    9900012    2    1    2    0    0  0.17160138774E+01  0.59371083706E+01  0.17677442578E+02  0.72461389641E+02  0.69999764665E+02 0.  0.
         12    1    1    2    0    0 -0.17160138774E+01 -0.59371083706E+01 -0.17677442578E+02  0.18726610359E+02  0.00000000000E+00 0. -1.
         11    1    3    3    0    0 -0.24706785020E+02  0.11340219301E+02  0.10643523670E+02  0.29194355554E+02  0.51100000000E-03 0. -1.
        -11    1    3    3    0    0  0.18083420149E-01  0.11041678402E+02  0.49204187076E+01  0.12088403926E+02  0.51100000000E-03 0.  1.
        -12    1    3    3    0    0  0.26404715478E+02 -0.16444789333E+02  0.21135002005E+01  0.31178630161E+02  0.00000000000E+00 0.  1.
</event>
<event>
 7    1  0.3305651E-013  0.7246160E+02  0.7816164E-02  0.1226708E+00
        -11   -1    0    0    0    0  0.00000000000E+00  0.00000000000E+00  0.45593999997E+02  0.45594000000E+02  0.51100000000E-03 0. -1.
         11   -1    0    0    0    0 -0.00000000000E+00 -0.00000000000E+00 -0.45593999997E+02  0.45594000000E+02  0.51100000000E-03 0.  1.
    9900012    2    1    2    0    0  0.11299515816E+02  0.11438697355E+02 -0.95997443334E+01  0.72461602959E+02  0.70000042552E+02 0.  0.
         12    1    1    2    0    0 -0.11299515816E+02 -0.11438697355E+02  0.95997443334E+01  0.18726397041E+02  0.00000000000E+00 0. -1.
         11    1    3    3    0    0  0.12665385442E+01  0.10875766424E+02 -0.62180209377E+01  0.12591671845E+02  0.51100000000E-03 0. -1.
        -11    1    3    3    0    0  0.12725231335E+02  0.45395022923E+01 -0.29957791753E+02  0.32863473349E+02  0.51100000000E-03 0.  1.
         12    1    3    3    0    0 -0.26922540632E+01 -0.39765713613E+01  0.26576068357E+02  0.27006457766E+02  0.00000000000E+00 0. -1.
</event>
<event>
 7    1  0.3305651E-013  0.7246158E+02  0.7816164E-02  0.1226708E+00
        -11   -1    0    0    0    0  0.00000000000E+00  0.00000000000E+00  0.45593999997E+02  0.45594000000E+02  0.51100000000E-03 0.  1.
         11   -1    0    0    0    0 -0.00000000000E+00 -0.00000000000E+00 -0.45593999997E+02  0.45594000000E+02  0.51100000000E-03 0. -1.
    9900012    2    1    2    0    0 -0.90338145654E+01 -0.81904464747E+01  0.14212163739E+02  0.72461579701E+02  0.70000012254E+02 0.  0.
         12    1    1    2    0    0  0.90338145654E+01  0.81904464747E+01 -0.14212163739E+02  0.18726420299E+02  0.00000000000E+00 0. -1.
         11    1    3    3    0    0  0.12581910775E+02  0.13830686789E+00 -0.13877039457E+02  0.18732213748E+02  0.51100000000E-03 0. -1.
        -11    1    3    3    0    0  0.91816532014E+00  0.14012984634E+02  0.94746416014E+01  0.16940354177E+02  0.51100000000E-03 0.  1.
         12    1    3    3    0    0 -0.22533890661E+02 -0.22341737976E+02  0.18614561595E+02  0.36789011776E+02  0.00000000000E+00 0. -1.
</event>
<event>
 7    1  0.3305651E-013  0.7246156E+02  0.7816164E-02  0.1226708E+00
        -11   -1    0    0    0    0  0.00000000000E+00  0.00000000000E+00  0.45593999997E+02  0.45594000000E+02  0.51100000000E-03 0. -1.
         11   -1    0    0    0    0 -0.00000000000E+00 -0.00000000000E+00 -0.45593999997E+02  0.45594000000E+02  0.51100000000E-03 0.  1.
    9900012    2    1    2    0    0 -0.68099510455E+01  0.63221064774E+01  0.16258380321E+02  0.72461564295E+02  0.69999992185E+02 0.  0.
         12    1    1    2    0    0  0.68099510455E+01 -0.63221064774E+01 -0.16258380321E+02  0.18726435705E+02  0.00000000000E+00 0. -1.
         11    1    3    3    0    0 -0.11657073271E+02  0.18633152382E+02  0.12294645125E+02  0.25184122458E+02  0.51100000000E-03 0. -1.
        -11    1    3    3    0    0 -0.14539962518E+02 -0.13090059277E+02  0.15272567856E+02  0.24819578786E+02  0.51100000000E-03 0.  1.
         12    1    3    3    0    0  0.19387084744E+02  0.77901337257E+00 -0.11308832661E+02  0.22457863052E+02  0.00000000000E+00 0. -1.
</event>
<event>
 7    1  0.3305651E-013  0.7246158E+02  0.7816164E-02  0.1226708E+00
        -11   -1    0    0    0    0  0.00000000000E+00  0.00000000000E+00  0.45593999997E+02  0.45594000000E+02  0.51100000000E-03 0.  1.
         11   -1    0    0    0    0 -0.00000000000E+00 -0.00000000000E+00 -0.45593999997E+02  0.45594000000E+02  0.51100000000E-03 0. -1.
    9900012    2    1    2    0    0  0.16175266481E+02  0.37826441940E+01 -0.86447152646E+01  0.72461581634E+02  0.70000014772E+02 0.  0.
         12    1    1    2    0    0 -0.16175266481E+02 -0.37826441940E+01  0.86447152646E+01  0.18726418366E+02  0.00000000000E+00 0. -1.
         11    1    3    3    0    0  0.28823792481E+02 -0.15292338328E+02 -0.32898584891E+01  0.32794661054E+02  0.51100000000E-03 0. -1.
        -11    1    3    3    0    0 -0.30595354575E+01  0.11654182120E+02 -0.18312530090E+02  0.21920982567E+02  0.51100000000E-03 0.  1.
        -12    1    3    3    0    0 -0.95889905425E+01  0.74208004014E+01  0.12957673315E+02  0.17745938013E+02  0.00000000000E+00 0.  1.
</event>
<event>
 7    1  0.3305651E-013  0.7246155E+02  0.7816164E-02  0.1226708E+00
        -11   -1    0    0    0    0  0.00000000000E+00  0.00000000000E+00  0.45593999997E+02  0.45594000000E+02  0.51100000000E-03 0.  1.
         11   -1    0    0    0    0 -0.00000000000E+00 -0.00000000000E+00 -0.45593999997E+02  0.45594000000E+02  0.51100000000E-03 0. -1.
    9900012    2    1    2    0    0 -0.49810135748E+01  0.10235310038E+02  0.14869701680E+02  0.72461545561E+02  0.69999967780E+02 0.  0.
         12    1    1    2    0    0  0.49810135748E+01 -0.10235310038E+02 -0.14869701680E+02  0.18726454439E+02  0.00000000000E+00 0. -1.
         11    1    3    3    0    0  0.32060185220E+01  0.87849789124E+01 -0.91233056494E+01  0.13064804457E+02  0.51100000000E-03 0. -1.
        -11    1    3    3    0    0  0.11585022375E+02 -0.10522640229E+02 -0.97919296152E+01  0.18461326786E+02  0.51100000000E-03 0.  1.
        -12    1    3    3    0    0 -0.19772054472E+02  0.11972971355E+02  0.33784936945E+02  0.40935414319E+02  0.00000000000E+00 0.  1.
</event>
<event>
 7    1  0.3305651E-013  0.7246153E+02  0.7816164E-02  0.1226708E+00
        -11   -1    0    0    0    0  0.00000000000E+00  0.00000000000E+00  0.45593999997E+02  0.45594000000E+02  0.51100000000E-03 0. -1.
         11   -1    0    0    0    0 -0.00000000000E+00 -0.00000000000E+00 -0.45593999997E+02  0.45594000000E+02  0.51100000000E-03 0.  1.
    9900012    2    1    2    0    0  0.45158298950E+01 -0.15558731006E+02  0.93922234061E+01  0.72461529679E+02  0.69999947091E+02 0.  0.
         12    1    1    2    0    0 -0.45158298950E+01  0.15558731006E+02 -0.93922234061E+01  0.18726470321E+02  0.00000000000E+00 0. -1.
         11    1    3    3    0    0  0.14499992163E+02  0.12730384256E+02  0.18698176756E+02  0.26868834554E+02  0.51100000000E-03 0. -1.
        -11    1    3    3    0    0 -0.14575385940E+02  0.62814689629E+00 -0.71147938027E+01  0.16231350373E+02  0.51100000000E-03 0.  1.
        -12    1    3    3    0    0  0.45912236718E+01 -0.28917262158E+02 -0.21911595475E+01  0.29361344753E+02  0.00000000000E+00 0.  1.
</event>
<event>
 7    1  0.3305651E-013  0.7246165E+02  0.7816164E-02  0.1226708E+00
        -11   -1    0    0    0    0  0.00000000000E+00  0.00000000000E+00  0.45593999997E+02  0.45594000000E+02  0.51100000000E-03 0.  1.
         11   -1    0    0    0    0 -0.00000000000E+00 -0.00000000000E+00 -0.45593999997E+02  0.45594000000E+02  0.51100000000E-03 0. -1.
    9900012    2    1    2    0    0 -0.14677559202E+02 -0.10150836815E+02  0.56750364509E+01  0.72461647688E+02  0.70000100820E+02 0.  0.
         12    1    1    2    0    0  0.14677559202E+02  0.10150836815E+02 -0.56750364509E+01  0.18726352312E+02  0.00000000000E+00 0. -1.
         11    1    3    3    0    0  0.98837592812E+01  0.67607799865E+01 -0.10566524363E+02  0.15970231085E+02  0.51100000000E-03 0. -1.
        -11    1    3    3    0    0 -0.14969978666E+02 -0.69650420594E+00 -0.14230271374E+02  0.20666059203E+02  0.51100000000E-03 0.  1.
        -12    1    3    3    0    0 -0.95913398181E+01 -0.16215112595E+02  0.30471832187E+02  0.35825357400E+02  0.00000000000E+00 0.  1.
</event>
<event>
 7    1  0.3305651E-013  0.7246152E+02  0.7816164E-02  0.1226708E+00
        -11   -1    0    0    0    0  0.00000000000E+00  0.00000000000E+00  0.45593999997E+02  0.45594000000E+02  0.51100000000E-03 0. -1.
         11   -1    0    0    0    0 -0.00000000000E+00 -0.00000000000E+00 -0.45593999997E+02  0.45594000000E+02  0.51100000000E-03 0.  1.
    9900012    2    1    2    0    0  0.33819641877E+01  0.11128303108E+02 -0.14676660684E+02  0.72461516596E+02  0.69999930048E+02 0.  0.
         12    1    1    2    0    0 -0.33819641877E+01 -0.11128303108E+02  0.14676660684E+02  0.18726483404E+02  0.00000000000E+00 0. -1.
         11    1    3    3    0    0 -0.24548664318E+02  0.22697080103E+01  0.16008951820E+00  0.24653886573E+02  0.51100000000E-03 0. -1.
        -11    1    3    3    0    0 -0.82360376112E+01  0.51413683096E+00 -0.16319708021E+01  0.84118952189E+01  0.51100000000E-03 0.  1.
        -12    1    3    3    0    0  0.36166666117E+02  0.83444582666E+01 -0.13204779400E+02  0.39395734804E+02  0.00000000000E+00 0.  1.
</event>
<event>
 7    1  0.3305651E-013  0.7246113E+02  0.7816164E-02  0.1226709E+00
        -11   -1    0    0    0    0  0.00000000000E+00  0.00000000000E+00  0.45593999997E+02  0.45594000000E+02  0.51100000000E-03 0. -1.
         11   -1    0    0    0    0 -0.00000000000E+00 -0.00000000000E+00 -0.45593999997E+02  0.45594000000E+02  0.51100000000E-03 0.  1.
    9900012    2    1    2    0    0 -0.88673095237E+01  0.16478706811E+02 -0.72026289918E+00  0.72461127998E+02  0.69999423824E+02 0.  0.
         12    1    1    2    0    0  0.88673095237E+01 -0.16478706811E+02  0.72026289918E+00  0.18726872002E+02  0.00000000000E+00 0. -1.
         11    1    3    3    0    0  0.16184114853E+02  0.71221143922E+01  0.10176333689E+02  0.20401172873E+02  0.51100000000E-03 0. -1.
        -11    1    3    3    0    0 -0.45519810593E+01  0.12007827041E+02  0.14464439663E+02  0.19342400493E+02  0.51100000000E-03 0.  1.
        -12    1    3    3    0    0 -0.20499443317E+02 -0.26512346222E+01 -0.25361036251E+02  0.32717554632E+02  0.00000000000E+00 0.  1.
</event>
<event>
 7    1  0.3305651E-013  0.7246157E+02  0.7816164E-02  0.1226708E+00
        -11   -1    0    0    0    0  0.00000000000E+00  0.00000000000E+00  0.45593999997E+02  0.45594000000E+02  0.51100000000E-03 0. -1.
         11   -1    0    0    0    0 -0.00000000000E+00 -0.00000000000E+00 -0.45593999997E+02  0.45594000000E+02  0.51100000000E-03 0.  1.
    9900012    2    1    2    0    0 -0.83216759832E+00 -0.17116539565E+02  0.75505367115E+01  0.72461573907E+02  0.70000004706E+02 0.  0.
         12    1    1    2    0    0  0.83216759832E+00  0.17116539565E+02 -0.75505367115E+01  0.18726426093E+02  0.00000000000E+00 0. -1.
         11    1    3    3    0    0 -0.63474448089E+01  0.80475509097E+01 -0.47460347010E+01  0.11295042138E+02  0.51100000000E-03 0. -1.
        -11    1    3    3    0    0 -0.72112042186E+01  0.13061356651E+02 -0.70176603346E+01  0.16487815522E+02  0.51100000000E-03 0.  1.
         12    1    3    3    0    0  0.12726481429E+02 -0.38225447126E+02  0.19314231747E+02  0.44678716247E+02  0.00000000000E+00 0. -1.
</event>
<event>
 7    1  0.3305651E-013  0.7246156E+02  0.7816164E-02  0.1226708E+00
        -11   -1    0    0    0    0  0.00000000000E+00  0.00000000000E+00  0.45593999997E+02  0.45594000000E+02  0.51100000000E-03 0.  1.
         11   -1    0    0    0    0 -0.00000000000E+00 -0.00000000000E+00 -0.45593999997E+02  0.45594000000E+02  0.51100000000E-03 0. -1.
    9900012    2    1    2    0    0 -0.16588155755E+02  0.86572570232E+01  0.75142114312E+00  0.72461557619E+02  0.69999983488E+02 0.  0.
         12    1    1    2    0    0  0.16588155755E+02 -0.86572570232E+01 -0.75142114312E+00  0.18726442381E+02  0.00000000000E+00 0. -1.
         11    1    3    3    0    0 -0.16731380438E+02  0.56941896771E+01 -0.16385899668E+02  0.24101049679E+02  0.51100000000E-03 0. -1.
        -11    1    3    3    0    0 -0.13318251138E+02 -0.16708028909E+02  0.73937098793E+01  0.22609754298E+02  0.51100000000E-03 0.  1.
        -12    1    3    3    0    0  0.13461475820E+02  0.19671096255E+02  0.97436109318E+01  0.25750753642E+02  0.00000000000E+00 0.  1.
</event>
<event>
 7    1  0.3305651E-013  0.7246156E+02  0.7816164E-02  0.1226708E+00
        -11   -1    0    0    0    0  0.00000000000E+00  0.00000000000E+00  0.45593999997E+02  0.45594000000E+02  0.51100000000E-03 0.  1.
         11   -1    0    0    0    0 -0.00000000000E+00 -0.00000000000E+00 -0.45593999997E+02  0.45594000000E+02  0.51100000000E-03 0. -1.
    9900012    2    1    2    0    0  0.81088788229E+01  0.14089873029E+02 -0.92952298920E+01  0.72461555156E+02  0.69999980280E+02 0.  0.
         12    1    1    2    0    0 -0.81088788229E+01 -0.14089873029E+02  0.92952298920E+01  0.18726444844E+02  0.00000000000E+00 0. -1.
         11    1    3    3    0    0 -0.12827954274E+01  0.80203898881E+01 -0.12577013366E+02  0.14971756194E+02  0.51100000000E-03 0. -1.
        -11    1    3    3    0    0 -0.15611880282E+02  0.16876131898E+02 -0.12336699494E+02  0.26090779760E+02  0.51100000000E-03 0.  1.
        -12    1    3    3    0    0  0.25003554533E+02 -0.10806648757E+02  0.15618482968E+02  0.31399019202E+02  0.00000000000E+00 0.  1.
</event>
<event>
 7    1  0.3305651E-013  0.7246162E+02  0.7816164E-02  0.1226708E+00
        -11   -1    0    0    0    0  0.00000000000E+00  0.00000000000E+00  0.45593999997E+02  0.45594000000E+02  0.51100000000E-03 0. -1.
         11   -1    0    0    0    0 -0.00000000000E+00 -0.00000000000E+00 -0.45593999997E+02  0.45594000000E+02  0.51100000000E-03 0.  1.
    9900012    2    1    2    0    0 -0.11584661409E+02  0.90327515488E+01 -0.11613887814E+02  0.72461618324E+02  0.70000062568E+02 0.  0.
         12    1    1    2    0    0  0.11584661409E+02 -0.90327515488E+01  0.11613887814E+02  0.18726381676E+02  0.00000000000E+00 0. -1.
         11    1    3    3    0    0 -0.33261004265E+02  0.11845047905E+02 -0.85701657454E+01  0.36332455267E+02  0.51100000000E-03 0. -1.
        -11    1    3    3    0    0 -0.53179620926E+01  0.55164506870E+01 -0.16914958238E+01  0.78468533428E+01  0.51100000000E-03 0.  1.
         12    1    3    3    0    0  0.26994304948E+02 -0.83287470437E+01 -0.13522262449E+01  0.28282309714E+02  0.00000000000E+00 0. -1.
</event>
<event>
 7    1  0.3305651E-013  0.7246158E+02  0.7816164E-02  0.1226708E+00
        -11   -1    0    0    0    0  0.00000000000E+00  0.00000000000E+00  0.45593999997E+02  0.45594000000E+02  0.51100000000E-03 0.  1.
         11   -1    0    0    0    0 -0.00000000000E+00 -0.00000000000E+00 -0.45593999997E+02  0.45594000000E+02  0.51100000000E-03 0. -1.
    9900012    2    1    2    0    0 -0.74351869183E+01 -0.17068610798E+02 -0.20147617698E+01  0.72461581654E+02  0.70000014798E+02 0.  0.
         12    1    1    2    0    0  0.74351869183E+01  0.17068610798E+02  0.20147617698E+01  0.18726418346E+02  0.00000000000E+00 0. -1.
         11    1    3    3    0    0 -0.92913945985E+01  0.27160564678E+01 -0.84941213694E+01  0.12878550944E+02  0.51100000000E-03 0. -1.
        -11    1    3    3    0    0  0.53845849131E+00  0.18714473564E+02  0.94024537268E+01  0.20950598909E+02  0.51100000000E-03 0.  1.
         12    1    3    3    0    0  0.13177491889E+01 -0.38499140830E+02 -0.29230941272E+01  0.38632431800E+02  0.00000000000E+00 0. -1.
</event>
<event>
 7    1  0.3305651E-013  0.7246158E+02  0.7816164E-02  0.1226708E+00
        -11   -1    0    0    0    0  0.00000000000E+00  0.00000000000E+00  0.45593999997E+02  0.45594000000E+02  0.51100000000E-03 0.  1.
         11   -1    0    0    0    0 -0.00000000000E+00 -0.00000000000E+00 -0.45593999997E+02  0.45594000000E+02  0.51100000000E-03 0. -1.
    9900012    2    1    2    0    0  0.14535608784E+02 -0.10009183089E+02 -0.62618778368E+01  0.72461580618E+02  0.70000013448E+02 0.  0.
         12    1    1    2    0    0 -0.14535608784E+02  0.10009183089E+02  0.62618778368E+01  0.18726419382E+02  0.00000000000E+00 0. -1.
         11    1    3    3    0    0  0.80751891661E+01  0.10648401520E+02 -0.90629868931E+01  0.16147286666E+02  0.51100000000E-03 0. -1.
        -11    1    3    3    0    0  0.28364157059E+02 -0.16251730815E+02  0.73672825318E+01  0.33510013613E+02  0.51100000000E-03 0.  1.
         12    1    3    3    0    0 -0.21903737442E+02 -0.44058537945E+01 -0.45661734755E+01  0.22804280339E+02  0.00000000000E+00 0. -1.
</event>
<event>
 7    1  0.3305651E-013  0.7246158E+02  0.7816164E-02  0.1226708E+00
        -11   -1    0    0    0    0  0.00000000000E+00  0.00000000000E+00  0.45593999997E+02  0.45594000000E+02  0.51100000000E-03 0. -1.
         11   -1    0    0    0    0 -0.00000000000E+00 -0.00000000000E+00 -0.45593999997E+02  0.45594000000E+02  0.51100000000E-03 0.  1.
    9900012    2    1    2    0    0  0.15092808484E+02  0.87527622977E+01 -0.68025780282E+01  0.72461580598E+02  0.70000013423E+02 0.  0.
         12    1    1    2    0    0 -0.15092808484E+02 -0.87527622977E+01  0.68025780282E+01  0.18726419402E+02  0.00000000000E+00 0. -1.
         11    1    3    3    0    0  0.42451847095E+01  0.11224533215E+02  0.85662310245E+01  0.14744221015E+02  0.51100000000E-03 0. -1.
        -11    1    3    3    0    0  0.32613739929E+02 -0.49645741973E+01 -0.13778798403E+02  0.35751340042E+02  0.51100000000E-03 0.  1.
         12    1    3    3    0    0 -0.21766116154E+02  0.24928032801E+01 -0.15900106498E+01  0.21966019541E+02  0.00000000000E+00 0. -1.
</event>
<event>
 7    1  0.3305651E-013  0.7246174E+02  0.7816164E-02  0.1226708E+00
        -11   -1    0    0    0    0  0.00000000000E+00  0.00000000000E+00  0.45593999997E+02  0.45594000000E+02  0.51100000000E-03 0.  1.
         11   -1    0    0    0    0 -0.00000000000E+00 -0.00000000000E+00 -0.45593999997E+02  0.45594000000E+02  0.51100000000E-03 0. -1.
    9900012    2    1    2    0    0 -0.13961184224E+02  0.27607958033E+01  0.12171121403E+02  0.72461738905E+02  0.70000219646E+02 0.  0.
         12    1    1    2    0    0  0.13961184224E+02 -0.27607958033E+01 -0.12171121403E+02  0.18726261095E+02  0.00000000000E+00 0. -1.
         11    1    3    3    0    0  0.12452149354E+02 -0.23499366817E+02  0.13783030686E+01  0.26630358315E+02  0.51100000000E-03 0. -1.
        -11    1    3    3    0    0 -0.99431732561E+00 -0.10520227941E+01  0.83133886969E+01  0.84384744350E+01  0.51100000000E-03 0.  1.
        -12    1    3    3    0    0 -0.25419016253E+02  0.27312185415E+02  0.24794296372E+01  0.37392906155E+02  0.00000000000E+00 0.  1.
</event>
<event>
 7    1  0.3305651E-013  0.7246153E+02  0.7816164E-02  0.1226708E+00
        -11   -1    0    0    0    0  0.00000000000E+00  0.00000000000E+00  0.45593999997E+02  0.45594000000E+02  0.51100000000E-03 0.  1.
         11   -1    0    0    0    0 -0.00000000000E+00 -0.00000000000E+00 -0.45593999997E+02  0.45594000000E+02  0.51100000000E-03 0. -1.
    9900012    2    1    2    0    0  0.13427398357E+02  0.62255440998E+01  0.11472937185E+02  0.72461529066E+02  0.69999946293E+02 0.  0.
         12    1    1    2    0    0 -0.13427398357E+02 -0.62255440998E+01 -0.11472937185E+02  0.18726470934E+02  0.00000000000E+00 0. -1.
         11    1    3    3    0    0  0.28776599450E+02  0.11439016066E+02 -0.98970529752E+00  0.30982628703E+02  0.51100000000E-03 0. -1.
        -11    1    3    3    0    0  0.73378534641E+01  0.98843239093E+01  0.37787449479E+01  0.12877222769E+02  0.51100000000E-03 0.  1.
        -12    1    3    3    0    0 -0.22687054558E+02 -0.15097795876E+02  0.86838975349E+01  0.28601677594E+02  0.00000000000E+00 0.  1.
</event>
<event>
 7    1  0.3305651E-013  0.7246157E+02  0.7816164E-02  0.1226708E+00
        -11   -1    0    0    0    0  0.00000000000E+00  0.00000000000E+00  0.45593999997E+02  0.45594000000E+02  0.51100000000E-03 0.  1.
         11   -1    0    0    0    0 -0.00000000000E+00 -0.00000000000E+00 -0.45593999997E+02  0.45594000000E+02  0.51100000000E-03 0. -1.
    9900012    2    1    2    0    0 -0.46580170875E+01 -0.17377078170E+02  0.51980075546E+01  0.72461568107E+02  0.69999997150E+02 0.  0.
         12    1    1    2    0    0  0.46580170875E+01  0.17377078170E+02 -0.51980075546E+01  0.18726431893E+02  0.00000000000E+00 0. -1.
         11    1    3    3    0    0 -0.47489739689E+01 -0.38380824975E+02  0.19813732553E+01  0.38724234269E+02  0.51100000000E-03 0. -1.
        -11    1    3    3    0    0 -0.18951658784E+01 -0.25643289495E+01 -0.72144126096E+01  0.78876603775E+01  0.51100000000E-03 0.  1.
        -12    1    3    3    0    0  0.19861227597E+01  0.23568075754E+02  0.10431046909E+02  0.25849673460E+02  0.00000000000E+00 0.  1.
</event>
<event>
 7    1  0.3305651E-013  0.7246161E+02  0.7816164E-02  0.1226708E+00
        -11   -1    0    0    0    0  0.00000000000E+00  0.00000000000E+00  0.45593999997E+02  0.45594000000E+02  0.51100000000E-03 0. -1.
         11   -1    0    0    0    0 -0.00000000000E+00 -0.00000000000E+00 -0.45593999997E+02  0.45594000000E+02  0.51100000000E-03 0.  1.
    9900012    2    1    2    0    0 -0.15751417475E+02  0.77395333148E+01 -0.65322452825E+01  0.72461608013E+02  0.70000049136E+02 0.  0.
         12    1    1    2    0    0  0.15751417475E+02 -0.77395333148E+01  0.65322452825E+01  0.18726391987E+02  0.00000000000E+00 0. -1.
         11    1    3    3    0    0  0.15781716059E+01  0.78648643428E+00 -0.78034174425E+01  0.80001569092E+01  0.51100000000E-03 0. -1.
        -11    1    3    3    0    0  0.97763375105E+01  0.48595389553E+01 -0.24611592267E+02  0.26924382410E+02  0.51100000000E-03 0.  1.
         12    1    3    3    0    0 -0.27105926591E+02  0.20935079252E+01  0.25882764427E+02  0.37537068695E+02  0.00000000000E+00 0. -1.
</event>
<event>
 7    1  0.3305651E-013  0.7246162E+02  0.7816164E-02  0.1226708E+00
        -11   -1    0    0    0    0  0.00000000000E+00  0.00000000000E+00  0.45593999997E+02  0.45594000000E+02  0.51100000000E-03 0. -1.
         11   -1    0    0    0    0 -0.00000000000E+00 -0.00000000000E+00 -0.45593999997E+02  0.45594000000E+02  0.51100000000E-03 0.  1.
    9900012    2    1    2    0    0 -0.71753336036E+01 -0.16908344939E+02 -0.36468952533E+01  0.72461617917E+02  0.70000062038E+02 0.  0.
         12    1    1    2    0    0  0.71753336036E+01  0.16908344939E+02  0.36468952533E+01  0.18726382083E+02  0.00000000000E+00 0. -1.
         11    1    3    3    0    0  0.22498333872E+02  0.92969215037E+01 -0.94524274697E+01  0.26114290375E+02  0.51100000000E-03 0. -1.
        -11    1    3    3    0    0  0.16478867311E+01 -0.35755388037E+01 -0.48663538142E+01  0.62595054214E+01  0.51100000000E-03 0.  1.
        -12    1    3    3    0    0 -0.31321554207E+02 -0.22629727639E+02  0.10671886030E+02  0.40087822121E+02  0.00000000000E+00 0.  1.
</event>
<event>
 7    1  0.3305651E-013  0.7246150E+02  0.7816164E-02  0.1226708E+00
        -11   -1    0    0    0    0  0.00000000000E+00  0.00000000000E+00  0.45593999997E+02  0.45594000000E+02  0.51100000000E-03 0. -1.
         11   -1    0    0    0    0 -0.00000000000E+00 -0.00000000000E+00 -0.45593999997E+02  0.45594000000E+02  0.51100000000E-03 0.  1.
    9900012    2    1    2    0    0 -0.58599005025E+01 -0.19383801634E+01 -0.17680107771E+02  0.72461495726E+02  0.69999902860E+02 0.  0.
         12    1    1    2    0    0  0.58599005025E+01  0.19383801634E+01  0.17680107771E+02  0.18726504274E+02  0.00000000000E+00 0. -1.
         11    1    3    3    0    0  0.18706896839E+02  0.23277761507E+01  0.51676186616E+01  0.19546631782E+02  0.51100000000E-03 0. -1.
        -11    1    3    3    0    0  0.46748517863E+01  0.84677673248E+01  0.47156399565E+01  0.10760789151E+02  0.51100000000E-03 0.  1.
        -12    1    3    3    0    0 -0.29241649127E+02 -0.12733923639E+02 -0.27563366389E+02  0.42154074792E+02  0.00000000000E+00 0.  1.
</event>
<event>
 7    1  0.3305651E-013  0.7246158E+02  0.7816164E-02  0.1226708E+00
        -11   -1    0    0    0    0  0.00000000000E+00  0.00000000000E+00  0.45593999997E+02  0.45594000000E+02  0.51100000000E-03 0.  1.
         11   -1    0    0    0    0 -0.00000000000E+00 -0.00000000000E+00 -0.45593999997E+02  0.45594000000E+02  0.51100000000E-03 0. -1.
    9900012    2    1    2    0    0  0.64301357011E+01  0.16913398146E+02 -0.48237889333E+01  0.72461584922E+02  0.70000019056E+02 0.  0.
         12    1    1    2    0    0 -0.64301357011E+01 -0.16913398146E+02  0.48237889333E+01  0.18726415078E+02  0.00000000000E+00 0. -1.
         11    1    3    3    0    0 -0.68162562559E+01 -0.91838734528E+01 -0.15245580769E+02  0.19058662445E+02  0.51100000000E-03 0. -1.
        -11    1    3    3    0    0 -0.14512743877E+02  0.59452842194E+01  0.10896269826E+02  0.19096984989E+02  0.51100000000E-03 0.  1.
         12    1    3    3    0    0  0.27759135834E+02  0.20151987380E+02 -0.47447799017E+00  0.34305937489E+02  0.00000000000E+00 0. -1.
</event>
<event>
 7    1  0.3305651E-013  0.7246157E+02  0.7816164E-02  0.1226708E+00
        -11   -1    0    0    0    0  0.00000000000E+00  0.00000000000E+00  0.45593999997E+02  0.45594000000E+02  0.51100000000E-03 0.  1.
         11   -1    0    0    0    0 -0.00000000000E+00 -0.00000000000E+00 -0.45593999997E+02  0.45594000000E+02  0.51100000000E-03 0. -1.
    9900012    2    1    2    0    0  0.13407345977E+02 -0.79288351822E+01  0.10394996715E+02  0.72461566539E+02  0.69999995108E+02 0.  0.
         12    1    1    2    0    0 -0.13407345977E+02  0.79288351822E+01 -0.10394996715E+02  0.18726433461E+02  0.00000000000E+00 0. -1.
         11    1    3    3    0    0 -0.14221230641E+01 -0.13469448407E+01  0.17188256400E+02  0.17299504407E+02  0.51100000000E-03 0. -1.
        -11    1    3    3    0    0  0.12064340171E+02 -0.22302261066E+02  0.13987733272E+02  0.28958519209E+02  0.51100000000E-03 0.  1.
         12    1    3    3    0    0  0.27651288697E+01  0.15720370725E+02 -0.20780992957E+02  0.26203542922E+02  0.00000000000E+00 0. -1.
</event>
<event>
 7    1  0.3305651E-013  0.7246157E+02  0.7816164E-02  0.1226708E+00
        -11   -1    0    0    0    0  0.00000000000E+00  0.00000000000E+00  0.45593999997E+02  0.45594000000E+02  0.51100000000E-03 0. -1.
         11   -1    0    0    0    0 -0.00000000000E+00 -0.00000000000E+00 -0.45593999997E+02  0.45594000000E+02  0.51100000000E-03 0.  1.
    9900012    2    1    2    0    0  0.15388005071E+02 -0.10620810655E+02 -0.10425626477E+01  0.72461567988E+02  0.69999996995E+02 0.  0.
         12    1    1    2    0    0 -0.15388005071E+02  0.10620810655E+02  0.10425626477E+01  0.18726432012E+02  0.00000000000E+00 0. -1.
         11    1    3    3    0    0 -0.74154704977E+01  0.12169061418E+02 -0.73112538431E+00  0.14269190695E+02  0.51100000000E-03 0. -1.
        -11    1    3    3    0    0  0.24632213438E+00  0.12171987491E+02  0.95019218465E+01  0.15443590033E+02  0.51100000000E-03 0.  1.
         12    1    3    3    0    0  0.22557153434E+02 -0.34961859564E+02 -0.98133591099E+01  0.42748787260E+02  0.00000000000E+00 0. -1.
</event>
<event>
 7    1  0.3305651E-013  0.7246159E+02  0.7816164E-02  0.1226708E+00
        -11   -1    0    0    0    0  0.00000000000E+00  0.00000000000E+00  0.45593999997E+02  0.45594000000E+02  0.51100000000E-03 0.  1.
         11   -1    0    0    0    0 -0.00000000000E+00 -0.00000000000E+00 -0.45593999997E+02  0.45594000000E+02  0.51100000000E-03 0. -1.
    9900012    2    1    2    0    0 -0.94176605090E+01 -0.16985614612E+01  0.16096618939E+02  0.72461585988E+02  0.70000020444E+02 0.  0.
         12    1    1    2    0    0  0.94176605090E+01  0.16985614612E+01 -0.16096618939E+02  0.18726414012E+02  0.00000000000E+00 0. -1.
         11    1    3    3    0    0 -0.74507729083E+01 -0.74400738644E+01 -0.80535808653E+01  0.13256277043E+02  0.51100000000E-03 0. -1.
        -11    1    3    3    0    0 -0.17399192735E+01 -0.24040543302E+02  0.84807716652E+01  0.25551879180E+02  0.51100000000E-03 0.  1.
        -12    1    3    3    0    0 -0.22696832715E+00  0.29782055706E+02  0.15669428139E+02  0.33653429764E+02  0.00000000000E+00 0.  1.
</event>
<event>
 7    1  0.3305651E-013  0.7246157E+02  0.7816164E-02  0.1226708E+00
        -11   -1    0    0    0    0  0.00000000000E+00  0.00000000000E+00  0.45593999997E+02  0.45594000000E+02  0.51100000000E-03 0. -1.
         11   -1    0    0    0    0 -0.00000000000E+00 -0.00000000000E+00 -0.45593999997E+02  0.45594000000E+02  0.51100000000E-03 0.  1.
    9900012    2    1    2    0    0  0.11523366162E+02 -0.12834810801E+02  0.72910099606E+01  0.72461570488E+02  0.70000000253E+02 0.  0.
         12    1    1    2    0    0 -0.11523366162E+02  0.12834810801E+02 -0.72910099606E+01  0.18726429512E+02  0.00000000000E+00 0. -1.
         11    1    3    3    0    0 -0.71945496633E+01 -0.90224619229E+01  0.23383666259E+02  0.26076085059E+02  0.51100000000E-03 0. -1.
        -11    1    3    3    0    0 -0.71770019090E+01 -0.13464277809E+02 -0.95042830812E+01  0.17975748398E+02  0.51100000000E-03 0.  1.
        -12    1    3    3    0    0  0.25894917734E+02  0.96519289302E+01 -0.65883732177E+01  0.28409737032E+02  0.00000000000E+00 0.  1.
</event>
<event>
 7    1  0.3305651E-013  0.7246153E+02  0.7816164E-02  0.1226708E+00
        -11   -1    0    0    0    0  0.00000000000E+00  0.00000000000E+00  0.45593999997E+02  0.45594000000E+02  0.51100000000E-03 0.  1.
         11   -1    0    0    0    0 -0.00000000000E+00 -0.00000000000E+00 -0.45593999997E+02  0.45594000000E+02  0.51100000000E-03 0. -1.
    9900012    2    1    2    0    0  0.13200414462E+01  0.34680299317E+01  0.18355136422E+02  0.72461527452E+02  0.69999944189E+02 0.  0.
         12    1    1    2    0    0 -0.13200414462E+01 -0.34680299317E+01 -0.18355136422E+02  0.18726472548E+02  0.00000000000E+00 0. -1.
         11    1    3    3    0    0  0.13025437320E+01  0.10849765504E+02 -0.54656537699E+01  0.12218322432E+02  0.51100000000E-03 0. -1.
        -11    1    3    3    0    0  0.66366427435E+00  0.21843397386E+02 -0.10266506669E+01  0.21877579196E+02  0.51100000000E-03 0.  1.
         12    1    3    3    0    0 -0.64616656010E+00 -0.29225132958E+02  0.24847440859E+02  0.38365625824E+02  0.00000000000E+00 0. -1.
</event>
<event>
 7    1  0.3305651E-013  0.7246159E+02  0.7816164E-02  0.1226708E+00
        -11   -1    0    0    0    0  0.00000000000E+00  0.00000000000E+00  0.45593999997E+02  0.45594000000E+02  0.51100000000E-03 0. -1.
         11   -1    0    0    0    0 -0.00000000000E+00 -0.00000000000E+00 -0.45593999997E+02  0.45594000000E+02  0.51100000000E-03 0.  1.
    9900012    2    1    2    0    0  0.13401870702E+02  0.12385588769E+02  0.42030485974E+01  0.72461586435E+02  0.70000021026E+02 0.  0.
         12    1    1    2    0    0 -0.13401870702E+02 -0.12385588769E+02 -0.42030485974E+01  0.18726413565E+02  0.00000000000E+00 0. -1.
         11    1    3    3    0    0  0.92281186053E+01 -0.40790636242E+01 -0.10321989817E+02  0.14434001770E+02  0.51100000000E-03 0. -1.
        -11    1    3    3    0    0  0.25210117675E+02  0.13531999314E+02 -0.51536941069E+01  0.29072763918E+02  0.51100000000E-03 0.  1.
        -12    1    3    3    0    0 -0.21036365578E+02  0.29326530791E+01  0.19678732522E+02  0.28954820747E+02  0.00000000000E+00 0.  1.
</event>
<event>
 7    1  0.3305651E-013  0.7246157E+02  0.7816164E-02  0.1226708E+00
        -11   -1    0    0    0    0  0.00000000000E+00  0.00000000000E+00  0.45593999997E+02  0.45594000000E+02  0.51100000000E-03 0.  1.
         11   -1    0    0    0    0 -0.00000000000E+00 -0.00000000000E+00 -0.45593999997E+02  0.45594000000E+02  0.51100000000E-03 0. -1.
    9900012    2    1    2    0    0 -0.66165922039E+01 -0.17518133827E+02  0.12179114071E+00  0.72461571129E+02  0.70000001087E+02 0.  0.
         12    1    1    2    0    0  0.66165922039E+01  0.17518133827E+02 -0.12179114071E+00  0.18726428871E+02  0.00000000000E+00 0. -1.
         11    1    3    3    0    0  0.19192050637E+02 -0.12379181645E+01  0.83184161462E+00  0.19249914539E+02  0.51100000000E-03 0. -1.
        -11    1    3    3    0    0  0.23657102492E+00 -0.23243049583E+02 -0.91217344113E+01  0.24970009185E+02  0.51100000000E-03 0.  1.
        -12    1    3    3    0    0 -0.26045213865E+02  0.69628339205E+01  0.84116839374E+01  0.28241647405E+02  0.00000000000E+00 0.  1.
</event>
<event>
 7    1  0.3305651E-013  0.7246157E+02  0.7816164E-02  0.1226708E+00
        -11   -1    0    0    0    0  0.00000000000E+00  0.00000000000E+00  0.45593999997E+02  0.45594000000E+02  0.51100000000E-03 0. -1.
         11   -1    0    0    0    0 -0.00000000000E+00 -0.00000000000E+00 -0.45593999997E+02  0.45594000000E+02  0.51100000000E-03 0.  1.
    9900012    2    1    2    0    0  0.16055727707E+02 -0.96366416831E+01  0.16740443753E+00  0.72461567361E+02  0.69999996179E+02 0.  0.
         12    1    1    2    0    0 -0.16055727707E+02  0.96366416831E+01 -0.16740443753E+00  0.18726432639E+02  0.00000000000E+00 0. -1.
         11    1    3    3    0    0 -0.98904465814E+01  0.16262328408E+02 -0.78179394583E+01  0.20576793639E+02  0.51100000000E-03 0. -1.
        -11    1    3    3    0    0 -0.76025334690E+01 -0.66110648013E+01  0.85025783415E+01  0.13183267109E+02  0.51100000000E-03 0.  1.
        -12    1    3    3    0    0  0.33548707757E+02 -0.19287905290E+02 -0.51723444566E+00  0.38701506613E+02  0.00000000000E+00 0.  1.
</event>
<event>
 7    1  0.3305651E-013  0.7246160E+02  0.7816164E-02  0.1226708E+00
        -11   -1    0    0    0    0  0.00000000000E+00  0.00000000000E+00  0.45593999997E+02  0.45594000000E+02  0.51100000000E-03 0. -1.
         11   -1    0    0    0    0 -0.00000000000E+00 -0.00000000000E+00 -0.45593999997E+02  0.45594000000E+02  0.51100000000E-03 0.  1.
    9900012    2    1    2    0    0 -0.17938379887E+02 -0.46187385601E+01 -0.27495479641E+01  0.72461595303E+02  0.70000032578E+02 0.  0.
         12    1    1    2    0    0  0.17938379887E+02  0.46187385601E+01  0.27495479641E+01  0.18726404697E+02  0.00000000000E+00 0. -1.
         11    1    3    3    0    0  0.72353260001E+01 -0.13947381838E+01 -0.24182660816E+01  0.77552078007E+01  0.51100000000E-03 0. -1.
        -11    1    3    3    0    0  0.20952919383E+01 -0.95740545174E+01 -0.25337325575E+02  0.27166759758E+02  0.51100000000E-03 0.  1.
        -12    1    3    3    0    0 -0.27268997826E+02  0.63500541411E+01  0.25006043692E+02  0.37539627744E+02  0.00000000000E+00 0.  1.
</event>
<event>
 7    1  0.3305651E-013  0.7246158E+02  0.7816164E-02  0.1226708E+00
        -11   -1    0    0    0    0  0.00000000000E+00  0.00000000000E+00  0.45593999997E+02  0.45594000000E+02  0.51100000000E-03 0. -1.
         11   -1    0    0    0    0 -0.00000000000E+00 -0.00000000000E+00 -0.45593999997E+02  0.45594000000E+02  0.51100000000E-03 0.  1.
    9900012    2    1    2    0    0  0.17129767966E+02 -0.79819054716E+00 -0.75241421671E+01  0.72461580853E+02  0.70000013755E+02 0.  0.
         12    1    1    2    0    0 -0.17129767966E+02  0.79819054716E+00  0.75241421671E+01  0.18726419147E+02  0.00000000000E+00 0. -1.
         11    1    3    3    0    0 -0.48146763178E+01  0.29356038899E+01  0.14145409434E+01  0.58137599353E+01  0.51100000000E-03 0. -1.
        -11    1    3    3    0    0  0.33499444454E+02  0.14330789900E+02  0.10273017022E+02  0.37856560817E+02  0.51100000000E-03 0.  1.
         12    1    3    3    0    0 -0.11555000171E+02 -0.18064584337E+02 -0.19211700132E+02  0.28791260101E+02  0.00000000000E+00 0. -1.
</event>
<event>
 7    1  0.3305651E-013  0.7246157E+02  0.7816164E-02  0.1226708E+00
        -11   -1    0    0    0    0  0.00000000000E+00  0.00000000000E+00  0.45593999997E+02  0.45594000000E+02  0.51100000000E-03 0. -1.
         11   -1    0    0    0    0 -0.00000000000E+00 -0.00000000000E+00 -0.45593999997E+02  0.45594000000E+02  0.51100000000E-03 0.  1.
    9900012    2    1    2    0    0 -0.80817304490E+00 -0.10979002059E+02 -0.15148843755E+02  0.72461572231E+02  0.70000002522E+02 0.  0.
         12    1    1    2    0    0  0.80817304490E+00  0.10979002059E+02  0.15148843755E+02  0.18726427769E+02  0.00000000000E+00 0. -1.
         11    1    3    3    0    0  0.79617453626E+01 -0.94541382897E+01 -0.38216287928E+01  0.12937347754E+02  0.51100000000E-03 0. -1.
        -11    1    3    3    0    0 -0.17766016894E+02 -0.24741480736E+02 -0.15663544340E+02  0.34250822572E+02  0.51100000000E-03 0.  1.
         12    1    3    3    0    0  0.89960984862E+01  0.23216616967E+02  0.43363293783E+01  0.25273401905E+02  0.00000000000E+00 0. -1.
</event>
<event>
 7    1  0.3305651E-013  0.7246159E+02  0.7816164E-02  0.1226708E+00
        -11   -1    0    0    0    0  0.00000000000E+00  0.00000000000E+00  0.45593999997E+02  0.45594000000E+02  0.51100000000E-03 0.  1.
         11   -1    0    0    0    0 -0.00000000000E+00 -0.00000000000E+00 -0.45593999997E+02  0.45594000000E+02  0.51100000000E-03 0. -1.
    9900012    2    1    2    0    0 -0.72280272525E+01  0.17053508315E+02  0.27589352220E+01  0.72461594916E+02  0.70000032074E+02 0.  0.
         12    1    1    2    0    0  0.72280272525E+01 -0.17053508315E+02 -0.27589352220E+01  0.18726405084E+02  0.00000000000E+00 0. -1.
         11    1    3    3    0    0  0.27154109767E+01 -0.94042432204E+01  0.65071428381E+01  0.11753984665E+02  0.51100000000E-03 0. -1.
        -11    1    3    3    0    0 -0.25884591563E+02 -0.15913755322E+01  0.67186419550E+01  0.26789638042E+02  0.51100000000E-03 0.  1.
         12    1    3    3    0    0  0.15941153333E+02  0.28049127067E+02 -0.10466849571E+02  0.33917972209E+02  0.00000000000E+00 0. -1.
</event>
<event>
 7    1  0.3305651E-013  0.7246158E+02  0.7816164E-02  0.1226708E+00
        -11   -1    0    0    0    0  0.00000000000E+00  0.00000000000E+00  0.45593999997E+02  0.45594000000E+02  0.51100000000E-03 0.  1.
         11   -1    0    0    0    0 -0.00000000000E+00 -0.00000000000E+00 -0.45593999997E+02  0.45594000000E+02  0.51100000000E-03 0. -1.
    9900012    2    1    2    0    0  0.16103615341E+02 -0.56519292130E+00  0.95411239495E+01  0.72461577055E+02  0.70000008807E+02 0.  0.
         12    1    1    2    0    0 -0.16103615341E+02  0.56519292130E+00 -0.95411239495E+01  0.18726422945E+02  0.00000000000E+00 0. -1.
         11    1    3    3    0    0  0.31084264034E+01  0.23308156556E+02 -0.29266238503E+01  0.23695940669E+02  0.51100000000E-03 0. -1.
        -11    1    3    3    0    0  0.10381169699E+01  0.82405985975E+01 -0.56090234634E+01  0.10022289986E+02  0.51100000000E-03 0.  1.
        -12    1    3    3    0    0  0.11957071968E+02 -0.32113948075E+02  0.18076771263E+02  0.38743346401E+02  0.00000000000E+00 0.  1.
</event>
<event>
 7    1  0.3305651E-013  0.7246171E+02  0.7816164E-02  0.1226708E+00
        -11   -1    0    0    0    0  0.00000000000E+00  0.00000000000E+00  0.45593999997E+02  0.45594000000E+02  0.51100000000E-03 0.  1.
         11   -1    0    0    0    0 -0.00000000000E+00 -0.00000000000E+00 -0.45593999997E+02  0.45594000000E+02  0.51100000000E-03 0. -1.
    9900012    2    1    2    0    0  0.69769171165E+01 -0.16918228223E+02  0.39711568391E+01  0.72461710851E+02  0.70000183101E+02 0.  0.
         12    1    1    2    0    0 -0.69769171165E+01  0.16918228223E+02 -0.39711568391E+01  0.18726289149E+02  0.00000000000E+00 0. -1.
         11    1    3    3    0    0 -0.23245897112E+01  0.54461544226E+01 -0.80132598020E+01  0.99637667694E+01  0.51100000000E-03 0. -1.
        -11    1    3    3    0    0 -0.91435724611E+01 -0.87597846669E+01 -0.19684433682E+02  0.23405462491E+02  0.51100000000E-03 0.  1.
        -12    1    3    3    0    0  0.18445079289E+02 -0.13604597979E+02  0.31668850323E+02  0.39092481591E+02  0.00000000000E+00 0.  1.
</event>
<event>
 7    1  0.3305651E-013  0.7246159E+02  0.7816164E-02  0.1226708E+00
        -11   -1    0    0    0    0  0.00000000000E+00  0.00000000000E+00  0.45593999997E+02  0.45594000000E+02  0.51100000000E-03 0.  1.
         11   -1    0    0    0    0 -0.00000000000E+00 -0.00000000000E+00 -0.45593999997E+02  0.45594000000E+02  0.51100000000E-03 0. -1.
    9900012    2    1    2    0    0 -0.17243989321E+02 -0.20597968746E+01  0.70057547237E+01  0.72461587366E+02  0.70000022239E+02 0.  0.
         12    1    1    2    0    0  0.17243989321E+02  0.20597968746E+01 -0.70057547237E+01  0.18726412634E+02  0.00000000000E+00 0. -1.
         11    1    3    3    0    0  0.13927902871E+01 -0.62724928494E+01 -0.24619113596E+02  0.25443757305E+02  0.51100000000E-03 0. -1.
        -11    1    3    3    0    0 -0.19690186075E+02 -0.59893205420E+01  0.95747553571E+01  0.22699148192E+02  0.51100000000E-03 0.  1.
        -12    1    3    3    0    0  0.10534064667E+01  0.10202016517E+02  0.22050112962E+02  0.24318681869E+02  0.00000000000E+00 0.  1.
</event>
<event>
 7    1  0.3305651E-013  0.7246160E+02  0.7816164E-02  0.1226708E+00
        -11   -1    0    0    0    0  0.00000000000E+00  0.00000000000E+00  0.45593999997E+02  0.45594000000E+02  0.51100000000E-03 0. -1.
         11   -1    0    0    0    0 -0.00000000000E+00 -0.00000000000E+00 -0.45593999997E+02  0.45594000000E+02  0.51100000000E-03 0.  1.
    9900012    2    1    2    0    0 -0.65203161124E+01 -0.77488932739E+01 -0.15751761877E+02  0.72461604954E+02  0.70000045151E+02 0.  0.
         12    1    1    2    0    0  0.65203161124E+01  0.77488932739E+01  0.15751761877E+02  0.18726395046E+02  0.00000000000E+00 0. -1.
         11    1    3    3    0    0  0.56772919627E+01 -0.24344750333E+01 -0.74406485544E+01  0.96706547808E+01  0.51100000000E-03 0. -1.
        -11    1    3    3    0    0  0.50748505731E-01  0.66800566943E+01 -0.32479783019E+02  0.33159644722E+02  0.51100000000E-03 0.  1.
         12    1    3    3    0    0 -0.12248356581E+02 -0.11994474935E+02  0.24168669696E+02  0.29631305452E+02  0.00000000000E+00 0. -1.
</event>
<event>
 7    1  0.3305651E-013  0.7246163E+02  0.7816164E-02  0.1226708E+00
        -11   -1    0    0    0    0  0.00000000000E+00  0.00000000000E+00  0.45593999997E+02  0.45594000000E+02  0.51100000000E-03 0.  1.
         11   -1    0    0    0    0 -0.00000000000E+00 -0.00000000000E+00 -0.45593999997E+02  0.45594000000E+02  0.51100000000E-03 0. -1.
    9900012    2    1    2    0    0 -0.17077652606E+00  0.14155409046E+02  0.12258553827E+02  0.72461630575E+02  0.70000078527E+02 0.  0.
         12    1    1    2    0    0  0.17077652606E+00 -0.14155409046E+02 -0.12258553827E+02  0.18726369425E+02  0.00000000000E+00 0. -1.
         11    1    3    3    0    0 -0.23888267536E+01 -0.15128929518E+01 -0.88699545741E+01  0.93097493387E+01  0.51100000000E-03 0. -1.
        -11    1    3    3    0    0  0.10169811230E+02 -0.20119776565E+02  0.11186870654E+02  0.25166973294E+02  0.51100000000E-03 0.  1.
         12    1    3    3    0    0 -0.79517610020E+01  0.35788078564E+02  0.99416377472E+01  0.37984907943E+02  0.00000000000E+00 0. -1.
</event>
<event>
 7    1  0.3305651E-013  0.7246150E+02  0.7816164E-02  0.1226708E+00
        -11   -1    0    0    0    0  0.00000000000E+00  0.00000000000E+00  0.45593999997E+02  0.45594000000E+02  0.51100000000E-03 0.  1.
         11   -1    0    0    0    0 -0.00000000000E+00 -0.00000000000E+00 -0.45593999997E+02  0.45594000000E+02  0.51100000000E-03 0. -1.
    9900012    2    1    2    0    0  0.11021566612E+02 -0.15061061564E+02 -0.15398794038E+01  0.72461501806E+02  0.69999910781E+02 0.  0.
         12    1    1    2    0    0 -0.11021566612E+02  0.15061061564E+02  0.15398794038E+01  0.18726498194E+02  0.00000000000E+00 0. -1.
         11    1    3    3    0    0  0.56039005856E+01  0.89622368832E+01 -0.16877749453E+02  0.19914412334E+02  0.51100000000E-03 0. -1.
        -11    1    3    3    0    0 -0.17959802617E+02 -0.10000766025E+02 -0.13218313502E+01  0.20598957971E+02  0.51100000000E-03 0.  1.
         12    1    3    3    0    0  0.23377468643E+02 -0.14022532422E+02  0.16659701400E+02  0.31948131501E+02  0.00000000000E+00 0. -1.
</event>
<event>
 7    1  0.3305651E-013  0.7246160E+02  0.7816164E-02  0.1226708E+00
        -11   -1    0    0    0    0  0.00000000000E+00  0.00000000000E+00  0.45593999997E+02  0.45594000000E+02  0.51100000000E-03 0. -1.
         11   -1    0    0    0    0 -0.00000000000E+00 -0.00000000000E+00 -0.45593999997E+02  0.45594000000E+02  0.51100000000E-03 0.  1.
    9900012    2    1    2    0    0  0.75567504303E+01  0.68527350103E+01 -0.15703932993E+02  0.72461602439E+02  0.70000041874E+02 0.  0.
         12    1    1    2    0    0 -0.75567504303E+01 -0.68527350103E+01  0.15703932993E+02  0.18726397561E+02  0.00000000000E+00 0. -1.
         11    1    3    3    0    0 -0.10067096819E+02 -0.83109873781E+00 -0.27766048292E+01  0.10476005828E+02  0.51100000000E-03 0. -1.
        -11    1    3    3    0    0  0.28583306804E+02 -0.71655788083E+01 -0.26057047832E+02  0.39335997374E+02  0.51100000000E-03 0.  1.
         12    1    3    3    0    0 -0.10959459555E+02  0.14849412556E+02  0.13129719668E+02  0.22649599236E+02  0.00000000000E+00 0. -1.
</event>
<event>
 7    1  0.3305651E-013  0.7246155E+02  0.7816164E-02  0.1226708E+00
        -11   -1    0    0    0    0  0.00000000000E+00  0.00000000000E+00  0.45593999997E+02  0.45594000000E+02  0.51100000000E-03 0.  1.
         11   -1    0    0    0    0 -0.00000000000E+00 -0.00000000000E+00 -0.45593999997E+02  0.45594000000E+02  0.51100000000E-03 0. -1.
    9900012    2    1    2    0    0 -0.90933092805E+01  0.15004959487E+02 -0.65454341955E+01  0.72461553683E+02  0.69999978360E+02 0.  0.
         12    1    1    2    0    0  0.90933092805E+01 -0.15004959487E+02  0.65454341955E+01  0.18726446317E+02  0.00000000000E+00 0. -1.
         11    1    3    3    0    0  0.14558170227E+01 -0.22400174337E+02 -0.14306604758E+02  0.26618905941E+02  0.51100000000E-03 0. -1.
        -11    1    3    3    0    0  0.42578544198E+01 -0.48193656042E+00  0.21030538825E+01  0.47733031543E+01  0.51100000000E-03 0.  1.
        -12    1    3    3    0    0 -0.14806980723E+02  0.37887070384E+02  0.56581166800E+01  0.41069344587E+02  0.00000000000E+00 0.  1.
</event>
<event>
 7    1  0.3305651E-013  0.7246159E+02  0.7816164E-02  0.1226708E+00
        -11   -1    0    0    0    0  0.00000000000E+00  0.00000000000E+00  0.45593999997E+02  0.45594000000E+02  0.51100000000E-03 0.  1.
         11   -1    0    0    0    0 -0.00000000000E+00 -0.00000000000E+00 -0.45593999997E+02  0.45594000000E+02  0.51100000000E-03 0. -1.
    9900012    2    1    2    0    0  0.14803772688E+02  0.11328493380E+02  0.17866399048E+01  0.72461587364E+02  0.70000022237E+02 0.  0.
         12    1    1    2    0    0 -0.14803772688E+02 -0.11328493380E+02 -0.17866399048E+01  0.18726412636E+02  0.00000000000E+00 0. -1.
         11    1    3    3    0    0  0.24243949629E+02 -0.10224079127E+02 -0.20041094330E+01  0.26387825649E+02  0.51100000000E-03 0.  1.
        -11    1    3    3    0    0  0.11879892404E+02 -0.40583446477E+01  0.18185350625E+00  0.12555280792E+02  0.51100000000E-03 0. -1.
         12    1    3    3    0    0 -0.21320069344E+02  0.25610917154E+02  0.36088958315E+01  0.33518480924E+02  0.00000000000E+00 0. -1.
</event>
<event>
 7    1  0.3305651E-013  0.7246150E+02  0.7816164E-02  0.1226708E+00
        -11   -1    0    0    0    0  0.00000000000E+00  0.00000000000E+00  0.45593999997E+02  0.45594000000E+02  0.51100000000E-03 0. -1.
         11   -1    0    0    0    0 -0.00000000000E+00 -0.00000000000E+00 -0.45593999997E+02  0.45594000000E+02  0.51100000000E-03 0.  1.
    9900012    2    1    2    0    0 -0.68150717776E+01 -0.15205462860E+02 -0.85457852225E+01  0.72461501417E+02  0.69999910274E+02 0.  0.
         12    1    1    2    0    0  0.68150717776E+01  0.15205462860E+02  0.85457852225E+01  0.18726498583E+02  0.00000000000E+00 0. -1.
         11    1    3    3    0    0 -0.62679077185E+01  0.14726557033E+02  0.70428069451E+01  0.17485973783E+02  0.51100000000E-03 0. -1.
        -11    1    3    3    0    0 -0.33907595848E+00  0.10517561122E+02  0.22593646304E+01  0.10762843177E+02  0.51100000000E-03 0.  1.
        -12    1    3    3    0    0 -0.20808810069E+00 -0.40449581015E+02 -0.17847956798E+02  0.44212684456E+02  0.00000000000E+00 0.  1.
</event>
<event>
 7    1  0.3305651E-013  0.7246155E+02  0.7816164E-02  0.1226708E+00
        -11   -1    0    0    0    0  0.00000000000E+00  0.00000000000E+00  0.45593999997E+02  0.45594000000E+02  0.51100000000E-03 0. -1.
         11   -1    0    0    0    0 -0.00000000000E+00 -0.00000000000E+00 -0.45593999997E+02  0.45594000000E+02  0.51100000000E-03 0.  1.
    9900012    2    1    2    0    0  0.10243719806E+02 -0.71006885948E+01 -0.13975921919E+02  0.72461548989E+02  0.69999972246E+02 0.  0.
         12    1    1    2    0    0 -0.10243719806E+02  0.71006885948E+01  0.13975921919E+02  0.18726451011E+02  0.00000000000E+00 0. -1.
         11    1    3    3    0    0  0.91556310447E+01 -0.50020674780E+00  0.94564568675E+01  0.13171953665E+02  0.51100000000E-03 0. -1.
        -11    1    3    3    0    0 -0.24645224642E+01 -0.17628558144E+02  0.12358814279E+02  0.21669799811E+02  0.51100000000E-03 0.  1.
         12    1    3    3    0    0  0.35526112257E+01  0.11028076297E+02 -0.35791193065E+02  0.37619795512E+02  0.00000000000E+00 0. -1.
</event>
<event>
 7    1  0.3305651E-013  0.7246146E+02  0.7816164E-02  0.1226708E+00
        -11   -1    0    0    0    0  0.00000000000E+00  0.00000000000E+00  0.45593999997E+02  0.45594000000E+02  0.51100000000E-03 0.  1.
         11   -1    0    0    0    0 -0.00000000000E+00 -0.00000000000E+00 -0.45593999997E+02  0.45594000000E+02  0.51100000000E-03 0. -1.
    9900012    2    1    2    0    0  0.11947334544E+02 -0.11314188166E+02  0.89405600262E+01  0.72461460807E+02  0.69999857372E+02 0.  0.
         12    1    1    2    0    0 -0.11947334544E+02  0.11314188166E+02 -0.89405600262E+01  0.18726539193E+02  0.00000000000E+00 0. -1.
         11    1    3    3    0    0  0.31734124614E+01  0.30620130607E+00  0.77159610405E+01  0.83486742019E+01  0.51100000000E-03 0. -1.
        -11    1    3    3    0    0  0.16784971241E+02  0.22261721313E+02  0.71816438795E+01  0.28790545400E+02  0.51100000000E-03 0.  1.
         12    1    3    3    0    0 -0.80110491582E+01 -0.33882110785E+02 -0.59570448937E+01  0.35322241205E+02  0.00000000000E+00 0. -1.
</event>
<event>
 7    1  0.3305651E-013  0.7246163E+02  0.7816164E-02  0.1226708E+00
        -11   -1    0    0    0    0  0.00000000000E+00  0.00000000000E+00  0.45593999997E+02  0.45594000000E+02  0.51100000000E-03 0. -1.
         11   -1    0    0    0    0 -0.00000000000E+00 -0.00000000000E+00 -0.45593999997E+02  0.45594000000E+02  0.51100000000E-03 0.  1.
    9900012    2    1    2    0    0 -0.76338738963E+01 -0.10271559799E+01 -0.17068858022E+02  0.72461628375E+02  0.70000075661E+02 0.  0.
         12    1    1    2    0    0  0.76338738963E+01  0.10271559799E+01  0.17068858022E+02  0.18726371625E+02  0.00000000000E+00 0. -1.
         11    1    3    3    0    0 -0.22444435391E+01  0.38756682278E+01 -0.12492562666E+02  0.13271113489E+02  0.51100000000E-03 0. -1.
        -11    1    3    3    0    0  0.70406241533E+00  0.14395283155E+02 -0.25995241289E+02  0.29723264473E+02  0.51100000000E-03 0.  1.
         12    1    3    3    0    0 -0.60934927725E+01 -0.19298107362E+02  0.21418945934E+02  0.29467250412E+02  0.00000000000E+00 0. -1.
</event>
<event>
 7    1  0.3305651E-013  0.7246162E+02  0.7816164E-02  0.1226708E+00
        -11   -1    0    0    0    0  0.00000000000E+00  0.00000000000E+00  0.45593999997E+02  0.45594000000E+02  0.51100000000E-03 0. -1.
         11   -1    0    0    0    0 -0.00000000000E+00 -0.00000000000E+00 -0.45593999997E+02  0.45594000000E+02  0.51100000000E-03 0.  1.
    9900012    2    1    2    0    0  0.11144081148E+02 -0.14839594076E+02 -0.25046505533E+01  0.72461618306E+02  0.70000062544E+02 0.  0.
         12    1    1    2    0    0 -0.11144081148E+02  0.14839594076E+02  0.25046505533E+01  0.18726381694E+02  0.00000000000E+00 0. -1.
         11    1    3    3    0    0 -0.44371160935E+01 -0.15821229511E+02 -0.25915219351E+02  0.30685467191E+02  0.51100000000E-03 0. -1.
        -11    1    3    3    0    0  0.51304369123E+01 -0.11968733674E+02 -0.38708028379E-01  0.13022037753E+02  0.51100000000E-03 0.  1.
         12    1    3    3    0    0  0.10450760329E+02  0.12950369109E+02  0.23449276827E+02  0.28754113361E+02  0.00000000000E+00 0. -1.
</event>
<event>
 7    1  0.3305651E-013  0.7246157E+02  0.7816164E-02  0.1226708E+00
        -11   -1    0    0    0    0  0.00000000000E+00  0.00000000000E+00  0.45593999997E+02  0.45594000000E+02  0.51100000000E-03 0. -1.
         11   -1    0    0    0    0 -0.00000000000E+00 -0.00000000000E+00 -0.45593999997E+02  0.45594000000E+02  0.51100000000E-03 0.  1.
    9900012    2    1    2    0    0 -0.57987551257E+00 -0.16901202304E+02  0.80431585785E+01  0.72461566948E+02  0.69999995641E+02 0.  0.
         12    1    1    2    0    0  0.57987551257E+00  0.16901202304E+02 -0.80431585785E+01  0.18726433052E+02  0.00000000000E+00 0. -1.
         11    1    3    3    0    0 -0.26491736197E+02 -0.26449080438E+01 -0.14022455480E+02  0.30090478282E+02  0.51100000000E-03 0. -1.
        -11    1    3    3    0    0  0.15167016308E+00 -0.40094753851E+01  0.12364781286E+02  0.12999488960E+02  0.51100000000E-03 0.  1.
        -12    1    3    3    0    0  0.25760190522E+02 -0.10246818875E+02  0.97008327721E+01  0.29371599705E+02  0.00000000000E+00 0.  1.
</event>
<event>
 7    1  0.3305651E-013  0.7246153E+02  0.7816164E-02  0.1226708E+00
        -11   -1    0    0    0    0  0.00000000000E+00  0.00000000000E+00  0.45593999997E+02  0.45594000000E+02  0.51100000000E-03 0.  1.
         11   -1    0    0    0    0 -0.00000000000E+00 -0.00000000000E+00 -0.45593999997E+02  0.45594000000E+02  0.51100000000E-03 0. -1.
    9900012    2    1    2    0    0 -0.11980542674E+02 -0.11872755372E+02  0.81354150963E+01  0.72461529385E+02  0.69999946708E+02 0.  0.
         12    1    1    2    0    0  0.11980542674E+02  0.11872755372E+02 -0.81354150963E+01  0.18726470615E+02  0.00000000000E+00 0. -1.
         11    1    3    3    0    0  0.20688987610E+02  0.67578685110E+01  0.12747828805E+02  0.25223206272E+02  0.51100000000E-03 0. -1.
        -11    1    3    3    0    0 -0.64457643277E+00 -0.43908432599E+01 -0.10774474726E+02  0.11652651595E+02  0.51100000000E-03 0.  1.
        -12    1    3    3    0    0 -0.32024953852E+02 -0.14239780623E+02  0.61620610170E+01  0.35585671518E+02  0.00000000000E+00 0.  1.
</event>
<event>
 7    1  0.3305651E-013  0.7246157E+02  0.7816164E-02  0.1226708E+00
        -11   -1    0    0    0    0  0.00000000000E+00  0.00000000000E+00  0.45593999997E+02  0.45594000000E+02  0.51100000000E-03 0.  1.
         11   -1    0    0    0    0 -0.00000000000E+00 -0.00000000000E+00 -0.45593999997E+02  0.45594000000E+02  0.51100000000E-03 0. -1.
    9900012    2    1    2    0    0  0.26483368780E+01  0.93182708089E+01  0.16026087753E+02  0.72461565536E+02  0.69999993801E+02 0.  0.
         12    1    1    2    0    0 -0.26483368780E+01 -0.93182708089E+01 -0.16026087753E+02  0.18726434464E+02  0.00000000000E+00 0. -1.
         11    1    3    3    0    0 -0.18075081881E+02  0.13544988445E+02  0.24037322878E+02  0.32984362786E+02  0.51100000000E-03 0. -1.
        -11    1    3    3    0    0 -0.88150675894E+01 -0.17943654382E+01 -0.24240183924E+01  0.93167070019E+01  0.51100000000E-03 0.  1.
        -12    1    3    3    0    0  0.29538486348E+02 -0.24323521976E+01 -0.55872167326E+01  0.30160495748E+02  0.00000000000E+00 0.  1.
</event>
<event>
 7    1  0.3305651E-013  0.7246159E+02  0.7816164E-02  0.1226708E+00
        -11   -1    0    0    0    0  0.00000000000E+00  0.00000000000E+00  0.45593999997E+02  0.45594000000E+02  0.51100000000E-03 0. -1.
         11   -1    0    0    0    0 -0.00000000000E+00 -0.00000000000E+00 -0.45593999997E+02  0.45594000000E+02  0.51100000000E-03 0.  1.
    9900012    2    1    2    0    0  0.10887234883E+02 -0.87609527230E+01 -0.12465647948E+02  0.72461586708E+02  0.70000021382E+02 0.  0.
         12    1    1    2    0    0 -0.10887234883E+02  0.87609527230E+01  0.12465647948E+02  0.18726413292E+02  0.00000000000E+00 0. -1.
         11    1    3    3    0    0 -0.16395612725E+01  0.72516776615E+01 -0.50295738038E+01  0.89761686136E+01  0.51100000000E-03 0. -1.
        -11    1    3    3    0    0  0.60529746928E+01  0.14734851079E+02 -0.23348042865E+02  0.28264561642E+02  0.51100000000E-03 0.  1.
         12    1    3    3    0    0  0.64738214626E+01 -0.30747481464E+02  0.15911968720E+02  0.35220856452E+02  0.00000000000E+00 0. -1.
</event>
<event>
 7    1  0.3305651E-013  0.7246159E+02  0.7816164E-02  0.1226708E+00
        -11   -1    0    0    0    0  0.00000000000E+00  0.00000000000E+00  0.45593999997E+02  0.45594000000E+02  0.51100000000E-03 0.  1.
         11   -1    0    0    0    0 -0.00000000000E+00 -0.00000000000E+00 -0.45593999997E+02  0.45594000000E+02  0.51100000000E-03 0. -1.
    9900012    2    1    2    0    0  0.11908116487E+02  0.11062541731E+02  0.93002789111E+01  0.72461594695E+02  0.70000031787E+02 0.  0.
         12    1    1    2    0    0 -0.11908116487E+02 -0.11062541731E+02 -0.93002789111E+01  0.18726405305E+02  0.00000000000E+00 0. -1.
         11    1    3    3    0    0  0.20257332337E+02 -0.14185611503E+02 -0.13508536598E+02  0.28179276932E+02  0.51100000000E-03 0. -1.
        -11    1    3    3    0    0  0.56309385649E+01 -0.25757783473E+01  0.70496018234E+01  0.93829094286E+01  0.51100000000E-03 0.  1.
         12    1    3    3    0    0 -0.13980154415E+02  0.27823931581E+02  0.15759213686E+02  0.34899408334E+02  0.00000000000E+00 0. -1.
</event>
<event>
 7    1  0.3305651E-013  0.7246151E+02  0.7816164E-02  0.1226708E+00
        -11   -1    0    0    0    0  0.00000000000E+00  0.00000000000E+00  0.45593999997E+02  0.45594000000E+02  0.51100000000E-03 0.  1.
         11   -1    0    0    0    0 -0.00000000000E+00 -0.00000000000E+00 -0.45593999997E+02  0.45594000000E+02  0.51100000000E-03 0. -1.
    9900012    2    1    2    0    0  0.60274538639E+01  0.10017707757E+02 -0.14628626662E+02  0.72461511092E+02  0.69999922878E+02 0.  0.
         12    1    1    2    0    0 -0.60274538639E+01 -0.10017707757E+02  0.14628626662E+02  0.18726488908E+02  0.00000000000E+00 0. -1.
         11    1    3    3    0    0  0.13252641541E+02  0.58326695483E+01 -0.50307092192E+01  0.15328423838E+02  0.51100000000E-03 0. -1.
        -11    1    3    3    0    0 -0.25461506872E+02  0.84133446459E+01 -0.21993390046E+02  0.34681146265E+02  0.51100000000E-03 0.  1.
         12    1    3    3    0    0  0.18236319195E+02 -0.42283064376E+01  0.12395472602E+02  0.22451940989E+02  0.00000000000E+00 0. -1.
</event>
<event>
 7    1  0.3305651E-013  0.7246195E+02  0.7816164E-02  0.1226707E+00
        -11   -1    0    0    0    0  0.00000000000E+00  0.00000000000E+00  0.45593999997E+02  0.45594000000E+02  0.51100000000E-03 0. -1.
         11   -1    0    0    0    0 -0.00000000000E+00 -0.00000000000E+00 -0.45593999997E+02  0.45594000000E+02  0.51100000000E-03 0.  1.
    9900012    2    1    2    0    0 -0.76571660432E+01  0.62094808257E+01  0.15920897650E+02  0.72461953276E+02  0.70000498902E+02 0.  0.
         12    1    1    2    0    0  0.76571660432E+01 -0.62094808257E+01 -0.15920897650E+02  0.18726046724E+02  0.00000000000E+00 0. -1.
         11    1    3    3    0    0 -0.16282281160E+02  0.74613851477E+01  0.13275249098E+02  0.22293882277E+02  0.51100000000E-03 0. -1.
        -11    1    3    3    0    0 -0.92050922383E+01  0.17577147397E+02 -0.89440964921E+01  0.21764344604E+02  0.51100000000E-03 0.  1.
         12    1    3    3    0    0  0.17830207355E+02 -0.18829051719E+02  0.11589745044E+02  0.28403726395E+02  0.00000000000E+00 0. -1.
</event>
<event>
 7    1  0.3305651E-013  0.7246160E+02  0.7816164E-02  0.1226708E+00
        -11   -1    0    0    0    0  0.00000000000E+00  0.00000000000E+00  0.45593999997E+02  0.45594000000E+02  0.51100000000E-03 0. -1.
         11   -1    0    0    0    0 -0.00000000000E+00 -0.00000000000E+00 -0.45593999997E+02  0.45594000000E+02  0.51100000000E-03 0.  1.
    9900012    2    1    2    0    0 -0.55875281154E+01 -0.10960707719E+02 -0.14118087214E+02  0.72461602302E+02  0.70000041696E+02 0.  0.
         12    1    1    2    0    0  0.55875281154E+01  0.10960707719E+02  0.14118087214E+02  0.18726397698E+02  0.00000000000E+00 0. -1.
         11    1    3    3    0    0  0.22710106852E+01  0.15291513386E+02  0.38803504951E+01  0.15938788894E+02  0.51100000000E-03 0. -1.
        -11    1    3    3    0    0 -0.24771381675E+01  0.10644883282E+02  0.57153135315E+01  0.12333473258E+02  0.51100000000E-03 0.  1.
        -12    1    3    3    0    0 -0.53814006330E+01 -0.36897104388E+02 -0.23713751241E+02  0.44189340150E+02  0.00000000000E+00 0.  1.
</event>
<event>
 7    1  0.3305651E-013  0.7246155E+02  0.7816164E-02  0.1226708E+00
        -11   -1    0    0    0    0  0.00000000000E+00  0.00000000000E+00  0.45593999997E+02  0.45594000000E+02  0.51100000000E-03 0.  1.
         11   -1    0    0    0    0 -0.00000000000E+00 -0.00000000000E+00 -0.45593999997E+02  0.45594000000E+02  0.51100000000E-03 0. -1.
    9900012    2    1    2    0    0 -0.40328308082E+01  0.17831857009E+02  0.40547625781E+01  0.72461549502E+02  0.69999972914E+02 0.  0.
         12    1    1    2    0    0  0.40328308082E+01 -0.17831857009E+02 -0.40547625781E+01  0.18726450498E+02  0.00000000000E+00 0. -1.
         11    1    3    3    0    0 -0.25076699195E+02 -0.17393253020E+01  0.70282136398E+01  0.26100993893E+02  0.51100000000E-03 0. -1.
        -11    1    3    3    0    0  0.25866725720E+01 -0.14895840432E+01 -0.15426419624E+02  0.15712547798E+02  0.51100000000E-03 0.  1.
        -12    1    3    3    0    0  0.18457195814E+02  0.21060766354E+02  0.12452968562E+02  0.30648007810E+02  0.00000000000E+00 0.  1.
</event>
<event>
 7    1  0.3305651E-013  0.7246161E+02  0.7816164E-02  0.1226708E+00
        -11   -1    0    0    0    0  0.00000000000E+00  0.00000000000E+00  0.45593999997E+02  0.45594000000E+02  0.51100000000E-03 0.  1.
         11   -1    0    0    0    0 -0.00000000000E+00 -0.00000000000E+00 -0.45593999997E+02  0.45594000000E+02  0.51100000000E-03 0. -1.
    9900012    2    1    2    0    0  0.65455116117E+01  0.17041887304E+02  0.41723114303E+01  0.72461606118E+02  0.70000046667E+02 0.  0.
         12    1    1    2    0    0 -0.65455116117E+01 -0.17041887304E+02 -0.41723114303E+01  0.18726393882E+02  0.00000000000E+00 0. -1.
         11    1    3    3    0    0  0.84164207476E+01  0.84850132579E+00  0.17634940060E+01  0.86409492575E+01  0.51100000000E-03 0. -1.
        -11    1    3    3    0    0  0.21412945155E+02  0.24132463965E+02  0.15677521446E+02  0.35870248343E+02  0.51100000000E-03 0.  1.
         12    1    3    3    0    0 -0.23283854291E+02 -0.79390779866E+01 -0.13268704021E+02  0.27950408518E+02  0.00000000000E+00 0. -1.
</event>
<event>
 7    1  0.3305651E-013  0.7246171E+02  0.7816164E-02  0.1226708E+00
        -11   -1    0    0    0    0  0.00000000000E+00  0.00000000000E+00  0.45593999997E+02  0.45594000000E+02  0.51100000000E-03 0. -1.
         11   -1    0    0    0    0 -0.00000000000E+00 -0.00000000000E+00 -0.45593999997E+02  0.45594000000E+02  0.51100000000E-03 0.  1.
    9900012    2    1    2    0    0  0.50981029185E+01 -0.15558152624E+02  0.90899479977E+01  0.72461710431E+02  0.70000182553E+02 0.  0.
         12    1    1    2    0    0 -0.50981029185E+01  0.15558152624E+02 -0.90899479977E+01  0.18726289569E+02  0.00000000000E+00 0. -1.
         11    1    3    3    0    0 -0.79604348518E+01 -0.40136603385E+01  0.20517197021E+01  0.91480897645E+01  0.51100000000E-03 0. -1.
        -11    1    3    3    0    0  0.22058397495E+02 -0.25507054692E+02 -0.13995650975E+02  0.36511107702E+02  0.51100000000E-03 0.  1.
         12    1    3    3    0    0 -0.89998597244E+01  0.13962562407E+02  0.21033879271E+02  0.26802512965E+02  0.00000000000E+00 0. -1.
</event>
<event>
 7    1  0.3305651E-013  0.7246161E+02  0.7816164E-02  0.1226708E+00
        -11   -1    0    0    0    0  0.00000000000E+00  0.00000000000E+00  0.45593999997E+02  0.45594000000E+02  0.51100000000E-03 0.  1.
         11   -1    0    0    0    0 -0.00000000000E+00 -0.00000000000E+00 -0.45593999997E+02  0.45594000000E+02  0.51100000000E-03 0. -1.
    9900012    2    1    2    0    0  0.11056595076E+02 -0.12975982027E+02  0.77493983036E+01  0.72461612780E+02  0.70000055345E+02 0.  0.
         12    1    1    2    0    0 -0.11056595076E+02  0.12975982027E+02 -0.77493983036E+01  0.18726387220E+02  0.00000000000E+00 0. -1.
         11    1    3    3    0    0 -0.12568008228E+02 -0.10259145420E+02 -0.47102733777E+01  0.16893536371E+02  0.51100000000E-03 0. -1.
        -11    1    3    3    0    0 -0.20291006727E+00 -0.15302392545E+02 -0.11788177792E+02  0.19317492747E+02  0.51100000000E-03 0.  1.
        -12    1    3    3    0    0  0.23827513371E+02  0.12585555938E+02  0.24247849474E+02  0.36250583662E+02  0.00000000000E+00 0.  1.
</event>
<event>
 7    1  0.3305651E-013  0.7246155E+02  0.7816164E-02  0.1226708E+00
        -11   -1    0    0    0    0  0.00000000000E+00  0.00000000000E+00  0.45593999997E+02  0.45594000000E+02  0.51100000000E-03 0. -1.
         11   -1    0    0    0    0 -0.00000000000E+00 -0.00000000000E+00 -0.45593999997E+02  0.45594000000E+02  0.51100000000E-03 0.  1.
    9900012    2    1    2    0    0  0.18682102547E+02  0.12848801978E+01  0.90183484598E-01  0.72461547967E+02  0.69999970914E+02 0.  0.
         12    1    1    2    0    0 -0.18682102547E+02 -0.12848801978E+01 -0.90183484598E-01  0.18726452033E+02  0.00000000000E+00 0. -1.
         11    1    3    3    0    0  0.19704328234E+01 -0.78870454175E+01  0.34488580432E+01  0.88307821280E+01  0.51100000000E-03 0. -1.
        -11    1    3    3    0    0 -0.22670034351E+02 -0.15616765324E+01 -0.11591131516E+01  0.22753303818E+02  0.51100000000E-03 0.  1.
         12    1    3    3    0    0  0.39381704074E+02  0.10733602148E+02 -0.21995614071E+01  0.40877462021E+02  0.00000000000E+00 0. -1.
</event>
<event>
 7    1  0.3305651E-013  0.7246159E+02  0.7816164E-02  0.1226708E+00
        -11   -1    0    0    0    0  0.00000000000E+00  0.00000000000E+00  0.45593999997E+02  0.45594000000E+02  0.51100000000E-03 0. -1.
         11   -1    0    0    0    0 -0.00000000000E+00 -0.00000000000E+00 -0.45593999997E+02  0.45594000000E+02  0.51100000000E-03 0.  1.
    9900012    2    1    2    0    0 -0.16753730271E+02  0.50411976293E+01 -0.66766318674E+01  0.72461586446E+02  0.70000021040E+02 0.  0.
         12    1    1    2    0    0  0.16753730271E+02 -0.50411976293E+01  0.66766318674E+01  0.18726413554E+02  0.00000000000E+00 0. -1.
         11    1    3    3    0    0 -0.20706953387E+02 -0.19517221908E+02  0.16608209178E+02  0.32947419958E+02  0.51100000000E-03 0. -1.
        -11    1    3    3    0    0 -0.51012385859E+01  0.79976388231E+01 -0.17271390257E+02  0.19704968499E+02  0.51100000000E-03 0.  1.
        -12    1    3    3    0    0  0.90544617023E+01  0.16560780714E+02 -0.60134507881E+01  0.19809197989E+02  0.00000000000E+00 0.  1.
</event>
<event>
 7    1  0.3305651E-013  0.7246158E+02  0.7816164E-02  0.1226708E+00
        -11   -1    0    0    0    0  0.00000000000E+00  0.00000000000E+00  0.45593999997E+02  0.45594000000E+02  0.51100000000E-03 0.  1.
         11   -1    0    0    0    0 -0.00000000000E+00 -0.00000000000E+00 -0.45593999997E+02  0.45594000000E+02  0.51100000000E-03 0. -1.
    9900012    2    1    2    0    0  0.67850456478E+01 -0.91741705387E+01  0.14848447201E+02  0.72461584598E+02  0.70000018634E+02 0.  0.
         12    1    1    2    0    0 -0.67850456478E+01  0.91741705387E+01 -0.14848447201E+02  0.18726415402E+02  0.00000000000E+00 0. -1.
         11    1    3    3    0    0  0.12916503964E+02 -0.26279721839E+00 -0.13357626400E+02  0.18583092324E+02  0.51100000000E-03 0. -1.
        -11    1    3    3    0    0  0.74686791473E+01  0.15389732144E+02  0.16175570645E+02  0.23543026773E+02  0.51100000000E-03 0.  1.
        -12    1    3    3    0    0 -0.13600137463E+02 -0.24301105465E+02  0.12030502956E+02  0.30335465502E+02  0.00000000000E+00 0.  1.
</event>
<event>
 7    1  0.3305651E-013  0.7246160E+02  0.7816164E-02  0.1226708E+00
        -11   -1    0    0    0    0  0.00000000000E+00  0.00000000000E+00  0.45593999997E+02  0.45594000000E+02  0.51100000000E-03 0. -1.
         11   -1    0    0    0    0 -0.00000000000E+00 -0.00000000000E+00 -0.45593999997E+02  0.45594000000E+02  0.51100000000E-03 0.  1.
    9900012    2    1    2    0    0  0.16153089196E+02 -0.37342180682E+01 -0.87069668870E+01  0.72461602922E+02  0.70000042503E+02 0.  0.
         12    1    1    2    0    0 -0.16153089196E+02  0.37342180682E+01  0.87069668870E+01  0.18726397078E+02  0.00000000000E+00 0. -1.
         11    1    3    3    0    0  0.11659995752E+02 -0.64833921412E+01  0.14469189921E+02  0.19681141527E+02  0.51100000000E-03 0. -1.
        -11    1    3    3    0    0  0.47236037455E+01 -0.21229150710E+02 -0.40831769785E+01  0.22128298776E+02  0.51100000000E-03 0.  1.
        -12    1    3    3    0    0 -0.23051030140E+00  0.23978324783E+02 -0.19092979829E+02  0.30652162618E+02  0.00000000000E+00 0.  1.
</event>
<event>
 7    1  0.3305651E-013  0.7246157E+02  0.7816164E-02  0.1226708E+00
        -11   -1    0    0    0    0  0.00000000000E+00  0.00000000000E+00  0.45593999997E+02  0.45594000000E+02  0.51100000000E-03 0. -1.
         11   -1    0    0    0    0 -0.00000000000E+00 -0.00000000000E+00 -0.45593999997E+02  0.45594000000E+02  0.51100000000E-03 0.  1.
    9900012    2    1    2    0    0  0.97244187277E+01  0.72084559429E+01 -0.14288206525E+02  0.72461574757E+02  0.70000005814E+02 0.  0.
         12    1    1    2    0    0 -0.97244187277E+01 -0.72084559429E+01  0.14288206525E+02  0.18726425243E+02  0.00000000000E+00 0. -1.
         11    1    3    3    0    0  0.11556246096E+02  0.26273195466E+02 -0.22432812894E+02  0.36428817143E+02  0.51100000000E-03 0. -1.
        -11    1    3    3    0    0  0.84576830473E+01 -0.20661304450E+02 -0.75055838983E+00  0.22337977577E+02  0.51100000000E-03 0.  1.
        -12    1    3    3    0    0 -0.10289510416E+02  0.15965649263E+01  0.88951647594E+01  0.13694780037E+02  0.00000000000E+00 0.  1.
</event>
<event>
 7    1  0.3305651E-013  0.7246155E+02  0.7816164E-02  0.1226708E+00
        -11   -1    0    0    0    0  0.00000000000E+00  0.00000000000E+00  0.45593999997E+02  0.45594000000E+02  0.51100000000E-03 0.  1.
         11   -1    0    0    0    0 -0.00000000000E+00 -0.00000000000E+00 -0.45593999997E+02  0.45594000000E+02  0.51100000000E-03 0. -1.
    9900012    2    1    2    0    0  0.16452146860E+02 -0.89401080750E+01  0.28497669915E+00  0.72461551313E+02  0.69999975273E+02 0.  0.
         12    1    1    2    0    0 -0.16452146860E+02  0.89401080750E+01 -0.28497669915E+00  0.18726448687E+02  0.00000000000E+00 0. -1.
         11    1    3    3    0    0 -0.93345542169E+00  0.19703346436E+01  0.19995683426E+02  0.20114196816E+02  0.51100000000E-03 0. -1.
        -11    1    3    3    0    0  0.12224140503E+02 -0.28964438723E+01  0.13117732987E+02  0.18162982055E+02  0.51100000000E-03 0.  1.
         12    1    3    3    0    0  0.51614617787E+01 -0.80139988463E+01 -0.32828439714E+02  0.34184372442E+02  0.00000000000E+00 0. -1.
</event>
<event>
 7    1  0.3305651E-013  0.7246153E+02  0.7816164E-02  0.1226708E+00
        -11   -1    0    0    0    0  0.00000000000E+00  0.00000000000E+00  0.45593999997E+02  0.45594000000E+02  0.51100000000E-03 0. -1.
         11   -1    0    0    0    0 -0.00000000000E+00 -0.00000000000E+00 -0.45593999997E+02  0.45594000000E+02  0.51100000000E-03 0.  1.
    9900012    2    1    2    0    0  0.69984266803E+01 -0.46831874446E+01 -0.16726337077E+02  0.72461532830E+02  0.69999951196E+02 0.  0.
         12    1    1    2    0    0 -0.69984266803E+01  0.46831874446E+01  0.16726337077E+02  0.18726467170E+02  0.00000000000E+00 0. -1.
         11    1    3    3    0    0  0.13467964719E+02  0.34041536577E+01  0.23409499301E+02  0.27220929330E+02  0.51100000000E-03 0. -1.
        -11    1    3    3    0    0  0.89963526566E-01 -0.98446550114E+01 -0.88885504072E+01  0.13263923037E+02  0.51100000000E-03 0.  1.
        -12    1    3    3    0    0 -0.65595015653E+01  0.17573139091E+01 -0.31247285970E+02  0.31976680464E+02  0.00000000000E+00 0.  1.
</event>
<event>
 7    1  0.3305651E-013  0.7246153E+02  0.7816164E-02  0.1226708E+00
        -11   -1    0    0    0    0  0.00000000000E+00  0.00000000000E+00  0.45593999997E+02  0.45594000000E+02  0.51100000000E-03 0.  1.
         11   -1    0    0    0    0 -0.00000000000E+00 -0.00000000000E+00 -0.45593999997E+02  0.45594000000E+02  0.51100000000E-03 0. -1.
    9900012    2    1    2    0    0  0.16847378353E+02  0.74725890894E+01 -0.33176482571E+01  0.72461533835E+02  0.69999952505E+02 0.  0.
         12    1    1    2    0    0 -0.16847378353E+02 -0.74725890894E+01  0.33176482571E+01  0.18726466165E+02  0.00000000000E+00 0. -1.
         11    1    3    3    0    0 -0.22409676781E+01  0.80036432741E+01 -0.68628644829E+01  0.10778643280E+02  0.51100000000E-03 0. -1.
        -11    1    3    3    0    0  0.82054066089E+01 -0.47505443313E+01 -0.27195431121E+02  0.28800830599E+02  0.51100000000E-03 0.  1.
        -12    1    3    3    0    0  0.10882939422E+02  0.42194901466E+01  0.30740647347E+02  0.32882059955E+02  0.00000000000E+00 0.  1.
</event>
<event>
 7    1  0.3305651E-013  0.7246158E+02  0.7816164E-02  0.1226708E+00
        -11   -1    0    0    0    0  0.00000000000E+00  0.00000000000E+00  0.45593999997E+02  0.45594000000E+02  0.51100000000E-03 0.  1.
         11   -1    0    0    0    0 -0.00000000000E+00 -0.00000000000E+00 -0.45593999997E+02  0.45594000000E+02  0.51100000000E-03 0. -1.
    9900012    2    1    2    0    0  0.10499810386E+02 -0.10151955708E+02  0.11720515901E+02  0.72461582408E+02  0.70000015780E+02 0.  0.
         12    1    1    2    0    0 -0.10499810386E+02  0.10151955708E+02 -0.11720515901E+02  0.18726417592E+02  0.00000000000E+00 0. -1.
         11    1    3    3    0    0 -0.46724823486E+01 -0.23626476731E+01 -0.84187895905E+01  0.99141421089E+01  0.51100000000E-03 0. -1.
        -11    1    3    3    0    0 -0.15048736005E+02 -0.21249809830E+02  0.10627375464E+02  0.28124010786E+02  0.51100000000E-03 0.  1.
        -12    1    3    3    0    0  0.30221028740E+02  0.13460501794E+02  0.95119300272E+01  0.34423429514E+02  0.00000000000E+00 0.  1.
</event>
<event>
 7    1  0.3305651E-013  0.7246158E+02  0.7816164E-02  0.1226708E+00
        -11   -1    0    0    0    0  0.00000000000E+00  0.00000000000E+00  0.45593999997E+02  0.45594000000E+02  0.51100000000E-03 0. -1.
         11   -1    0    0    0    0 -0.00000000000E+00 -0.00000000000E+00 -0.45593999997E+02  0.45594000000E+02  0.51100000000E-03 0.  1.
    9900012    2    1    2    0    0 -0.16798455520E+02  0.80912877877E+01 -0.17383273820E+01  0.72461579413E+02  0.70000011878E+02 0.  0.
         12    1    1    2    0    0  0.16798455520E+02 -0.80912877877E+01  0.17383273820E+01  0.18726420587E+02  0.00000000000E+00 0. -1.
         11    1    3    3    0    0  0.11819050627E+02  0.14438004712E+01 -0.14380204423E+01  0.11993432393E+02  0.51100000000E-03 0. -1.
        -11    1    3    3    0    0  0.10257701583E+02 -0.48009196261E+01 -0.13708469619E+02  0.17781771863E+02  0.51100000000E-03 0.  1.
         12    1    3    3    0    0 -0.38875207730E+02  0.11448406943E+02  0.13408162679E+02  0.42686375157E+02  0.00000000000E+00 0. -1.
</event>
<event>
 7    1  0.3305651E-013  0.7246157E+02  0.7816164E-02  0.1226708E+00
        -11   -1    0    0    0    0  0.00000000000E+00  0.00000000000E+00  0.45593999997E+02  0.45594000000E+02  0.51100000000E-03 0. -1.
         11   -1    0    0    0    0 -0.00000000000E+00 -0.00000000000E+00 -0.45593999997E+02  0.45594000000E+02  0.51100000000E-03 0.  1.
    9900012    2    1    2    0    0 -0.17595608555E+02  0.46433737763E+01  0.44173130380E+01  0.72461574422E+02  0.70000005377E+02 0.  0.
         12    1    1    2    0    0  0.17595608555E+02 -0.46433737763E+01 -0.44173130380E+01  0.18726425578E+02  0.00000000000E+00 0. -1.
         11    1    3    3    0    0  0.82356960611E+01 -0.30648050354E+01 -0.14600225231E+01  0.89079394669E+01  0.51100000000E-03 0. -1.
        -11    1    3    3    0    0 -0.42917884445E+02 -0.28613605101E+00 -0.23283891374E+01  0.42981950576E+02  0.51100000000E-03 0.  1.
         12    1    3    3    0    0  0.17086579829E+02  0.79943148628E+01  0.82057246985E+01  0.20571684379E+02  0.00000000000E+00 0. -1.
</event>
<event>
 7    1  0.3305651E-013  0.7246155E+02  0.7816164E-02  0.1226708E+00
        -11   -1    0    0    0    0  0.00000000000E+00  0.00000000000E+00  0.45593999997E+02  0.45594000000E+02  0.51100000000E-03 0. -1.
         11   -1    0    0    0    0 -0.00000000000E+00 -0.00000000000E+00 -0.45593999997E+02  0.45594000000E+02  0.51100000000E-03 0.  1.
    9900012    2    1    2    0    0  0.76393855446E+01  0.16521190114E+02  0.44011563033E+01  0.72461545155E+02  0.69999967251E+02 0.  0.
         12    1    1    2    0    0 -0.76393855446E+01 -0.16521190114E+02 -0.44011563033E+01  0.18726454845E+02  0.00000000000E+00 0. -1.
         11    1    3    3    0    0  0.53143392507E+01  0.10209374832E+02 -0.50089194143E+01  0.12552402563E+02  0.51100000000E-03 0. -1.
        -11    1    3    3    0    0  0.12612039603E+02 -0.11762129815E+02 -0.18376959531E+02  0.25201664283E+02  0.51100000000E-03 0.  1.
         12    1    3    3    0    0 -0.10286993309E+02  0.18073945097E+02  0.27787035249E+02  0.34707478310E+02  0.00000000000E+00 0. -1.
</event>
<event>
 7    1  0.3305651E-013  0.7246152E+02  0.7816164E-02  0.1226708E+00
        -11   -1    0    0    0    0  0.00000000000E+00  0.00000000000E+00  0.45593999997E+02  0.45594000000E+02  0.51100000000E-03 0.  1.
         11   -1    0    0    0    0 -0.00000000000E+00 -0.00000000000E+00 -0.45593999997E+02  0.45594000000E+02  0.51100000000E-03 0. -1.
    9900012    2    1    2    0    0  0.67396614933E+01 -0.78778766191E+01  0.15594773839E+02  0.72461522805E+02  0.69999938136E+02 0.  0.
         12    1    1    2    0    0 -0.67396614933E+01  0.78778766191E+01 -0.15594773839E+02  0.18726477195E+02  0.00000000000E+00 0. -1.
         11    1    3    3    0    0  0.26167477853E+02  0.16951488244E+02  0.73896363773E+01  0.32042106313E+02  0.51100000000E-03 0. -1.
        -11    1    3    3    0    0  0.79932069204E-01 -0.11282037143E+01  0.96235660253E+01  0.96898016524E+01  0.51100000000E-03 0.  1.
        -12    1    3    3    0    0 -0.19507748429E+02 -0.23701161149E+02 -0.14184285638E+01  0.30729614839E+02  0.00000000000E+00 0.  1.
</event>
<event>
 7    1  0.3305651E-013  0.7246159E+02  0.7816164E-02  0.1226708E+00
        -11   -1    0    0    0    0  0.00000000000E+00  0.00000000000E+00  0.45593999997E+02  0.45594000000E+02  0.51100000000E-03 0.  1.
         11   -1    0    0    0    0 -0.00000000000E+00 -0.00000000000E+00 -0.45593999997E+02  0.45594000000E+02  0.51100000000E-03 0. -1.
    9900012    2    1    2    0    0  0.46440649692E+01  0.94885875577E+01  0.15462141811E+02  0.72461589167E+02  0.70000024585E+02 0.  0.
         12    1    1    2    0    0 -0.46440649692E+01 -0.94885875577E+01 -0.15462141811E+02  0.18726410833E+02  0.00000000000E+00 0. -1.
         11    1    3    3    0    0 -0.43968853764E+01 -0.34712750049E+01  0.20859820640E+01  0.59777648503E+01  0.51100000000E-03 0. -1.
        -11    1    3    3    0    0 -0.14890064520E+02 -0.17792125672E+02  0.14751334960E+02  0.27493192625E+02  0.51100000000E-03 0.  1.
         12    1    3    3    0    0  0.23931014866E+02  0.30751988234E+02 -0.13751752129E+01  0.38990631692E+02  0.00000000000E+00 0. -1.
</event>
<event>
 7    1  0.3305651E-013  0.7246159E+02  0.7816164E-02  0.1226708E+00
        -11   -1    0    0    0    0  0.00000000000E+00  0.00000000000E+00  0.45593999997E+02  0.45594000000E+02  0.51100000000E-03 0. -1.
         11   -1    0    0    0    0 -0.00000000000E+00 -0.00000000000E+00 -0.45593999997E+02  0.45594000000E+02  0.51100000000E-03 0.  1.
    9900012    2    1    2    0    0  0.10770685001E+02 -0.12456336862E+02 -0.89168535302E+01  0.72461594571E+02  0.70000031625E+02 0.  0.
         12    1    1    2    0    0 -0.10770685001E+02  0.12456336862E+02  0.89168535302E+01  0.18726405429E+02  0.00000000000E+00 0. -1.
         11    1    3    3    0    0  0.10228129613E+01 -0.87396716038E+01 -0.29985453838E+02  0.31249887171E+02  0.51100000000E-03 0. -1.
        -11    1    3    3    0    0  0.89281936803E+00  0.24207715299E+01 -0.89519441629E+01  0.93163601144E+01  0.51100000000E-03 0.  1.
         12    1    3    3    0    0  0.88550526721E+01 -0.61374367879E+01  0.30020544471E+02  0.31895347285E+02  0.00000000000E+00 0. -1.
</event>
<event>
 7    1  0.3305651E-013  0.7246156E+02  0.7816164E-02  0.1226708E+00
        -11   -1    0    0    0    0  0.00000000000E+00  0.00000000000E+00  0.45593999997E+02  0.45594000000E+02  0.51100000000E-03 0. -1.
         11   -1    0    0    0    0 -0.00000000000E+00 -0.00000000000E+00 -0.45593999997E+02  0.45594000000E+02  0.51100000000E-03 0.  1.
    9900012    2    1    2    0    0 -0.58098775245E+01  0.32337487581E+01 -0.17506219615E+02  0.72461560587E+02  0.69999987354E+02 0.  0.
         12    1    1    2    0    0  0.58098775245E+01 -0.32337487581E+01  0.17506219615E+02  0.18726439413E+02  0.00000000000E+00 0. -1.
         11    1    3    3    0    0 -0.17624618127E+02 -0.12056309534E+02  0.14101778400E+02  0.25589879210E+02  0.51100000000E-03 0. -1.
        -11    1    3    3    0    0  0.76690619160E+01 -0.38380656875E+01  0.12097262958E+01  0.86607561370E+01  0.51100000000E-03 0.  1.
        -12    1    3    3    0    0  0.41456786861E+01  0.19128123979E+02 -0.32817724311E+02  0.38210925240E+02  0.00000000000E+00 0.  1.
</event>
<event>
 7    1  0.3305651E-013  0.7246159E+02  0.7816164E-02  0.1226708E+00
        -11   -1    0    0    0    0  0.00000000000E+00  0.00000000000E+00  0.45593999997E+02  0.45594000000E+02  0.51100000000E-03 0.  1.
         11   -1    0    0    0    0 -0.00000000000E+00 -0.00000000000E+00 -0.45593999997E+02  0.45594000000E+02  0.51100000000E-03 0. -1.
    9900012    2    1    2    0    0  0.13731774209E+02  0.71983106412E+01  0.10502437914E+02  0.72461588140E+02  0.70000023247E+02 0.  0.
         12    1    1    2    0    0 -0.13731774209E+02 -0.71983106412E+01 -0.10502437914E+02  0.18726411860E+02  0.00000000000E+00 0. -1.
         11    1    3    3    0    0 -0.60950983934E-02 -0.82815770424E-01 -0.25232552064E+01  0.25246212983E+01  0.51100000000E-03 0. -1.
        -11    1    3    3    0    0  0.28266317743E+02 -0.14249007358E+02 -0.12015225775E+02  0.33858301495E+02  0.51100000000E-03 0.  1.
         12    1    3    3    0    0 -0.14528448435E+02  0.21530133770E+02  0.25040918896E+02  0.36078665347E+02  0.00000000000E+00 0. -1.
</event>
<event>
 7    1  0.3305651E-013  0.7246164E+02  0.7816164E-02  0.1226708E+00
        -11   -1    0    0    0    0  0.00000000000E+00  0.00000000000E+00  0.45593999997E+02  0.45594000000E+02  0.51100000000E-03 0.  1.
         11   -1    0    0    0    0 -0.00000000000E+00 -0.00000000000E+00 -0.45593999997E+02  0.45594000000E+02  0.51100000000E-03 0. -1.
    9900012    2    1    2    0    0 -0.11179463059E+02  0.61421749946E+01  0.13710215443E+02  0.72461635819E+02  0.70000085358E+02 0.  0.
         12    1    1    2    0    0  0.11179463059E+02 -0.61421749946E+01 -0.13710215443E+02  0.18726364181E+02  0.00000000000E+00 0. -1.
         11    1    3    3    0    0 -0.20123480127E+02 -0.92736201872E+01  0.56696188768E+01  0.22871358994E+02  0.51100000000E-03 0. -1.
        -11    1    3    3    0    0  0.75336184236E+01  0.21599060870E+02  0.23551967710E+02  0.32832453766E+02  0.51100000000E-03 0.  1.
        -12    1    3    3    0    0  0.14103986443E+01 -0.61832656883E+01 -0.15511371144E+02  0.16757823059E+02  0.00000000000E+00 0.  1.
</event>
<event>
 7    1  0.3305651E-013  0.7246155E+02  0.7816164E-02  0.1226708E+00
        -11   -1    0    0    0    0  0.00000000000E+00  0.00000000000E+00  0.45593999997E+02  0.45594000000E+02  0.51100000000E-03 0.  1.
         11   -1    0    0    0    0 -0.00000000000E+00 -0.00000000000E+00 -0.45593999997E+02  0.45594000000E+02  0.51100000000E-03 0. -1.
    9900012    2    1    2    0    0 -0.15420619594E+02  0.93811890655E+01  0.49877540407E+01  0.72461550595E+02  0.69999974338E+02 0.  0.
         12    1    1    2    0    0  0.15420619594E+02 -0.93811890655E+01 -0.49877540407E+01  0.18726449405E+02  0.00000000000E+00 0. -1.
         11    1    3    3    0    0 -0.69247982046E+01  0.16960368692E+02 -0.14118546832E+02  0.23128776475E+02  0.51100000000E-03 0. -1.
        -11    1    3    3    0    0 -0.14990906367E+02  0.29724322563E+01 -0.96129634331E+01  0.18054686191E+02  0.51100000000E-03 0.  1.
        -12    1    3    3    0    0  0.64950849779E+01 -0.10551611883E+02  0.28719264306E+02  0.31278087929E+02  0.00000000000E+00 0.  1.
</event>
<event>
 8    1  0.3305651E-013  0.7246155E+02  0.7816164E-02  0.1226708E+00
        -11   -1    0    0    0    0  0.00000000000E+00  0.00000000000E+00  0.45593999997E+02  0.45594000000E+02  0.51100000000E-03 0. -1.
         11   -1    0    0    0    0 -0.00000000000E+00 -0.00000000000E+00 -0.45593999997E+02  0.45594000000E+02  0.51100000000E-03 0.  1.
    9900012    2    1    2    0    0 -0.25820785229E+01 -0.28672918334E+01 -0.18324615823E+02  0.72461547132E+02  0.69999969827E+02 0.  0.
         23    2    3    3    0    0  0.27285784408E+01 -0.69931010092E+01 -0.56657294672E+01  0.58127225296E+02  0.57361356576E+02 0.  0.
         12    1    1    2    0    0  0.25820785229E+01  0.28672918334E+01  0.18324615823E+02  0.18726452868E+02  0.00000000000E+00 0. -1.
         11    1    4    4    0    0  0.20199018515E+02 -0.22366684676E+02  0.79457257031E+01  0.31167346527E+02  0.51100000000E-03 0.  1.
        -11    1    4    4    0    0 -0.17470440074E+02  0.15373583666E+02 -0.13611455170E+02  0.26959878769E+02  0.51100000000E-03 0. -1.
        -12    1    3    3    0    0 -0.53106569637E+01  0.41258091758E+01 -0.12658886356E+02  0.14334321836E+02  0.00000000000E+00 0.  1.
</event>
<event>
 7    1  0.3305651E-013  0.7246164E+02  0.7816164E-02  0.1226708E+00
        -11   -1    0    0    0    0  0.00000000000E+00  0.00000000000E+00  0.45593999997E+02  0.45594000000E+02  0.51100000000E-03 0. -1.
         11   -1    0    0    0    0 -0.00000000000E+00 -0.00000000000E+00 -0.45593999997E+02  0.45594000000E+02  0.51100000000E-03 0.  1.
    9900012    2    1    2    0    0  0.67235433916E+01  0.17038430733E+02  0.38938705524E+01  0.72461644629E+02  0.70000096835E+02 0.  0.
         12    1    1    2    0    0 -0.67235433916E+01 -0.17038430733E+02 -0.38938705524E+01  0.18726355371E+02  0.00000000000E+00 0. -1.
         11    1    3    3    0    0 -0.10685425665E+02 -0.22835931799E+01  0.16768598427E+02  0.20014470089E+02  0.51100000000E-03 0. -1.
        -11    1    3    3    0    0 -0.51374678417E+01 -0.10443807121E+02  0.27655146342E+01  0.11963057906E+02  0.51100000000E-03 0.  1.
        -12    1    3    3    0    0  0.22546436898E+02  0.29765831034E+02 -0.15640242509E+02  0.40484116635E+02  0.00000000000E+00 0.  1.
</event>
<event>
 7    1  0.3305651E-013  0.7246159E+02  0.7816164E-02  0.1226708E+00
        -11   -1    0    0    0    0  0.00000000000E+00  0.00000000000E+00  0.45593999997E+02  0.45594000000E+02  0.51100000000E-03 0.  1.
         11   -1    0    0    0    0 -0.00000000000E+00 -0.00000000000E+00 -0.45593999997E+02  0.45594000000E+02  0.51100000000E-03 0. -1.
    9900012    2    1    2    0    0  0.12593671942E+02  0.13579933748E+02  0.27682818616E+01  0.72461586621E+02  0.70000021269E+02 0.  0.
         12    1    1    2    0    0 -0.12593671942E+02 -0.13579933748E+02 -0.27682818616E+01  0.18726413379E+02  0.00000000000E+00 0. -1.
         11    1    3    3    0    0  0.44729053776E+01  0.17419974311E+02 -0.17807168971E+02  0.25309240497E+02  0.51100000000E-03 0. -1.
        -11    1    3    3    0    0  0.16161883328E+02  0.14825861225E+02  0.85685724032E+01  0.23546402423E+02  0.51100000000E-03 0.  1.
         12    1    3    3    0    0 -0.80411167640E+01 -0.18665901789E+02  0.12006878430E+02  0.23605943701E+02  0.00000000000E+00 0. -1.
</event>
<event>
 7    1  0.3305651E-013  0.7246159E+02  0.7816164E-02  0.1226708E+00
        -11   -1    0    0    0    0  0.00000000000E+00  0.00000000000E+00  0.45593999997E+02  0.45594000000E+02  0.51100000000E-03 0.  1.
         11   -1    0    0    0    0 -0.00000000000E+00 -0.00000000000E+00 -0.45593999997E+02  0.45594000000E+02  0.51100000000E-03 0. -1.
    9900012    2    1    2    0    0  0.17881235288E+02  0.54667845455E+01  0.10267471759E+01  0.72461587678E+02  0.70000022645E+02 0.  0.
         12    1    1    2    0    0 -0.17881235288E+02 -0.54667845455E+01 -0.10267471759E+01  0.18726412322E+02  0.00000000000E+00 0. -1.
         11    1    3    3    0    0 -0.13641068702E+01  0.18918296334E+02  0.18722676912E+01  0.19059593655E+02  0.51100000000E-03 0. -1.
        -11    1    3    3    0    0  0.14410966418E+02  0.13863609200E+02  0.11468322485E+02  0.23052072229E+02  0.51100000000E-03 0.  1.
         12    1    3    3    0    0  0.48343757409E+01 -0.27315120989E+02 -0.12313843001E+02  0.30349921794E+02  0.00000000000E+00 0. -1.
</event>
<event>
 7    1  0.3305651E-013  0.7246170E+02  0.7816164E-02  0.1226708E+00
        -11   -1    0    0    0    0  0.00000000000E+00  0.00000000000E+00  0.45593999997E+02  0.45594000000E+02  0.51100000000E-03 0.  1.
         11   -1    0    0    0    0 -0.00000000000E+00 -0.00000000000E+00 -0.45593999997E+02  0.45594000000E+02  0.51100000000E-03 0. -1.
    9900012    2    1    2    0    0 -0.73167077573E+01  0.16756276256E+02  0.40456633058E+01  0.72461697696E+02  0.70000165965E+02 0.  0.
         12    1    1    2    0    0  0.73167077573E+01 -0.16756276256E+02 -0.40456633058E+01  0.18726302304E+02  0.00000000000E+00 0. -1.
         11    1    3    3    0    0 -0.33101404789E+02  0.14852848137E+02  0.95752016416E+01  0.37523253904E+02  0.51100000000E-03 0. -1.
        -11    1    3    3    0    0  0.24504703387E+01  0.80154874186E+01  0.36333309039E+01  0.91353126469E+01  0.51100000000E-03 0.  1.
        -12    1    3    3    0    0  0.23334226693E+02 -0.61120592990E+01 -0.91628692396E+01  0.25803131146E+02  0.00000000000E+00 0.  1.
</event>
<event>
 7    1  0.3305651E-013  0.7246155E+02  0.7816164E-02  0.1226708E+00
        -11   -1    0    0    0    0  0.00000000000E+00  0.00000000000E+00  0.45593999997E+02  0.45594000000E+02  0.51100000000E-03 0.  1.
         11   -1    0    0    0    0 -0.00000000000E+00 -0.00000000000E+00 -0.45593999997E+02  0.45594000000E+02  0.51100000000E-03 0. -1.
    9900012    2    1    2    0    0 -0.58209106794E+01  0.22771809285E+01  0.17652515441E+02  0.72461551978E+02  0.69999976140E+02 0.  0.
         12    1    1    2    0    0  0.58209106794E+01 -0.22771809285E+01 -0.17652515441E+02  0.18726448022E+02  0.00000000000E+00 0. -1.
         11    1    3    3    0    0 -0.60082929621E+01 -0.85995413375E+01 -0.59102764547E+00  0.10507188467E+02  0.51100000000E-03 0. -1.
        -11    1    3    3    0    0 -0.24861251852E+01 -0.64016249406E+01  0.36227265427E+02  0.36872433889E+02  0.51100000000E-03 0.  1.
        -12    1    3    3    0    0  0.26735074679E+01  0.17278347207E+02 -0.17983722340E+02  0.25081929623E+02  0.00000000000E+00 0.  1.
</event>
<event>
 7    1  0.3305651E-013  0.7246158E+02  0.7816164E-02  0.1226708E+00
        -11   -1    0    0    0    0  0.00000000000E+00  0.00000000000E+00  0.45593999997E+02  0.45594000000E+02  0.51100000000E-03 0. -1.
         11   -1    0    0    0    0 -0.00000000000E+00 -0.00000000000E+00 -0.45593999997E+02  0.45594000000E+02  0.51100000000E-03 0.  1.
    9900012    2    1    2    0    0 -0.43990477118E+01  0.15346198563E+02 -0.97888428886E+01  0.72461578126E+02  0.70000010202E+02 0.  0.
         12    1    1    2    0    0  0.43990477118E+01 -0.15346198563E+02  0.97888428886E+01  0.18726421874E+02  0.00000000000E+00 0. -1.
         11    1    3    3    0    0  0.24682874470E+02 -0.11261249286E+02 -0.12603151312E+01  0.27159683762E+02  0.51100000000E-03 0. -1.
        -11    1    3    3    0    0 -0.55813736993E+01 -0.84867339322E+00  0.41451769018E+01  0.70038896841E+01  0.51100000000E-03 0.  1.
        -12    1    3    3    0    0 -0.23500548482E+02  0.27456121243E+02 -0.12673704659E+02  0.38298004680E+02  0.00000000000E+00 0.  1.
</event>
<event>
 7    1  0.3305651E-013  0.7246160E+02  0.7816164E-02  0.1226708E+00
        -11   -1    0    0    0    0  0.00000000000E+00  0.00000000000E+00  0.45593999997E+02  0.45594000000E+02  0.51100000000E-03 0. -1.
         11   -1    0    0    0    0 -0.00000000000E+00 -0.00000000000E+00 -0.45593999997E+02  0.45594000000E+02  0.51100000000E-03 0.  1.
    9900012    2    1    2    0    0  0.22191569005E+01  0.10416000853E+02 -0.15403251538E+02  0.72461604483E+02  0.70000044537E+02 0.  0.
         12    1    1    2    0    0 -0.22191569005E+01 -0.10416000853E+02  0.15403251538E+02  0.18726395517E+02  0.00000000000E+00 0. -1.
         11    1    3    3    0    0 -0.61263050148E+01  0.31694282112E+01 -0.56036403687E+01  0.88869383909E+01  0.51100000000E-03 0. -1.
        -11    1    3    3    0    0  0.79006582017E+01  0.34341840797E+02 -0.16529534234E+01  0.35277679695E+02  0.51100000000E-03 0.  1.
         12    1    3    3    0    0  0.44480371372E+00 -0.27095268155E+02 -0.81466577458E+01  0.28296986398E+02  0.00000000000E+00 0. -1.
</event>
<event>
 7    1  0.3305651E-013  0.7246158E+02  0.7816164E-02  0.1226708E+00
        -11   -1    0    0    0    0  0.00000000000E+00  0.00000000000E+00  0.45593999997E+02  0.45594000000E+02  0.51100000000E-03 0. -1.
         11   -1    0    0    0    0 -0.00000000000E+00 -0.00000000000E+00 -0.45593999997E+02  0.45594000000E+02  0.51100000000E-03 0.  1.
    9900012    2    1    2    0    0  0.28630737419E+01  0.42726143410E+01 -0.18006287526E+02  0.72461579760E+02  0.70000012330E+02 0.  0.
         12    1    1    2    0    0 -0.28630737419E+01 -0.42726143410E+01  0.18006287526E+02  0.18726420240E+02  0.00000000000E+00 0. -1.
         11    1    3    3    0    0  0.24057887563E+02  0.56286865050E+01 -0.76261561408E+01  0.25857732374E+02  0.51100000000E-03 0. -1.
        -11    1    3    3    0    0  0.16916879590E+01  0.16057124006E+02 -0.71734634365E+01  0.17667813035E+02  0.51100000000E-03 0.  1.
        -12    1    3    3    0    0 -0.22886501780E+02 -0.17413196170E+02 -0.32066679484E+01  0.28936034351E+02  0.00000000000E+00 0.  1.
</event>
<event>
 7    1  0.3305651E-013  0.7246156E+02  0.7816164E-02  0.1226708E+00
        -11   -1    0    0    0    0  0.00000000000E+00  0.00000000000E+00  0.45593999997E+02  0.45594000000E+02  0.51100000000E-03 0. -1.
         11   -1    0    0    0    0 -0.00000000000E+00 -0.00000000000E+00 -0.45593999997E+02  0.45594000000E+02  0.51100000000E-03 0.  1.
    9900012    2    1    2    0    0  0.16693779121E+02 -0.38285542062E+01 -0.75722945887E+01  0.72461555223E+02  0.69999980367E+02 0.  0.
         12    1    1    2    0    0 -0.16693779121E+02  0.38285542062E+01  0.75722945887E+01  0.18726444777E+02  0.00000000000E+00 0. -1.
         11    1    3    3    0    0 -0.10431036875E+02  0.22634793746E+01  0.50888969530E+01  0.11824835797E+02  0.51100000000E-03 0. -1.
        -11    1    3    3    0    0 -0.11460883587E+02 -0.13805742181E+02  0.31726294565E+01  0.18221304775E+02  0.51100000000E-03 0.  1.
         12    1    3    3    0    0  0.38585699583E+02  0.77137086005E+01 -0.15833820998E+02  0.42415414651E+02  0.00000000000E+00 0. -1.
</event>
<event>
 7    1  0.3305651E-013  0.7246160E+02  0.7816164E-02  0.1226708E+00
        -11   -1    0    0    0    0  0.00000000000E+00  0.00000000000E+00  0.45593999997E+02  0.45594000000E+02  0.51100000000E-03 0.  1.
         11   -1    0    0    0    0 -0.00000000000E+00 -0.00000000000E+00 -0.45593999997E+02  0.45594000000E+02  0.51100000000E-03 0. -1.
    9900012    2    1    2    0    0 -0.73954472805E+01  0.15572522301E+02  0.73131295962E+01  0.72461602701E+02  0.70000042216E+02 0.  0.
         12    1    1    2    0    0  0.73954472805E+01 -0.15572522301E+02 -0.73131295962E+01  0.18726397299E+02  0.00000000000E+00 0. -1.
         11    1    3    3    0    0 -0.13176075142E+01  0.10228983183E+01  0.56702387311E+01  0.59105006607E+01  0.51100000000E-03 0. -1.
        -11    1    3    3    0    0  0.13122036840E+02  0.77955336533E+01  0.28811306362E+02  0.32604440960E+02  0.51100000000E-03 0.  1.
         12    1    3    3    0    0 -0.19199876607E+02  0.67540903295E+01 -0.27168415497E+02  0.33946661080E+02  0.00000000000E+00 0. -1.
</event>
<event>
 7    1  0.3305651E-013  0.7246157E+02  0.7816164E-02  0.1226708E+00
        -11   -1    0    0    0    0  0.00000000000E+00  0.00000000000E+00  0.45593999997E+02  0.45594000000E+02  0.51100000000E-03 0. -1.
         11   -1    0    0    0    0 -0.00000000000E+00 -0.00000000000E+00 -0.45593999997E+02  0.45594000000E+02  0.51100000000E-03 0.  1.
    9900012    2    1    2    0    0  0.13711719647E+02 -0.10412332592E+02  0.73655363834E+01  0.72461573435E+02  0.70000004091E+02 0.  0.
         12    1    1    2    0    0 -0.13711719647E+02  0.10412332592E+02 -0.73655363834E+01  0.18726426565E+02  0.00000000000E+00 0. -1.
         11    1    3    3    0    0  0.96252036531E+00  0.80816969043E+01  0.13267506163E+02  0.15564928216E+02  0.51100000000E-03 0. -1.
        -11    1    3    3    0    0  0.31550956558E+02 -0.33181499609E+01 -0.77690623768E+01  0.32662383706E+02  0.51100000000E-03 0.  1.
         12    1    3    3    0    0 -0.18801757276E+02 -0.15175879535E+02  0.18670925968E+01  0.24234261513E+02  0.00000000000E+00 0. -1.
</event>
<event>
 7    1  0.3305651E-013  0.7246161E+02  0.7816164E-02  0.1226708E+00
        -11   -1    0    0    0    0  0.00000000000E+00  0.00000000000E+00  0.45593999997E+02  0.45594000000E+02  0.51100000000E-03 0. -1.
         11   -1    0    0    0    0 -0.00000000000E+00 -0.00000000000E+00 -0.45593999997E+02  0.45594000000E+02  0.51100000000E-03 0.  1.
    9900012    2    1    2    0    0 -0.10668042613E+02  0.35065130051E+01 -0.14985818756E+02  0.72461614059E+02  0.70000057011E+02 0.  0.
         12    1    1    2    0    0  0.10668042613E+02 -0.35065130051E+01  0.14985818756E+02  0.18726385941E+02  0.00000000000E+00 0. -1.
         11    1    3    3    0    0 -0.12741584149E+02 -0.13045927347E+02 -0.18420978702E+02  0.25920583396E+02  0.51100000000E-03 0. -1.
        -11    1    3    3    0    0 -0.10652211701E+02  0.27542978030E+02  0.34004102077E+01  0.29726218103E+02  0.51100000000E-03 0.  1.
         12    1    3    3    0    0  0.12725753237E+02 -0.10990537677E+02  0.34749738606E-01  0.16814812560E+02  0.00000000000E+00 0. -1.
</event>
<event>
 7    1  0.3305651E-013  0.7246155E+02  0.7816164E-02  0.1226708E+00
        -11   -1    0    0    0    0  0.00000000000E+00  0.00000000000E+00  0.45593999997E+02  0.45594000000E+02  0.51100000000E-03 0.  1.
         11   -1    0    0    0    0 -0.00000000000E+00 -0.00000000000E+00 -0.45593999997E+02  0.45594000000E+02  0.51100000000E-03 0. -1.
    9900012    2    1    2    0    0  0.11597096533E+02 -0.10248157172E+01  0.14667556101E+02  0.72461545524E+02  0.69999967732E+02 0.  0.
         12    1    1    2    0    0 -0.11597096533E+02  0.10248157172E+01 -0.14667556101E+02  0.18726454476E+02  0.00000000000E+00 0. -1.
         11    1    3    3    0    0  0.93444649138E+00  0.72062092556E+01  0.13207339000E+02  0.15074363860E+02  0.51100000000E-03 0. -1.
        -11    1    3    3    0    0 -0.10452637421E+02 -0.16946753413E+02  0.19809486469E+02  0.28086755503E+02  0.51100000000E-03 0.  1.
         12    1    3    3    0    0  0.21115287463E+02  0.87157284399E+01 -0.18349269367E+02  0.29300426160E+02  0.00000000000E+00 0. -1.
</event>
<event>
 7    1  0.3305651E-013  0.7246155E+02  0.7816164E-02  0.1226708E+00
        -11   -1    0    0    0    0  0.00000000000E+00  0.00000000000E+00  0.45593999997E+02  0.45594000000E+02  0.51100000000E-03 0. -1.
         11   -1    0    0    0    0 -0.00000000000E+00 -0.00000000000E+00 -0.45593999997E+02  0.45594000000E+02  0.51100000000E-03 0.  1.
    9900012    2    1    2    0    0  0.17012769671E+02 -0.73141609700E+01  0.27836593777E+01  0.72461546996E+02  0.69999969650E+02 0.  0.
         12    1    1    2    0    0 -0.17012769671E+02  0.73141609700E+01 -0.27836593777E+01  0.18726453004E+02  0.00000000000E+00 0. -1.
         11    1    3    3    0    0  0.11473157502E+02 -0.99775088619E+01  0.20777185879E+02  0.25746368277E+02  0.51100000000E-03 0. -1.
        -11    1    3    3    0    0  0.58277268511E+01 -0.30779078080E+01  0.13329082286E+02  0.14869443552E+02  0.51100000000E-03 0.  1.
        -12    1    3    3    0    0 -0.28811468262E+00  0.57412556999E+01 -0.31322608787E+02  0.31845735166E+02  0.00000000000E+00 0.  1.
</event>
<event>
 7    1  0.3305651E-013  0.7246159E+02  0.7816164E-02  0.1226708E+00
        -11   -1    0    0    0    0  0.00000000000E+00  0.00000000000E+00  0.45593999997E+02  0.45594000000E+02  0.51100000000E-03 0. -1.
         11   -1    0    0    0    0 -0.00000000000E+00 -0.00000000000E+00 -0.45593999997E+02  0.45594000000E+02  0.51100000000E-03 0.  1.
    9900012    2    1    2    0    0  0.17922649815E+02  0.26315514968E+01  0.47467746551E+01  0.72461593262E+02  0.70000029920E+02 0.  0.
         12    1    1    2    0    0 -0.17922649815E+02 -0.26315514968E+01 -0.47467746551E+01  0.18726406738E+02  0.00000000000E+00 0. -1.
         11    1    3    3    0    0  0.91594975232E+01 -0.14028197319E+02 -0.14511612090E+02  0.22164692657E+02  0.51100000000E-03 0. -1.
        -11    1    3    3    0    0 -0.16826458190E+01  0.96370335264E+01 -0.12652422877E+02  0.15993358530E+02  0.51100000000E-03 0.  1.
         12    1    3    3    0    0  0.10445798111E+02  0.70227152891E+01  0.31910809622E+02  0.34303542075E+02  0.00000000000E+00 0. -1.
</event>
<event>
 7    1  0.3305651E-013  0.7246155E+02  0.7816164E-02  0.1226708E+00
        -11   -1    0    0    0    0  0.00000000000E+00  0.00000000000E+00  0.45593999997E+02  0.45594000000E+02  0.51100000000E-03 0.  1.
         11   -1    0    0    0    0 -0.00000000000E+00 -0.00000000000E+00 -0.45593999997E+02  0.45594000000E+02  0.51100000000E-03 0. -1.
    9900012    2    1    2    0    0 -0.84320995246E+01  0.15498843147E+02  0.62742067342E+01  0.72461545145E+02  0.69999967238E+02 0.  0.
         12    1    1    2    0    0  0.84320995246E+01 -0.15498843147E+02 -0.62742067342E+01  0.18726454855E+02  0.00000000000E+00 0. -1.
         11    1    3    3    0    0 -0.16026632181E+02 -0.28087824659E+01 -0.19092729359E+02  0.25085344579E+02  0.51100000000E-03 0. -1.
        -11    1    3    3    0    0 -0.12413220381E+02  0.51730930157E+01  0.14255727958E+01  0.13523357188E+02  0.51100000000E-03 0.  1.
        -12    1    3    3    0    0  0.20007753038E+02  0.13134532597E+02  0.23941363298E+02  0.33852843377E+02  0.00000000000E+00 0.  1.
</event>
<event>
 7    1  0.3305651E-013  0.7246162E+02  0.7816164E-02  0.1226708E+00
        -11   -1    0    0    0    0  0.00000000000E+00  0.00000000000E+00  0.45593999997E+02  0.45594000000E+02  0.51100000000E-03 0.  1.
         11   -1    0    0    0    0 -0.00000000000E+00 -0.00000000000E+00 -0.45593999997E+02  0.45594000000E+02  0.51100000000E-03 0. -1.
    9900012    2    1    2    0    0  0.75801612928E+01  0.82388630958E+01  0.15011317679E+02  0.72461618375E+02  0.70000062633E+02 0.  0.
         12    1    1    2    0    0 -0.75801612928E+01 -0.82388630958E+01 -0.15011317679E+02  0.18726381625E+02  0.00000000000E+00 0. -1.
         11    1    3    3    0    0  0.23662466331E+02 -0.91894633231E+01  0.13130712785E+02  0.28579261144E+02  0.51100000000E-03 0. -1.
        -11    1    3    3    0    0  0.84025304477E+01  0.16467423324E+02  0.50753890478E+01  0.19171283815E+02  0.51100000000E-03 0.  1.
         12    1    3    3    0    0 -0.24484835486E+02  0.96090309449E+00 -0.31947841545E+01  0.24711073415E+02  0.00000000000E+00 0. -1.
</event>
<event>
 7    1  0.3305651E-013  0.7246158E+02  0.7816164E-02  0.1226708E+00
        -11   -1    0    0    0    0  0.00000000000E+00  0.00000000000E+00  0.45593999997E+02  0.45594000000E+02  0.51100000000E-03 0. -1.
         11   -1    0    0    0    0 -0.00000000000E+00 -0.00000000000E+00 -0.45593999997E+02  0.45594000000E+02  0.51100000000E-03 0.  1.
    9900012    2    1    2    0    0 -0.16459854212E+02 -0.60805780376E+01 -0.65405310798E+01  0.72461580782E+02  0.70000013662E+02 0.  0.
         12    1    1    2    0    0  0.16459854212E+02  0.60805780376E+01  0.65405310798E+01  0.18726419218E+02  0.00000000000E+00 0. -1.
         11    1    3    3    0    0 -0.15962808349E+01  0.15529734119E+01  0.15268544232E+02  0.15430109596E+02  0.51100000000E-03 0. -1.
        -11    1    3    3    0    0  0.98354494701E+01 -0.22009488634E+02 -0.10574328309E+02  0.26324324790E+02  0.51100000000E-03 0.  1.
        -12    1    3    3    0    0 -0.24699022847E+02  0.14375937184E+02 -0.11234747003E+02  0.30707146395E+02  0.00000000000E+00 0.  1.
</event>
<event>
 7    1  0.3305651E-013  0.7246161E+02  0.7816164E-02  0.1226708E+00
        -11   -1    0    0    0    0  0.00000000000E+00  0.00000000000E+00  0.45593999997E+02  0.45594000000E+02  0.51100000000E-03 0.  1.
         11   -1    0    0    0    0 -0.00000000000E+00 -0.00000000000E+00 -0.45593999997E+02  0.45594000000E+02  0.51100000000E-03 0. -1.
    9900012    2    1    2    0    0  0.52657982934E+01 -0.13361794303E+02  0.12017128132E+02  0.72461613611E+02  0.70000056428E+02 0.  0.
         12    1    1    2    0    0 -0.52657982934E+01  0.13361794303E+02 -0.12017128132E+02  0.18726386389E+02  0.00000000000E+00 0. -1.
         11    1    3    3    0    0  0.13974101489E+02 -0.29454272890E+01  0.23909349364E+02  0.27849740422E+02  0.51100000000E-03 0. -1.
        -11    1    3    3    0    0  0.70115043352E+01 -0.15926315454E+02  0.75853892042E+01  0.18982803972E+02  0.51100000000E-03 0.  1.
         12    1    3    3    0    0 -0.15719807530E+02  0.55099484405E+01 -0.19477610436E+02  0.25629069217E+02  0.00000000000E+00 0. -1.
</event>
<event>
 7    1  0.3305651E-013  0.7246158E+02  0.7816164E-02  0.1226708E+00
        -11   -1    0    0    0    0  0.00000000000E+00  0.00000000000E+00  0.45593999997E+02  0.45594000000E+02  0.51100000000E-03 0. -1.
         11   -1    0    0    0    0 -0.00000000000E+00 -0.00000000000E+00 -0.45593999997E+02  0.45594000000E+02  0.51100000000E-03 0.  1.
    9900012    2    1    2    0    0  0.11489928324E+01  0.35040995716E+01 -0.18359732315E+02  0.72461583658E+02  0.70000017409E+02 0.  0.
         12    1    1    2    0    0 -0.11489928324E+01 -0.35040995716E+01  0.18359732315E+02  0.18726416342E+02  0.00000000000E+00 0. -1.
         11    1    3    3    0    0  0.35447931193E+01  0.95295500170E+01  0.55895838646E+01  0.11602643226E+02  0.51100000000E-03 0. -1.
        -11    1    3    3    0    0  0.79738601797E+01  0.19811514057E+02  0.36399381272E+01  0.21663972055E+02  0.51100000000E-03 0.  1.
        -12    1    3    3    0    0 -0.10369660467E+02 -0.25836964502E+02 -0.27589254307E+02  0.39194968377E+02  0.00000000000E+00 0.  1.
</event>
<event>
 7    1  0.3305651E-013  0.7246172E+02  0.7816164E-02  0.1226708E+00
        -11   -1    0    0    0    0  0.00000000000E+00  0.00000000000E+00  0.45593999997E+02  0.45594000000E+02  0.51100000000E-03 0.  1.
         11   -1    0    0    0    0 -0.00000000000E+00 -0.00000000000E+00 -0.45593999997E+02  0.45594000000E+02  0.51100000000E-03 0. -1.
    9900012    2    1    2    0    0  0.15024536684E+02  0.63042284906E+01  0.92300353267E+01  0.72461720295E+02  0.70000195404E+02 0.  0.
         12    1    1    2    0    0 -0.15024536684E+02 -0.63042284906E+01 -0.92300353267E+01  0.18726279705E+02  0.00000000000E+00 0. -1.
         11    1    3    3    0    0 -0.89978433169E+01  0.69878340797E+01  0.41055181830E+01  0.12109760084E+02  0.51100000000E-03 0. -1.
        -11    1    3    3    0    0 -0.16887582356E+02  0.53939749336E+01  0.67282720609E+01  0.18961936837E+02  0.51100000000E-03 0.  1.
        -12    1    3    3    0    0  0.40909962357E+02 -0.60775805226E+01 -0.16037549171E+01  0.41390023374E+02  0.00000000000E+00 0.  1.
</event>
<event>
 7    1  0.3305651E-013  0.7246155E+02  0.7816164E-02  0.1226708E+00
        -11   -1    0    0    0    0  0.00000000000E+00  0.00000000000E+00  0.45593999997E+02  0.45594000000E+02  0.51100000000E-03 0. -1.
         11   -1    0    0    0    0 -0.00000000000E+00 -0.00000000000E+00 -0.45593999997E+02  0.45594000000E+02  0.51100000000E-03 0.  1.
    9900012    2    1    2    0    0  0.15108956494E+02 -0.96037991025E+01 -0.54923814743E+01  0.72461554053E+02  0.69999978843E+02 0.  0.
         12    1    1    2    0    0 -0.15108956494E+02  0.96037991025E+01  0.54923814743E+01  0.18726445947E+02  0.00000000000E+00 0. -1.
         11    1    3    3    0    0  0.40393426771E+02 -0.97802838655E+01  0.35295435721E+01  0.41710197277E+02  0.51100000000E-03 0. -1.
        -11    1    3    3    0    0  0.19288478447E+01 -0.96137553013E+00 -0.82361435921E+00  0.23071709499E+01  0.51100000000E-03 0.  1.
         12    1    3    3    0    0 -0.27213318121E+02  0.11378602932E+01 -0.81983106872E+01  0.28444185827E+02  0.00000000000E+00 0. -1.
</event>
<event>
 7    1  0.3305651E-013  0.7246153E+02  0.7816164E-02  0.1226708E+00
        -11   -1    0    0    0    0  0.00000000000E+00  0.00000000000E+00  0.45593999997E+02  0.45594000000E+02  0.51100000000E-03 0.  1.
         11   -1    0    0    0    0 -0.00000000000E+00 -0.00000000000E+00 -0.45593999997E+02  0.45594000000E+02  0.51100000000E-03 0. -1.
    9900012    2    1    2    0    0  0.49554591938E+01  0.13432932773E+02  0.12069819163E+02  0.72461526938E+02  0.69999943521E+02 0.  0.
         12    1    1    2    0    0 -0.49554591938E+01 -0.13432932773E+02 -0.12069819163E+02  0.18726473062E+02  0.00000000000E+00 0. -1.
         11    1    3    3    0    0 -0.67619127944E+00 -0.10629783725E+02 -0.11967040452E+02  0.16020599057E+02  0.51100000000E-03 0. -1.
        -11    1    3    3    0    0 -0.64143231876E+01 -0.37317202540E+01 -0.89690965832E+01  0.11641046851E+02  0.51100000000E-03 0.  1.
        -12    1    3    3    0    0  0.12045973661E+02  0.27794436752E+02  0.33005956198E+02  0.44799881031E+02  0.00000000000E+00 0.  1.
</event>
<event>
 7    1  0.3305651E-013  0.7246147E+02  0.7816164E-02  0.1226708E+00
        -11   -1    0    0    0    0  0.00000000000E+00  0.00000000000E+00  0.45593999997E+02  0.45594000000E+02  0.51100000000E-03 0. -1.
         11   -1    0    0    0    0 -0.00000000000E+00 -0.00000000000E+00 -0.45593999997E+02  0.45594000000E+02  0.51100000000E-03 0.  1.
    9900012    2    1    2    0    0 -0.15924964500E+02 -0.47275905128E+01 -0.86445449980E+01  0.72461474305E+02  0.69999874956E+02 0.  0.
         12    1    1    2    0    0  0.15924964500E+02  0.47275905128E+01  0.86445449980E+01  0.18726525695E+02  0.00000000000E+00 0. -1.
         11    1    3    3    0    0 -0.13632475626E+01  0.20352146662E+02  0.17770766537E+02  0.27053067501E+02  0.51100000000E-03 0. -1.
        -11    1    3    3    0    0 -0.10541274229E+02 -0.21697215534E+01 -0.17405957216E+02  0.20464444798E+02  0.51100000000E-03 0.  1.
        -12    1    3    3    0    0 -0.40204427078E+01 -0.22910015621E+02 -0.90093543186E+01  0.24943962006E+02  0.00000000000E+00 0.  1.
</event>
<event>
 7    1  0.3305651E-013  0.7246161E+02  0.7816164E-02  0.1226708E+00
        -11   -1    0    0    0    0  0.00000000000E+00  0.00000000000E+00  0.45593999997E+02  0.45594000000E+02  0.51100000000E-03 0. -1.
         11   -1    0    0    0    0 -0.00000000000E+00 -0.00000000000E+00 -0.45593999997E+02  0.45594000000E+02  0.51100000000E-03 0.  1.
    9900012    2    1    2    0    0  0.15393180493E+02 -0.85941039466E+01 -0.63141859139E+01  0.72461612946E+02  0.70000055562E+02 0.  0.
         12    1    1    2    0    0 -0.15393180493E+02  0.85941039466E+01  0.63141859139E+01  0.18726387054E+02  0.00000000000E+00 0. -1.
         11    1    3    3    0    0  0.24799120536E+01 -0.27953708872E+01  0.29331461186E+01  0.47505166671E+01  0.51100000000E-03 0. -1.
        -11    1    3    3    0    0  0.12626730726E+02 -0.28777056367E+02  0.14549236207E+02  0.34629952014E+02  0.51100000000E-03 0.  1.
        -12    1    3    3    0    0  0.28653771342E+00  0.22978323308E+02 -0.23796568239E+02  0.33081144265E+02  0.00000000000E+00 0.  1.
</event>
<event>
 7    1  0.3305651E-013  0.7246145E+02  0.7816164E-02  0.1226708E+00
        -11   -1    0    0    0    0  0.00000000000E+00  0.00000000000E+00  0.45593999997E+02  0.45594000000E+02  0.51100000000E-03 0. -1.
         11   -1    0    0    0    0 -0.00000000000E+00 -0.00000000000E+00 -0.45593999997E+02  0.45594000000E+02  0.51100000000E-03 0.  1.
    9900012    2    1    2    0    0  0.11794469264E+02  0.13176817581E+02  0.61599895554E+01  0.72461454720E+02  0.69999849443E+02 0.  0.
         12    1    1    2    0    0 -0.11794469264E+02 -0.13176817581E+02 -0.61599895554E+01  0.18726545280E+02  0.00000000000E+00 0. -1.
         11    1    3    3    0    0 -0.57089256051E+01 -0.10859782349E+02 -0.16487867244E+02  0.20551799696E+02  0.51100000000E-03 0. -1.
        -11    1    3    3    0    0  0.15926396431E+02  0.14927441144E+02 -0.53083424448E+01  0.22464574382E+02  0.51100000000E-03 0.  1.
        -12    1    3    3    0    0  0.15769984383E+01  0.91091587863E+01  0.27956199244E+02  0.29445080642E+02  0.00000000000E+00 0.  1.
</event>
<event>
 7    1  0.3305651E-013  0.7246149E+02  0.7816164E-02  0.1226708E+00
        -11   -1    0    0    0    0  0.00000000000E+00  0.00000000000E+00  0.45593999997E+02  0.45594000000E+02  0.51100000000E-03 0. -1.
         11   -1    0    0    0    0 -0.00000000000E+00 -0.00000000000E+00 -0.45593999997E+02  0.45594000000E+02  0.51100000000E-03 0.  1.
    9900012    2    1    2    0    0 -0.36919133010E+01  0.11343348251E+02 -0.14435387049E+02  0.72461490111E+02  0.69999895546E+02 0.  0.
         12    1    1    2    0    0  0.36919133010E+01 -0.11343348251E+02  0.14435387049E+02  0.18726509889E+02  0.00000000000E+00 0. -1.
         11    1    3    3    0    0  0.17450107614E+02 -0.56857855379E-01  0.92107408591E+01  0.19731883741E+02  0.51100000000E-03 0. -1.
        -11    1    3    3    0    0 -0.97853096755E+01 -0.12944109190E+01  0.10598368265E+02  0.14482858668E+02  0.51100000000E-03 0.  1.
        -12    1    3    3    0    0 -0.11356711239E+02  0.12694617025E+02 -0.34244496173E+02  0.38246747701E+02  0.00000000000E+00 0.  1.
</event>
<event>
 7    1  0.3305651E-013  0.7246157E+02  0.7816164E-02  0.1226708E+00
        -11   -1    0    0    0    0  0.00000000000E+00  0.00000000000E+00  0.45593999997E+02  0.45594000000E+02  0.51100000000E-03 0. -1.
         11   -1    0    0    0    0 -0.00000000000E+00 -0.00000000000E+00 -0.45593999997E+02  0.45594000000E+02  0.51100000000E-03 0.  1.
    9900012    2    1    2    0    0 -0.81078076485E+01 -0.12175438641E+02 -0.11691941430E+02  0.72461565599E+02  0.69999993884E+02 0.  0.
         12    1    1    2    0    0  0.81078076485E+01  0.12175438641E+02  0.11691941430E+02  0.18726434401E+02  0.00000000000E+00 0. -1.
         11    1    3    3    0    0  0.20222229686E+01  0.17520846834E+02 -0.15299295149E+02  0.23348188191E+02  0.51100000000E-03 0. -1.
        -11    1    3    3    0    0  0.11791042820E+02 -0.31514987331E+00  0.39956807390E+01  0.12453653081E+02  0.51100000000E-03 0.  1.
        -12    1    3    3    0    0 -0.21921073437E+02 -0.29381135601E+02 -0.38832701987E+00  0.36659724327E+02  0.00000000000E+00 0.  1.
</event>
<event>
 7    1  0.3305651E-013  0.7246117E+02  0.7816164E-02  0.1226709E+00
        -11   -1    0    0    0    0  0.00000000000E+00  0.00000000000E+00  0.45593999997E+02  0.45594000000E+02  0.51100000000E-03 0. -1.
         11   -1    0    0    0    0 -0.00000000000E+00 -0.00000000000E+00 -0.45593999997E+02  0.45594000000E+02  0.51100000000E-03 0.  1.
    9900012    2    1    2    0    0 -0.34543086005E+01  0.17451837924E+02 -0.58476809379E+01  0.72461167187E+02  0.69999474876E+02 0.  0.
         12    1    1    2    0    0  0.34543086005E+01 -0.17451837924E+02  0.58476809379E+01  0.18726832813E+02  0.00000000000E+00 0. -1.
         11    1    3    3    0    0 -0.85205468390E+01 -0.99617102430E+01  0.15232983556E+02  0.20096745450E+02  0.51100000000E-03 0. -1.
        -11    1    3    3    0    0  0.17151153970E+01 -0.82882742857E+01 -0.13151197024E+02  0.15639408393E+02  0.51100000000E-03 0.  1.
        -12    1    3    3    0    0  0.33511228415E+01  0.35701822453E+02 -0.79294674692E+01  0.36725013344E+02  0.00000000000E+00 0.  1.
</event>
<event>
 7    1  0.3305651E-013  0.7246221E+02  0.7816164E-02  0.1226706E+00
        -11   -1    0    0    0    0  0.00000000000E+00  0.00000000000E+00  0.45593999997E+02  0.45594000000E+02  0.51100000000E-03 0.  1.
         11   -1    0    0    0    0 -0.00000000000E+00 -0.00000000000E+00 -0.45593999997E+02  0.45594000000E+02  0.51100000000E-03 0. -1.
    9900012    2    1    2    0    0 -0.16007449326E+02 -0.77739496111E+01 -0.58294362399E+01  0.72462214213E+02  0.70000838818E+02 0.  0.
         12    1    1    2    0    0  0.16007449326E+02  0.77739496111E+01  0.58294362399E+01  0.18725785787E+02  0.00000000000E+00 0. -1.
         11    1    3    3    0    0 -0.27573745497E+02 -0.20304115893E+01 -0.25934295100E+02  0.37908068726E+02  0.51100000000E-03 0. -1.
        -11    1    3    3    0    0 -0.56630995443E+01  0.42586319793E+01  0.13909318766E+01  0.72208956875E+01  0.51100000000E-03 0.  1.
        -12    1    3    3    0    0  0.17229395716E+02 -0.10002170001E+02  0.18713926983E+02  0.27333249799E+02  0.00000000000E+00 0.  1.
</event>
<event>
 7    1  0.3305651E-013  0.7246157E+02  0.7816164E-02  0.1226708E+00
        -11   -1    0    0    0    0  0.00000000000E+00  0.00000000000E+00  0.45593999997E+02  0.45594000000E+02  0.51100000000E-03 0.  1.
         11   -1    0    0    0    0 -0.00000000000E+00 -0.00000000000E+00 -0.45593999997E+02  0.45594000000E+02  0.51100000000E-03 0. -1.
    9900012    2    1    2    0    0  0.10435511560E+02  0.13171314842E+02  0.82641222118E+01  0.72461570759E+02  0.70000000605E+02 0.  0.
         12    1    1    2    0    0 -0.10435511560E+02 -0.13171314842E+02 -0.82641222118E+01  0.18726429241E+02  0.00000000000E+00 0. -1.
         11    1    3    3    0    0 -0.19382485505E+01  0.20182584456E+02  0.43919878325E+01  0.20745676179E+02  0.51100000000E-03 0. -1.
        -11    1    3    3    0    0  0.16138155405E+02 -0.61652716137E+00  0.24753081651E+02  0.29555629195E+02  0.51100000000E-03 0.  1.
         12    1    3    3    0    0 -0.37643952951E+01 -0.63947424523E+01 -0.20880947272E+02  0.22160265385E+02  0.00000000000E+00 0. -1.
</event>
<event>
 7    1  0.3305651E-013  0.7246158E+02  0.7816164E-02  0.1226708E+00
        -11   -1    0    0    0    0  0.00000000000E+00  0.00000000000E+00  0.45593999997E+02  0.45594000000E+02  0.51100000000E-03 0. -1.
         11   -1    0    0    0    0 -0.00000000000E+00 -0.00000000000E+00 -0.45593999997E+02  0.45594000000E+02  0.51100000000E-03 0.  1.
    9900012    2    1    2    0    0 -0.34606547920E+01 -0.51616701348E+01 -0.17665214773E+02  0.72461580610E+02  0.70000013438E+02 0.  0.
         12    1    1    2    0    0  0.34606547920E+01  0.51616701348E+01  0.17665214773E+02  0.18726419390E+02  0.00000000000E+00 0. -1.
         11    1    3    3    0    0  0.56971479249E+01  0.15299331472E+02 -0.13315840689E+02  0.21067478527E+02  0.51100000000E-03 0. -1.
        -11    1    3    3    0    0  0.77130903571E+01  0.27449254400E+01 -0.17885924859E+02  0.19670604638E+02  0.51100000000E-03 0.  1.
        -12    1    3    3    0    0 -0.16870893074E+02 -0.23205927047E+02  0.13536550774E+02  0.31723497444E+02  0.00000000000E+00 0.  1.
</event>
<event>
 7    1  0.3305651E-013  0.7246155E+02  0.7816164E-02  0.1226708E+00
        -11   -1    0    0    0    0  0.00000000000E+00  0.00000000000E+00  0.45593999997E+02  0.45594000000E+02  0.51100000000E-03 0.  1.
         11   -1    0    0    0    0 -0.00000000000E+00 -0.00000000000E+00 -0.45593999997E+02  0.45594000000E+02  0.51100000000E-03 0. -1.
    9900012    2    1    2    0    0 -0.35853797655E+01  0.74394285233E+01  0.16807141462E+02  0.72461546814E+02  0.69999969412E+02 0.  0.
         12    1    1    2    0    0  0.35853797655E+01 -0.74394285233E+01 -0.16807141462E+02  0.18726453186E+02  0.00000000000E+00 0. -1.
         11    1    3    3    0    0 -0.84656928906E+01  0.13630084935E+02 -0.15022042808E+02  0.21979739349E+02  0.51100000000E-03 0. -1.
        -11    1    3    3    0    0 -0.46740537929E+01  0.14292171104E+02  0.60785295665E+01  0.16219169389E+02  0.51100000000E-03 0.  1.
        -12    1    3    3    0    0  0.95543669180E+01 -0.20482827516E+02  0.25750654703E+02  0.34262638076E+02  0.00000000000E+00 0.  1.
</event>
<event>
 7    1  0.3305651E-013  0.7246154E+02  0.7816164E-02  0.1226708E+00
        -11   -1    0    0    0    0  0.00000000000E+00  0.00000000000E+00  0.45593999997E+02  0.45594000000E+02  0.51100000000E-03 0.  1.
         11   -1    0    0    0    0 -0.00000000000E+00 -0.00000000000E+00 -0.45593999997E+02  0.45594000000E+02  0.51100000000E-03 0. -1.
    9900012    2    1    2    0    0 -0.94772190893E+01 -0.12496080463E+02 -0.10232821625E+02  0.72461538855E+02  0.69999959045E+02 0.  0.
         12    1    1    2    0    0  0.94772190893E+01  0.12496080463E+02  0.10232821625E+02  0.18726461145E+02  0.00000000000E+00 0. -1.
         11    1    3    3    0    0 -0.22200621976E+02  0.50867031162E+01 -0.18108630904E+02  0.29097502954E+02  0.51100000000E-03 0. -1.
        -11    1    3    3    0    0  0.11900204859E+02  0.20345977566E+01 -0.10849641510E+02  0.16231733884E+02  0.51100000000E-03 0.  1.
        -12    1    3    3    0    0  0.82319802778E+00 -0.19617381336E+02  0.18725450789E+02  0.27132302017E+02  0.00000000000E+00 0.  1.
</event>
<event>
 7    1  0.3305651E-013  0.7246167E+02  0.7816164E-02  0.1226708E+00
        -11   -1    0    0    0    0  0.00000000000E+00  0.00000000000E+00  0.45593999997E+02  0.45594000000E+02  0.51100000000E-03 0.  1.
         11   -1    0    0    0    0 -0.00000000000E+00 -0.00000000000E+00 -0.45593999997E+02  0.45594000000E+02  0.51100000000E-03 0. -1.
    9900012    2    1    2    0    0  0.71755193977E+01  0.17098072951E+02 -0.26159836168E+01  0.72461667002E+02  0.70000125980E+02 0.  0.
         12    1    1    2    0    0 -0.71755193977E+01 -0.17098072951E+02  0.26159836168E+01  0.18726332998E+02  0.00000000000E+00 0. -1.
         11    1    3    3    0    0  0.56631591739E+01  0.39634427956E+01 -0.54338131493E+01  0.87924158356E+01  0.51100000000E-03 0. -1.
        -11    1    3    3    0    0 -0.92045452020E+01 -0.22104780930E+02  0.10330292625E+02  0.26077958860E+02  0.51100000000E-03 0.  1.
         12    1    3    3    0    0  0.10716905426E+02  0.35239411085E+02 -0.75124630920E+01  0.37591292306E+02  0.00000000000E+00 0. -1.
</event>
<event>
 7    1  0.3305651E-013  0.7246154E+02  0.7816164E-02  0.1226708E+00
        -11   -1    0    0    0    0  0.00000000000E+00  0.00000000000E+00  0.45593999997E+02  0.45594000000E+02  0.51100000000E-03 0.  1.
         11   -1    0    0    0    0 -0.00000000000E+00 -0.00000000000E+00 -0.45593999997E+02  0.45594000000E+02  0.51100000000E-03 0. -1.
    9900012    2    1    2    0    0 -0.14757252940E+02 -0.10906908109E+02 -0.37340711904E+01  0.72461536199E+02  0.69999955585E+02 0.  0.
         12    1    1    2    0    0  0.14757252940E+02  0.10906908109E+02  0.37340711904E+01  0.18726463801E+02  0.00000000000E+00 0. -1.
         11    1    3    3    0    0  0.11288322784E+02  0.16149606453E+02  0.67315613674E+00  0.19715201224E+02  0.51100000000E-03 0. -1.
        -11    1    3    3    0    0  0.38842287733E+00  0.73749645827E+01  0.41955724541E+01  0.84937508444E+01  0.51100000000E-03 0.  1.
         12    1    3    3    0    0 -0.26433998601E+02 -0.34431479145E+02 -0.86027997813E+01  0.44252584130E+02  0.00000000000E+00 0. -1.
</event>
<event>
 7    1  0.3305651E-013  0.7246158E+02  0.7816164E-02  0.1226708E+00
        -11   -1    0    0    0    0  0.00000000000E+00  0.00000000000E+00  0.45593999997E+02  0.45594000000E+02  0.51100000000E-03 0. -1.
         11   -1    0    0    0    0 -0.00000000000E+00 -0.00000000000E+00 -0.45593999997E+02  0.45594000000E+02  0.51100000000E-03 0.  1.
    9900012    2    1    2    0    0 -0.14803702528E+02  0.33354818080E+01 -0.10972857245E+02  0.72461584338E+02  0.70000018294E+02 0.  0.
         12    1    1    2    0    0  0.14803702528E+02 -0.33354818080E+01  0.10972857245E+02  0.18726415662E+02  0.00000000000E+00 0. -1.
         11    1    3    3    0    0  0.10881876047E+02 -0.79249483125E+01 -0.10977373990E+02  0.17370169027E+02  0.51100000000E-03 0. -1.
        -11    1    3    3    0    0 -0.14065828766E+02  0.15283417388E+01 -0.23319002437E+02  0.27275616258E+02  0.51100000000E-03 0.  1.
         12    1    3    3    0    0 -0.11619749809E+02  0.97320883816E+01  0.23323519182E+02  0.27815799053E+02  0.00000000000E+00 0. -1.
</event>
<event>
 7    1  0.3305651E-013  0.7246156E+02  0.7816164E-02  0.1226708E+00
        -11   -1    0    0    0    0  0.00000000000E+00  0.00000000000E+00  0.45593999997E+02  0.45594000000E+02  0.51100000000E-03 0.  1.
         11   -1    0    0    0    0 -0.00000000000E+00 -0.00000000000E+00 -0.45593999997E+02  0.45594000000E+02  0.51100000000E-03 0. -1.
    9900012    2    1    2    0    0  0.93734029906E+01 -0.10373780110E+02  0.12458069844E+02  0.72461561426E+02  0.69999988448E+02 0.  0.
         12    1    1    2    0    0 -0.93734029906E+01  0.10373780110E+02 -0.12458069844E+02  0.18726438574E+02  0.00000000000E+00 0. -1.
         11    1    3    3    0    0 -0.17939256770E+01  0.10003395590E+02 -0.22576618257E+01  0.10410721869E+02  0.51100000000E-03 0. -1.
        -11    1    3    3    0    0  0.20413775060E+02  0.11101877256E+02  0.17549500000E+02  0.29119732851E+02  0.51100000000E-03 0.  1.
         12    1    3    3    0    0 -0.92464463925E+01 -0.31479052956E+02 -0.28337683299E+01  0.32931106706E+02  0.00000000000E+00 0. -1.
</event>
<event>
 7    1  0.3305651E-013  0.7246159E+02  0.7816164E-02  0.1226708E+00
        -11   -1    0    0    0    0  0.00000000000E+00  0.00000000000E+00  0.45593999997E+02  0.45594000000E+02  0.51100000000E-03 0. -1.
         11   -1    0    0    0    0 -0.00000000000E+00 -0.00000000000E+00 -0.45593999997E+02  0.45594000000E+02  0.51100000000E-03 0.  1.
    9900012    2    1    2    0    0 -0.89651728422E+01  0.16422167165E+02  0.78513580763E+00  0.72461592530E+02  0.70000028966E+02 0.  0.
         12    1    1    2    0    0  0.89651728422E+01 -0.16422167165E+02 -0.78513580763E+00  0.18726407470E+02  0.00000000000E+00 0. -1.
         11    1    3    3    0    0 -0.15083058440E+02  0.22559725256E+02  0.17198129612E+02  0.32128111024E+02  0.51100000000E-03 0. -1.
        -11    1    3    3    0    0 -0.74329569885E+01  0.12037680508E+02 -0.55929255119E+01  0.15213001599E+02  0.51100000000E-03 0.  1.
        -12    1    3    3    0    0  0.13550842586E+02 -0.18175238599E+02 -0.10820068293E+02  0.25120479907E+02  0.00000000000E+00 0.  1.
</event>
<event>
 7    1  0.3305651E-013  0.7246148E+02  0.7816164E-02  0.1226708E+00
        -11   -1    0    0    0    0  0.00000000000E+00  0.00000000000E+00  0.45593999997E+02  0.45594000000E+02  0.51100000000E-03 0. -1.
         11   -1    0    0    0    0 -0.00000000000E+00 -0.00000000000E+00 -0.45593999997E+02  0.45594000000E+02  0.51100000000E-03 0.  1.
    9900012    2    1    2    0    0  0.11242342679E+02 -0.14435167635E+01 -0.14906661319E+02  0.72461479735E+02  0.69999882029E+02 0.  0.
         12    1    1    2    0    0 -0.11242342679E+02  0.14435167635E+01  0.14906661319E+02  0.18726520265E+02  0.00000000000E+00 0. -1.
         11    1    3    3    0    0  0.71950925802E+01 -0.82109541494E+01  0.11111740582E+02  0.15577544874E+02  0.51100000000E-03 0. -1.
        -11    1    3    3    0    0  0.27703614323E+01 -0.83756303852E+01 -0.37062458848E+02  0.38097925704E+02  0.51100000000E-03 0.  1.
         12    1    3    3    0    0  0.12768886665E+01  0.15143067771E+02  0.11044056947E+02  0.18786009157E+02  0.00000000000E+00 0. -1.
</event>
<event>
 7    1  0.3308901E-013  0.7246159E+02  0.7816164E-02  0.1226708E+00
        -11   -1    0    0    0    0  0.00000000000E+00  0.00000000000E+00  0.45593999997E+02  0.45594000000E+02  0.51100000000E-03 0. -1.
         11   -1    0    0    0    0 -0.00000000000E+00 -0.00000000000E+00 -0.45593999997E+02  0.45594000000E+02  0.51100000000E-03 0.  1.
    9900012    2    1    2    0    0  0.48821916271E+00  0.39103104171E+01 -0.18307089965E+02  0.72461590080E+02  0.70000025775E+02 0.  0.
         12    1    1    2    0    0 -0.48821916271E+00 -0.39103104171E+01  0.18307089965E+02  0.18726409920E+02  0.00000000000E+00 0. -1.
         11    1    3    3    0    0  0.49828527401E+01  0.94656675226E+01  0.20828139402E+02  0.23414505638E+02  0.51100000000E-03 0. -1.
        -11    1    3    3    0    0  0.11064797349E+02  0.28517486775E+01 -0.19665697284E+02  0.22744270944E+02  0.51100000000E-03 0.  1.
        -12    1    3    3    0    0 -0.15559430926E+02 -0.84071057829E+01 -0.19469532083E+02  0.26302813498E+02  0.00000000000E+00 0.  1.
</event>
<event>
 7    1  0.3305651E-013  0.7246155E+02  0.7816164E-02  0.1226708E+00
        -11   -1    0    0    0    0  0.00000000000E+00  0.00000000000E+00  0.45593999997E+02  0.45594000000E+02  0.51100000000E-03 0. -1.
         11   -1    0    0    0    0 -0.00000000000E+00 -0.00000000000E+00 -0.45593999997E+02  0.45594000000E+02  0.51100000000E-03 0.  1.
    9900012    2    1    2    0    0 -0.88181110867E+01 -0.76436680405E+01 -0.14645648380E+02  0.72461554509E+02  0.69999979437E+02 0.  0.
         12    1    1    2    0    0  0.88181110867E+01  0.76436680405E+01  0.14645648380E+02  0.18726445491E+02  0.00000000000E+00 0. -1.
         11    1    3    3    0    0 -0.22649039341E+01 -0.27768758751E+01 -0.21911256758E+01  0.42002215947E+01  0.51100000000E-03 0.  1.
        -11    1    3    3    0    0 -0.35359562887E+02  0.14215531941E+01  0.19586719879E+01  0.35442289673E+02  0.51100000000E-03 0. -1.
         12    1    3    3    0    0  0.28806355735E+02 -0.62883453595E+01 -0.14413194692E+02  0.32819043242E+02  0.00000000000E+00 0. -1.
</event>
<event>
 7    1  0.3305651E-013  0.7246152E+02  0.7816164E-02  0.1226708E+00
        -11   -1    0    0    0    0  0.00000000000E+00  0.00000000000E+00  0.45593999997E+02  0.45594000000E+02  0.51100000000E-03 0. -1.
         11   -1    0    0    0    0 -0.00000000000E+00 -0.00000000000E+00 -0.45593999997E+02  0.45594000000E+02  0.51100000000E-03 0.  1.
    9900012    2    1    2    0    0  0.12938502613E+02  0.11780511079E+02 -0.66705009845E+01  0.72461524771E+02  0.69999940697E+02 0.  0.
         12    1    1    2    0    0 -0.12938502613E+02 -0.11780511079E+02  0.66705009845E+01  0.18726475229E+02  0.00000000000E+00 0. -1.
         11    1    3    3    0    0 -0.20719287795E+01  0.11155513106E+02  0.41627985729E+00  0.11353926664E+02  0.51100000000E-03 0. -1.
        -11    1    3    3    0    0  0.39776988710E+01  0.28756814007E+02 -0.10105788933E+02  0.30739281227E+02  0.51100000000E-03 0.  1.
        -12    1    3    3    0    0  0.11032732521E+02 -0.28131816033E+02  0.30190080915E+01  0.30368316879E+02  0.00000000000E+00 0.  1.
</event>
<event>
 7    1  0.3305651E-013  0.7246162E+02  0.7816164E-02  0.1226708E+00
        -11   -1    0    0    0    0  0.00000000000E+00  0.00000000000E+00  0.45593999997E+02  0.45594000000E+02  0.51100000000E-03 0. -1.
         11   -1    0    0    0    0 -0.00000000000E+00 -0.00000000000E+00 -0.45593999997E+02  0.45594000000E+02  0.51100000000E-03 0.  1.
    9900012    2    1    2    0    0  0.43352782133E+01 -0.17758087469E+02  0.40660985009E+01  0.72461615812E+02  0.70000059295E+02 0.  0.
         12    1    1    2    0    0 -0.43352782133E+01  0.17758087469E+02 -0.40660985009E+01  0.18726384188E+02  0.00000000000E+00 0. -1.
         11    1    3    3    0    0  0.11385848697E+02 -0.39478710129E+01 -0.25180066946E+02  0.27915211047E+02  0.51100000000E-03 0. -1.
        -11    1    3    3    0    0 -0.99358361382E+00  0.17820506814E+01 -0.55637124993E+01  0.59260281863E+01  0.51100000000E-03 0.  1.
         12    1    3    3    0    0 -0.60569868702E+01 -0.15592267137E+02  0.34809877947E+02  0.38620376579E+02  0.00000000000E+00 0. -1.
</event>
<event>
 7    1  0.3305651E-013  0.7246162E+02  0.7816164E-02  0.1226708E+00
        -11   -1    0    0    0    0  0.00000000000E+00  0.00000000000E+00  0.45593999997E+02  0.45594000000E+02  0.51100000000E-03 0. -1.
         11   -1    0    0    0    0 -0.00000000000E+00 -0.00000000000E+00 -0.45593999997E+02  0.45594000000E+02  0.51100000000E-03 0.  1.
    9900012    2    1    2    0    0  0.38295551277E+01 -0.17783270745E+02 -0.44460145302E+01  0.72461621384E+02  0.70000066553E+02 0.  0.
         12    1    1    2    0    0 -0.38295551277E+01  0.17783270745E+02  0.44460145302E+01  0.18726378616E+02  0.00000000000E+00 0. -1.
         11    1    3    3    0    0 -0.41488308400E+00  0.22257984558E+02  0.54555772212E+00  0.22268534708E+02  0.51100000000E-03 0. -1.
        -11    1    3    3    0    0  0.16134323759E+01 -0.12026089539E+01  0.86985693346E+01  0.89283000094E+01  0.51100000000E-03 0.  1.
        -12    1    3    3    0    0  0.26310058357E+01 -0.38838646349E+02 -0.13690141587E+02  0.41264786666E+02  0.00000000000E+00 0.  1.
</event>
<event>
 7    1  0.3305651E-013  0.7246149E+02  0.7816164E-02  0.1226708E+00
        -11   -1    0    0    0    0  0.00000000000E+00  0.00000000000E+00  0.45593999997E+02  0.45594000000E+02  0.51100000000E-03 0.  1.
         11   -1    0    0    0    0 -0.00000000000E+00 -0.00000000000E+00 -0.45593999997E+02  0.45594000000E+02  0.51100000000E-03 0. -1.
    9900012    2    1    2    0    0  0.13496208056E+02 -0.61622145601E+01  0.11426358128E+02  0.72461489908E+02  0.69999895281E+02 0.  0.
         12    1    1    2    0    0 -0.13496208056E+02  0.61622145601E+01 -0.11426358128E+02  0.18726510092E+02  0.00000000000E+00 0. -1.
         11    1    3    3    0    0  0.26830464680E+02 -0.31666216924E+01  0.14815853316E+02  0.30812511058E+02  0.51100000000E-03 0. -1.
        -11    1    3    3    0    0 -0.76282572667E+01 -0.13600969801E+02  0.13689922366E+02  0.20750678618E+02  0.51100000000E-03 0.  1.
         12    1    3    3    0    0 -0.57059993580E+01  0.10605376934E+02 -0.17079417554E+02  0.20898300232E+02  0.00000000000E+00 0. -1.
</event>
<event>
 7    1  0.3305651E-013  0.7246147E+02  0.7816164E-02  0.1226708E+00
        -11   -1    0    0    0    0  0.00000000000E+00  0.00000000000E+00  0.45593999997E+02  0.45594000000E+02  0.51100000000E-03 0. -1.
         11   -1    0    0    0    0 -0.00000000000E+00 -0.00000000000E+00 -0.45593999997E+02  0.45594000000E+02  0.51100000000E-03 0.  1.
    9900012    2    1    2    0    0  0.31942664968E+01  0.63313565543E+01 -0.17331867868E+02  0.72461466469E+02  0.69999864748E+02 0.  0.
         12    1    1    2    0    0 -0.31942664968E+01 -0.63313565543E+01  0.17331867868E+02  0.18726533531E+02  0.00000000000E+00 0. -1.
         11    1    3    3    0    0 -0.76316418052E+01 -0.19906745062E+01 -0.41299897918E+01  0.89028960217E+01  0.51100000000E-03 0. -1.
        -11    1    3    3    0    0  0.74396537198E+01 -0.88564536713E+01 -0.34267229038E+02  0.36166672578E+02  0.51100000000E-03 0.  1.
        -12    1    3    3    0    0  0.33862545822E+01  0.17178484732E+02  0.21065350962E+02  0.27391897870E+02  0.00000000000E+00 0.  1.
</event>
<event>
 7    1  0.3305651E-013  0.7246158E+02  0.7816164E-02  0.1226708E+00
        -11   -1    0    0    0    0  0.00000000000E+00  0.00000000000E+00  0.45593999997E+02  0.45594000000E+02  0.51100000000E-03 0. -1.
         11   -1    0    0    0    0 -0.00000000000E+00 -0.00000000000E+00 -0.45593999997E+02  0.45594000000E+02  0.51100000000E-03 0.  1.
    9900012    2    1    2    0    0  0.67248004760E+01 -0.29409067629E+01 -0.17228090821E+02  0.72461575158E+02  0.70000006336E+02 0.  0.
         12    1    1    2    0    0 -0.67248004760E+01  0.29409067629E+01  0.17228090821E+02  0.18726424842E+02  0.00000000000E+00 0. -1.
         11    1    3    3    0    0  0.22332500768E+02 -0.18990100462E+02  0.56981531448E+01  0.29863580757E+02  0.51100000000E-03 0.  1.
        -11    1    3    3    0    0 -0.10635671371E+02 -0.36828684741E+01  0.86859815327E+00  0.11288732822E+02  0.51100000000E-03 0. -1.
        -12    1    3    3    0    0 -0.49720289203E+01  0.19732062173E+02 -0.23794842119E+02  0.31309261579E+02  0.00000000000E+00 0.  1.
</event>
<event>
 7    1  0.3305651E-013  0.7246158E+02  0.7816164E-02  0.1226708E+00
        -11   -1    0    0    0    0  0.00000000000E+00  0.00000000000E+00  0.45593999997E+02  0.45594000000E+02  0.51100000000E-03 0. -1.
         11   -1    0    0    0    0 -0.00000000000E+00 -0.00000000000E+00 -0.45593999997E+02  0.45594000000E+02  0.51100000000E-03 0.  1.
    9900012    2    1    2    0    0 -0.43443353798E+01  0.12815329650E+02 -0.12944994802E+02  0.72461579778E+02  0.70000012354E+02 0.  0.
         12    1    1    2    0    0  0.43443353798E+01 -0.12815329650E+02  0.12944994802E+02  0.18726420222E+02  0.00000000000E+00 0. -1.
         11    1    3    3    0    0  0.72919033854E+00  0.82865381411E+00 -0.11540546970E+02  0.11593213978E+02  0.51100000000E-03 0. -1.
        -11    1    3    3    0    0 -0.29122064384E+02 -0.64538669367E+01  0.39665631404E+01  0.30091205623E+02  0.51100000000E-03 0.  1.
         12    1    3    3    0    0  0.24048538666E+02  0.18440542773E+02 -0.53710109715E+01  0.30777160177E+02  0.00000000000E+00 0. -1.
</event>
<event>
 7    1  0.3305651E-013  0.7246155E+02  0.7816164E-02  0.1226708E+00
        -11   -1    0    0    0    0  0.00000000000E+00  0.00000000000E+00  0.45593999997E+02  0.45594000000E+02  0.51100000000E-03 0.  1.
         11   -1    0    0    0    0 -0.00000000000E+00 -0.00000000000E+00 -0.45593999997E+02  0.45594000000E+02  0.51100000000E-03 0. -1.
    9900012    2    1    2    0    0  0.71978681846E+01 -0.14767458226E+02  0.89884734243E+01  0.72461553905E+02  0.69999978650E+02 0.  0.
         12    1    1    2    0    0 -0.71978681846E+01  0.14767458226E+02 -0.89884734243E+01  0.18726446095E+02  0.00000000000E+00 0. -1.
         11    1    3    3    0    0  0.16060775067E+02 -0.14072004228E+02 -0.37100326671E+01  0.21673350950E+02  0.51100000000E-03 0. -1.
        -11    1    3    3    0    0  0.51488921998E+01 -0.19110774788E+02 -0.63824892054E+01  0.20795888358E+02  0.51100000000E-03 0.  1.
         12    1    3    3    0    0 -0.14011799083E+02  0.18415320791E+02  0.19080995297E+02  0.29992314597E+02  0.00000000000E+00 0. -1.
</event>
<event>
 7    1  0.3305651E-013  0.7246162E+02  0.7816164E-02  0.1226708E+00
        -11   -1    0    0    0    0  0.00000000000E+00  0.00000000000E+00  0.45593999997E+02  0.45594000000E+02  0.51100000000E-03 0.  1.
         11   -1    0    0    0    0 -0.00000000000E+00 -0.00000000000E+00 -0.45593999997E+02  0.45594000000E+02  0.51100000000E-03 0. -1.
    9900012    2    1    2    0    0 -0.97957445327E+01  0.28743271496E+01  0.15699011604E+02  0.72461619334E+02  0.70000063883E+02 0.  0.
         12    1    1    2    0    0  0.97957445327E+01 -0.28743271496E+01 -0.15699011604E+02  0.18726380666E+02  0.00000000000E+00 0. -1.
         11    1    3    3    0    0  0.39577765701E+01 -0.20724208145E+02  0.12162255208E+02  0.24353177423E+02  0.51100000000E-03 0. -1.
        -11    1    3    3    0    0  0.96631909811E+01 -0.49108675948E+01 -0.12270042947E+01  0.10908685543E+02  0.51100000000E-03 0.  1.
         12    1    3    3    0    0 -0.23416712084E+02  0.28509402889E+02  0.47637606903E+01  0.37199756368E+02  0.00000000000E+00 0. -1.
</event>
<event>
 7    1  0.3305651E-013  0.7246158E+02  0.7816164E-02  0.1226708E+00
        -11   -1    0    0    0    0  0.00000000000E+00  0.00000000000E+00  0.45593999997E+02  0.45594000000E+02  0.51100000000E-03 0.  1.
         11   -1    0    0    0    0 -0.00000000000E+00 -0.00000000000E+00 -0.45593999997E+02  0.45594000000E+02  0.51100000000E-03 0. -1.
    9900012    2    1    2    0    0  0.32837525923E+01 -0.15815702150E+02  0.94741480992E+01  0.72461576215E+02  0.70000007713E+02 0.  0.
         12    1    1    2    0    0 -0.32837525923E+01  0.15815702150E+02 -0.94741480992E+01  0.18726423785E+02  0.00000000000E+00 0. -1.
         11    1    3    3    0    0 -0.18953025424E+02 -0.14897946916E+02  0.17630098754E+02  0.29866140986E+02  0.51100000000E-03 0. -1.
        -11    1    3    3    0    0 -0.91788897259E+01  0.22766468965E+00 -0.62382952352E+01  0.11100458347E+02  0.51100000000E-03 0.  1.
        -12    1    3    3    0    0  0.31415667742E+02 -0.11454199235E+01 -0.19176554195E+01  0.31494976882E+02  0.00000000000E+00 0.  1.
</event>
<event>
 7    1  0.3305651E-013  0.7246154E+02  0.7816164E-02  0.1226708E+00
        -11   -1    0    0    0    0  0.00000000000E+00  0.00000000000E+00  0.45593999997E+02  0.45594000000E+02  0.51100000000E-03 0. -1.
         11   -1    0    0    0    0 -0.00000000000E+00 -0.00000000000E+00 -0.45593999997E+02  0.45594000000E+02  0.51100000000E-03 0.  1.
    9900012    2    1    2    0    0  0.17963901956E+02  0.14395099905E+01 -0.50898261540E+01  0.72461540304E+02  0.69999960931E+02 0.  0.
         12    1    1    2    0    0 -0.17963901956E+02 -0.14395099905E+01  0.50898261540E+01  0.18726459696E+02  0.00000000000E+00 0. -1.
         11    1    3    3    0    0  0.16276728476E+02  0.17946257739E+02  0.93648622367E+01  0.25975001476E+02  0.51100000000E-03 0. -1.
        -11    1    3    3    0    0  0.43803114121E+01  0.12676727273E+02 -0.10246871725E+02  0.16878534381E+02  0.51100000000E-03 0.  1.
        -12    1    3    3    0    0 -0.26931379326E+01 -0.29183475021E+02 -0.42078166656E+01  0.29608004447E+02  0.00000000000E+00 0.  1.
</event>
<event>
 7    1  0.3305651E-013  0.7246156E+02  0.7816164E-02  0.1226708E+00
        -11   -1    0    0    0    0  0.00000000000E+00  0.00000000000E+00  0.45593999997E+02  0.45594000000E+02  0.51100000000E-03 0.  1.
         11   -1    0    0    0    0 -0.00000000000E+00 -0.00000000000E+00 -0.45593999997E+02  0.45594000000E+02  0.51100000000E-03 0. -1.
    9900012    2    1    2    0    0 -0.37399072729E+01 -0.18318339607E+02 -0.10634504833E+01  0.72461564159E+02  0.69999992008E+02 0.  0.
         12    1    1    2    0    0  0.37399072729E+01  0.18318339607E+02  0.10634504833E+01  0.18726435841E+02  0.00000000000E+00 0. -1.
         11    1    3    3    0    0  0.92694010237E+01  0.76793997557E+01 -0.21311651751E+02  0.24476140965E+02  0.51100000000E-03 0. -1.
        -11    1    3    3    0    0 -0.90901697154E+01  0.62368235647E+01  0.55387521206E+01  0.12337217229E+02  0.51100000000E-03 0.  1.
        -12    1    3    3    0    0 -0.39191385812E+01 -0.32234562928E+02  0.14709449147E+02  0.35648205965E+02  0.00000000000E+00 0.  1.
</event>
<event>
 7    1  0.3305651E-013  0.7246155E+02  0.7816164E-02  0.1226708E+00
        -11   -1    0    0    0    0  0.00000000000E+00  0.00000000000E+00  0.45593999997E+02  0.45594000000E+02  0.51100000000E-03 0.  1.
         11   -1    0    0    0    0 -0.00000000000E+00 -0.00000000000E+00 -0.45593999997E+02  0.45594000000E+02  0.51100000000E-03 0. -1.
    9900012    2    1    2    0    0 -0.12090422444E+02 -0.13943257865E+02 -0.31760480021E+01  0.72461547168E+02  0.69999969874E+02 0.  0.
         12    1    1    2    0    0  0.12090422444E+02  0.13943257865E+02  0.31760480021E+01  0.18726452832E+02  0.00000000000E+00 0. -1.
         11    1    3    3    0    0  0.12278912107E+02  0.66322578490E+00  0.18714918440E+02  0.22393296395E+02  0.51100000000E-03 0. -1.
        -11    1    3    3    0    0 -0.18634622873E+02 -0.96970091870E+01  0.54516961785E+01  0.21702583908E+02  0.51100000000E-03 0.  1.
         12    1    3    3    0    0 -0.57347116780E+01 -0.49094744628E+01 -0.27342662620E+02  0.28365666865E+02  0.00000000000E+00 0. -1.
</event>
<event>
 7    1  0.3305651E-013  0.7246156E+02  0.7816164E-02  0.1226708E+00
        -11   -1    0    0    0    0  0.00000000000E+00  0.00000000000E+00  0.45593999997E+02  0.45594000000E+02  0.51100000000E-03 0.  1.
         11   -1    0    0    0    0 -0.00000000000E+00 -0.00000000000E+00 -0.45593999997E+02  0.45594000000E+02  0.51100000000E-03 0. -1.
    9900012    2    1    2    0    0 -0.10880715279E+02 -0.15295159156E+01  0.15164110184E+02  0.72461558224E+02  0.69999984276E+02 0.  0.
         12    1    1    2    0    0  0.10880715279E+02  0.15295159156E+01 -0.15164110184E+02  0.18726441776E+02  0.00000000000E+00 0. -1.
         11    1    3    3    0    0 -0.11166564643E+02 -0.20549623423E+02  0.18863673303E+02  0.30046919302E+02  0.51100000000E-03 0.  1.
        -11    1    3    3    0    0  0.45744259961E+01  0.22378824532E+02  0.11996467473E+02  0.25800240168E+02  0.51100000000E-03 0. -1.
        -12    1    3    3    0    0 -0.42885766323E+01 -0.33587170246E+01 -0.15696030593E+02  0.16614398754E+02  0.00000000000E+00 0.  1.
</event>
<event>
 7    1  0.3305651E-013  0.7246158E+02  0.7816164E-02  0.1226708E+00
        -11   -1    0    0    0    0  0.00000000000E+00  0.00000000000E+00  0.45593999997E+02  0.45594000000E+02  0.51100000000E-03 0.  1.
         11   -1    0    0    0    0 -0.00000000000E+00 -0.00000000000E+00 -0.45593999997E+02  0.45594000000E+02  0.51100000000E-03 0. -1.
    9900012    2    1    2    0    0  0.22176387464E+01  0.90546405297E+01  0.16241136365E+02  0.72461576232E+02  0.70000007734E+02 0.  0.
         12    1    1    2    0    0 -0.22176387464E+01 -0.90546405297E+01 -0.16241136365E+02  0.18726423768E+02  0.00000000000E+00 0. -1.
         11    1    3    3    0    0  0.10945813476E+02  0.55351852113E+01 -0.61383338425E+01  0.13715985222E+02  0.51100000000E-03 0. -1.
        -11    1    3    3    0    0  0.15990392753E+02 -0.15597069634E+02  0.14113634369E+02  0.26422640234E+02  0.51100000000E-03 0.  1.
         12    1    3    3    0    0 -0.24718567484E+02  0.19116524953E+02  0.82658358382E+01  0.32322950775E+02  0.00000000000E+00 0. -1.
</event>
<event>
 7    1  0.3305651E-013  0.7246161E+02  0.7816164E-02  0.1226708E+00
        -11   -1    0    0    0    0  0.00000000000E+00  0.00000000000E+00  0.45593999997E+02  0.45594000000E+02  0.51100000000E-03 0.  1.
         11   -1    0    0    0    0 -0.00000000000E+00 -0.00000000000E+00 -0.45593999997E+02  0.45594000000E+02  0.51100000000E-03 0. -1.
    9900012    2    1    2    0    0  0.16857759097E+02 -0.80841944828E+01  0.10674213081E+01  0.72461611388E+02  0.70000053532E+02 0.  0.
         12    1    1    2    0    0 -0.16857759097E+02  0.80841944828E+01 -0.10674213081E+01  0.18726388612E+02  0.00000000000E+00 0. -1.
         11    1    3    3    0    0  0.78179809561E+01  0.57714381552E+01 -0.27869131996E+02  0.29514722481E+02  0.51100000000E-03 0. -1.
        -11    1    3    3    0    0 -0.17121723493E+01  0.99275979044E+00 -0.44433049995E+01  0.48641613599E+01  0.51100000000E-03 0.  1.
        -12    1    3    3    0    0  0.10751950490E+02 -0.14848392428E+02  0.33379858304E+02  0.38082727547E+02  0.00000000000E+00 0.  1.
</event>
<event>
 7    1  0.3305651E-013  0.7246157E+02  0.7816164E-02  0.1226708E+00
        -11   -1    0    0    0    0  0.00000000000E+00  0.00000000000E+00  0.45593999997E+02  0.45594000000E+02  0.51100000000E-03 0.  1.
         11   -1    0    0    0    0 -0.00000000000E+00 -0.00000000000E+00 -0.45593999997E+02  0.45594000000E+02  0.51100000000E-03 0. -1.
    9900012    2    1    2    0    0 -0.12816468413E+02  0.38326063879E+01  0.13104518778E+02  0.72461570904E+02  0.70000000794E+02 0.  0.
         12    1    1    2    0    0  0.12816468413E+02 -0.38326063879E+01 -0.13104518778E+02  0.18726429096E+02  0.00000000000E+00 0. -1.
         11    1    3    3    0    0 -0.26520985736E+02 -0.16441169542E+02 -0.11686225321E+02  0.33320303162E+02  0.51100000000E-03 0. -1.
        -11    1    3    3    0    0  0.14624816005E+01  0.11101236042E+02  0.15298961221E+01  0.11301189163E+02  0.51100000000E-03 0.  1.
        -12    1    3    3    0    0  0.12242035722E+02  0.91725398883E+01  0.23260847977E+02  0.27840078578E+02  0.00000000000E+00 0.  1.
</event>
<event>
 7    1  0.3305651E-013  0.7246158E+02  0.7816164E-02  0.1226708E+00
        -11   -1    0    0    0    0  0.00000000000E+00  0.00000000000E+00  0.45593999997E+02  0.45594000000E+02  0.51100000000E-03 0.  1.
         11   -1    0    0    0    0 -0.00000000000E+00 -0.00000000000E+00 -0.45593999997E+02  0.45594000000E+02  0.51100000000E-03 0. -1.
    9900012    2    1    2    0    0  0.69903925978E+01 -0.66368767472E+01  0.16055067448E+02  0.72461577160E+02  0.70000008944E+02 0.  0.
         12    1    1    2    0    0 -0.69903925978E+01  0.66368767472E+01 -0.16055067448E+02  0.18726422840E+02  0.00000000000E+00 0. -1.
         11    1    3    3    0    0  0.89320582587E+01 -0.47115715244E+01 -0.36492293685E+01  0.10737664840E+02  0.51100000000E-03 0. -1.
        -11    1    3    3    0    0  0.74191291302E+01 -0.27872760586E+02  0.18185923386E+02  0.34097830861E+02  0.51100000000E-03 0.  1.
         12    1    3    3    0    0 -0.93607947910E+01  0.25947455363E+02  0.15183734303E+01  0.27626081460E+02  0.00000000000E+00 0. -1.
</event>
<event>
 7    1  0.3305651E-013  0.7246153E+02  0.7816164E-02  0.1226708E+00
        -11   -1    0    0    0    0  0.00000000000E+00  0.00000000000E+00  0.45593999997E+02  0.45594000000E+02  0.51100000000E-03 0. -1.
         11   -1    0    0    0    0 -0.00000000000E+00 -0.00000000000E+00 -0.45593999997E+02  0.45594000000E+02  0.51100000000E-03 0.  1.
    9900012    2    1    2    0    0  0.13467759517E+02 -0.11021154103E+02 -0.69162335691E+01  0.72461530205E+02  0.69999947777E+02 0.  0.
         12    1    1    2    0    0 -0.13467759517E+02  0.11021154103E+02  0.69162335691E+01  0.18726469795E+02  0.00000000000E+00 0. -1.
         11    1    3    3    0    0  0.86548034047E+01 -0.63853468603E+01  0.74678897538E+01  0.13093802127E+02  0.51100000000E-03 0. -1.
        -11    1    3    3    0    0  0.53875180334E+01 -0.17454852700E+02  0.17315204882E+02  0.25169695145E+02  0.51100000000E-03 0.  1.
         12    1    3    3    0    0 -0.57456192079E+00  0.12819045457E+02 -0.31699328205E+02  0.34198032933E+02  0.00000000000E+00 0. -1.
</event>
<event>
 7    1  0.3305651E-013  0.7246150E+02  0.7816164E-02  0.1226708E+00
        -11   -1    0    0    0    0  0.00000000000E+00  0.00000000000E+00  0.45593999997E+02  0.45594000000E+02  0.51100000000E-03 0. -1.
         11   -1    0    0    0    0 -0.00000000000E+00 -0.00000000000E+00 -0.45593999997E+02  0.45594000000E+02  0.51100000000E-03 0.  1.
    9900012    2    1    2    0    0 -0.56040059266E+01 -0.38802736588E+00 -0.17864106925E+02  0.72461501024E+02  0.69999909762E+02 0.  0.
         12    1    1    2    0    0  0.56040059266E+01  0.38802736588E+00  0.17864106925E+02  0.18726498976E+02  0.00000000000E+00 0. -1.
         11    1    3    3    0    0  0.81674658817E+01  0.10034013310E+02  0.15627063180E+02  0.20287780212E+02  0.51100000000E-03 0. -1.
        -11    1    3    3    0    0  0.11250688189E+02 -0.98385719102E+01 -0.13518107901E+02  0.20152288293E+02  0.51100000000E-03 0.  1.
        -12    1    3    3    0    0 -0.25022159997E+02 -0.58346876602E+00 -0.19973062204E+02  0.32021432519E+02  0.00000000000E+00 0.  1.
</event>
<event>
 7    1  0.3305651E-013  0.7246163E+02  0.7816164E-02  0.1226708E+00
        -11   -1    0    0    0    0  0.00000000000E+00  0.00000000000E+00  0.45593999997E+02  0.45594000000E+02  0.51100000000E-03 0. -1.
         11   -1    0    0    0    0 -0.00000000000E+00 -0.00000000000E+00 -0.45593999997E+02  0.45594000000E+02  0.51100000000E-03 0.  1.
    9900012    2    1    2    0    0 -0.56261116131E+01  0.89157608386E+01 -0.15476855759E+02  0.72461628557E+02  0.70000075898E+02 0.  0.
         12    1    1    2    0    0  0.56261116131E+01 -0.89157608386E+01  0.15476855759E+02  0.18726371443E+02  0.00000000000E+00 0. -1.
         11    1    3    3    0    0 -0.61158652337E+01  0.18258362512E+02  0.16711404721E+02  0.25495934130E+02  0.51100000000E-03 0. -1.
        -11    1    3    3    0    0  0.59197213277E+01  0.88018560536E+01 -0.24176855206E+02  0.26401441220E+02  0.51100000000E-03 0.  1.
        -12    1    3    3    0    0 -0.54299677072E+01 -0.18144457727E+02 -0.80114052739E+01  0.20564253207E+02  0.00000000000E+00 0.  1.
</event>
<event>
 7    1  0.3305651E-013  0.7246155E+02  0.7816164E-02  0.1226708E+00
        -11   -1    0    0    0    0  0.00000000000E+00  0.00000000000E+00  0.45593999997E+02  0.45594000000E+02  0.51100000000E-03 0.  1.
         11   -1    0    0    0    0 -0.00000000000E+00 -0.00000000000E+00 -0.45593999997E+02  0.45594000000E+02  0.51100000000E-03 0. -1.
    9900012    2    1    2    0    0 -0.16198904658E+02  0.55700496120E+01  0.75663656970E+01  0.72461552001E+02  0.69999976170E+02 0.  0.
         12    1    1    2    0    0  0.16198904658E+02 -0.55700496120E+01 -0.75663656970E+01  0.18726447999E+02  0.00000000000E+00 0. -1.
         11    1    3    3    0    0 -0.14928944808E+02  0.11070768523E+02  0.23534636162E+02  0.29988571295E+02  0.51100000000E-03 0. -1.
        -11    1    3    3    0    0 -0.20635177885E+01 -0.95634304075E+01  0.11268745048E+02  0.14923200798E+02  0.51100000000E-03 0.  1.
         12    1    3    3    0    0  0.79355793853E+00  0.40627114967E+01 -0.27237015514E+02  0.27549779908E+02  0.00000000000E+00 0. -1.
</event>
<event>
 7    1  0.3305651E-013  0.7246209E+02  0.7816164E-02  0.1226707E+00
        -11   -1    0    0    0    0  0.00000000000E+00  0.00000000000E+00  0.45593999997E+02  0.45594000000E+02  0.51100000000E-03 0.  1.
         11   -1    0    0    0    0 -0.00000000000E+00 -0.00000000000E+00 -0.45593999997E+02  0.45594000000E+02  0.51100000000E-03 0. -1.
    9900012    2    1    2    0    0  0.40942798981E+01  0.87835272674E+01  0.16023307557E+02  0.72462085758E+02  0.70000671484E+02 0.  0.
         12    1    1    2    0    0 -0.40942798981E+01 -0.87835272674E+01 -0.16023307557E+02  0.18725914242E+02  0.00000000000E+00 0. -1.
         11    1    3    3    0    0  0.12971793679E+02 -0.83138702532E+01  0.10440921378E+02  0.18611843254E+02  0.51100000000E-03 0. -1.
        -11    1    3    3    0    0  0.65225016942E+00  0.33937824652E+02  0.61275250884E+01  0.34492722948E+02  0.51100000000E-03 0.  1.
         12    1    3    3    0    0 -0.95297639502E+01 -0.16840427131E+02 -0.54513891011E+00  0.19357519556E+02  0.00000000000E+00 0. -1.
</event>
<event>
 7    1  0.3305651E-013  0.7246151E+02  0.7816164E-02  0.1226708E+00
        -11   -1    0    0    0    0  0.00000000000E+00  0.00000000000E+00  0.45593999997E+02  0.45594000000E+02  0.51100000000E-03 0.  1.
         11   -1    0    0    0    0 -0.00000000000E+00 -0.00000000000E+00 -0.45593999997E+02  0.45594000000E+02  0.51100000000E-03 0. -1.
    9900012    2    1    2    0    0  0.15178228929E+02 -0.10946018233E+02  0.69811001224E+00  0.72461513246E+02  0.69999925683E+02 0.  0.
         12    1    1    2    0    0 -0.15178228929E+02  0.10946018233E+02 -0.69811001224E+00  0.18726486754E+02  0.00000000000E+00 0. -1.
         11    1    3    3    0    0 -0.32724459152E+01 -0.10612320732E+00  0.82996624285E+00  0.33777224025E+01  0.51100000000E-03 0. -1.
        -11    1    3    3    0    0 -0.23961134127E+02  0.34039760472E+01  0.20682642374E+01  0.24289930399E+02  0.51100000000E-03 0.  1.
         12    1    3    3    0    0  0.42411808971E+02 -0.14243871073E+02 -0.22001204680E+01  0.44793860444E+02  0.00000000000E+00 0. -1.
</event>
<event>
 7    1  0.3305651E-013  0.7246159E+02  0.7816164E-02  0.1226708E+00
        -11   -1    0    0    0    0  0.00000000000E+00  0.00000000000E+00  0.45593999997E+02  0.45594000000E+02  0.51100000000E-03 0. -1.
         11   -1    0    0    0    0 -0.00000000000E+00 -0.00000000000E+00 -0.45593999997E+02  0.45594000000E+02  0.51100000000E-03 0.  1.
    9900012    2    1    2    0    0 -0.17756880658E+02 -0.58330920110E+01  0.11604963844E+01  0.72461587504E+02  0.70000022419E+02 0.  0.
         12    1    1    2    0    0  0.17756880658E+02  0.58330920110E+01 -0.11604963844E+01  0.18726412496E+02  0.00000000000E+00 0. -1.
         11    1    3    3    0    0 -0.15989412515E+02 -0.39402178321E+01 -0.13778026473E+02  0.21471391266E+02  0.51100000000E-03 0. -1.
        -11    1    3    3    0    0 -0.47263398867E+01  0.13819733857E+02 -0.12505813969E+02  0.19228071039E+02  0.51100000000E-03 0.  1.
         12    1    3    3    0    0  0.29588717431E+01 -0.15712608036E+02  0.27444336826E+02  0.31762125199E+02  0.00000000000E+00 0. -1.
</event>
<event>
 7    1  0.3305651E-013  0.7246157E+02  0.7816164E-02  0.1226708E+00
        -11   -1    0    0    0    0  0.00000000000E+00  0.00000000000E+00  0.45593999997E+02  0.45594000000E+02  0.51100000000E-03 0.  1.
         11   -1    0    0    0    0 -0.00000000000E+00 -0.00000000000E+00 -0.45593999997E+02  0.45594000000E+02  0.51100000000E-03 0. -1.
    9900012    2    1    2    0    0  0.45747479488E+01  0.15074183054E+02  0.10125204565E+02  0.72461572657E+02  0.70000003078E+02 0.  0.
         12    1    1    2    0    0 -0.45747479488E+01 -0.15074183054E+02 -0.10125204565E+02  0.18726427343E+02  0.00000000000E+00 0. -1.
         11    1    3    3    0    0 -0.90310024289E+01  0.88011483932E+01 -0.37060619463E+01  0.13143595905E+02  0.51100000000E-03 0. -1.
        -11    1    3    3    0    0  0.49421798492E+01  0.30589471364E+02  0.23772199744E+01  0.31077195418E+02  0.51100000000E-03 0.  1.
        -12    1    3    3    0    0  0.86635705285E+01 -0.24316436704E+02  0.11454046537E+02  0.28240781334E+02  0.00000000000E+00 0.  1.
</event>
<event>
 7    1  0.3305651E-013  0.7246156E+02  0.7816164E-02  0.1226708E+00
        -11   -1    0    0    0    0  0.00000000000E+00  0.00000000000E+00  0.45593999997E+02  0.45594000000E+02  0.51100000000E-03 0.  1.
         11   -1    0    0    0    0 -0.00000000000E+00 -0.00000000000E+00 -0.45593999997E+02  0.45594000000E+02  0.51100000000E-03 0. -1.
    9900012    2    1    2    0    0 -0.14530382595E+02  0.49454409443E+01  0.10728008864E+02  0.72461559370E+02  0.69999985769E+02 0.  0.
         12    1    1    2    0    0  0.14530382595E+02 -0.49454409443E+01 -0.10728008864E+02  0.18726440630E+02  0.00000000000E+00 0. -1.
         11    1    3    3    0    0  0.84373964089E+00 -0.35420464282E+01  0.73041480550E+01  0.81614072654E+01  0.51100000000E-03 0. -1.
        -11    1    3    3    0    0  0.21016194346E+02  0.13286794038E+02 -0.75575609744E+01  0.25987228570E+02  0.51100000000E-03 0.  1.
         12    1    3    3    0    0 -0.36390316581E+02 -0.47993066658E+01  0.10981421784E+02  0.38312923535E+02  0.00000000000E+00 0. -1.
</event>
<event>
 7    1  0.3305651E-013  0.7246155E+02  0.7816164E-02  0.1226708E+00
        -11   -1    0    0    0    0  0.00000000000E+00  0.00000000000E+00  0.45593999997E+02  0.45594000000E+02  0.51100000000E-03 0.  1.
         11   -1    0    0    0    0 -0.00000000000E+00 -0.00000000000E+00 -0.45593999997E+02  0.45594000000E+02  0.51100000000E-03 0. -1.
    9900012    2    1    2    0    0 -0.45133248038E+01  0.51790490018E+01  0.17420889559E+02  0.72461546989E+02  0.69999969640E+02 0.  0.
         12    1    1    2    0    0  0.45133248038E+01 -0.51790490018E+01 -0.17420889559E+02  0.18726453011E+02  0.00000000000E+00 0. -1.
         11    1    3    3    0    0  0.95060093107E+01 -0.80109930751E+01 -0.96083887362E+01  0.15711822219E+02  0.51100000000E-03 0. -1.
        -11    1    3    3    0    0  0.89798416993E+01 -0.10316598539E+02  0.18073768184E+02  0.22665631669E+02  0.51100000000E-03 0.  1.
        -12    1    3    3    0    0 -0.22999175814E+02  0.23506640616E+02  0.89555101117E+01  0.34084093101E+02  0.00000000000E+00 0.  1.
</event>
<event>
 7    1  0.3305651E-013  0.7246156E+02  0.7816164E-02  0.1226708E+00
        -11   -1    0    0    0    0  0.00000000000E+00  0.00000000000E+00  0.45593999997E+02  0.45594000000E+02  0.51100000000E-03 0.  1.
         11   -1    0    0    0    0 -0.00000000000E+00 -0.00000000000E+00 -0.45593999997E+02  0.45594000000E+02  0.51100000000E-03 0. -1.
    9900012    2    1    2    0    0 -0.70898431751E+01 -0.91853483582E+01  0.14698406717E+02  0.72461557179E+02  0.69999982915E+02 0.  0.
         12    1    1    2    0    0  0.70898431751E+01  0.91853483582E+01 -0.14698406717E+02  0.18726442821E+02  0.00000000000E+00 0. -1.
         11    1    3    3    0    0 -0.19623067251E+02  0.16702352696E+02 -0.13989950692E+02  0.29321529199E+02  0.51100000000E-03 0. -1.
        -11    1    3    3    0    0  0.51841371685E+01 -0.87533026735E+01  0.16640265177E+01  0.10308470808E+02  0.51100000000E-03 0.  1.
        -12    1    3    3    0    0  0.73490869075E+01 -0.17134398380E+02  0.27024330892E+02  0.32831557173E+02  0.00000000000E+00 0.  1.
</event>
<event>
 7    1  0.3305651E-013  0.7246154E+02  0.7816164E-02  0.1226708E+00
        -11   -1    0    0    0    0  0.00000000000E+00  0.00000000000E+00  0.45593999997E+02  0.45594000000E+02  0.51100000000E-03 0.  1.
         11   -1    0    0    0    0 -0.00000000000E+00 -0.00000000000E+00 -0.45593999997E+02  0.45594000000E+02  0.51100000000E-03 0. -1.
    9900012    2    1    2    0    0  0.13258980966E+02 -0.91208314180E+01  0.95755001110E+01  0.72461538925E+02  0.69999959136E+02 0.  0.
         12    1    1    2    0    0 -0.13258980966E+02  0.91208314180E+01 -0.95755001110E+01  0.18726461075E+02  0.00000000000E+00 0. -1.
         11    1    3    3    0    0  0.79906616818E+01 -0.19115470611E+02  0.88151926606E+00  0.20737139804E+02  0.51100000000E-03 0. -1.
        -11    1    3    3    0    0  0.50174201780E+01  0.13276483310E+02  0.28398078523E+02  0.31747289308E+02  0.51100000000E-03 0.  1.
         12    1    3    3    0    0  0.25089910583E+00 -0.32818441169E+01 -0.19704097678E+02  0.19977109813E+02  0.00000000000E+00 0. -1.
</event>
<event>
 7    1  0.3305651E-013  0.7246160E+02  0.7816164E-02  0.1226708E+00
        -11   -1    0    0    0    0  0.00000000000E+00  0.00000000000E+00  0.45593999997E+02  0.45594000000E+02  0.51100000000E-03 0. -1.
         11   -1    0    0    0    0 -0.00000000000E+00 -0.00000000000E+00 -0.45593999997E+02  0.45594000000E+02  0.51100000000E-03 0.  1.
    9900012    2    1    2    0    0 -0.11123815621E+02  0.15047245505E+02  0.72050419869E+00  0.72461601586E+02  0.70000040763E+02 0.  0.
         12    1    1    2    0    0  0.11123815621E+02 -0.15047245505E+02 -0.72050419869E+00  0.18726398414E+02  0.00000000000E+00 0. -1.
         11    1    3    3    0    0  0.46200166078E+01  0.41952722398E+00  0.14263603217E+01  0.48533555997E+01  0.51100000000E-03 0. -1.
        -11    1    3    3    0    0  0.19469879539E+02 -0.10467300354E+02 -0.84766637106E+01  0.23674763228E+02  0.51100000000E-03 0.  1.
         12    1    3    3    0    0 -0.35213711767E+02  0.25095018636E+02  0.77708075875E+01  0.43933482759E+02  0.00000000000E+00 0. -1.
</event>
<event>
 7    1  0.3305651E-013  0.7246159E+02  0.7816164E-02  0.1226708E+00
        -11   -1    0    0    0    0  0.00000000000E+00  0.00000000000E+00  0.45593999997E+02  0.45594000000E+02  0.51100000000E-03 0.  1.
         11   -1    0    0    0    0 -0.00000000000E+00 -0.00000000000E+00 -0.45593999997E+02  0.45594000000E+02  0.51100000000E-03 0. -1.
    9900012    2    1    2    0    0 -0.43280081130E+01  0.14869425230E+02  0.10528393212E+02  0.72461587516E+02  0.70000022434E+02 0.  0.
         12    1    1    2    0    0  0.43280081130E+01 -0.14869425230E+02 -0.10528393212E+02  0.18726412484E+02  0.00000000000E+00 0. -1.
         11    1    3    3    0    0  0.20409076842E+02  0.38658676682E+01 -0.93451855605E+01  0.22777353749E+02  0.51100000000E-03 0. -1.
        -11    1    3    3    0    0  0.71999826176E+01  0.60024390842E+01 -0.32694268962E+01  0.99276471102E+01  0.51100000000E-03 0.  1.
        -12    1    3    3    0    0 -0.31937067573E+02  0.50011184772E+01  0.23143005669E+02  0.39756586657E+02  0.00000000000E+00 0.  1.
</event>
<event>
 7    1  0.3305651E-013  0.7246156E+02  0.7816164E-02  0.1226708E+00
        -11   -1    0    0    0    0  0.00000000000E+00  0.00000000000E+00  0.45593999997E+02  0.45594000000E+02  0.51100000000E-03 0. -1.
         11   -1    0    0    0    0 -0.00000000000E+00 -0.00000000000E+00 -0.45593999997E+02  0.45594000000E+02  0.51100000000E-03 0.  1.
    9900012    2    1    2    0    0 -0.21978043379E+01  0.17000921361E+02 -0.75377584056E+01  0.72461562197E+02  0.69999989451E+02 0.  0.
         12    1    1    2    0    0  0.21978043379E+01 -0.17000921361E+02  0.75377584056E+01  0.18726437803E+02  0.00000000000E+00 0. -1.
         11    1    3    3    0    0 -0.85355492646E+01  0.74891912307E+01 -0.13755775755E+01  0.11438347803E+02  0.51100000000E-03 0. -1.
        -11    1    3    3    0    0 -0.29598799111E+01 -0.16678056416E+01 -0.31568187549E+02  0.31750479211E+02  0.51100000000E-03 0.  1.
         12    1    3    3    0    0  0.92976248378E+01  0.11179535772E+02  0.25406006719E+02  0.29272735183E+02  0.00000000000E+00 0. -1.
</event>
<event>
 7    1  0.3305651E-013  0.7246156E+02  0.7816164E-02  0.1226708E+00
        -11   -1    0    0    0    0  0.00000000000E+00  0.00000000000E+00  0.45593999997E+02  0.45594000000E+02  0.51100000000E-03 0. -1.
         11   -1    0    0    0    0 -0.00000000000E+00 -0.00000000000E+00 -0.45593999997E+02  0.45594000000E+02  0.51100000000E-03 0.  1.
    9900012    2    1    2    0    0 -0.17955186130E+02 -0.12303529776E+01  0.51746648866E+01  0.72461557890E+02  0.69999983841E+02 0.  0.
         12    1    1    2    0    0  0.17955186130E+02  0.12303529776E+01 -0.51746648866E+01  0.18726442110E+02  0.00000000000E+00 0. -1.
         11    1    3    3    0    0 -0.84492245853E+01 -0.75055180776E+01  0.93395888421E+01  0.14661177228E+02  0.51100000000E-03 0. -1.
        -11    1    3    3    0    0 -0.23017437842E+02 -0.17956833389E+02 -0.66621527439E+01  0.29943857294E+02  0.51100000000E-03 0.  1.
         12    1    3    3    0    0  0.13511476297E+02  0.24231998489E+02  0.24972287885E+01  0.27856523368E+02  0.00000000000E+00 0. -1.
</event>
<event>
 7    1  0.3305651E-013  0.7246175E+02  0.7816164E-02  0.1226708E+00
        -11   -1    0    0    0    0  0.00000000000E+00  0.00000000000E+00  0.45593999997E+02  0.45594000000E+02  0.51100000000E-03 0. -1.
         11   -1    0    0    0    0 -0.00000000000E+00 -0.00000000000E+00 -0.45593999997E+02  0.45594000000E+02  0.51100000000E-03 0.  1.
    9900012    2    1    2    0    0  0.13733662102E+02 -0.16963255206E+01 -0.12616714321E+02  0.72461749034E+02  0.70000232841E+02 0.  0.
         12    1    1    2    0    0 -0.13733662102E+02  0.16963255206E+01  0.12616714321E+02  0.18726250966E+02  0.00000000000E+00 0. -1.
         11    1    3    3    0    0 -0.75199136983E+01 -0.11372283273E+02  0.14722923752E+02  0.20065951583E+02  0.51100000000E-03 0. -1.
        -11    1    3    3    0    0 -0.50692881167E+01 -0.27699953570E+01 -0.22060336285E+02  0.22804144219E+02  0.51100000000E-03 0.  1.
        -12    1    3    3    0    0  0.26322863917E+02  0.12445953110E+02 -0.52793017873E+01  0.29591653231E+02  0.00000000000E+00 0.  1.
</event>
<event>
 7    1  0.3305651E-013  0.7246159E+02  0.7816164E-02  0.1226708E+00
        -11   -1    0    0    0    0  0.00000000000E+00  0.00000000000E+00  0.45593999997E+02  0.45594000000E+02  0.51100000000E-03 0.  1.
         11   -1    0    0    0    0 -0.00000000000E+00 -0.00000000000E+00 -0.45593999997E+02  0.45594000000E+02  0.51100000000E-03 0. -1.
    9900012    2    1    2    0    0 -0.77705900064E+01 -0.10983330664E+02  0.13025463244E+02  0.72461593130E+02  0.70000029748E+02 0.  0.
         12    1    1    2    0    0  0.77705900064E+01  0.10983330664E+02 -0.13025463244E+02  0.18726406870E+02  0.00000000000E+00 0. -1.
         11    1    3    3    0    0  0.73382827208E+01 -0.22658443189E+02 -0.21341001651E+01  0.23912545344E+02  0.51100000000E-03 0. -1.
        -11    1    3    3    0    0 -0.12998944671E+02 -0.14568562536E+02  0.38814978822E+01  0.19906823027E+02  0.51100000000E-03 0.  1.
         12    1    3    3    0    0 -0.21099280559E+01  0.26243675062E+02  0.11278065527E+02  0.28642224760E+02  0.00000000000E+00 0. -1.
</event>
<event>
 7    1  0.3305651E-013  0.7246158E+02  0.7816164E-02  0.1226708E+00
        -11   -1    0    0    0    0  0.00000000000E+00  0.00000000000E+00  0.45593999997E+02  0.45594000000E+02  0.51100000000E-03 0.  1.
         11   -1    0    0    0    0 -0.00000000000E+00 -0.00000000000E+00 -0.45593999997E+02  0.45594000000E+02  0.51100000000E-03 0. -1.
    9900012    2    1    2    0    0 -0.14557983027E+02 -0.11770190798E+02  0.45445524877E+00  0.72461580406E+02  0.70000013172E+02 0.  0.
         12    1    1    2    0    0  0.14557983027E+02  0.11770190798E+02 -0.45445524877E+00  0.18726419594E+02  0.00000000000E+00 0. -1.
         11    1    3    3    0    0  0.20279985114E+01 -0.25040369434E+02 -0.13209232734E+02  0.28383387906E+02  0.51100000000E-03 0. -1.
        -11    1    3    3    0    0 -0.26660275067E+02  0.19277813897E+01  0.83390488209E+01  0.28000470411E+02  0.51100000000E-03 0.  1.
        -12    1    3    3    0    0  0.10074293528E+02  0.11342397246E+02  0.53246391616E+01  0.16077722089E+02  0.00000000000E+00 0.  1.
</event>
<event>
 7    1  0.3305651E-013  0.7246155E+02  0.7816164E-02  0.1226708E+00
        -11   -1    0    0    0    0  0.00000000000E+00  0.00000000000E+00  0.45593999997E+02  0.45594000000E+02  0.51100000000E-03 0. -1.
         11   -1    0    0    0    0 -0.00000000000E+00 -0.00000000000E+00 -0.45593999997E+02  0.45594000000E+02  0.51100000000E-03 0.  1.
    9900012    2    1    2    0    0  0.16374218108E+02 -0.89692410246E+01  0.14552079497E+01  0.72461549899E+02  0.69999973431E+02 0.  0.
         12    1    1    2    0    0 -0.16374218108E+02  0.89692410246E+01 -0.14552079497E+01  0.18726450101E+02  0.00000000000E+00 0. -1.
         11    1    3    3    0    0  0.37189683247E+01  0.18494356340E+02  0.19144149389E+02  0.26876949193E+02  0.51100000000E-03 0. -1.
        -11    1    3    3    0    0  0.12861878893E+02  0.14389002199E+01 -0.36184353100E+01  0.13438431339E+02  0.51100000000E-03 0.  1.
        -12    1    3    3    0    0 -0.20662910961E+00 -0.28902497585E+02 -0.14070506129E+02  0.32146169367E+02  0.00000000000E+00 0.  1.
</event>
<event>
 7    1  0.3305651E-013  0.7246170E+02  0.7816164E-02  0.1226708E+00
        -11   -1    0    0    0    0  0.00000000000E+00  0.00000000000E+00  0.45593999997E+02  0.45594000000E+02  0.51100000000E-03 0. -1.
         11   -1    0    0    0    0 -0.00000000000E+00 -0.00000000000E+00 -0.45593999997E+02  0.45594000000E+02  0.51100000000E-03 0.  1.
    9900012    2    1    2    0    0 -0.13539204855E+02  0.86610997376E+01 -0.96098706135E+01  0.72461699512E+02  0.70000168329E+02 0.  0.
         12    1    1    2    0    0  0.13539204855E+02 -0.86610997376E+01  0.96098706135E+01  0.18726300488E+02  0.00000000000E+00 0. -1.
         11    1    3    3    0    0  0.65287844278E+01  0.25016381042E+01  0.58071293036E+01  0.90887826643E+01  0.51100000000E-03 0. -1.
        -11    1    3    3    0    0  0.16423283635E+02 -0.11055490365E+02 -0.11349957765E+02  0.22820378045E+02  0.51100000000E-03 0.  1.
        -12    1    3    3    0    0 -0.36491272918E+02  0.17214951998E+02 -0.40670421516E+01  0.40552538803E+02  0.00000000000E+00 0.  1.
</event>
<event>
 7    1  0.3305651E-013  0.7246136E+02  0.7816164E-02  0.1226709E+00
        -11   -1    0    0    0    0  0.00000000000E+00  0.00000000000E+00  0.45593999997E+02  0.45594000000E+02  0.51100000000E-03 0.  1.
         11   -1    0    0    0    0 -0.00000000000E+00 -0.00000000000E+00 -0.45593999997E+02  0.45594000000E+02  0.51100000000E-03 0. -1.
    9900012    2    1    2    0    0 -0.10477607580E+02 -0.17929326312E+01  0.15417264068E+02  0.72461363907E+02  0.69999731142E+02 0.  0.
         12    1    1    2    0    0  0.10477607580E+02  0.17929326312E+01 -0.15417264068E+02  0.18726636093E+02  0.00000000000E+00 0. -1.
         11    1    3    3    0    0  0.22934785063E+01  0.18213248919E+01  0.41322363728E+01  0.50648440966E+01  0.51100000000E-03 0. -1.
        -11    1    3    3    0    0  0.13463133516E+02  0.19002575609E+02  0.21067937943E+02  0.31404010146E+02  0.51100000000E-03 0.  1.
         12    1    3    3    0    0 -0.26234219602E+02 -0.22616833132E+02 -0.97829102478E+01  0.35992509665E+02  0.00000000000E+00 0. -1.
</event>
<event>
 7    1  0.3305651E-013  0.7246134E+02  0.7816164E-02  0.1226709E+00
        -11   -1    0    0    0    0  0.00000000000E+00  0.00000000000E+00  0.45593999997E+02  0.45594000000E+02  0.51100000000E-03 0.  1.
         11   -1    0    0    0    0 -0.00000000000E+00 -0.00000000000E+00 -0.45593999997E+02  0.45594000000E+02  0.51100000000E-03 0. -1.
    9900012    2    1    2    0    0  0.79763633122E+01  0.75866906522E+01  0.15149511787E+02  0.72461335744E+02  0.69999694455E+02 0.  0.
         12    1    1    2    0    0 -0.79763633122E+01 -0.75866906522E+01 -0.15149511787E+02  0.18726664256E+02  0.00000000000E+00 0. -1.
         11    1    3    3    0    0  0.42927234842E+01  0.10114706911E+02  0.23994822320E+02  0.26391026302E+02  0.51100000000E-03 0. -1.
        -11    1    3    3    0    0  0.23275422712E+02 -0.32278397466E+01  0.21444477955E+01  0.23595823962E+02  0.51100000000E-03 0.  1.
         12    1    3    3    0    0 -0.19591782884E+02  0.69982348771E+00 -0.10989758328E+02  0.22474485480E+02  0.00000000000E+00 0. -1.
</event>
<event>
 7    1  0.3305651E-013  0.7246155E+02  0.7816164E-02  0.1226708E+00
        -11   -1    0    0    0    0  0.00000000000E+00  0.00000000000E+00  0.45593999997E+02  0.45594000000E+02  0.51100000000E-03 0.  1.
         11   -1    0    0    0    0 -0.00000000000E+00 -0.00000000000E+00 -0.45593999997E+02  0.45594000000E+02  0.51100000000E-03 0. -1.
    9900012    2    1    2    0    0 -0.31121158075E+01  0.64181219709E+01  0.17314807400E+02  0.72461545191E+02  0.69999967298E+02 0.  0.
         12    1    1    2    0    0  0.31121158075E+01 -0.64181219709E+01 -0.17314807400E+02  0.18726454809E+02  0.00000000000E+00 0. -1.
         11    1    3    3    0    0  0.10976000428E+02 -0.12915572964E+02  0.31176282309E+00  0.16952339269E+02  0.51100000000E-03 0. -1.
        -11    1    3    3    0    0 -0.19635108283E+00 -0.14885721065E+02  0.99609779490E+01  0.17912127939E+02  0.51100000000E-03 0.  1.
         12    1    3    3    0    0 -0.13891765153E+02  0.34219415999E+02  0.70420666279E+01  0.37597077982E+02  0.00000000000E+00 0. -1.
</event>
<event>
 7    1  0.3305651E-013  0.7246163E+02  0.7816164E-02  0.1226708E+00
        -11   -1    0    0    0    0  0.00000000000E+00  0.00000000000E+00  0.45593999997E+02  0.45594000000E+02  0.51100000000E-03 0.  1.
         11   -1    0    0    0    0 -0.00000000000E+00 -0.00000000000E+00 -0.45593999997E+02  0.45594000000E+02  0.51100000000E-03 0. -1.
    9900012    2    1    2    0    0 -0.10734601255E+02 -0.11816143470E+01  0.15298661385E+02  0.72461630444E+02  0.70000078356E+02 0.  0.
         12    1    1    2    0    0  0.10734601255E+02  0.11816143470E+01 -0.15298661385E+02  0.18726369556E+02  0.00000000000E+00 0. -1.
         11    1    3    3    0    0 -0.23850100062E+02 -0.24251331017E+02  0.10414858167E+02  0.35572792974E+02  0.51100000000E-03 0. -1.
        -11    1    3    3    0    0 -0.67190820693E+01  0.18897144426E+01 -0.15890566743E+01  0.71583647507E+01  0.51100000000E-03 0.  1.
        -12    1    3    3    0    0  0.19834580877E+02  0.21180002228E+02  0.64728598926E+01  0.29730472719E+02  0.00000000000E+00 0.  1.
</event>
<event>
 7    1  0.3305651E-013  0.7246158E+02  0.7816164E-02  0.1226708E+00
        -11   -1    0    0    0    0  0.00000000000E+00  0.00000000000E+00  0.45593999997E+02  0.45594000000E+02  0.51100000000E-03 0. -1.
         11   -1    0    0    0    0 -0.00000000000E+00 -0.00000000000E+00 -0.45593999997E+02  0.45594000000E+02  0.51100000000E-03 0.  1.
    9900012    2    1    2    0    0  0.58529538719E+01  0.17751626964E+02 -0.11407528572E+01  0.72461584273E+02  0.70000018209E+02 0.  0.
         12    1    1    2    0    0 -0.58529538719E+01 -0.17751626964E+02  0.11407528572E+01  0.18726415727E+02  0.00000000000E+00 0. -1.
         11    1    3    3    0    0 -0.33181951529E+01  0.17998065637E+02 -0.17853375628E+01  0.18388263002E+02  0.51100000000E-03 0. -1.
        -11    1    3    3    0    0  0.22103189256E+02  0.10716599431E+02 -0.16790621390E+02  0.29754351708E+02  0.51100000000E-03 0.  1.
         12    1    3    3    0    0 -0.12932040231E+02 -0.10963038103E+02  0.17435206095E+02  0.24318969563E+02  0.00000000000E+00 0. -1.
</event>
<event>
 7    1  0.3305651E-013  0.7246158E+02  0.7816164E-02  0.1226708E+00
        -11   -1    0    0    0    0  0.00000000000E+00  0.00000000000E+00  0.45593999997E+02  0.45594000000E+02  0.51100000000E-03 0.  1.
         11   -1    0    0    0    0 -0.00000000000E+00 -0.00000000000E+00 -0.45593999997E+02  0.45594000000E+02  0.51100000000E-03 0. -1.
    9900012    2    1    2    0    0  0.20412644219E+01 -0.12210180588E+02  0.14050742029E+02  0.72461584914E+02  0.70000019045E+02 0.  0.
         12    1    1    2    0    0 -0.20412644219E+01  0.12210180588E+02 -0.14050742029E+02  0.18726415086E+02  0.00000000000E+00 0. -1.
         11    1    3    3    0    0 -0.16519112091E+02 -0.16331645905E+02  0.21569078900E+02  0.31699036060E+02  0.51100000000E-03 0.  1.
        -11    1    3    3    0    0 -0.27301131409E+01  0.97282090023E+01  0.87672883644E+01  0.13377477852E+02  0.51100000000E-03 0. -1.
         12    1    3    3    0    0  0.21290489654E+02 -0.56067436853E+01 -0.16285625236E+02  0.27385071002E+02  0.00000000000E+00 0. -1.
</event>
<event>
 7    1  0.3305651E-013  0.7246153E+02  0.7816164E-02  0.1226708E+00
        -11   -1    0    0    0    0  0.00000000000E+00  0.00000000000E+00  0.45593999997E+02  0.45594000000E+02  0.51100000000E-03 0. -1.
         11   -1    0    0    0    0 -0.00000000000E+00 -0.00000000000E+00 -0.45593999997E+02  0.45594000000E+02  0.51100000000E-03 0.  1.
    9900012    2    1    2    0    0  0.67157045587E+00 -0.12925140103E+02 -0.13534040293E+02  0.72461534764E+02  0.69999953715E+02 0.  0.
         12    1    1    2    0    0 -0.67157045587E+00  0.12925140103E+02  0.13534040293E+02  0.18726465236E+02  0.00000000000E+00 0. -1.
         11    1    3    3    0    0 -0.24976903441E+02 -0.16271637846E+02 -0.14832838680E+02  0.33296020892E+02  0.51100000000E-03 0. -1.
        -11    1    3    3    0    0 -0.20054285517E+01 -0.32278620231E+01  0.89548945122E+01  0.97278452343E+01  0.51100000000E-03 0.  1.
        -12    1    3    3    0    0  0.27653902448E+02  0.65743597661E+01 -0.76560961255E+01  0.29437668638E+02  0.00000000000E+00 0.  1.
</event>
<event>
 7    1  0.3305651E-013  0.7246155E+02  0.7816164E-02  0.1226708E+00
        -11   -1    0    0    0    0  0.00000000000E+00  0.00000000000E+00  0.45593999997E+02  0.45594000000E+02  0.51100000000E-03 0.  1.
         11   -1    0    0    0    0 -0.00000000000E+00 -0.00000000000E+00 -0.45593999997E+02  0.45594000000E+02  0.51100000000E-03 0. -1.
    9900012    2    1    2    0    0  0.82002153079E+01  0.14836923012E+02 -0.79562531534E+01  0.72461554000E+02  0.69999978774E+02 0.  0.
         12    1    1    2    0    0 -0.82002153079E+01 -0.14836923012E+02  0.79562531534E+01  0.18726446000E+02  0.00000000000E+00 0. -1.
         11    1    3    3    0    0 -0.97996606295E+01  0.18968564290E+02  0.25418342969E+01  0.21501179073E+02  0.51100000000E-03 0. -1.
        -11    1    3    3    0    0  0.12795609084E+02 -0.87530027932E+00  0.17836173029E+02  0.21968678408E+02  0.51100000000E-03 0.  1.
         12    1    3    3    0    0  0.52042668535E+01 -0.32563409986E+01 -0.28334260479E+02  0.28991696520E+02  0.00000000000E+00 0. -1.
</event>
<event>
 7    1  0.3305651E-013  0.7246163E+02  0.7816164E-02  0.1226708E+00
        -11   -1    0    0    0    0  0.00000000000E+00  0.00000000000E+00  0.45593999997E+02  0.45594000000E+02  0.51100000000E-03 0.  1.
         11   -1    0    0    0    0 -0.00000000000E+00 -0.00000000000E+00 -0.45593999997E+02  0.45594000000E+02  0.51100000000E-03 0. -1.
    9900012    2    1    2    0    0  0.14180756165E+02 -0.12138651577E+02  0.14953932518E+01  0.72461630664E+02  0.70000078643E+02 0.  0.
         12    1    1    2    0    0 -0.14180756165E+02  0.12138651577E+02 -0.14953932518E+01  0.18726369336E+02  0.00000000000E+00 0. -1.
         11    1    3    3    0    0  0.17161498581E+02 -0.13997767886E+02 -0.22472964067E+02  0.31551365320E+02  0.51100000000E-03 0. -1.
        -11    1    3    3    0    0  0.71056922085E+01 -0.74445063015E+01 -0.29417468870E+01  0.10703523291E+02  0.51100000000E-03 0.  1.
        -12    1    3    3    0    0 -0.10086434624E+02  0.93036226101E+01  0.26910104206E+02  0.30206742053E+02  0.00000000000E+00 0.  1.
</event>
<event>
 7    1  0.3305651E-013  0.7246158E+02  0.7816164E-02  0.1226708E+00
        -11   -1    0    0    0    0  0.00000000000E+00  0.00000000000E+00  0.45593999997E+02  0.45594000000E+02  0.51100000000E-03 0.  1.
         11   -1    0    0    0    0 -0.00000000000E+00 -0.00000000000E+00 -0.45593999997E+02  0.45594000000E+02  0.51100000000E-03 0. -1.
    9900012    2    1    2    0    0  0.10566531207E+02  0.13262948813E+02  0.79449072509E+01  0.72461576310E+02  0.70000007837E+02 0.  0.
         12    1    1    2    0    0 -0.10566531207E+02 -0.13262948813E+02 -0.79449072509E+01  0.18726423690E+02  0.00000000000E+00 0. -1.
         11    1    3    3    0    0 -0.87963344525E+01  0.13707146813E+02 -0.25084354482E+02  0.29907962378E+02  0.51100000000E-03 0. -1.
        -11    1    3    3    0    0  0.31050307997E+01 -0.32682942842E+01 -0.11036563460E+01  0.46412305896E+01  0.51100000000E-03 0.  1.
        -12    1    3    3    0    0  0.16257834860E+02  0.28240962848E+01  0.34132918079E+02  0.37912383343E+02  0.00000000000E+00 0.  1.
</event>
<event>
 7    1  0.3305651E-013  0.7246159E+02  0.7816164E-02  0.1226708E+00
        -11   -1    0    0    0    0  0.00000000000E+00  0.00000000000E+00  0.45593999997E+02  0.45594000000E+02  0.51100000000E-03 0.  1.
         11   -1    0    0    0    0 -0.00000000000E+00 -0.00000000000E+00 -0.45593999997E+02  0.45594000000E+02  0.51100000000E-03 0. -1.
    9900012    2    1    2    0    0 -0.26838857826E+01  0.13074988376E+02 -0.13134679091E+02  0.72461591942E+02  0.70000028200E+02 0.  0.
         12    1    1    2    0    0  0.26838857826E+01 -0.13074988376E+02  0.13134679091E+02  0.18726408058E+02  0.00000000000E+00 0. -1.
         11    1    3    3    0    0  0.18656931942E+01  0.31263359965E+01  0.52600509565E+01  0.63971027961E+01  0.51100000000E-03 0. -1.
        -11    1    3    3    0    0 -0.27889052696E+02  0.57856668870E+01  0.89665514017E+01  0.29860881533E+02  0.51100000000E-03 0.  1.
         12    1    3    3    0    0  0.23339473719E+02  0.41629854927E+01 -0.27361281449E+02  0.36203607613E+02  0.00000000000E+00 0. -1.
</event>
<event>
 7    1  0.3305651E-013  0.7246170E+02  0.7816164E-02  0.1226708E+00
        -11   -1    0    0    0    0  0.00000000000E+00  0.00000000000E+00  0.45593999997E+02  0.45594000000E+02  0.51100000000E-03 0.  1.
         11   -1    0    0    0    0 -0.00000000000E+00 -0.00000000000E+00 -0.45593999997E+02  0.45594000000E+02  0.51100000000E-03 0. -1.
    9900012    2    1    2    0    0 -0.98744477300E+01  0.11233457203E+02 -0.11268494866E+02  0.72461701507E+02  0.70000170929E+02 0.  0.
         12    1    1    2    0    0  0.98744477300E+01 -0.11233457203E+02  0.11268494866E+02  0.18726298493E+02  0.00000000000E+00 0. -1.
         11    1    3    3    0    0 -0.38877227895E+02  0.14316361060E+01 -0.76706187605E+01  0.39652576501E+02  0.51100000000E-03 0. -1.
        -11    1    3    3    0    0 -0.52132664377E+00 -0.28012326191E+00  0.11099424689E+01  0.12578644826E+01  0.51100000000E-03 0.  1.
        -12    1    3    3    0    0  0.29524106808E+02  0.10081944359E+02 -0.47078185746E+01  0.31551260524E+02  0.00000000000E+00 0.  1.
</event>
<event>
 7    1  0.3305651E-013  0.7246157E+02  0.7816164E-02  0.1226708E+00
        -11   -1    0    0    0    0  0.00000000000E+00  0.00000000000E+00  0.45593999997E+02  0.45594000000E+02  0.51100000000E-03 0. -1.
         11   -1    0    0    0    0 -0.00000000000E+00 -0.00000000000E+00 -0.45593999997E+02  0.45594000000E+02  0.51100000000E-03 0.  1.
    9900012    2    1    2    0    0 -0.15741128140E+01 -0.32517109417E+01 -0.18374646169E+02  0.72461572764E+02  0.70000003217E+02 0.  0.
         12    1    1    2    0    0  0.15741128140E+01  0.32517109417E+01  0.18374646169E+02  0.18726427236E+02  0.00000000000E+00 0. -1.
         11    1    3    3    0    0 -0.79409564203E+01  0.39655601514E+01  0.21852276362E+02  0.23586149297E+02  0.51100000000E-03 0. -1.
        -11    1    3    3    0    0  0.73357636257E+01  0.58411987040E+01 -0.37147735442E+01  0.10086256640E+02  0.51100000000E-03 0.  1.
        -12    1    3    3    0    0 -0.96892001934E+00 -0.13058469797E+02 -0.36512148987E+02  0.38789166826E+02  0.00000000000E+00 0.  1.
</event>
<event>
 7    1  0.3305651E-013  0.7246106E+02  0.7816164E-02  0.1226709E+00
        -11   -1    0    0    0    0  0.00000000000E+00  0.00000000000E+00  0.45593999997E+02  0.45594000000E+02  0.51100000000E-03 0. -1.
         11   -1    0    0    0    0 -0.00000000000E+00 -0.00000000000E+00 -0.45593999997E+02  0.45594000000E+02  0.51100000000E-03 0.  1.
    9900012    2    1    2    0    0  0.18147068930E+02  0.18104503779E+01 -0.42549400457E+01  0.72461058015E+02  0.69999332658E+02 0.  0.
         12    1    1    2    0    0 -0.18147068930E+02 -0.18104503779E+01  0.42549400457E+01  0.18726941985E+02  0.00000000000E+00 0. -1.
         11    1    3    3    0    0 -0.13207244440E+02  0.32340839535E+01 -0.34137182942E+01  0.14019417876E+02  0.51100000000E-03 0. -1.
        -11    1    3    3    0    0  0.11780400058E+02 -0.24604213668E+02 -0.52619606106E+01  0.27781889523E+02  0.51100000000E-03 0.  1.
         12    1    3    3    0    0  0.19573913312E+02  0.23180580092E+02  0.44207388591E+01  0.30659750616E+02  0.00000000000E+00 0. -1.
</event>
<event>
 7    1  0.3305651E-013  0.7246160E+02  0.7816164E-02  0.1226708E+00
        -11   -1    0    0    0    0  0.00000000000E+00  0.00000000000E+00  0.45593999997E+02  0.45594000000E+02  0.51100000000E-03 0.  1.
         11   -1    0    0    0    0 -0.00000000000E+00 -0.00000000000E+00 -0.45593999997E+02  0.45594000000E+02  0.51100000000E-03 0. -1.
    9900012    2    1    2    0    0 -0.17212064917E+02 -0.65284671230E+01  0.34354301992E+01  0.72461595050E+02  0.70000032249E+02 0.  0.
         12    1    1    2    0    0  0.17212064917E+02  0.65284671230E+01 -0.34354301992E+01  0.18726404950E+02  0.00000000000E+00 0. -1.
         11    1    3    3    0    0 -0.18614252187E+02  0.13436832410E+02  0.79371635524E+01  0.24290685771E+02  0.51100000000E-03 0. -1.
        -11    1    3    3    0    0 -0.19769788405E+02 -0.16686399554E+02 -0.64371846062E+01  0.26659291243E+02  0.51100000000E-03 0.  1.
         12    1    3    3    0    0  0.21171975674E+02 -0.32788999790E+01  0.19354512530E+01  0.21511618037E+02  0.00000000000E+00 0. -1.
</event>
<event>
 7    1  0.3305651E-013  0.7246156E+02  0.7816164E-02  0.1226708E+00
        -11   -1    0    0    0    0  0.00000000000E+00  0.00000000000E+00  0.45593999997E+02  0.45594000000E+02  0.51100000000E-03 0. -1.
         11   -1    0    0    0    0 -0.00000000000E+00 -0.00000000000E+00 -0.45593999997E+02  0.45594000000E+02  0.51100000000E-03 0.  1.
    9900012    2    1    2    0    0 -0.96997001021E+01  0.41546756621E+01 -0.15470425426E+02  0.72461559474E+02  0.69999985904E+02 0.  0.
         12    1    1    2    0    0  0.96997001021E+01 -0.41546756621E+01  0.15470425426E+02  0.18726440526E+02  0.00000000000E+00 0. -1.
         11    1    3    3    0    0 -0.15101480382E+02  0.77799521940E+01 -0.25939304508E+02  0.31006932846E+02  0.51100000000E-03 0. -1.
        -11    1    3    3    0    0 -0.57735866964E+01 -0.35191752211E+01 -0.13449819895E+02  0.15053788661E+02  0.51100000000E-03 0.  1.
         12    1    3    3    0    0  0.11175366976E+02 -0.10610131079E+00  0.23918698978E+02  0.26400837967E+02  0.00000000000E+00 0. -1.
</event>
<event>
 7    1  0.3305651E-013  0.7246159E+02  0.7816164E-02  0.1226708E+00
        -11   -1    0    0    0    0  0.00000000000E+00  0.00000000000E+00  0.45593999997E+02  0.45594000000E+02  0.51100000000E-03 0.  1.
         11   -1    0    0    0    0 -0.00000000000E+00 -0.00000000000E+00 -0.45593999997E+02  0.45594000000E+02  0.51100000000E-03 0. -1.
    9900012    2    1    2    0    0 -0.16626191658E+02  0.86167011676E+01 -0.25901038871E-01  0.72461589267E+02  0.70000024716E+02 0.  0.
         12    1    1    2    0    0  0.16626191658E+02 -0.86167011676E+01  0.25901038871E-01  0.18726410733E+02  0.00000000000E+00 0. -1.
         11    1    3    3    0    0 -0.24532065391E+02 -0.12636348293E+02 -0.12733642826E+02  0.30391531558E+02  0.51100000000E-03 0. -1.
        -11    1    3    3    0    0 -0.17936349817E+00  0.25126790707E+01 -0.10712279062E+02  0.11004483193E+02  0.51100000000E-03 0.  1.
        -12    1    3    3    0    0  0.80852372313E+01  0.18740370390E+02  0.23420020850E+02  0.31065574517E+02  0.00000000000E+00 0.  1.
</event>
<event>
 7    1  0.3305651E-013  0.7246158E+02  0.7816164E-02  0.1226708E+00
        -11   -1    0    0    0    0  0.00000000000E+00  0.00000000000E+00  0.45593999997E+02  0.45594000000E+02  0.51100000000E-03 0. -1.
         11   -1    0    0    0    0 -0.00000000000E+00 -0.00000000000E+00 -0.45593999997E+02  0.45594000000E+02  0.51100000000E-03 0.  1.
    9900012    2    1    2    0    0  0.14526412832E+02 -0.77434040255E+01 -0.89275872988E+01  0.72461580410E+02  0.70000013178E+02 0.  0.
         12    1    1    2    0    0 -0.14526412832E+02  0.77434040255E+01  0.89275872988E+01  0.18726419590E+02  0.00000000000E+00 0. -1.
         11    1    3    3    0    0  0.15703330660E+02 -0.28205541485E+02  0.10491980471E+02  0.33944496148E+02  0.51100000000E-03 0. -1.
        -11    1    3    3    0    0  0.11715044252E+01 -0.26332802990E+01  0.43976260779E+01  0.52579181368E+01  0.51100000000E-03 0.  1.
        -12    1    3    3    0    0 -0.23484222533E+01  0.23095417759E+02 -0.23817193848E+02  0.33259166125E+02  0.00000000000E+00 0.  1.
</event>
<event>
 7    1  0.3305651E-013  0.7246152E+02  0.7816164E-02  0.1226708E+00
        -11   -1    0    0    0    0  0.00000000000E+00  0.00000000000E+00  0.45593999997E+02  0.45594000000E+02  0.51100000000E-03 0.  1.
         11   -1    0    0    0    0 -0.00000000000E+00 -0.00000000000E+00 -0.45593999997E+02  0.45594000000E+02  0.51100000000E-03 0. -1.
    9900012    2    1    2    0    0 -0.10627444784E+02 -0.33213139120E+01  0.15056805793E+02  0.72461518498E+02  0.69999932526E+02 0.  0.
         12    1    1    2    0    0  0.10627444784E+02  0.33213139120E+01 -0.15056805793E+02  0.18726481502E+02  0.00000000000E+00 0. -1.
         11    1    3    3    0    0  0.26225695979E+01  0.98154129451E+01  0.15342020860E+02  0.18401027333E+02  0.51100000000E-03 0. -1.
        -11    1    3    3    0    0 -0.15162794964E+02  0.11287315012E+00  0.22795746658E+02  0.27378260672E+02  0.51100000000E-03 0.  1.
         12    1    3    3    0    0  0.19127805815E+01 -0.13249600007E+02 -0.23080961725E+02  0.26682230493E+02  0.00000000000E+00 0. -1.
</event>
<event>
 7    1  0.3305651E-013  0.7246157E+02  0.7816164E-02  0.1226708E+00
        -11   -1    0    0    0    0  0.00000000000E+00  0.00000000000E+00  0.45593999997E+02  0.45594000000E+02  0.51100000000E-03 0. -1.
         11   -1    0    0    0    0 -0.00000000000E+00 -0.00000000000E+00 -0.45593999997E+02  0.45594000000E+02  0.51100000000E-03 0.  1.
    9900012    2    1    2    0    0 -0.11316668875E+02  0.13786893323E+02  0.57038454618E+01  0.72461567479E+02  0.69999996332E+02 0.  0.
         12    1    1    2    0    0  0.11316668875E+02 -0.13786893323E+02 -0.57038454618E+01  0.18726432521E+02  0.00000000000E+00 0. -1.
         11    1    3    3    0    0 -0.20993410176E+01 -0.24995336910E+01  0.17176064551E+02  0.17483480634E+02  0.51100000000E-03 0. -1.
        -11    1    3    3    0    0  0.10338725802E+02  0.27541042633E+02  0.52730761159E+00  0.29422378118E+02  0.51100000000E-03 0.  1.
        -12    1    3    3    0    0 -0.19556053660E+02 -0.11254615619E+02 -0.11999526700E+02  0.25555708727E+02  0.00000000000E+00 0.  1.
</event>
<event>
 7    1  0.3305651E-013  0.7246159E+02  0.7816164E-02  0.1226708E+00
        -11   -1    0    0    0    0  0.00000000000E+00  0.00000000000E+00  0.45593999997E+02  0.45594000000E+02  0.51100000000E-03 0.  1.
         11   -1    0    0    0    0 -0.00000000000E+00 -0.00000000000E+00 -0.45593999997E+02  0.45594000000E+02  0.51100000000E-03 0. -1.
    9900012    2    1    2    0    0  0.35522824717E+01  0.13167238595E+02  0.12832908128E+02  0.72461590467E+02  0.70000026278E+02 0.  0.
         12    1    1    2    0    0 -0.35522824717E+01 -0.13167238595E+02 -0.12832908128E+02  0.18726409533E+02  0.00000000000E+00 0. -1.
         11    1    3    3    0    0  0.68430122353E+01  0.11249804516E+02 -0.19618325766E+02  0.23627603015E+02  0.51100000000E-03 0. -1.
        -11    1    3    3    0    0 -0.29198025691E+00  0.12282299953E+02 -0.22533867854E+01  0.12490712425E+02  0.51100000000E-03 0.  1.
        -12    1    3    3    0    0 -0.29987495067E+01 -0.10364865874E+02  0.34704620680E+02  0.36343275027E+02  0.00000000000E+00 0.  1.
</event>
<event>
 7    1  0.3305651E-013  0.7246108E+02  0.7816164E-02  0.1226709E+00
        -11   -1    0    0    0    0  0.00000000000E+00  0.00000000000E+00  0.45593999997E+02  0.45594000000E+02  0.51100000000E-03 0. -1.
         11   -1    0    0    0    0 -0.00000000000E+00 -0.00000000000E+00 -0.45593999997E+02  0.45594000000E+02  0.51100000000E-03 0.  1.
    9900012    2    1    2    0    0 -0.71490239990E+01 -0.22777078494E+01 -0.17158120566E+02  0.72461078241E+02  0.69999359007E+02 0.  0.
         12    1    1    2    0    0  0.71490239990E+01  0.22777078494E+01  0.17158120566E+02  0.18726921759E+02  0.00000000000E+00 0. -1.
         11    1    3    3    0    0 -0.13139150768E+02  0.11923954040E+02  0.53503029699E+01  0.18532234214E+02  0.51100000000E-03 0. -1.
        -11    1    3    3    0    0 -0.15312716646E+02 -0.13150421054E+02 -0.25358062335E+02  0.32410556778E+02  0.51100000000E-03 0.  1.
         12    1    3    3    0    0  0.21302843415E+02 -0.10512408352E+01  0.28496387990E+01  0.21518287249E+02  0.00000000000E+00 0. -1.
</event>
<event>
 7    1  0.3305651E-013  0.7246158E+02  0.7816164E-02  0.1226708E+00
        -11   -1    0    0    0    0  0.00000000000E+00  0.00000000000E+00  0.45593999997E+02  0.45594000000E+02  0.51100000000E-03 0. -1.
         11   -1    0    0    0    0 -0.00000000000E+00 -0.00000000000E+00 -0.45593999997E+02  0.45594000000E+02  0.51100000000E-03 0.  1.
    9900012    2    1    2    0    0 -0.43903074360E+00  0.10249081777E+02 -0.15666595248E+02  0.72461584648E+02  0.70000018699E+02 0.  0.
         12    1    1    2    0    0  0.43903074360E+00 -0.10249081777E+02  0.15666595248E+02  0.18726415352E+02  0.00000000000E+00 0. -1.
         11    1    3    3    0    0 -0.30900984470E+02  0.36297085724E+01  0.76634717073E+01  0.32043321058E+02  0.51100000000E-03 0. -1.
        -11    1    3    3    0    0  0.31080610375E+01  0.28019417701E+01  0.12080571836E+00  0.41863486929E+01  0.51100000000E-03 0.  1.
        -12    1    3    3    0    0  0.27353892689E+02  0.38174314348E+01 -0.23450872673E+02  0.36231914898E+02  0.00000000000E+00 0.  1.
</event>
<event>
 7    1  0.3305651E-013  0.7246154E+02  0.7816164E-02  0.1226708E+00
        -11   -1    0    0    0    0  0.00000000000E+00  0.00000000000E+00  0.45593999997E+02  0.45594000000E+02  0.51100000000E-03 0.  1.
         11   -1    0    0    0    0 -0.00000000000E+00 -0.00000000000E+00 -0.45593999997E+02  0.45594000000E+02  0.51100000000E-03 0. -1.
    9900012    2    1    2    0    0  0.71290897166E+00  0.27400556600E+01  0.18511190899E+02  0.72461539236E+02  0.69999959541E+02 0.  0.
         12    1    1    2    0    0 -0.71290897166E+00 -0.27400556600E+01 -0.18511190899E+02  0.18726460764E+02  0.00000000000E+00 0. -1.
         11    1    3    3    0    0  0.30093976666E+02 -0.64741382256E+01  0.22390310623E+02  0.38064260237E+02  0.51100000000E-03 0. -1.
        -11    1    3    3    0    0 -0.19238642564E+01  0.56916555305E+01 -0.29653530920E+01  0.66999638489E+01  0.51100000000E-03 0.  1.
        -12    1    3    3    0    0 -0.27457203438E+02  0.35225383551E+01 -0.91376663114E+00  0.27697315151E+02  0.00000000000E+00 0.  1.
</event>
<event>
 7    1  0.3305651E-013  0.7246159E+02  0.7816164E-02  0.1226708E+00
        -11   -1    0    0    0    0  0.00000000000E+00  0.00000000000E+00  0.45593999997E+02  0.45594000000E+02  0.51100000000E-03 0. -1.
         11   -1    0    0    0    0 -0.00000000000E+00 -0.00000000000E+00 -0.45593999997E+02  0.45594000000E+02  0.51100000000E-03 0.  1.
    9900012    2    1    2    0    0  0.11850747419E+00 -0.18292102348E+02  0.40079003329E+01  0.72461593046E+02  0.70000029638E+02 0.  0.
         12    1    1    2    0    0 -0.11850747419E+00  0.18292102348E+02 -0.40079003329E+01  0.18726406954E+02  0.00000000000E+00 0. -1.
         11    1    3    3    0    0  0.16795488823E+02 -0.81665788009E+01  0.40385190806E+01  0.19107356979E+02  0.51100000000E-03 0. -1.
        -11    1    3    3    0    0 -0.37566743360E+01 -0.21262515515E+02 -0.18340508666E+02  0.28329868099E+02  0.51100000000E-03 0.  1.
        -12    1    3    3    0    0 -0.12920307012E+02  0.11136991968E+02  0.18309889918E+02  0.25024367968E+02  0.00000000000E+00 0.  1.
</event>
<event>
 7    1  0.3305651E-013  0.7246163E+02  0.7816164E-02  0.1226708E+00
        -11   -1    0    0    0    0  0.00000000000E+00  0.00000000000E+00  0.45593999997E+02  0.45594000000E+02  0.51100000000E-03 0.  1.
         11   -1    0    0    0    0 -0.00000000000E+00 -0.00000000000E+00 -0.45593999997E+02  0.45594000000E+02  0.51100000000E-03 0. -1.
    9900012    2    1    2    0    0 -0.18550514965E+02  0.24553286307E+01  0.72567905646E+00  0.72461632113E+02  0.70000080530E+02 0.  0.
         12    1    1    2    0    0  0.18550514965E+02 -0.24553286307E+01 -0.72567905646E+00  0.18726367887E+02  0.00000000000E+00 0. -1.
         11    1    3    3    0    0  0.15069931485E+01  0.89279432228E+01 -0.19224496862E+02  0.21249952433E+02  0.51100000000E-03 0.  1.
        -11    1    3    3    0    0  0.45942672045E+01 -0.16151946233E+02  0.18059306849E+02  0.24660316754E+02  0.51100000000E-03 0. -1.
         12    1    3    3    0    0 -0.24651775318E+02  0.96793316409E+01  0.18908690694E+01  0.26551362925E+02  0.00000000000E+00 0. -1.
</event>
<event>
 7    1  0.3305651E-013  0.7246154E+02  0.7816164E-02  0.1226708E+00
        -11   -1    0    0    0    0  0.00000000000E+00  0.00000000000E+00  0.45593999997E+02  0.45594000000E+02  0.51100000000E-03 0.  1.
         11   -1    0    0    0    0 -0.00000000000E+00 -0.00000000000E+00 -0.45593999997E+02  0.45594000000E+02  0.51100000000E-03 0. -1.
    9900012    2    1    2    0    0  0.21219425636E+01 -0.18185414235E+02  0.39330024346E+01  0.72461536391E+02  0.69999955835E+02 0.  0.
         12    1    1    2    0    0 -0.21219425636E+01  0.18185414235E+02 -0.39330024346E+01  0.18726463609E+02  0.00000000000E+00 0. -1.
         11    1    3    3    0    0 -0.12580978461E+02 -0.10742947843E+02 -0.99561903381E+01  0.19308487090E+02  0.51100000000E-03 0. -1.
        -11    1    3    3    0    0 -0.69059057232E+01 -0.13689934062E+02 -0.11549102450E+02  0.19196030739E+02  0.51100000000E-03 0.  1.
        -12    1    3    3    0    0  0.21608826748E+02  0.62474676702E+01  0.25438295223E+02  0.33957018561E+02  0.00000000000E+00 0.  1.
</event>
<event>
 7    1  0.3305651E-013  0.7246143E+02  0.7816164E-02  0.1226708E+00
        -11   -1    0    0    0    0  0.00000000000E+00  0.00000000000E+00  0.45593999997E+02  0.45594000000E+02  0.51100000000E-03 0.  1.
         11   -1    0    0    0    0 -0.00000000000E+00 -0.00000000000E+00 -0.45593999997E+02  0.45594000000E+02  0.51100000000E-03 0. -1.
    9900012    2    1    2    0    0 -0.15721294565E+02  0.52818161609E+01  0.86964310576E+01  0.72461425356E+02  0.69999811191E+02 0.  0.
         12    1    1    2    0    0  0.15721294565E+02 -0.52818161609E+01 -0.86964310576E+01  0.18726574644E+02  0.00000000000E+00 0. -1.
         11    1    3    3    0    0 -0.53101848324E+00  0.27624411989E+01  0.56874279169E+01  0.63450688396E+01  0.51100000000E-03 0. -1.
        -11    1    3    3    0    0 -0.22072740213E+02  0.23281663873E+02  0.20532186618E+02  0.38089531643E+02  0.51100000000E-03 0.  1.
         12    1    3    3    0    0  0.68824641319E+01 -0.20762288911E+02 -0.17523183477E+02  0.28026824874E+02  0.00000000000E+00 0. -1.
</event>
<event>
 7    1  0.3305651E-013  0.7246161E+02  0.7816164E-02  0.1226708E+00
        -11   -1    0    0    0    0  0.00000000000E+00  0.00000000000E+00  0.45593999997E+02  0.45594000000E+02  0.51100000000E-03 0. -1.
         11   -1    0    0    0    0 -0.00000000000E+00 -0.00000000000E+00 -0.45593999997E+02  0.45594000000E+02  0.51100000000E-03 0.  1.
    9900012    2    1    2    0    0 -0.18602477534E+02 -0.49133169460E+00 -0.20938577110E+01  0.72461606398E+02  0.70000047032E+02 0.  0.
         12    1    1    2    0    0  0.18602477534E+02  0.49133169460E+00  0.20938577110E+01  0.18726393602E+02  0.00000000000E+00 0. -1.
         11    1    3    3    0    0 -0.24792598536E+02 -0.14358072041E+02  0.44654187747E+01  0.28995984894E+02  0.51100000000E-03 0. -1.
        -11    1    3    3    0    0 -0.76295658878E+01 -0.48361496154E+01 -0.15995007067E+02  0.18369509250E+02  0.51100000000E-03 0.  1.
        -12    1    3    3    0    0  0.13819686890E+02  0.18702889962E+02  0.94357305817E+01  0.25096112254E+02  0.00000000000E+00 0.  1.
</event>
<event>
 7    1  0.3305651E-013  0.7246160E+02  0.7816164E-02  0.1226708E+00
        -11   -1    0    0    0    0  0.00000000000E+00  0.00000000000E+00  0.45593999997E+02  0.45594000000E+02  0.51100000000E-03 0.  1.
         11   -1    0    0    0    0 -0.00000000000E+00 -0.00000000000E+00 -0.45593999997E+02  0.45594000000E+02  0.51100000000E-03 0. -1.
    9900012    2    1    2    0    0 -0.94292900324E+00  0.59725863537E+01  0.17723350749E+02  0.72461599795E+02  0.70000038431E+02 0.  0.
         12    1    1    2    0    0  0.94292900324E+00 -0.59725863537E+01 -0.17723350749E+02  0.18726400205E+02  0.00000000000E+00 0. -1.
         11    1    3    3    0    0  0.75341400048E+01 -0.18277975363E+02  0.12688138513E+02  0.23491200654E+02  0.51100000000E-03 0. -1.
        -11    1    3    3    0    0 -0.13120910926E+02 -0.77572291763E+01 -0.32457144123E+01  0.15584209005E+02  0.51100000000E-03 0.  1.
        -12    1    3    3    0    0  0.46438419176E+01  0.32007790893E+02  0.82809266485E+01  0.33386190136E+02  0.00000000000E+00 0.  1.
</event>
<event>
 7    1  0.3305651E-013  0.7246140E+02  0.7816164E-02  0.1226708E+00
        -11   -1    0    0    0    0  0.00000000000E+00  0.00000000000E+00  0.45593999997E+02  0.45594000000E+02  0.51100000000E-03 0. -1.
         11   -1    0    0    0    0 -0.00000000000E+00 -0.00000000000E+00 -0.45593999997E+02  0.45594000000E+02  0.51100000000E-03 0.  1.
    9900012    2    1    2    0    0  0.10635138050E+02  0.15384135820E+02  0.95279669659E+00  0.72461398124E+02  0.69999775716E+02 0.  0.
         12    1    1    2    0    0 -0.10635138050E+02 -0.15384135820E+02 -0.95279669659E+00  0.18726601876E+02  0.00000000000E+00 0. -1.
         11    1    3    3    0    0 -0.32897603035E+01 -0.43177970596E+01  0.16177267672E+02  0.17063700768E+02  0.51100000000E-03 0. -1.
        -11    1    3    3    0    0  0.10382124468E+02  0.11047282972E+02  0.16450696957E+02  0.22370882865E+02  0.51100000000E-03 0.  1.
         12    1    3    3    0    0  0.35427738860E+01  0.86546499071E+01 -0.31675167933E+02  0.33026814491E+02  0.00000000000E+00 0. -1.
</event>
<event>
 7    1  0.3305651E-013  0.7246156E+02  0.7816164E-02  0.1226708E+00
        -11   -1    0    0    0    0  0.00000000000E+00  0.00000000000E+00  0.45593999997E+02  0.45594000000E+02  0.51100000000E-03 0. -1.
         11   -1    0    0    0    0 -0.00000000000E+00 -0.00000000000E+00 -0.45593999997E+02  0.45594000000E+02  0.51100000000E-03 0.  1.
    9900012    2    1    2    0    0  0.39538825513E+01  0.11527228644E+02 -0.14218630589E+02  0.72461557645E+02  0.69999983522E+02 0.  0.
         12    1    1    2    0    0 -0.39538825513E+01 -0.11527228644E+02  0.14218630589E+02  0.18726442355E+02  0.00000000000E+00 0. -1.
         11    1    3    3    0    0  0.17169076239E+02 -0.12884922521E+02 -0.13380947868E+02  0.25295220366E+02  0.51100000000E-03 0. -1.
        -11    1    3    3    0    0  0.54862918279E+01  0.13436125274E+02 -0.15310238105E+02  0.21095787530E+02  0.51100000000E-03 0.  1.
         12    1    3    3    0    0 -0.18701485515E+02  0.10976025892E+02  0.14472555385E+02  0.26070549749E+02  0.00000000000E+00 0. -1.
</event>
<event>
 7    1  0.3305651E-013  0.7246148E+02  0.7816164E-02  0.1226708E+00
        -11   -1    0    0    0    0  0.00000000000E+00  0.00000000000E+00  0.45593999997E+02  0.45594000000E+02  0.51100000000E-03 0. -1.
         11   -1    0    0    0    0 -0.00000000000E+00 -0.00000000000E+00 -0.45593999997E+02  0.45594000000E+02  0.51100000000E-03 0.  1.
    9900012    2    1    2    0    0 -0.15004788682E+02 -0.22165855436E+00 -0.11202225178E+02  0.72461476968E+02  0.69999878425E+02 0.  0.
         12    1    1    2    0    0  0.15004788682E+02  0.22165855436E+00  0.11202225178E+02  0.18726523032E+02  0.00000000000E+00 0. -1.
         11    1    3    3    0    0 -0.66823368702E+00  0.11564070916E+02  0.13770306632E+02  0.17994321810E+02  0.51100000000E-03 0. -1.
        -11    1    3    3    0    0 -0.23126203076E+02 -0.52791792599E+00  0.27366341438E+01  0.23293542727E+02  0.51100000000E-03 0.  1.
        -12    1    3    3    0    0  0.87896480811E+01 -0.11257811544E+02 -0.27709165954E+02  0.31173612432E+02  0.00000000000E+00 0.  1.
</event>
<event>
 7    1  0.3305651E-013  0.7246158E+02  0.7816164E-02  0.1226708E+00
        -11   -1    0    0    0    0  0.00000000000E+00  0.00000000000E+00  0.45593999997E+02  0.45594000000E+02  0.51100000000E-03 0.  1.
         11   -1    0    0    0    0 -0.00000000000E+00 -0.00000000000E+00 -0.45593999997E+02  0.45594000000E+02  0.51100000000E-03 0. -1.
    9900012    2    1    2    0    0  0.94850237783E+00  0.11021381661E+02  0.15109876272E+02  0.72461578253E+02  0.70000010367E+02 0.  0.
         12    1    1    2    0    0 -0.94850237783E+00 -0.11021381661E+02 -0.15109876272E+02  0.18726421747E+02  0.00000000000E+00 0. -1.
         11    1    3    3    0    0 -0.36197218942E+01  0.83366432090E+01 -0.68802777413E+01  0.11399132802E+02  0.51100000000E-03 0. -1.
        -11    1    3    3    0    0  0.24901212030E+02  0.50141676165E+01 -0.62761185884E+01  0.26164898285E+02  0.51100000000E-03 0.  1.
        -12    1    3    3    0    0 -0.20332987758E+02 -0.23294291641E+01  0.28266272602E+02  0.34897547166E+02  0.00000000000E+00 0.  1.
</event>
<event>
 7    1  0.3305651E-013  0.7246142E+02  0.7816164E-02  0.1226708E+00
        -11   -1    0    0    0    0  0.00000000000E+00  0.00000000000E+00  0.45593999997E+02  0.45594000000E+02  0.51100000000E-03 0.  1.
         11   -1    0    0    0    0 -0.00000000000E+00 -0.00000000000E+00 -0.45593999997E+02  0.45594000000E+02  0.51100000000E-03 0. -1.
    9900012    2    1    2    0    0 -0.14423977874E+02  0.53828716721E+00  0.11930794472E+02  0.72461421361E+02  0.69999805986E+02 0.  0.
         12    1    1    2    0    0  0.14423977874E+02 -0.53828716721E+00 -0.11930794472E+02  0.18726578639E+02  0.00000000000E+00 0. -1.
         11    1    3    3    0    0 -0.22533509924E+02  0.97668944689E+01  0.91449436869E+01  0.26206512404E+02  0.51100000000E-03 0. -1.
        -11    1    3    3    0    0 -0.17495964572E+02 -0.10311192409E+02 -0.10777888038E+01  0.20336939155E+02  0.51100000000E-03 0.  1.
         12    1    3    3    0    0  0.25605496622E+02  0.10825851077E+01  0.38636395892E+01  0.25917969802E+02  0.00000000000E+00 0. -1.
</event>
<event>
 7    1  0.3305651E-013  0.7246170E+02  0.7816164E-02  0.1226708E+00
        -11   -1    0    0    0    0  0.00000000000E+00  0.00000000000E+00  0.45593999997E+02  0.45594000000E+02  0.51100000000E-03 0.  1.
         11   -1    0    0    0    0 -0.00000000000E+00 -0.00000000000E+00 -0.45593999997E+02  0.45594000000E+02  0.51100000000E-03 0. -1.
    9900012    2    1    2    0    0 -0.53798937523E+01 -0.11395267832E+01  0.17900631200E+02  0.72461698298E+02  0.70000166748E+02 0.  0.
         12    1    1    2    0    0  0.53798937523E+01  0.11395267832E+01 -0.17900631200E+02  0.18726301702E+02  0.00000000000E+00 0. -1.
         11    1    3    3    0    0 -0.11268597196E+02 -0.78263364493E+01  0.53511410197E+01  0.14726423037E+02  0.51100000000E-03 0. -1.
        -11    1    3    3    0    0  0.56275237207E+01  0.17142587902E+02  0.31378752348E+02  0.36196179942E+02  0.51100000000E-03 0.  1.
         12    1    3    3    0    0  0.26117972337E+00 -0.10455778236E+02 -0.18829262168E+02  0.21539095319E+02  0.00000000000E+00 0. -1.
</event>
<event>
 7    1  0.3305651E-013  0.7246161E+02  0.7816164E-02  0.1226708E+00
        -11   -1    0    0    0    0  0.00000000000E+00  0.00000000000E+00  0.45593999997E+02  0.45594000000E+02  0.51100000000E-03 0. -1.
         11   -1    0    0    0    0 -0.00000000000E+00 -0.00000000000E+00 -0.45593999997E+02  0.45594000000E+02  0.51100000000E-03 0.  1.
    9900012    2    1    2    0    0  0.18141561761E+02 -0.36746640266E+01 -0.28387370405E+01  0.72461605610E+02  0.70000046006E+02 0.  0.
         12    1    1    2    0    0 -0.18141561761E+02  0.36746640266E+01  0.28387370405E+01  0.18726394390E+02  0.00000000000E+00 0. -1.
         11    1    3    3    0    0  0.11302626571E+02  0.22222797401E+02  0.22103291723E+01  0.25029735257E+02  0.51100000000E-03 0. -1.
        -11    1    3    3    0    0  0.13777645389E+02  0.49309887610E+01 -0.60052240439E+01  0.15817739367E+02  0.51100000000E-03 0.  1.
         12    1    3    3    0    0 -0.69387101982E+01 -0.30828450188E+02  0.95615783109E+00  0.31614130986E+02  0.00000000000E+00 0. -1.
</event>
<event>
 7    1  0.3305651E-013  0.7246091E+02  0.7816164E-02  0.1226710E+00
        -11   -1    0    0    0    0  0.00000000000E+00  0.00000000000E+00  0.45593999997E+02  0.45594000000E+02  0.51100000000E-03 0.  1.
         11   -1    0    0    0    0 -0.00000000000E+00 -0.00000000000E+00 -0.45593999997E+02  0.45594000000E+02  0.51100000000E-03 0. -1.
    9900012    2    1    2    0    0 -0.20668329614E+01  0.16495477094E+02  0.86215661385E+01  0.72460908241E+02  0.69999137548E+02 0.  0.
         12    1    1    2    0    0  0.20668329614E+01 -0.16495477094E+02 -0.86215661385E+01  0.18727091759E+02  0.00000000000E+00 0. -1.
         11    1    3    3    0    0  0.96800230912E+01 -0.60844193696E+01  0.71356849985E+01  0.13477425821E+02  0.51100000000E-03 0. -1.
        -11    1    3    3    0    0  0.23315527310E+01  0.84145732649E+01  0.25963349401E+02  0.27392274344E+02  0.51100000000E-03 0.  1.
        -12    1    3    3    0    0 -0.14078408784E+02  0.14165323199E+02 -0.24477468261E+02  0.31591208076E+02  0.00000000000E+00 0.  1.
</event>
<event>
 7    1  0.3305651E-013  0.7246167E+02  0.7816164E-02  0.1226708E+00
        -11   -1    0    0    0    0  0.00000000000E+00  0.00000000000E+00  0.45593999997E+02  0.45594000000E+02  0.51100000000E-03 0. -1.
         11   -1    0    0    0    0 -0.00000000000E+00 -0.00000000000E+00 -0.45593999997E+02  0.45594000000E+02  0.51100000000E-03 0.  1.
    9900012    2    1    2    0    0 -0.12479719726E+02 -0.12745172619E+02 -0.57002181731E+01  0.72461673165E+02  0.70000134007E+02 0.  0.
         12    1    1    2    0    0  0.12479719726E+02  0.12745172619E+02  0.57002181731E+01  0.18726326835E+02  0.00000000000E+00 0. -1.
         11    1    3    3    0    0  0.14248864545E+02 -0.24407257766E+01 -0.13349486992E+01  0.14517898313E+02  0.51100000000E-03 0. -1.
        -11    1    3    3    0    0  0.13304026128E+02 -0.11377579429E+02 -0.36942173752E+01  0.17891161705E+02  0.51100000000E-03 0.  1.
         12    1    3    3    0    0 -0.40032610399E+02  0.10731325857E+01 -0.67105209874E+00  0.40052613146E+02  0.00000000000E+00 0. -1.
</event>
<event>
 7    1  0.3305651E-013  0.7246157E+02  0.7816164E-02  0.1226708E+00
        -11   -1    0    0    0    0  0.00000000000E+00  0.00000000000E+00  0.45593999997E+02  0.45594000000E+02  0.51100000000E-03 0. -1.
         11   -1    0    0    0    0 -0.00000000000E+00 -0.00000000000E+00 -0.45593999997E+02  0.45594000000E+02  0.51100000000E-03 0.  1.
    9900012    2    1    2    0    0  0.11771972800E+02  0.13671405858E+02 -0.50192040863E+01  0.72461572380E+02  0.70000002717E+02 0.  0.
         12    1    1    2    0    0 -0.11771972800E+02 -0.13671405858E+02  0.50192040863E+01  0.18726427620E+02  0.00000000000E+00 0. -1.
         11    1    3    3    0    0  0.31716631212E+02  0.15265845442E+02  0.15089594903E+02  0.38297344648E+02  0.51100000000E-03 0. -1.
        -11    1    3    3    0    0 -0.37441604385E+01  0.20484492472E+01  0.33483664319E+01  0.54246142473E+01  0.51100000000E-03 0.  1.
        -12    1    3    3    0    0 -0.16200497974E+02 -0.36428888305E+01 -0.23457165422E+02  0.28739613485E+02  0.00000000000E+00 0.  1.
</event>
<event>
 7    1  0.3305651E-013  0.7246161E+02  0.7816164E-02  0.1226708E+00
        -11   -1    0    0    0    0  0.00000000000E+00  0.00000000000E+00  0.45593999997E+02  0.45594000000E+02  0.51100000000E-03 0. -1.
         11   -1    0    0    0    0 -0.00000000000E+00 -0.00000000000E+00 -0.45593999997E+02  0.45594000000E+02  0.51100000000E-03 0.  1.
    9900012    2    1    2    0    0  0.61064829985E+01  0.16325053589E+01 -0.17627349555E+02  0.72461610580E+02  0.70000052480E+02 0.  0.
         12    1    1    2    0    0 -0.61064829985E+01 -0.16325053589E+01  0.17627349555E+02  0.18726389420E+02  0.00000000000E+00 0. -1.
         11    1    3    3    0    0  0.11342334904E+01 -0.60378451868E+01  0.94408314615E+01  0.11263718705E+02  0.51100000000E-03 0. -1.
        -11    1    3    3    0    0  0.80644244231E+01 -0.20191527098E+02  0.68152445214E+00  0.21753095956E+02  0.51100000000E-03 0.  1.
        -12    1    3    3    0    0 -0.30921749150E+01  0.27861877644E+02 -0.27749705469E+02  0.39444795920E+02  0.00000000000E+00 0.  1.
</event>
<event>
 7    1  0.3305651E-013  0.7246156E+02  0.7816164E-02  0.1226708E+00
        -11   -1    0    0    0    0  0.00000000000E+00  0.00000000000E+00  0.45593999997E+02  0.45594000000E+02  0.51100000000E-03 0.  1.
         11   -1    0    0    0    0 -0.00000000000E+00 -0.00000000000E+00 -0.45593999997E+02  0.45594000000E+02  0.51100000000E-03 0. -1.
    9900012    2    1    2    0    0  0.52371720268E+01 -0.17483227908E+02  0.41938347852E+01  0.72461562028E+02  0.69999989232E+02 0.  0.
         12    1    1    2    0    0 -0.52371720268E+01  0.17483227908E+02 -0.41938347852E+01  0.18726437972E+02  0.00000000000E+00 0. -1.
         11    1    3    3    0    0 -0.70957016555E+00  0.58505256482E+01  0.59628623355E+01  0.83837859988E+01  0.51100000000E-03 0. -1.
        -11    1    3    3    0    0 -0.25685220429E+02 -0.37897638175E+01  0.45589381643E+01  0.26360515468E+02  0.51100000000E-03 0.  1.
         12    1    3    3    0    0  0.31631962622E+02 -0.19543989738E+02 -0.63279657145E+01  0.37717260562E+02  0.00000000000E+00 0. -1.
</event>
<event>
 7    1  0.3305651E-013  0.7246160E+02  0.7816164E-02  0.1226708E+00
        -11   -1    0    0    0    0  0.00000000000E+00  0.00000000000E+00  0.45593999997E+02  0.45594000000E+02  0.51100000000E-03 0. -1.
         11   -1    0    0    0    0 -0.00000000000E+00 -0.00000000000E+00 -0.45593999997E+02  0.45594000000E+02  0.51100000000E-03 0.  1.
    9900012    2    1    2    0    0 -0.12775770388E+02 -0.14356593971E+01 -0.13616044952E+02  0.72461598663E+02  0.70000036955E+02 0.  0.
         12    1    1    2    0    0  0.12775770388E+02  0.14356593971E+01  0.13616044952E+02  0.18726401337E+02  0.00000000000E+00 0. -1.
         11    1    3    3    0    0 -0.26075358045E+02 -0.14730389442E+01  0.41900668496E+01  0.26450913054E+02  0.51100000000E-03 0. -1.
        -11    1    3    3    0    0 -0.11759392157E+02  0.29758995974E+01  0.38856745437E+01  0.12737258309E+02  0.51100000000E-03 0.  1.
        -12    1    3    3    0    0  0.25058979814E+02 -0.29385200503E+01 -0.21691786346E+02  0.33273427300E+02  0.00000000000E+00 0.  1.
</event>
<event>
 7    1  0.3305651E-013  0.7246161E+02  0.7816164E-02  0.1226708E+00
        -11   -1    0    0    0    0  0.00000000000E+00  0.00000000000E+00  0.45593999997E+02  0.45594000000E+02  0.51100000000E-03 0.  1.
         11   -1    0    0    0    0 -0.00000000000E+00 -0.00000000000E+00 -0.45593999997E+02  0.45594000000E+02  0.51100000000E-03 0. -1.
    9900012    2    1    2    0    0 -0.24646147444E+01  0.17238539091E+02 -0.68874001540E+01  0.72461605881E+02  0.70000046358E+02 0.  0.
         12    1    1    2    0    0  0.24646147444E+01 -0.17238539091E+02  0.68874001540E+01  0.18726394119E+02  0.00000000000E+00 0. -1.
         11    1    3    3    0    0  0.11267039772E+02 -0.54691644767E+01 -0.18083857028E+02  0.21997359627E+02  0.51100000000E-03 0. -1.
        -11    1    3    3    0    0 -0.19882213246E+02  0.10399957677E+02 -0.10499747536E+02  0.24773094716E+02  0.51100000000E-03 0.  1.
        -12    1    3    3    0    0  0.61505587288E+01  0.12307745890E+02  0.21696204409E+02  0.25691151538E+02  0.00000000000E+00 0.  1.
</event>
<event>
 7    1  0.3305651E-013  0.7246152E+02  0.7816164E-02  0.1226708E+00
        -11   -1    0    0    0    0  0.00000000000E+00  0.00000000000E+00  0.45593999997E+02  0.45594000000E+02  0.51100000000E-03 0. -1.
         11   -1    0    0    0    0 -0.00000000000E+00 -0.00000000000E+00 -0.45593999997E+02  0.45594000000E+02  0.51100000000E-03 0.  1.
    9900012    2    1    2    0    0 -0.10879126262E+02  0.11136346500E+02 -0.10407091159E+02  0.72461517470E+02  0.69999931186E+02 0.  0.
         12    1    1    2    0    0  0.10879126262E+02 -0.11136346500E+02  0.10407091159E+02  0.18726482530E+02  0.00000000000E+00 0. -1.
         11    1    3    3    0    0 -0.14723177494E+01 -0.32165271905E+01 -0.11624551544E+02  0.12150883326E+02  0.51100000000E-03 0. -1.
        -11    1    3    3    0    0  0.91210972558E+01 -0.10886702925E+02 -0.18489638704E+02  0.23314833377E+02  0.51100000000E-03 0.  1.
         12    1    3    3    0    0 -0.18527905768E+02  0.25239576615E+02  0.19707099090E+02  0.36995800767E+02  0.00000000000E+00 0. -1.
</event>
<event>
 7    1  0.3305651E-013  0.7246162E+02  0.7816164E-02  0.1226708E+00
        -11   -1    0    0    0    0  0.00000000000E+00  0.00000000000E+00  0.45593999997E+02  0.45594000000E+02  0.51100000000E-03 0. -1.
         11   -1    0    0    0    0 -0.00000000000E+00 -0.00000000000E+00 -0.45593999997E+02  0.45594000000E+02  0.51100000000E-03 0.  1.
    9900012    2    1    2    0    0  0.16426423252E+02 -0.77184115189E+01  0.46125935603E+01  0.72461620836E+02  0.70000065840E+02 0.  0.
         12    1    1    2    0    0 -0.16426423252E+02  0.77184115189E+01 -0.46125935603E+01  0.18726379164E+02  0.00000000000E+00 0. -1.
         11    1    3    3    0    0  0.19033359706E+01  0.55872156281E-01  0.23007578553E+00  0.19180053814E+01  0.51100000000E-03 0. -1.
        -11    1    3    3    0    0  0.38607775964E+02  0.10264599610E+02  0.60589940890E+01  0.40405863184E+02  0.51100000000E-03 0.  1.
         12    1    3    3    0    0 -0.24084688683E+02 -0.18038883285E+02 -0.16764763143E+01  0.30137752271E+02  0.00000000000E+00 0. -1.
</event>
<event>
 7    1  0.3305651E-013  0.7246219E+02  0.7816164E-02  0.1226706E+00
        -11   -1    0    0    0    0  0.00000000000E+00  0.00000000000E+00  0.45593999997E+02  0.45594000000E+02  0.51100000000E-03 0. -1.
         11   -1    0    0    0    0 -0.00000000000E+00 -0.00000000000E+00 -0.45593999997E+02  0.45594000000E+02  0.51100000000E-03 0.  1.
    9900012    2    1    2    0    0  0.58333662106E+01  0.75670627028E+01 -0.16104881634E+02  0.72462193963E+02  0.70000812439E+02 0.  0.
         12    1    1    2    0    0 -0.58333662106E+01 -0.75670627028E+01  0.16104881634E+02  0.18725806037E+02  0.00000000000E+00 0. -1.
         11    1    3    3    0    0 -0.70890415001E+01 -0.21908120869E+00 -0.19576393638E+01  0.73576394384E+01  0.51100000000E-03 0. -1.
        -11    1    3    3    0    0  0.16979091771E+02  0.70020206540E+00 -0.37065447003E+02  0.40775325898E+02  0.51100000000E-03 0.  1.
         12    1    3    3    0    0 -0.40566840605E+01  0.70859418460E+01  0.22918204732E+02  0.24329228627E+02  0.00000000000E+00 0. -1.
</event>
<event>
 7    1  0.3305651E-013  0.7246155E+02  0.7816164E-02  0.1226708E+00
        -11   -1    0    0    0    0  0.00000000000E+00  0.00000000000E+00  0.45593999997E+02  0.45594000000E+02  0.51100000000E-03 0.  1.
         11   -1    0    0    0    0 -0.00000000000E+00 -0.00000000000E+00 -0.45593999997E+02  0.45594000000E+02  0.51100000000E-03 0. -1.
    9900012    2    1    2    0    0  0.16660373156E+02  0.15964025674E+00  0.85490633219E+01  0.72461548056E+02  0.69999971031E+02 0.  0.
         12    1    1    2    0    0 -0.16660373156E+02 -0.15964025674E+00 -0.85490633219E+01  0.18726451944E+02  0.00000000000E+00 0. -1.
         11    1    3    3    0    0  0.93671041024E+01 -0.14017183161E+02 -0.20775536160E+01  0.16986473805E+02  0.51100000000E-03 0. -1.
        -11    1    3    3    0    0  0.29807228159E+02  0.86619306544E+01  0.35685643744E+01  0.31244752282E+02  0.51100000000E-03 0.  1.
         12    1    3    3    0    0 -0.22513959105E+02  0.55148927631E+01  0.70580525635E+01  0.24230321970E+02  0.00000000000E+00 0. -1.
</event>
<event>
 7    1  0.3305651E-013  0.7246159E+02  0.7816164E-02  0.1226708E+00
        -11   -1    0    0    0    0  0.00000000000E+00  0.00000000000E+00  0.45593999997E+02  0.45594000000E+02  0.51100000000E-03 0.  1.
         11   -1    0    0    0    0 -0.00000000000E+00 -0.00000000000E+00 -0.45593999997E+02  0.45594000000E+02  0.51100000000E-03 0. -1.
    9900012    2    1    2    0    0  0.80393636022E+01 -0.96652843365E+01  0.13879099316E+02  0.72461588537E+02  0.70000023765E+02 0.  0.
         12    1    1    2    0    0 -0.80393636022E+01  0.96652843365E+01 -0.13879099316E+02  0.18726411463E+02  0.00000000000E+00 0. -1.
         11    1    3    3    0    0 -0.13131476318E+02  0.52653349417E+01 -0.23523597630E+01  0.14342001919E+02  0.51100000000E-03 0. -1.
        -11    1    3    3    0    0 -0.19628072284E+01 -0.27954932145E+02  0.14403741970E+02  0.31508707153E+02  0.51100000000E-03 0.  1.
         12    1    3    3    0    0  0.23133647149E+02  0.13024312867E+02  0.18277171088E+01  0.26610879465E+02  0.00000000000E+00 0. -1.
</event>
<event>
 7    1  0.3305651E-013  0.7246165E+02  0.7816164E-02  0.1226708E+00
        -11   -1    0    0    0    0  0.00000000000E+00  0.00000000000E+00  0.45593999997E+02  0.45594000000E+02  0.51100000000E-03 0. -1.
         11   -1    0    0    0    0 -0.00000000000E+00 -0.00000000000E+00 -0.45593999997E+02  0.45594000000E+02  0.51100000000E-03 0.  1.
    9900012    2    1    2    0    0 -0.82545876154E+01 -0.56874683177E+00 -0.16799245853E+02  0.72461645553E+02  0.70000098038E+02 0.  0.
         12    1    1    2    0    0  0.82545876154E+01  0.56874683177E+00  0.16799245853E+02  0.18726354447E+02  0.00000000000E+00 0. -1.
         11    1    3    3    0    0 -0.77894789403E+01  0.23141171361E+02  0.15528378297E+02  0.28936487812E+02  0.51100000000E-03 0. -1.
        -11    1    3    3    0    0  0.27386231067E+01 -0.56944813392E+00  0.87210094390E+00  0.29299979548E+01  0.51100000000E-03 0.  1.
        -12    1    3    3    0    0 -0.32037317818E+01 -0.23140470058E+02 -0.33199725093E+02  0.40595159787E+02  0.00000000000E+00 0.  1.
</event>
<event>
 7    1  0.3305651E-013  0.7246160E+02  0.7816164E-02  0.1226708E+00
        -11   -1    0    0    0    0  0.00000000000E+00  0.00000000000E+00  0.45593999997E+02  0.45594000000E+02  0.51100000000E-03 0. -1.
         11   -1    0    0    0    0 -0.00000000000E+00 -0.00000000000E+00 -0.45593999997E+02  0.45594000000E+02  0.51100000000E-03 0.  1.
    9900012    2    1    2    0    0 -0.53591304783E+01 -0.84739110073E+00 -0.17923158361E+02  0.72461602674E+02  0.70000042181E+02 0.  0.
         12    1    1    2    0    0  0.53591304783E+01  0.84739110073E+00  0.17923158361E+02  0.18726397326E+02  0.00000000000E+00 0. -1.
         11    1    3    3    0    0 -0.21235001090E+01 -0.19760323558E+02  0.70893869931E+01  0.21100688330E+02  0.51100000000E-03 0. -1.
        -11    1    3    3    0    0 -0.93373276556E+01 -0.10150527827E+02 -0.14096023345E+02  0.19720973032E+02  0.51100000000E-03 0.  1.
        -12    1    3    3    0    0  0.61016972863E+01  0.29063460284E+02 -0.10916522009E+02  0.31639941312E+02  0.00000000000E+00 0.  1.
</event>
<event>
 7    1  0.3305651E-013  0.7246160E+02  0.7816164E-02  0.1226708E+00
        -11   -1    0    0    0    0  0.00000000000E+00  0.00000000000E+00  0.45593999997E+02  0.45594000000E+02  0.51100000000E-03 0.  1.
         11   -1    0    0    0    0 -0.00000000000E+00 -0.00000000000E+00 -0.45593999997E+02  0.45594000000E+02  0.51100000000E-03 0. -1.
    9900012    2    1    2    0    0 -0.44495567287E+01  0.18190096169E+02  0.60874305214E-03  0.72461597407E+02  0.70000035319E+02 0.  0.
         12    1    1    2    0    0  0.44495567287E+01 -0.18190096169E+02 -0.60874305215E-03  0.18726402593E+02  0.00000000000E+00 0. -1.
         11    1    3    3    0    0  0.12318604357E+02 -0.15964049507E+01 -0.21449685889E+00  0.12423466957E+02  0.51100000000E-03 0. -1.
        -11    1    3    3    0    0  0.40415621606E+01  0.31124993166E+01 -0.23685644340E+02  0.24228735517E+02  0.51100000000E-03 0.  1.
         12    1    3    3    0    0 -0.20809723246E+02  0.16674001803E+02  0.23900749942E+02  0.35809394933E+02  0.00000000000E+00 0. -1.
</event>
<event>
 7    1  0.3305651E-013  0.7246158E+02  0.7816164E-02  0.1226708E+00
        -11   -1    0    0    0    0  0.00000000000E+00  0.00000000000E+00  0.45593999997E+02  0.45594000000E+02  0.51100000000E-03 0. -1.
         11   -1    0    0    0    0 -0.00000000000E+00 -0.00000000000E+00 -0.45593999997E+02  0.45594000000E+02  0.51100000000E-03 0.  1.
    9900012    2    1    2    0    0  0.26519167291E+01  0.60753138420E+01 -0.17513903552E+02  0.72461577004E+02  0.70000008740E+02 0.  0.
         12    1    1    2    0    0 -0.26519167291E+01 -0.60753138420E+01  0.17513903552E+02  0.18726422996E+02  0.00000000000E+00 0. -1.
         11    1    3    3    0    0  0.40119934682E+01  0.27310828415E+02 -0.84598394950E+01  0.28871202345E+02  0.51100000000E-03 0. -1.
        -11    1    3    3    0    0  0.28088533952E+01 -0.30611706086E+01 -0.21025352170E+02  0.21431888788E+02  0.51100000000E-03 0.  1.
        -12    1    3    3    0    0 -0.41689301343E+01 -0.18174343964E+02  0.11971288113E+02  0.22158485871E+02  0.00000000000E+00 0.  1.
</event>
<event>
 7    1  0.3305651E-013  0.7246152E+02  0.7816164E-02  0.1226708E+00
        -11   -1    0    0    0    0  0.00000000000E+00  0.00000000000E+00  0.45593999997E+02  0.45594000000E+02  0.51100000000E-03 0. -1.
         11   -1    0    0    0    0 -0.00000000000E+00 -0.00000000000E+00 -0.45593999997E+02  0.45594000000E+02  0.51100000000E-03 0.  1.
    9900012    2    1    2    0    0 -0.11244876423E+02 -0.11699335255E+02 -0.93466281382E+01  0.72461517449E+02  0.69999931160E+02 0.  0.
         12    1    1    2    0    0  0.11244876423E+02  0.11699335255E+02  0.93466281382E+01  0.18726482551E+02  0.00000000000E+00 0. -1.
         11    1    3    3    0    0  0.17637915049E+02  0.72839557143E+01 -0.11201554392E+02  0.22127514076E+02  0.51100000000E-03 0. -1.
        -11    1    3    3    0    0  0.69878202505E+01 -0.26847199258E+00 -0.58866816264E+01  0.91408276373E+01  0.51100000000E-03 0.  1.
         12    1    3    3    0    0 -0.35870611722E+02 -0.18714818976E+02  0.77416078798E+01  0.41193175736E+02  0.00000000000E+00 0. -1.
</event>
<event>
 7    1  0.3305651E-013  0.7246163E+02  0.7816164E-02  0.1226708E+00
        -11   -1    0    0    0    0  0.00000000000E+00  0.00000000000E+00  0.45593999997E+02  0.45594000000E+02  0.51100000000E-03 0. -1.
         11   -1    0    0    0    0 -0.00000000000E+00 -0.00000000000E+00 -0.45593999997E+02  0.45594000000E+02  0.51100000000E-03 0.  1.
    9900012    2    1    2    0    0 -0.13465610982E+01  0.86985783570E+01 -0.16528711036E+02  0.72461634075E+02  0.70000083086E+02 0.  0.
         12    1    1    2    0    0  0.13465610982E+01 -0.86985783570E+01  0.16528711036E+02  0.18726365925E+02  0.00000000000E+00 0. -1.
         11    1    3    3    0    0 -0.16665334764E+02  0.14632224193E+02 -0.69995232553E+01  0.23255723891E+02  0.51100000000E-03 0.  1.
        -11    1    3    3    0    0  0.43335881660E+01 -0.10798802219E+02 -0.26193794259E+02  0.28661977840E+02  0.51100000000E-03 0. -1.
        -12    1    3    3    0    0  0.10985185500E+02  0.48651563833E+01  0.16664606478E+02  0.20543932344E+02  0.00000000000E+00 0.  1.
</event>
<event>
 7    1  0.3305651E-013  0.7246152E+02  0.7816164E-02  0.1226708E+00
        -11   -1    0    0    0    0  0.00000000000E+00  0.00000000000E+00  0.45593999997E+02  0.45594000000E+02  0.51100000000E-03 0. -1.
         11   -1    0    0    0    0 -0.00000000000E+00 -0.00000000000E+00 -0.45593999997E+02  0.45594000000E+02  0.51100000000E-03 0.  1.
    9900012    2    1    2    0    0  0.12723460564E+01 -0.31157987014E+01 -0.18421560892E+02  0.72461522175E+02  0.69999937315E+02 0.  0.
         12    1    1    2    0    0 -0.12723460564E+01  0.31157987014E+01  0.18421560892E+02  0.18726477825E+02  0.00000000000E+00 0. -1.
         11    1    3    3    0    0 -0.36877141607E+01 -0.70849067984E+01 -0.17920691867E+02  0.19620049371E+02  0.51100000000E-03 0. -1.
        -11    1    3    3    0    0 -0.43523631479E+01  0.24575773869E+02 -0.11748911939E+02  0.27585297864E+02  0.51100000000E-03 0.  1.
         12    1    3    3    0    0  0.93124233650E+01 -0.20606665772E+02  0.11248042914E+02  0.25256174940E+02  0.00000000000E+00 0. -1.
</event>
<event>
 7    1  0.3305651E-013  0.7246163E+02  0.7816164E-02  0.1226708E+00
        -11   -1    0    0    0    0  0.00000000000E+00  0.00000000000E+00  0.45593999997E+02  0.45594000000E+02  0.51100000000E-03 0. -1.
         11   -1    0    0    0    0 -0.00000000000E+00 -0.00000000000E+00 -0.45593999997E+02  0.45594000000E+02  0.51100000000E-03 0.  1.
    9900012    2    1    2    0    0  0.49889591134E+01  0.16944864148E+02  0.62176176467E+01  0.72461630805E+02  0.70000078826E+02 0.  0.
         12    1    1    2    0    0 -0.49889591134E+01 -0.16944864148E+02 -0.62176176467E+01  0.18726369195E+02  0.00000000000E+00 0. -1.
         11    1    3    3    0    0 -0.11031417419E+02 -0.30415829968E+01  0.19963747288E+01  0.11615890397E+02  0.51100000000E-03 0. -1.
        -11    1    3    3    0    0  0.61503455944E+01 -0.17025872373E+02  0.12052255885E+02  0.21747734437E+02  0.51100000000E-03 0.  1.
        -12    1    3    3    0    0  0.98700309376E+01  0.37012319518E+02 -0.78310129668E+01  0.39098005971E+02  0.00000000000E+00 0.  1.
</event>
<event>
 7    1  0.3305651E-013  0.7246157E+02  0.7816164E-02  0.1226708E+00
        -11   -1    0    0    0    0  0.00000000000E+00  0.00000000000E+00  0.45593999997E+02  0.45594000000E+02  0.51100000000E-03 0. -1.
         11   -1    0    0    0    0 -0.00000000000E+00 -0.00000000000E+00 -0.45593999997E+02  0.45594000000E+02  0.51100000000E-03 0.  1.
    9900012    2    1    2    0    0  0.32306551343E+01  0.18353249811E+02  0.18439539791E+01  0.72461572751E+02  0.70000003200E+02 0.  0.
         12    1    1    2    0    0 -0.32306551343E+01 -0.18353249811E+02 -0.18439539791E+01  0.18726427249E+02  0.00000000000E+00 0. -1.
         11    1    3    3    0    0 -0.18479913039E+02  0.11459837843E+01 -0.44170210140E+01  0.19034981998E+02  0.51100000000E-03 0. -1.
        -11    1    3    3    0    0  0.68412980113E+01  0.44712668381E+01 -0.19457428697E+02  0.21104196677E+02  0.51100000000E-03 0.  1.
        -12    1    3    3    0    0  0.14869270162E+02  0.12735999189E+02  0.25718403690E+02  0.32322394077E+02  0.00000000000E+00 0.  1.
</event>
<event>
 7    1  0.3305651E-013  0.7246157E+02  0.7816164E-02  0.1226708E+00
        -11   -1    0    0    0    0  0.00000000000E+00  0.00000000000E+00  0.45593999997E+02  0.45594000000E+02  0.51100000000E-03 0.  1.
         11   -1    0    0    0    0 -0.00000000000E+00 -0.00000000000E+00 -0.45593999997E+02  0.45594000000E+02  0.51100000000E-03 0. -1.
    9900012    2    1    2    0    0 -0.12720027037E+02 -0.12088999152E+02  0.65372840048E+01  0.72461572939E+02  0.70000003445E+02 0.  0.
         12    1    1    2    0    0  0.12720027037E+02  0.12088999152E+02 -0.65372840048E+01  0.18726427061E+02  0.00000000000E+00 0. -1.
         11    1    3    3    0    0  0.32859672956E+01  0.82833910207E+01  0.14936591030E+02  0.17392926715E+02  0.51100000000E-03 0. -1.
        -11    1    3    3    0    0 -0.37866560844E+00 -0.32679379005E+02  0.17677444744E+01  0.32729346473E+02  0.51100000000E-03 0.  1.
         12    1    3    3    0    0 -0.15627328724E+02  0.12306988832E+02 -0.10167051499E+02  0.22339299751E+02  0.00000000000E+00 0. -1.
</event>
<event>
 7    1  0.3305651E-013  0.7246155E+02  0.7816164E-02  0.1226708E+00
        -11   -1    0    0    0    0  0.00000000000E+00  0.00000000000E+00  0.45593999997E+02  0.45594000000E+02  0.51100000000E-03 0. -1.
         11   -1    0    0    0    0 -0.00000000000E+00 -0.00000000000E+00 -0.45593999997E+02  0.45594000000E+02  0.51100000000E-03 0.  1.
    9900012    2    1    2    0    0  0.10235802896E+02 -0.13409445094E+02 -0.81298895713E+01  0.72461548572E+02  0.69999971703E+02 0.  0.
         12    1    1    2    0    0 -0.10235802896E+02  0.13409445094E+02  0.81298895713E+01  0.18726451428E+02  0.00000000000E+00 0. -1.
         11    1    3    3    0    0  0.34574388368E+01  0.69575202532E+01 -0.24184822895E+01  0.81369544812E+01  0.51100000000E-03 0. -1.
        -11    1    3    3    0    0  0.25145975283E+02 -0.28111009811E+02  0.99128357196E+01  0.38997605796E+02  0.51100000000E-03 0.  1.
         12    1    3    3    0    0 -0.18367611224E+02  0.77440444643E+01 -0.15624243001E+02  0.25326988295E+02  0.00000000000E+00 0. -1.
</event>
<event>
 7    1  0.3305651E-013  0.7246145E+02  0.7816164E-02  0.1226708E+00
        -11   -1    0    0    0    0  0.00000000000E+00  0.00000000000E+00  0.45593999997E+02  0.45594000000E+02  0.51100000000E-03 0. -1.
         11   -1    0    0    0    0 -0.00000000000E+00 -0.00000000000E+00 -0.45593999997E+02  0.45594000000E+02  0.51100000000E-03 0.  1.
    9900012    2    1    2    0    0  0.83409191160E+01 -0.93817827710E+01 -0.13895855334E+02  0.72461452664E+02  0.69999846765E+02 0.  0.
         12    1    1    2    0    0 -0.83409191160E+01  0.93817827710E+01  0.13895855334E+02  0.18726547336E+02  0.00000000000E+00 0. -1.
         11    1    3    3    0    0  0.18974824145E+02 -0.65522009916E+01  0.94606451302E+01  0.22191870036E+02  0.51100000000E-03 0. -1.
        -11    1    3    3    0    0  0.73737543231E+01  0.95961082112E+01  0.61194788125E+01  0.13561178666E+02  0.51100000000E-03 0.  1.
        -12    1    3    3    0    0 -0.18007659352E+02 -0.12425689991E+02 -0.29475979277E+02  0.36708403962E+02  0.00000000000E+00 0.  1.
</event>
<event>
 7    1  0.3305651E-013  0.7246157E+02  0.7816164E-02  0.1226708E+00
        -11   -1    0    0    0    0  0.00000000000E+00  0.00000000000E+00  0.45593999997E+02  0.45594000000E+02  0.51100000000E-03 0.  1.
         11   -1    0    0    0    0 -0.00000000000E+00 -0.00000000000E+00 -0.45593999997E+02  0.45594000000E+02  0.51100000000E-03 0. -1.
    9900012    2    1    2    0    0  0.19116499823E+01  0.16389737812E+02  0.88544423231E+01  0.72461573217E+02  0.70000003807E+02 0.  0.
         12    1    1    2    0    0 -0.19116499823E+01 -0.16389737812E+02 -0.88544423231E+01  0.18726426783E+02  0.00000000000E+00 0. -1.
         11    1    3    3    0    0  0.49915894592E+01 -0.73531754631E+00  0.18193591975E+02  0.18880239576E+02  0.51100000000E-03 0. -1.
        -11    1    3    3    0    0  0.60847335717E+01  0.29419367778E+02  0.73386953907E+01  0.30925388169E+02  0.51100000000E-03 0.  1.
        -12    1    3    3    0    0 -0.91646730487E+01 -0.12294312420E+02 -0.16677845042E+02  0.22655945472E+02  0.00000000000E+00 0.  1.
</event>
<event>
 7    1  0.3305651E-013  0.7246155E+02  0.7816164E-02  0.1226708E+00
        -11   -1    0    0    0    0  0.00000000000E+00  0.00000000000E+00  0.45593999997E+02  0.45594000000E+02  0.51100000000E-03 0. -1.
         11   -1    0    0    0    0 -0.00000000000E+00 -0.00000000000E+00 -0.45593999997E+02  0.45594000000E+02  0.51100000000E-03 0.  1.
    9900012    2    1    2    0    0  0.68501810667E+01 -0.21468684676E+01 -0.17295830250E+02  0.72461554290E+02  0.69999979152E+02 0.  0.
         12    1    1    2    0    0 -0.68501810667E+01  0.21468684676E+01  0.17295830250E+02  0.18726445710E+02  0.00000000000E+00 0. -1.
         11    1    3    3    0    0  0.11389584203E+02 -0.81802356564E+01 -0.28362126842E+01  0.14306746183E+02  0.51100000000E-03 0. -1.
        -11    1    3    3    0    0  0.23167476645E+02 -0.60440205020E+01  0.14723611801E+01  0.23988122178E+02  0.51100000000E-03 0.  1.
         12    1    3    3    0    0 -0.27706879781E+02  0.12077387691E+02 -0.15931978746E+02  0.34166685929E+02  0.00000000000E+00 0. -1.
</event>
<event>
 7    1  0.3305651E-013  0.7246155E+02  0.7816164E-02  0.1226708E+00
        -11   -1    0    0    0    0  0.00000000000E+00  0.00000000000E+00  0.45593999997E+02  0.45594000000E+02  0.51100000000E-03 0. -1.
         11   -1    0    0    0    0 -0.00000000000E+00 -0.00000000000E+00 -0.45593999997E+02  0.45594000000E+02  0.51100000000E-03 0.  1.
    9900012    2    1    2    0    0 -0.12367253583E+02 -0.88552089702E+01  0.10923190128E+02  0.72461554270E+02  0.69999979126E+02 0.  0.
         12    1    1    2    0    0  0.12367253583E+02  0.88552089702E+01 -0.10923190128E+02  0.18726445730E+02  0.00000000000E+00 0. -1.
         11    1    3    3    0    0  0.66398364422E+01 -0.16495468045E+02  0.18876682634E+02  0.25932933530E+02  0.51100000000E-03 0. -1.
        -11    1    3    3    0    0 -0.68405661229E+01 -0.16557188000E+02  0.11608491567E+01  0.17952197369E+02  0.51100000000E-03 0.  1.
        -12    1    3    3    0    0 -0.12166523902E+02  0.24197447074E+02 -0.91143416621E+01  0.28576423371E+02  0.00000000000E+00 0.  1.
</event>
<event>
 7    1  0.3305651E-013  0.7246157E+02  0.7816164E-02  0.1226708E+00
        -11   -1    0    0    0    0  0.00000000000E+00  0.00000000000E+00  0.45593999997E+02  0.45594000000E+02  0.51100000000E-03 0. -1.
         11   -1    0    0    0    0 -0.00000000000E+00 -0.00000000000E+00 -0.45593999997E+02  0.45594000000E+02  0.51100000000E-03 0.  1.
    9900012    2    1    2    0    0 -0.99306125690E+01  0.17205066919E+01 -0.15782967378E+02  0.72461567651E+02  0.69999996557E+02 0.  0.
         12    1    1    2    0    0  0.99306125690E+01 -0.17205066919E+01  0.15782967378E+02  0.18726432349E+02  0.00000000000E+00 0. -1.
         11    1    3    3    0    0  0.78462011639E+01 -0.81628255223E+01 -0.98744311746E+01  0.15023281416E+02  0.51100000000E-03 0. -1.
        -11    1    3    3    0    0 -0.20824456185E+02 -0.15758768223E+02 -0.14934356859E+02  0.30083745884E+02  0.51100000000E-03 0.  1.
         12    1    3    3    0    0  0.30476424524E+01  0.25642100437E+02  0.90258206561E+01  0.27354540352E+02  0.00000000000E+00 0. -1.
</event>
<event>
 7    1  0.3305651E-013  0.7246157E+02  0.7816164E-02  0.1226708E+00
        -11   -1    0    0    0    0  0.00000000000E+00  0.00000000000E+00  0.45593999997E+02  0.45594000000E+02  0.51100000000E-03 0.  1.
         11   -1    0    0    0    0 -0.00000000000E+00 -0.00000000000E+00 -0.45593999997E+02  0.45594000000E+02  0.51100000000E-03 0. -1.
    9900012    2    1    2    0    0 -0.43301992565E+01  0.14176428600E+02  0.11443657062E+02  0.72461573742E+02  0.70000004491E+02 0.  0.
         12    1    1    2    0    0  0.43301992565E+01 -0.14176428600E+02 -0.11443657062E+02  0.18726426258E+02  0.00000000000E+00 0. -1.
         11    1    3    3    0    0  0.16657078082E+02 -0.18083064069E+02  0.39248323464E+00  0.24588808424E+02  0.51100000000E-03 0. -1.
        -11    1    3    3    0    0  0.31130805186E+01  0.52943106471E+00 -0.41601985317E+01  0.52229129470E+01  0.51100000000E-03 0.  1.
        -12    1    3    3    0    0 -0.24100357857E+02  0.31730061604E+02  0.15211372359E+02  0.42649852371E+02  0.00000000000E+00 0.  1.
</event>
<event>
 7    1  0.3305651E-013  0.7246158E+02  0.7816164E-02  0.1226708E+00
        -11   -1    0    0    0    0  0.00000000000E+00  0.00000000000E+00  0.45593999997E+02  0.45594000000E+02  0.51100000000E-03 0. -1.
         11   -1    0    0    0    0 -0.00000000000E+00 -0.00000000000E+00 -0.45593999997E+02  0.45594000000E+02  0.51100000000E-03 0.  1.
    9900012    2    1    2    0    0 -0.64908499636E+01 -0.78293814674E+01 -0.15724134893E+02  0.72461581080E+02  0.70000014051E+02 0.  0.
         12    1    1    2    0    0  0.64908499636E+01  0.78293814674E+01  0.15724134893E+02  0.18726418920E+02  0.00000000000E+00 0. -1.
         11    1    3    3    0    0 -0.11758516273E+02  0.11156050892E+01 -0.69326988176E+01  0.13695604873E+02  0.51100000000E-03 0. -1.
        -11    1    3    3    0    0  0.23261433940E+02  0.80713791372E+01 -0.19866058748E+02  0.31637031475E+02  0.51100000000E-03 0.  1.
         12    1    3    3    0    0 -0.17993767630E+02 -0.17016365694E+02  0.11074622672E+02  0.27128944732E+02  0.00000000000E+00 0. -1.
</event>
<event>
 7    1  0.3305651E-013  0.7246149E+02  0.7816164E-02  0.1226708E+00
        -11   -1    0    0    0    0  0.00000000000E+00  0.00000000000E+00  0.45593999997E+02  0.45594000000E+02  0.51100000000E-03 0.  1.
         11   -1    0    0    0    0 -0.00000000000E+00 -0.00000000000E+00 -0.45593999997E+02  0.45594000000E+02  0.51100000000E-03 0. -1.
    9900012    2    1    2    0    0  0.13785354586E+02 -0.65398082490E+01  0.10857120476E+02  0.72461490501E+02  0.69999896054E+02 0.  0.
         12    1    1    2    0    0 -0.13785354586E+02  0.65398082490E+01 -0.10857120476E+02  0.18726509499E+02  0.00000000000E+00 0. -1.
         11    1    3    3    0    0  0.11080123841E+01  0.96894892740E+01 -0.13873039222E+02  0.16958039726E+02  0.51100000000E-03 0. -1.
        -11    1    3    3    0    0 -0.16843203727E+02 -0.27479256274E+01  0.63652272411E+01  0.18214300018E+02  0.51100000000E-03 0.  1.
        -12    1    3    3    0    0  0.29520545928E+02 -0.13481371896E+02  0.18364932457E+02  0.37289150758E+02  0.00000000000E+00 0.  1.
</event>
<event>
 7    1  0.3305651E-013  0.7246121E+02  0.7816164E-02  0.1226709E+00
        -11   -1    0    0    0    0  0.00000000000E+00  0.00000000000E+00  0.45593999997E+02  0.45594000000E+02  0.51100000000E-03 0.  1.
         11   -1    0    0    0    0 -0.00000000000E+00 -0.00000000000E+00 -0.45593999997E+02  0.45594000000E+02  0.51100000000E-03 0. -1.
    9900012    2    1    2    0    0 -0.11334077269E+02  0.86167665668E+01 -0.12164819032E+02  0.72461206476E+02  0.69999526058E+02 0.  0.
         12    1    1    2    0    0  0.11334077269E+02 -0.86167665668E+01  0.12164819032E+02  0.18726793524E+02  0.00000000000E+00 0. -1.
         11    1    3    3    0    0  0.10646179596E+02  0.15296313559E+01  0.42092168957E+01  0.11549823342E+02  0.51100000000E-03 0. -1.
        -11    1    3    3    0    0 -0.21924367809E+01 -0.14398617920E+02  0.12973752760E+02  0.19505005460E+02  0.51100000000E-03 0.  1.
         12    1    3    3    0    0 -0.19787820085E+02  0.21485753131E+02 -0.29347788688E+02  0.41406377675E+02  0.00000000000E+00 0. -1.
</event>
<event>
 7    1  0.3305651E-013  0.7246158E+02  0.7816164E-02  0.1226708E+00
        -11   -1    0    0    0    0  0.00000000000E+00  0.00000000000E+00  0.45593999997E+02  0.45594000000E+02  0.51100000000E-03 0.  1.
         11   -1    0    0    0    0 -0.00000000000E+00 -0.00000000000E+00 -0.45593999997E+02  0.45594000000E+02  0.51100000000E-03 0. -1.
    9900012    2    1    2    0    0  0.84067603388E+00  0.12083381815E+02  0.14281591215E+02  0.72461582833E+02  0.70000016334E+02 0.  0.
         12    1    1    2    0    0 -0.84067603388E+00 -0.12083381815E+02 -0.14281591215E+02  0.18726417167E+02  0.00000000000E+00 0. -1.
         11    1    3    3    0    0  0.71555192943E+01 -0.66820394711E+01 -0.95883195804E+00  0.98371981199E+01  0.51100000000E-03 0. -1.
        -11    1    3    3    0    0 -0.61874299463E+01  0.10110695086E+02 -0.21676730510E+02  0.24706094195E+02  0.51100000000E-03 0.  1.
        -12    1    3    3    0    0 -0.12741331412E+00  0.86547261997E+01  0.36917153683E+02  0.37918290518E+02  0.00000000000E+00 0.  1.
</event>
<event>
 7    1  0.3305651E-013  0.7246154E+02  0.7816164E-02  0.1226708E+00
        -11   -1    0    0    0    0  0.00000000000E+00  0.00000000000E+00  0.45593999997E+02  0.45594000000E+02  0.51100000000E-03 0. -1.
         11   -1    0    0    0    0 -0.00000000000E+00 -0.00000000000E+00 -0.45593999997E+02  0.45594000000E+02  0.51100000000E-03 0.  1.
    9900012    2    1    2    0    0  0.13766024984E+02 -0.86437414872E+01  0.92985210137E+01  0.72461542679E+02  0.69999964026E+02 0.  0.
         12    1    1    2    0    0 -0.13766024984E+02  0.86437414872E+01 -0.92985210137E+01  0.18726457321E+02  0.00000000000E+00 0. -1.
         11    1    3    3    0    0  0.30411034676E+01 -0.64069557819E+01  0.71260280213E+01  0.10053739022E+02  0.51100000000E-03 0. -1.
        -11    1    3    3    0    0  0.20234456508E+01 -0.72051873484E+01  0.30998932480E+02  0.31889541737E+02  0.51100000000E-03 0.  1.
        -12    1    3    3    0    0  0.87014758651E+01  0.49684016431E+01 -0.28826439488E+02  0.30518261921E+02  0.00000000000E+00 0.  1.
</event>
<event>
 7    1  0.3305651E-013  0.7246155E+02  0.7816164E-02  0.1226708E+00
        -11   -1    0    0    0    0  0.00000000000E+00  0.00000000000E+00  0.45593999997E+02  0.45594000000E+02  0.51100000000E-03 0.  1.
         11   -1    0    0    0    0 -0.00000000000E+00 -0.00000000000E+00 -0.45593999997E+02  0.45594000000E+02  0.51100000000E-03 0. -1.
    9900012    2    1    2    0    0 -0.29626445785E+00  0.33542204487E+01  0.18421223241E+02  0.72461547235E+02  0.69999969961E+02 0.  0.
         12    1    1    2    0    0  0.29626445785E+00 -0.33542204487E+01 -0.18421223241E+02  0.18726452765E+02  0.00000000000E+00 0. -1.
         11    1    3    3    0    0  0.13581750806E+02 -0.65863512203E+01  0.43825926236E+01  0.15717859133E+02  0.51100000000E-03 0. -1.
        -11    1    3    3    0    0 -0.12620566845E+02 -0.20693916380E+02  0.46752076633E+01  0.24685510924E+02  0.51100000000E-03 0.  1.
         12    1    3    3    0    0 -0.12574484183E+01  0.30634488049E+02  0.93634229544E+01  0.32058177178E+02  0.00000000000E+00 0. -1.
</event>
<event>
 7    1  0.3305651E-013  0.7246158E+02  0.7816164E-02  0.1226708E+00
        -11   -1    0    0    0    0  0.00000000000E+00  0.00000000000E+00  0.45593999997E+02  0.45594000000E+02  0.51100000000E-03 0. -1.
         11   -1    0    0    0    0 -0.00000000000E+00 -0.00000000000E+00 -0.45593999997E+02  0.45594000000E+02  0.51100000000E-03 0.  1.
    9900012    2    1    2    0    0  0.17175802783E+01 -0.18511767739E+02 -0.22457121913E+01  0.72461578824E+02  0.70000011111E+02 0.  0.
         12    1    1    2    0    0 -0.17175802783E+01  0.18511767739E+02  0.22457121913E+01  0.18726421176E+02  0.00000000000E+00 0. -1.
         11    1    3    3    0    0  0.53590969764E+00  0.13740179075E+01  0.14609909472E+01  0.20759622403E+01  0.51100000000E-03 0. -1.
        -11    1    3    3    0    0  0.24747505049E+02  0.13083728067E+02  0.61887827745E+01  0.28669216570E+02  0.51100000000E-03 0.  1.
         12    1    3    3    0    0 -0.23565834468E+02 -0.32969513713E+02 -0.98954859129E+01  0.41716400013E+02  0.00000000000E+00 0. -1.
</event>
<event>
 7    1  0.3305651E-013  0.7246145E+02  0.7816164E-02  0.1226708E+00
        -11   -1    0    0    0    0  0.00000000000E+00  0.00000000000E+00  0.45593999997E+02  0.45594000000E+02  0.51100000000E-03 0.  1.
         11   -1    0    0    0    0 -0.00000000000E+00 -0.00000000000E+00 -0.45593999997E+02  0.45594000000E+02  0.51100000000E-03 0. -1.
    9900012    2    1    2    0    0 -0.65531268180E+01 -0.11045958779E+02  0.13628168499E+02  0.72461450583E+02  0.69999844053E+02 0.  0.
         12    1    1    2    0    0  0.65531268180E+01  0.11045958779E+02 -0.13628168499E+02  0.18726549417E+02  0.00000000000E+00 0. -1.
         11    1    3    3    0    0  0.10294243466E+02  0.25096290184E+02  0.15071760058E+02  0.31031486929E+02  0.51100000000E-03 0. -1.
        -11    1    3    3    0    0 -0.20899718395E+01 -0.13847272430E+01  0.24044795004E+01  0.34737549937E+01  0.51100000000E-03 0.  1.
        -12    1    3    3    0    0 -0.14757398445E+02 -0.34757521720E+02 -0.38480710599E+01  0.37956208660E+02  0.00000000000E+00 0.  1.
</event>
<event>
 7    1  0.3305651E-013  0.7246161E+02  0.7816164E-02  0.1226708E+00
        -11   -1    0    0    0    0  0.00000000000E+00  0.00000000000E+00  0.45593999997E+02  0.45594000000E+02  0.51100000000E-03 0. -1.
         11   -1    0    0    0    0 -0.00000000000E+00 -0.00000000000E+00 -0.45593999997E+02  0.45594000000E+02  0.51100000000E-03 0.  1.
    9900012    2    1    2    0    0  0.88731645841E+01  0.78881873060E+00 -0.16471861794E+02  0.72461614452E+02  0.70000057523E+02 0.  0.
         12    1    1    2    0    0 -0.88731645841E+01 -0.78881873060E+00  0.16471861794E+02  0.18726385548E+02  0.00000000000E+00 0. -1.
         11    1    3    3    0    0 -0.18025207254E+02  0.10125509813E+02 -0.21626351541E+02  0.29918775489E+02  0.51100000000E-03 0. -1.
        -11    1    3    3    0    0  0.54168720324E+01 -0.18195845162E+02  0.27245776612E+01  0.19179536164E+02  0.51100000000E-03 0.  1.
        -12    1    3    3    0    0  0.21481499806E+02  0.88591540794E+01  0.24299120855E+01  0.23363302799E+02  0.00000000000E+00 0.  1.
</event>
<event>
 7    1  0.3305651E-013  0.7246163E+02  0.7816164E-02  0.1226708E+00
        -11   -1    0    0    0    0  0.00000000000E+00  0.00000000000E+00  0.45593999997E+02  0.45594000000E+02  0.51100000000E-03 0. -1.
         11   -1    0    0    0    0 -0.00000000000E+00 -0.00000000000E+00 -0.45593999997E+02  0.45594000000E+02  0.51100000000E-03 0.  1.
    9900012    2    1    2    0    0 -0.18682784664E+02  0.85961182428E+00 -0.94418183257E+00  0.72461632103E+02  0.70000080517E+02 0.  0.
         12    1    1    2    0    0  0.18682784664E+02 -0.85961182428E+00  0.94418183257E+00  0.18726367897E+02  0.00000000000E+00 0. -1.
         11    1    3    3    0    0 -0.29414465974E+02  0.25657424116E+02 -0.52066350578E+01  0.39377954107E+02  0.51100000000E-03 0. -1.
        -11    1    3    3    0    0 -0.38759848491E+01 -0.10090301731E+02 -0.28323609473E+01  0.11174064452E+02  0.51100000000E-03 0.  1.
        -12    1    3    3    0    0  0.14607666159E+02 -0.14707510560E+02  0.70948141725E+01  0.21909613544E+02  0.00000000000E+00 0.  1.
</event>
<event>
 7    1  0.3305651E-013  0.7246160E+02  0.7816164E-02  0.1226708E+00
        -11   -1    0    0    0    0  0.00000000000E+00  0.00000000000E+00  0.45593999997E+02  0.45594000000E+02  0.51100000000E-03 0. -1.
         11   -1    0    0    0    0 -0.00000000000E+00 -0.00000000000E+00 -0.45593999997E+02  0.45594000000E+02  0.51100000000E-03 0.  1.
    9900012    2    1    2    0    0 -0.24487199528E+01 -0.75818790753E+01 -0.16946888255E+02  0.72461597750E+02  0.70000035766E+02 0.  0.
         12    1    1    2    0    0  0.24487199528E+01  0.75818790753E+01  0.16946888255E+02  0.18726402250E+02  0.00000000000E+00 0. -1.
         11    1    3    3    0    0 -0.69096788574E+01 -0.24631085891E+02  0.35256490413E+01  0.25823714982E+02  0.51100000000E-03 0. -1.
        -11    1    3    3    0    0 -0.13909863690E+02  0.16454584991E+01 -0.17598229647E+02  0.22491988096E+02  0.51100000000E-03 0.  1.
        -12    1    3    3    0    0  0.18370822595E+02  0.15403748316E+02 -0.28743076490E+01  0.24145894671E+02  0.00000000000E+00 0.  1.
</event>
<event>
 7    1  0.3305651E-013  0.7246153E+02  0.7816164E-02  0.1226708E+00
        -11   -1    0    0    0    0  0.00000000000E+00  0.00000000000E+00  0.45593999997E+02  0.45594000000E+02  0.51100000000E-03 0.  1.
         11   -1    0    0    0    0 -0.00000000000E+00 -0.00000000000E+00 -0.45593999997E+02  0.45594000000E+02  0.51100000000E-03 0. -1.
    9900012    2    1    2    0    0  0.50132166058E+01 -0.15731633115E+02  0.88353769835E+01  0.72461534567E+02  0.69999953458E+02 0.  0.
         12    1    1    2    0    0 -0.50132166058E+01  0.15731633115E+02 -0.88353769835E+01  0.18726465433E+02  0.00000000000E+00 0. -1.
         11    1    3    3    0    0  0.15832253444E+02  0.18617610422E+01  0.37859124613E+00  0.15945837541E+02  0.51100000000E-03 0. -1.
        -11    1    3    3    0    0 -0.30690775860E+01 -0.13666891852E+02  0.30096874358E+02  0.33196762139E+02  0.51100000000E-03 0.  1.
         12    1    3    3    0    0 -0.77499592517E+01 -0.39265023044E+01 -0.21640088621E+02  0.23318934887E+02  0.00000000000E+00 0. -1.
</event>
<event>
 7    1  0.3305651E-013  0.7246158E+02  0.7816164E-02  0.1226708E+00
        -11   -1    0    0    0    0  0.00000000000E+00  0.00000000000E+00  0.45593999997E+02  0.45594000000E+02  0.51100000000E-03 0.  1.
         11   -1    0    0    0    0 -0.00000000000E+00 -0.00000000000E+00 -0.45593999997E+02  0.45594000000E+02  0.51100000000E-03 0. -1.
    9900012    2    1    2    0    0 -0.15847172924E+02  0.99765628813E+01 -0.11821888982E+00  0.72461583570E+02  0.70000017294E+02 0.  0.
         12    1    1    2    0    0  0.15847172924E+02 -0.99765628813E+01  0.11821888982E+00  0.18726416430E+02  0.00000000000E+00 0. -1.
         11    1    3    3    0    0 -0.17976289516E+02 -0.44924572880E+01 -0.20907871832E+01  0.18646730237E+02  0.51100000000E-03 0. -1.
        -11    1    3    3    0    0 -0.19317875731E+02 -0.21968269818E+00  0.15261741667E+02  0.24620100370E+02  0.51100000000E-03 0.  1.
         12    1    3    3    0    0  0.21446992323E+02  0.14688702867E+02 -0.13289173373E+02  0.29194752963E+02  0.00000000000E+00 0. -1.
</event>
<event>
 7    1  0.3305651E-013  0.7246156E+02  0.7816164E-02  0.1226708E+00
        -11   -1    0    0    0    0  0.00000000000E+00  0.00000000000E+00  0.45593999997E+02  0.45594000000E+02  0.51100000000E-03 0. -1.
         11   -1    0    0    0    0 -0.00000000000E+00 -0.00000000000E+00 -0.45593999997E+02  0.45594000000E+02  0.51100000000E-03 0.  1.
    9900012    2    1    2    0    0 -0.13454992545E+01  0.96574115447E+01 -0.15987606406E+02  0.72461560815E+02  0.69999987651E+02 0.  0.
         12    1    1    2    0    0  0.13454992545E+01 -0.96574115447E+01  0.15987606406E+02  0.18726439185E+02  0.00000000000E+00 0. -1.
         11    1    3    3    0    0 -0.29680091170E+02  0.11714527854E+02 -0.52997592022E+01  0.32345408060E+02  0.51100000000E-03 0. -1.
        -11    1    3    3    0    0 -0.37859945776E+00 -0.16759204377E+01 -0.11264363047E+02  0.11394644443E+02  0.51100000000E-03 0.  1.
         12    1    3    3    0    0  0.28713191374E+02 -0.38119587202E+00  0.57651584360E+00  0.28721508311E+02  0.00000000000E+00 0. -1.
</event>
<event>
 7    1  0.3305651E-013  0.7246144E+02  0.7816164E-02  0.1226708E+00
        -11   -1    0    0    0    0  0.00000000000E+00  0.00000000000E+00  0.45593999997E+02  0.45594000000E+02  0.51100000000E-03 0. -1.
         11   -1    0    0    0    0 -0.00000000000E+00 -0.00000000000E+00 -0.45593999997E+02  0.45594000000E+02  0.51100000000E-03 0.  1.
    9900012    2    1    2    0    0  0.55287397319E+01 -0.21597532256E+01 -0.17760984207E+02  0.72461439798E+02  0.69999830004E+02 0.  0.
         12    1    1    2    0    0 -0.55287397319E+01  0.21597532256E+01  0.17760984207E+02  0.18726560202E+02  0.00000000000E+00 0. -1.
         11    1    3    3    0    0 -0.78563746167E+01 -0.24026953042E+02  0.10244752546E+02  0.27275851034E+02  0.51100000000E-03 0. -1.
        -11    1    3    3    0    0 -0.19249274673E+01 -0.39356481611E+01 -0.37393712477E+00  0.43971014812E+01  0.51100000000E-03 0.  1.
        -12    1    3    3    0    0  0.15310041816E+02  0.25802847978E+02 -0.27631799628E+02  0.40788487283E+02  0.00000000000E+00 0.  1.
</event>
<event>
 7    1  0.3305651E-013  0.7246160E+02  0.7816164E-02  0.1226708E+00
        -11   -1    0    0    0    0  0.00000000000E+00  0.00000000000E+00  0.45593999997E+02  0.45594000000E+02  0.51100000000E-03 0. -1.
         11   -1    0    0    0    0 -0.00000000000E+00 -0.00000000000E+00 -0.45593999997E+02  0.45594000000E+02  0.51100000000E-03 0.  1.
    9900012    2    1    2    0    0  0.12346106067E+01 -0.16715661808E+02  0.83510780965E+01  0.72461598359E+02  0.70000036559E+02 0.  0.
         12    1    1    2    0    0 -0.12346106067E+01  0.16715661808E+02 -0.83510780965E+01  0.18726401641E+02  0.00000000000E+00 0. -1.
         11    1    3    3    0    0 -0.76608011484E+01  0.26043521872E+01 -0.67022821751E+01  0.10506717431E+02  0.51100000000E-03 0. -1.
        -11    1    3    3    0    0  0.19231671290E+02 -0.20125644941E+02 -0.13962505244E+02  0.31142419910E+02  0.51100000000E-03 0.  1.
         12    1    3    3    0    0 -0.10336259535E+02  0.80563094527E+00  0.29015865515E+02  0.30812461018E+02  0.00000000000E+00 0. -1.
</event>
<event>
 7    1  0.3305651E-013  0.7246161E+02  0.7816164E-02  0.1226708E+00
        -11   -1    0    0    0    0  0.00000000000E+00  0.00000000000E+00  0.45593999997E+02  0.45594000000E+02  0.51100000000E-03 0.  1.
         11   -1    0    0    0    0 -0.00000000000E+00 -0.00000000000E+00 -0.45593999997E+02  0.45594000000E+02  0.51100000000E-03 0. -1.
    9900012    2    1    2    0    0 -0.64099799397E+00  0.12307668818E+02  0.14099219230E+02  0.72461612920E+02  0.70000055528E+02 0.  0.
         12    1    1    2    0    0  0.64099799397E+00 -0.12307668818E+02 -0.14099219230E+02  0.18726387080E+02  0.00000000000E+00 0. -1.
         11    1    3    3    0    0 -0.15617841304E+01  0.14015951487E+02 -0.65971592128E+01  0.15569475768E+02  0.51100000000E-03 0. -1.
        -11    1    3    3    0    0  0.18227418782E+02  0.11484811886E+02  0.26709085762E+02  0.34314937884E+02  0.51100000000E-03 0.  1.
         12    1    3    3    0    0 -0.17306632646E+02 -0.13193094555E+02 -0.60127073191E+01  0.22577199268E+02  0.00000000000E+00 0. -1.
</event>
<event>
 7    1  0.3305651E-013  0.7246156E+02  0.7816164E-02  0.1226708E+00
        -11   -1    0    0    0    0  0.00000000000E+00  0.00000000000E+00  0.45593999997E+02  0.45594000000E+02  0.51100000000E-03 0. -1.
         11   -1    0    0    0    0 -0.00000000000E+00 -0.00000000000E+00 -0.45593999997E+02  0.45594000000E+02  0.51100000000E-03 0.  1.
    9900012    2    1    2    0    0 -0.11947917930E+02 -0.12858742930E+02 -0.65253022204E+01  0.72461559289E+02  0.69999985664E+02 0.  0.
         12    1    1    2    0    0  0.11947917930E+02  0.12858742930E+02  0.65253022204E+01  0.18726440711E+02  0.00000000000E+00 0. -1.
         11    1    3    3    0    0 -0.66771556598E+00  0.17947434681E+02  0.63208162196E+01  0.19039668423E+02  0.51100000000E-03 0. -1.
        -11    1    3    3    0    0 -0.25308789343E+02 -0.11727147300E+02 -0.97009195665E+01  0.29532501461E+02  0.51100000000E-03 0.  1.
        -12    1    3    3    0    0  0.14028586979E+02 -0.19079030311E+02 -0.31451988735E+01  0.23889389406E+02  0.00000000000E+00 0.  1.
</event>
<event>
 7    1  0.3305651E-013  0.7246114E+02  0.7816164E-02  0.1226709E+00
        -11   -1    0    0    0    0  0.00000000000E+00  0.00000000000E+00  0.45593999997E+02  0.45594000000E+02  0.51100000000E-03 0. -1.
         11   -1    0    0    0    0 -0.00000000000E+00 -0.00000000000E+00 -0.45593999997E+02  0.45594000000E+02  0.51100000000E-03 0.  1.
    9900012    2    1    2    0    0 -0.43891983376E+01  0.11107459156E+02 -0.14424099822E+02  0.72461137833E+02  0.69999436636E+02 0.  0.
         12    1    1    2    0    0  0.43891983376E+01 -0.11107459156E+02  0.14424099822E+02  0.18726862167E+02  0.00000000000E+00 0. -1.
         11    1    3    3    0    0  0.43805077701E+01  0.12934786657E+02  0.53829233534E+01  0.14679012851E+02  0.51100000000E-03 0. -1.
        -11    1    3    3    0    0 -0.19828216059E+02  0.11865881801E+02 -0.29669487870E+02  0.37606326778E+02  0.51100000000E-03 0.  1.
         12    1    3    3    0    0  0.11058509951E+02 -0.13693209302E+02  0.98624646942E+01  0.20175798204E+02  0.00000000000E+00 0. -1.
</event>
<event>
 7    1  0.3305651E-013  0.7246158E+02  0.7816164E-02  0.1226708E+00
        -11   -1    0    0    0    0  0.00000000000E+00  0.00000000000E+00  0.45593999997E+02  0.45594000000E+02  0.51100000000E-03 0. -1.
         11   -1    0    0    0    0 -0.00000000000E+00 -0.00000000000E+00 -0.45593999997E+02  0.45594000000E+02  0.51100000000E-03 0.  1.
    9900012    2    1    2    0    0  0.97826145380E+01  0.11192901004E+02 -0.11388505718E+02  0.72461584364E+02  0.70000018329E+02 0.  0.
         12    1    1    2    0    0 -0.97826145380E+01 -0.11192901004E+02  0.11388505718E+02  0.18726415636E+02  0.00000000000E+00 0. -1.
         11    1    3    3    0    0 -0.20753154288E+02  0.91640008383E+01  0.66505284842E+01  0.23641105170E+02  0.51100000000E-03 0. -1.
        -11    1    3    3    0    0  0.83747147631E+01  0.16448296279E+02 -0.40035610542E+01  0.18886789013E+02  0.51100000000E-03 0.  1.
         12    1    3    3    0    0  0.22161054063E+02 -0.14419396113E+02 -0.14035473148E+02  0.29933690182E+02  0.00000000000E+00 0. -1.
</event>
<event>
 7    1  0.3305651E-013  0.7246162E+02  0.7816164E-02  0.1226708E+00
        -11   -1    0    0    0    0  0.00000000000E+00  0.00000000000E+00  0.45593999997E+02  0.45594000000E+02  0.51100000000E-03 0.  1.
         11   -1    0    0    0    0 -0.00000000000E+00 -0.00000000000E+00 -0.45593999997E+02  0.45594000000E+02  0.51100000000E-03 0. -1.
    9900012    2    1    2    0    0 -0.50883064201E+01  0.10153063874E+02  0.14889653251E+02  0.72461619084E+02  0.70000063558E+02 0.  0.
         12    1    1    2    0    0  0.50883064201E+01 -0.10153063874E+02 -0.14889653251E+02  0.18726380916E+02  0.00000000000E+00 0. -1.
         11    1    3    3    0    0 -0.14966768017E+01 -0.53088656834E+00 -0.93099760438E+01  0.94444447266E+01  0.51100000000E-03 0. -1.
        -11    1    3    3    0    0 -0.19650752014E+02  0.44851585642E+01 -0.11627299779E+02  0.23269353289E+02  0.51100000000E-03 0.  1.
         12    1    3    3    0    0  0.16059122396E+02  0.61987918786E+01  0.35826929074E+02  0.39747821069E+02  0.00000000000E+00 0. -1.
</event>
<event>
 7    1  0.3305651E-013  0.7246158E+02  0.7816164E-02  0.1226708E+00
        -11   -1    0    0    0    0  0.00000000000E+00  0.00000000000E+00  0.45593999997E+02  0.45594000000E+02  0.51100000000E-03 0. -1.
         11   -1    0    0    0    0 -0.00000000000E+00 -0.00000000000E+00 -0.45593999997E+02  0.45594000000E+02  0.51100000000E-03 0.  1.
    9900012    2    1    2    0    0  0.80522152168E+01  0.53619718508E+01 -0.16034026170E+02  0.72461577297E+02  0.70000009122E+02 0.  0.
         12    1    1    2    0    0 -0.80522152168E+01 -0.53619718508E+01  0.16034026170E+02  0.18726422703E+02  0.00000000000E+00 0. -1.
         11    1    3    3    0    0 -0.28856705799E+02  0.64328688887E+01 -0.28187301320E+01  0.29699099507E+02  0.51100000000E-03 0. -1.
        -11    1    3    3    0    0  0.13458864458E+02  0.39245017848E+01 -0.12488684588E+02  0.18775249393E+02  0.51100000000E-03 0.  1.
        -12    1    3    3    0    0  0.23450056558E+02 -0.49953988228E+01 -0.72661145002E+00  0.23987228397E+02  0.00000000000E+00 0.  1.
</event>
<event>
 7    1  0.3305651E-013  0.7246152E+02  0.7816164E-02  0.1226708E+00
        -11   -1    0    0    0    0  0.00000000000E+00  0.00000000000E+00  0.45593999997E+02  0.45594000000E+02  0.51100000000E-03 0.  1.
         11   -1    0    0    0    0 -0.00000000000E+00 -0.00000000000E+00 -0.45593999997E+02  0.45594000000E+02  0.51100000000E-03 0. -1.
    9900012    2    1    2    0    0 -0.13270750006E+02 -0.13212418618E+02 -0.16645527238E-01  0.72461519056E+02  0.69999933253E+02 0.  0.
         12    1    1    2    0    0  0.13270750006E+02  0.13212418618E+02  0.16645527238E-01  0.18726480944E+02  0.00000000000E+00 0. -1.
         11    1    3    3    0    0 -0.10834617740E+02 -0.70385505884E+01 -0.16310629630E+01  0.13022691834E+02  0.51100000000E-03 0. -1.
        -11    1    3    3    0    0 -0.28322256449E+02 -0.14963583840E+02 -0.30759253452E+00  0.32033633342E+02  0.51100000000E-03 0.  1.
         12    1    3    3    0    0  0.25886124183E+02  0.87897158103E+01  0.19220099702E+01  0.27405193880E+02  0.00000000000E+00 0. -1.
</event>
<event>
 7    1  0.3305651E-013  0.7246158E+02  0.7816164E-02  0.1226708E+00
        -11   -1    0    0    0    0  0.00000000000E+00  0.00000000000E+00  0.45593999997E+02  0.45594000000E+02  0.51100000000E-03 0. -1.
         11   -1    0    0    0    0 -0.00000000000E+00 -0.00000000000E+00 -0.45593999997E+02  0.45594000000E+02  0.51100000000E-03 0.  1.
    9900012    2    1    2    0    0 -0.11419452386E+02  0.14768324121E+02 -0.14735811715E+01  0.72461581987E+02  0.70000015232E+02 0.  0.
         12    1    1    2    0    0  0.11419452386E+02 -0.14768324121E+02  0.14735811715E+01  0.18726418013E+02  0.00000000000E+00 0. -1.
         11    1    3    3    0    0  0.12121803028E+02  0.17843652993E+02  0.79229882631E+01  0.22980596251E+02  0.51100000000E-03 0. -1.
        -11    1    3    3    0    0 -0.20344705258E+02  0.10324710686E+02 -0.21346753227E+02  0.31244048336E+02  0.51100000000E-03 0.  1.
         12    1    3    3    0    0 -0.31965501558E+01 -0.13400039558E+02  0.11950183793E+02  0.18236937400E+02  0.00000000000E+00 0. -1.
</event>
<event>
 7    1  0.3305651E-013  0.7246158E+02  0.7816164E-02  0.1226708E+00
        -11   -1    0    0    0    0  0.00000000000E+00  0.00000000000E+00  0.45593999997E+02  0.45594000000E+02  0.51100000000E-03 0.  1.
         11   -1    0    0    0    0 -0.00000000000E+00 -0.00000000000E+00 -0.45593999997E+02  0.45594000000E+02  0.51100000000E-03 0. -1.
    9900012    2    1    2    0    0 -0.12457133063E+02 -0.92731292028E+01  0.10464602200E+02  0.72461575126E+02  0.70000006294E+02 0.  0.
         12    1    1    2    0    0  0.12457133063E+02  0.92731292028E+01 -0.10464602200E+02  0.18726424874E+02  0.00000000000E+00 0. -1.
         11    1    3    3    0    0 -0.19442004530E+00  0.15605474761E+01  0.59256695981E+01  0.61307966877E+01  0.51100000000E-03 0. -1.
        -11    1    3    3    0    0  0.85735685187E+01 -0.83843591602E+00  0.30430250484E+02  0.31626084119E+02  0.51100000000E-03 0.  1.
         12    1    3    3    0    0 -0.20836281536E+02 -0.99952407628E+01 -0.25891317881E+02  0.34704694319E+02  0.00000000000E+00 0. -1.
</event>
<event>
 7    1  0.3305651E-013  0.7246155E+02  0.7816164E-02  0.1226708E+00
        -11   -1    0    0    0    0  0.00000000000E+00  0.00000000000E+00  0.45593999997E+02  0.45594000000E+02  0.51100000000E-03 0.  1.
         11   -1    0    0    0    0 -0.00000000000E+00 -0.00000000000E+00 -0.45593999997E+02  0.45594000000E+02  0.51100000000E-03 0. -1.
    9900012    2    1    2    0    0  0.17630728036E+02  0.22789807645E+01  0.58858727887E+01  0.72461552850E+02  0.69999977275E+02 0.  0.
         12    1    1    2    0    0 -0.17630728036E+02 -0.22789807645E+01 -0.58858727887E+01  0.18726447150E+02  0.00000000000E+00 0. -1.
         11    1    3    3    0    0 -0.13254810863E+02  0.20128044079E+02 -0.99373013525E+01  0.26068719337E+02  0.51100000000E-03 0. -1.
        -11    1    3    3    0    0  0.96863548235E+01 -0.10185491564E+02  0.18993780659E+02  0.23629079799E+02  0.51100000000E-03 0.  1.
        -12    1    3    3    0    0  0.21199184075E+02 -0.76635717507E+01 -0.31706065181E+01  0.22763753713E+02  0.00000000000E+00 0.  1.
</event>
<event>
 7    1  0.3305651E-013  0.7246155E+02  0.7816164E-02  0.1226708E+00
        -11   -1    0    0    0    0  0.00000000000E+00  0.00000000000E+00  0.45593999997E+02  0.45594000000E+02  0.51100000000E-03 0.  1.
         11   -1    0    0    0    0 -0.00000000000E+00 -0.00000000000E+00 -0.45593999997E+02  0.45594000000E+02  0.51100000000E-03 0. -1.
    9900012    2    1    2    0    0  0.26046126509E+01  0.85424534706E+01  0.16459719559E+02  0.72461551156E+02  0.69999975069E+02 0.  0.
         12    1    1    2    0    0 -0.26046126509E+01 -0.85424534706E+01 -0.16459719559E+02  0.18726448844E+02  0.00000000000E+00 0. -1.
         11    1    3    3    0    0  0.13040909733E+02  0.28743976906E+01  0.22424746808E+01  0.13540907713E+02  0.51100000000E-03 0. -1.
        -11    1    3    3    0    0  0.22395446710E+02 -0.29539546080E+01  0.10038205378E+02  0.24719373953E+02  0.51100000000E-03 0.  1.
         12    1    3    3    0    0 -0.32831743792E+02  0.86220103880E+01  0.41790395003E+01  0.34201269490E+02  0.00000000000E+00 0. -1.
</event>
<event>
 7    1  0.3305651E-013  0.7246153E+02  0.7816164E-02  0.1226708E+00
        -11   -1    0    0    0    0  0.00000000000E+00  0.00000000000E+00  0.45593999997E+02  0.45594000000E+02  0.51100000000E-03 0. -1.
         11   -1    0    0    0    0 -0.00000000000E+00 -0.00000000000E+00 -0.45593999997E+02  0.45594000000E+02  0.51100000000E-03 0.  1.
    9900012    2    1    2    0    0  0.32328328337E+01 -0.18296687277E+02 -0.23368482357E+01  0.72461525876E+02  0.69999942137E+02 0.  0.
         12    1    1    2    0    0 -0.32328328337E+01  0.18296687277E+02  0.23368482357E+01  0.18726474124E+02  0.00000000000E+00 0. -1.
         11    1    3    3    0    0  0.33420231896E+01  0.69008802946E+01  0.28975703652E+02  0.29973032383E+02  0.51100000000E-03 0. -1.
        -11    1    3    3    0    0 -0.54375981826E+01 -0.58037414972E+01 -0.50953929472E+01  0.94453120070E+01  0.51100000000E-03 0.  1.
        -12    1    3    3    0    0  0.53284078267E+01 -0.19393826075E+02 -0.26217158941E+02  0.33043181486E+02  0.00000000000E+00 0.  1.
</event>
<event>
 7    1  0.3305651E-013  0.7246160E+02  0.7816164E-02  0.1226708E+00
        -11   -1    0    0    0    0  0.00000000000E+00  0.00000000000E+00  0.45593999997E+02  0.45594000000E+02  0.51100000000E-03 0.  1.
         11   -1    0    0    0    0 -0.00000000000E+00 -0.00000000000E+00 -0.45593999997E+02  0.45594000000E+02  0.51100000000E-03 0. -1.
    9900012    2    1    2    0    0  0.14614713998E+02 -0.11670144484E+02 -0.94645988356E+00  0.72461603555E+02  0.70000043328E+02 0.  0.
         12    1    1    2    0    0 -0.14614713998E+02  0.11670144484E+02  0.94645988356E+00  0.18726396445E+02  0.00000000000E+00 0. -1.
         11    1    3    3    0    0 -0.13622773865E+02 -0.57581996661E+01  0.10364767507E+02  0.18060045319E+02  0.51100000000E-03 0. -1.
        -11    1    3    3    0    0  0.20456672361E+02  0.17896297205E+02 -0.67230299718E+00  0.27188322664E+02  0.51100000000E-03 0.  1.
         12    1    3    3    0    0  0.77808155021E+01 -0.23808242022E+02 -0.10638924394E+02  0.27213235572E+02  0.00000000000E+00 0. -1.
</event>
<event>
 7    1  0.3305651E-013  0.7246162E+02  0.7816164E-02  0.1226708E+00
        -11   -1    0    0    0    0  0.00000000000E+00  0.00000000000E+00  0.45593999997E+02  0.45594000000E+02  0.51100000000E-03 0. -1.
         11   -1    0    0    0    0 -0.00000000000E+00 -0.00000000000E+00 -0.45593999997E+02  0.45594000000E+02  0.51100000000E-03 0.  1.
    9900012    2    1    2    0    0  0.14646461898E+02 -0.18164978840E+01 -0.11526438581E+02  0.72461620289E+02  0.70000065128E+02 0.  0.
         12    1    1    2    0    0 -0.14646461898E+02  0.18164978840E+01  0.11526438581E+02  0.18726379711E+02  0.00000000000E+00 0. -1.
         11    1    3    3    0    0 -0.13988633061E+01  0.51229479016E+01  0.32326349310E+01  0.62170203965E+01  0.51100000000E-03 0. -1.
        -11    1    3    3    0    0  0.37804094568E+02 -0.51595938985E+01 -0.20982413757E+02  0.43543457174E+02  0.51100000000E-03 0.  1.
         12    1    3    3    0    0 -0.21758769364E+02 -0.17798518871E+01  0.62233402445E+01  0.22701142719E+02  0.00000000000E+00 0. -1.
</event>
<event>
 7    1  0.3305651E-013  0.7246158E+02  0.7816164E-02  0.1226708E+00
        -11   -1    0    0    0    0  0.00000000000E+00  0.00000000000E+00  0.45593999997E+02  0.45594000000E+02  0.51100000000E-03 0. -1.
         11   -1    0    0    0    0 -0.00000000000E+00 -0.00000000000E+00 -0.45593999997E+02  0.45594000000E+02  0.51100000000E-03 0.  1.
    9900012    2    1    2    0    0  0.57074725704E+01 -0.17743165528E+02  0.18120816980E+01  0.72461579996E+02  0.70000012638E+02 0.  0.
         12    1    1    2    0    0 -0.57074725704E+01  0.17743165528E+02 -0.18120816980E+01  0.18726420004E+02  0.00000000000E+00 0. -1.
         11    1    3    3    0    0  0.84055964319E+01  0.12618867509E+01  0.13719215909E+02  0.16138875270E+02  0.51100000000E-03 0. -1.
        -11    1    3    3    0    0  0.11255507479E+02  0.12992397188E+02  0.44741758491E+01  0.17762519052E+02  0.51100000000E-03 0.  1.
        -12    1    3    3    0    0 -0.13953631341E+02 -0.31997449466E+02 -0.16381310060E+02  0.38560185674E+02  0.00000000000E+00 0.  1.
</event>
<event>
 7    1  0.3305651E-013  0.7246161E+02  0.7816164E-02  0.1226708E+00
        -11   -1    0    0    0    0  0.00000000000E+00  0.00000000000E+00  0.45593999997E+02  0.45594000000E+02  0.51100000000E-03 0.  1.
         11   -1    0    0    0    0 -0.00000000000E+00 -0.00000000000E+00 -0.45593999997E+02  0.45594000000E+02  0.51100000000E-03 0. -1.
    9900012    2    1    2    0    0  0.13110634799E+02  0.87347215713E+01  0.10123914051E+02  0.72461608423E+02  0.70000049670E+02 0.  0.
         12    1    1    2    0    0 -0.13110634799E+02 -0.87347215713E+01 -0.10123914051E+02  0.18726391577E+02  0.00000000000E+00 0. -1.
         11    1    3    3    0    0 -0.14736434991E+02  0.35773617050E+00 -0.17813558160E+02  0.23121707246E+02  0.51100000000E-03 0. -1.
        -11    1    3    3    0    0 -0.37819045414E+01 -0.60556449240E+00 -0.24679399876E+01  0.45563404568E+01  0.51100000000E-03 0.  1.
        -12    1    3    3    0    0  0.31628974331E+02  0.89825498932E+01  0.30405412198E+02  0.44783560720E+02  0.00000000000E+00 0.  1.
</event>
<event>
 7    1  0.3305651E-013  0.7246156E+02  0.7816164E-02  0.1226708E+00
        -11   -1    0    0    0    0  0.00000000000E+00  0.00000000000E+00  0.45593999997E+02  0.45594000000E+02  0.51100000000E-03 0.  1.
         11   -1    0    0    0    0 -0.00000000000E+00 -0.00000000000E+00 -0.45593999997E+02  0.45594000000E+02  0.51100000000E-03 0. -1.
    9900012    2    1    2    0    0  0.18322617763E+02 -0.86000699530E-01 -0.38670275668E+01  0.72461558266E+02  0.69999984331E+02 0.  0.
         12    1    1    2    0    0 -0.18322617763E+02  0.86000699530E-01  0.38670275668E+01  0.18726441734E+02  0.00000000000E+00 0. -1.
         11    1    3    3    0    0 -0.17089755540E+01  0.11951645663E+02 -0.12325802087E+02  0.17253632337E+02  0.51100000000E-03 0. -1.
        -11    1    3    3    0    0 -0.26511790599E+01  0.12948700610E+02 -0.10155344227E+02  0.16668191700E+02  0.51100000000E-03 0.  1.
        -12    1    3    3    0    0  0.22682772377E+02 -0.24986346973E+02  0.18614118747E+02  0.38539734229E+02  0.00000000000E+00 0.  1.
</event>
<event>
 7    1  0.3305651E-013  0.7246158E+02  0.7816164E-02  0.1226708E+00
        -11   -1    0    0    0    0  0.00000000000E+00  0.00000000000E+00  0.45593999997E+02  0.45594000000E+02  0.51100000000E-03 0.  1.
         11   -1    0    0    0    0 -0.00000000000E+00 -0.00000000000E+00 -0.45593999997E+02  0.45594000000E+02  0.51100000000E-03 0. -1.
    9900012    2    1    2    0    0  0.18353311695E+02 -0.16455851222E+01 -0.33357043020E+01  0.72461576857E+02  0.70000008549E+02 0.  0.
         12    1    1    2    0    0 -0.18353311695E+02  0.16455851222E+01  0.33357043020E+01  0.18726423143E+02  0.00000000000E+00 0. -1.
         11    1    3    3    0    0  0.56247842393E+01  0.14723166509E+02  0.21333047076E+02  0.26523738945E+02  0.51100000000E-03 0. -1.
        -11    1    3    3    0    0  0.59035165982E+00  0.68925478964E+01  0.32341567377E+01  0.76364587115E+01  0.51100000000E-03 0.  1.
         12    1    3    3    0    0  0.12138175796E+02 -0.23261299527E+02 -0.27902908116E+02  0.38301379201E+02  0.00000000000E+00 0. -1.
</event>
<event>
 7    1  0.3305651E-013  0.7246154E+02  0.7816164E-02  0.1226708E+00
        -11   -1    0    0    0    0  0.00000000000E+00  0.00000000000E+00  0.45593999997E+02  0.45594000000E+02  0.51100000000E-03 0.  1.
         11   -1    0    0    0    0 -0.00000000000E+00 -0.00000000000E+00 -0.45593999997E+02  0.45594000000E+02  0.51100000000E-03 0. -1.
    9900012    2    1    2    0    0 -0.13821812392E+02 -0.16049162100E+00  0.12633772177E+02  0.72461535978E+02  0.69999955297E+02 0.  0.
         12    1    1    2    0    0  0.13821812392E+02  0.16049162100E+00 -0.12633772177E+02  0.18726464022E+02  0.00000000000E+00 0. -1.
         11    1    3    3    0    0  0.95398900044E+01  0.57044702450E+01  0.17657900830E+01  0.11254709990E+02  0.51100000000E-03 0. -1.
        -11    1    3    3    0    0  0.51461747318E+01  0.79920780647E+01  0.24817643231E+02  0.26575775473E+02  0.51100000000E-03 0.  1.
         12    1    3    3    0    0 -0.28507877128E+02 -0.13857039931E+02 -0.13949661137E+02  0.34631050516E+02  0.00000000000E+00 0. -1.
</event>
<event>
 7    1  0.3305651E-013  0.7246160E+02  0.7816164E-02  0.1226708E+00
        -11   -1    0    0    0    0  0.00000000000E+00  0.00000000000E+00  0.45593999997E+02  0.45594000000E+02  0.51100000000E-03 0. -1.
         11   -1    0    0    0    0 -0.00000000000E+00 -0.00000000000E+00 -0.45593999997E+02  0.45594000000E+02  0.51100000000E-03 0.  1.
    9900012    2    1    2    0    0 -0.70909803633E+01 -0.15502804903E+02 -0.77497813913E+01  0.72461599545E+02  0.70000038105E+02 0.  0.
         12    1    1    2    0    0  0.70909803633E+01  0.15502804903E+02  0.77497813913E+01  0.18726400455E+02  0.00000000000E+00 0. -1.
         11    1    3    3    0    0 -0.13484601205E+02 -0.13137418132E+02 -0.35370208477E+01  0.19155592958E+02  0.51100000000E-03 0. -1.
        -11    1    3    3    0    0 -0.18301774472E+02  0.10912456845E+02 -0.11667429510E+02  0.24293323668E+02  0.51100000000E-03 0.  1.
        -12    1    3    3    0    0  0.24695395314E+02 -0.13277843616E+02  0.74546689661E+01  0.29012682919E+02  0.00000000000E+00 0.  1.
</event>
<event>
 7    1  0.3305651E-013  0.7246152E+02  0.7816164E-02  0.1226708E+00
        -11   -1    0    0    0    0  0.00000000000E+00  0.00000000000E+00  0.45593999997E+02  0.45594000000E+02  0.51100000000E-03 0. -1.
         11   -1    0    0    0    0 -0.00000000000E+00 -0.00000000000E+00 -0.45593999997E+02  0.45594000000E+02  0.51100000000E-03 0.  1.
    9900012    2    1    2    0    0  0.10235162152E+02  0.50358527799E+01 -0.14851348279E+02  0.72461524005E+02  0.69999939699E+02 0.  0.
         12    1    1    2    0    0 -0.10235162152E+02 -0.50358527799E+01  0.14851348279E+02  0.18726475995E+02  0.00000000000E+00 0. -1.
         11    1    3    3    0    0 -0.79514339947E+01  0.99226553819E+01  0.37874358649E+01  0.13267594473E+02  0.51100000000E-03 0. -1.
        -11    1    3    3    0    0  0.19108549778E+02 -0.26731980049E+02 -0.45243411739E+01  0.33169339688E+02  0.51100000000E-03 0.  1.
         12    1    3    3    0    0 -0.92195363177E+00  0.21845177447E+02 -0.14114442970E+02  0.26024589844E+02  0.00000000000E+00 0. -1.
</event>
<event>
 7    1  0.3305651E-013  0.7246158E+02  0.7816164E-02  0.1226708E+00
        -11   -1    0    0    0    0  0.00000000000E+00  0.00000000000E+00  0.45593999997E+02  0.45594000000E+02  0.51100000000E-03 0. -1.
         11   -1    0    0    0    0 -0.00000000000E+00 -0.00000000000E+00 -0.45593999997E+02  0.45594000000E+02  0.51100000000E-03 0.  1.
    9900012    2    1    2    0    0 -0.12173219295E+02  0.96076549508E+00 -0.14197482794E+02  0.72461578665E+02  0.70000010904E+02 0.  0.
         12    1    1    2    0    0  0.12173219295E+02 -0.96076549508E+00  0.14197482794E+02  0.18726421335E+02  0.00000000000E+00 0. -1.
         11    1    3    3    0    0  0.22200235238E+02  0.10834612139E+02 -0.19217193925E+01  0.24777656679E+02  0.51100000000E-03 0. -1.
        -11    1    3    3    0    0 -0.13244797041E+01 -0.12696757654E+02 -0.17528878165E+01  0.12885438191E+02  0.51100000000E-03 0.  1.
        -12    1    3    3    0    0 -0.33048974829E+02  0.28229110098E+01 -0.10522875585E+02  0.34798483794E+02  0.00000000000E+00 0.  1.
</event>
<event>
 7    1  0.3305651E-013  0.7246158E+02  0.7816164E-02  0.1226708E+00
        -11   -1    0    0    0    0  0.00000000000E+00  0.00000000000E+00  0.45593999997E+02  0.45594000000E+02  0.51100000000E-03 0.  1.
         11   -1    0    0    0    0 -0.00000000000E+00 -0.00000000000E+00 -0.45593999997E+02  0.45594000000E+02  0.51100000000E-03 0. -1.
    9900012    2    1    2    0    0  0.13300606470E+02  0.13128778963E+02  0.11865589860E+01  0.72461577710E+02  0.70000009661E+02 0.  0.
         12    1    1    2    0    0 -0.13300606470E+02 -0.13128778963E+02 -0.11865589860E+01  0.18726422290E+02  0.00000000000E+00 0. -1.
         11    1    3    3    0    0 -0.13310226728E+02 -0.10093736271E+02 -0.14410356781E+02  0.22061369638E+02  0.51100000000E-03 0. -1.
        -11    1    3    3    0    0 -0.89755491782E+00 -0.66582066416E+01  0.51445817842E+01  0.84619171887E+01  0.51100000000E-03 0.  1.
        -12    1    3    3    0    0  0.27508388116E+02  0.29880721876E+02  0.10452333983E+02  0.41938290884E+02  0.00000000000E+00 0.  1.
</event>
<event>
 7    1  0.3305651E-013  0.7246171E+02  0.7816164E-02  0.1226708E+00
        -11   -1    0    0    0    0  0.00000000000E+00  0.00000000000E+00  0.45593999997E+02  0.45594000000E+02  0.51100000000E-03 0. -1.
         11   -1    0    0    0    0 -0.00000000000E+00 -0.00000000000E+00 -0.45593999997E+02  0.45594000000E+02  0.51100000000E-03 0.  1.
    9900012    2    1    2    0    0  0.16383402926E+02 -0.85170267254E+01  0.31173993740E+01  0.72461713274E+02  0.70000186257E+02 0.  0.
         12    1    1    2    0    0 -0.16383402926E+02  0.85170267254E+01 -0.31173993740E+01  0.18726286726E+02  0.00000000000E+00 0. -1.
         11    1    3    3    0    0 -0.15342562260E+02 -0.55555264350E+01 -0.47736434083E+01  0.17001345897E+02  0.51100000000E-03 0. -1.
        -11    1    3    3    0    0  0.13911405198E+02 -0.75886395218E+01 -0.17815892217E+02  0.23843671280E+02  0.51100000000E-03 0.  1.
         12    1    3    3    0    0  0.17814559988E+02  0.46271392314E+01  0.25706934999E+02  0.31616696097E+02  0.00000000000E+00 0. -1.
</event>
<event>
 7    1  0.3305651E-013  0.7246157E+02  0.7816164E-02  0.1226708E+00
        -11   -1    0    0    0    0  0.00000000000E+00  0.00000000000E+00  0.45593999997E+02  0.45594000000E+02  0.51100000000E-03 0. -1.
         11   -1    0    0    0    0 -0.00000000000E+00 -0.00000000000E+00 -0.45593999997E+02  0.45594000000E+02  0.51100000000E-03 0.  1.
    9900012    2    1    2    0    0 -0.12698302429E+02 -0.35811842030E+00 -0.13758777422E+02  0.72461572430E+02  0.70000002782E+02 0.  0.
         12    1    1    2    0    0  0.12698302429E+02  0.35811842030E+00  0.13758777422E+02  0.18726427570E+02  0.00000000000E+00 0. -1.
         11    1    3    3    0    0 -0.25859113000E+02  0.91954908461E+01  0.71772563478E+01  0.28368358887E+02  0.51100000000E-03 0. -1.
        -11    1    3    3    0    0 -0.35048173698E+01  0.11404870683E+02 -0.50287773802E+01  0.12947718807E+02  0.51100000000E-03 0.  1.
        -12    1    3    3    0    0  0.16665627941E+02 -0.20958479950E+02 -0.15907256390E+02  0.31145494736E+02  0.00000000000E+00 0.  1.
</event>
<event>
 7    1  0.3305651E-013  0.7246153E+02  0.7816164E-02  0.1226708E+00
        -11   -1    0    0    0    0  0.00000000000E+00  0.00000000000E+00  0.45593999997E+02  0.45594000000E+02  0.51100000000E-03 0. -1.
         11   -1    0    0    0    0 -0.00000000000E+00 -0.00000000000E+00 -0.45593999997E+02  0.45594000000E+02  0.51100000000E-03 0.  1.
    9900012    2    1    2    0    0 -0.99164295224E+01  0.33256052740E+01 -0.15533368350E+02  0.72461527903E+02  0.69999944777E+02 0.  0.
         12    1    1    2    0    0  0.99164295224E+01 -0.33256052740E+01  0.15533368350E+02  0.18726472097E+02  0.00000000000E+00 0. -1.
         11    1    3    3    0    0 -0.85043898064E+01 -0.14215195920E+02  0.77917277516E+00  0.16583231033E+02  0.51100000000E-03 0. -1.
        -11    1    3    3    0    0  0.73208710342E+01 -0.49030537721E+01  0.14380274432E+02  0.16864975007E+02  0.51100000000E-03 0.  1.
        -12    1    3    3    0    0 -0.87329107502E+01  0.22443854966E+02 -0.30692815557E+02  0.39013321862E+02  0.00000000000E+00 0.  1.
</event>
<event>
 7    1  0.3305651E-013  0.7246152E+02  0.7816164E-02  0.1226708E+00
        -11   -1    0    0    0    0  0.00000000000E+00  0.00000000000E+00  0.45593999997E+02  0.45594000000E+02  0.51100000000E-03 0.  1.
         11   -1    0    0    0    0 -0.00000000000E+00 -0.00000000000E+00 -0.45593999997E+02  0.45594000000E+02  0.51100000000E-03 0. -1.
    9900012    2    1    2    0    0 -0.16477527983E+02 -0.50960738264E+01 -0.72939733976E+01  0.72461522894E+02  0.69999938252E+02 0.  0.
         12    1    1    2    0    0  0.16477527983E+02  0.50960738264E+01  0.72939733976E+01  0.18726477106E+02  0.00000000000E+00 0. -1.
         11    1    3    3    0    0 -0.14991163812E+02 -0.19172268552E+02 -0.28158295145E+02  0.37218281256E+02  0.51100000000E-03 0. -1.
        -11    1    3    3    0    0  0.22966609785E+01 -0.40050630464E+01 -0.26634685726E+01  0.53300325284E+01  0.51100000000E-03 0.  1.
        -12    1    3    3    0    0 -0.37830251496E+01  0.18081257772E+02  0.23527790320E+02  0.29913209110E+02  0.00000000000E+00 0.  1.
</event>
<event>
 7    1  0.3305651E-013  0.7246162E+02  0.7816164E-02  0.1226708E+00
        -11   -1    0    0    0    0  0.00000000000E+00  0.00000000000E+00  0.45593999997E+02  0.45594000000E+02  0.51100000000E-03 0.  1.
         11   -1    0    0    0    0 -0.00000000000E+00 -0.00000000000E+00 -0.45593999997E+02  0.45594000000E+02  0.51100000000E-03 0. -1.
    9900012    2    1    2    0    0  0.25098928737E+01  0.18423419851E+02  0.22261022767E+01  0.72461615068E+02  0.70000058326E+02 0.  0.
         12    1    1    2    0    0 -0.25098928737E+01 -0.18423419851E+02 -0.22261022767E+01  0.18726384932E+02  0.00000000000E+00 0. -1.
         11    1    3    3    0    0 -0.54735397590E+01  0.10365216879E+02 -0.91201615288E+01  0.14851757640E+02  0.51100000000E-03 0. -1.
        -11    1    3    3    0    0  0.17620835235E+02  0.27408111280E+02  0.14678710065E+02  0.35737416355E+02  0.51100000000E-03 0.  1.
         12    1    3    3    0    0 -0.96374026021E+01 -0.19349908307E+02 -0.33324462591E+01  0.21872441073E+02  0.00000000000E+00 0. -1.
</event>
<event>
 7    1  0.3305651E-013  0.7246155E+02  0.7816164E-02  0.1226708E+00
        -11   -1    0    0    0    0  0.00000000000E+00  0.00000000000E+00  0.45593999997E+02  0.45594000000E+02  0.51100000000E-03 0. -1.
         11   -1    0    0    0    0 -0.00000000000E+00 -0.00000000000E+00 -0.45593999997E+02  0.45594000000E+02  0.51100000000E-03 0.  1.
    9900012    2    1    2    0    0 -0.13711003169E+02  0.30221285319E+01 -0.12391739136E+02  0.72461546316E+02  0.69999968763E+02 0.  0.
         12    1    1    2    0    0  0.13711003169E+02 -0.30221285319E+01  0.12391739136E+02  0.18726453684E+02  0.00000000000E+00 0. -1.
         11    1    3    3    0    0 -0.16609202279E+02  0.25544268698E+02 -0.70962357459E+00  0.30477513506E+02  0.51100000000E-03 0. -1.
        -11    1    3    3    0    0 -0.83813509596E+01 -0.11188655498E+01 -0.15339405294E+02  0.17515600448E+02  0.51100000000E-03 0.  1.
        -12    1    3    3    0    0  0.11279550069E+02 -0.21403274616E+02  0.36572897329E+01  0.24468432361E+02  0.00000000000E+00 0.  1.
</event>
<event>
 7    1  0.3305651E-013  0.7246157E+02  0.7816164E-02  0.1226708E+00
        -11   -1    0    0    0    0  0.00000000000E+00  0.00000000000E+00  0.45593999997E+02  0.45594000000E+02  0.51100000000E-03 0.  1.
         11   -1    0    0    0    0 -0.00000000000E+00 -0.00000000000E+00 -0.45593999997E+02  0.45594000000E+02  0.51100000000E-03 0. -1.
    9900012    2    1    2    0    0  0.14447048129E+02 -0.10607709648E+02  0.54257223568E+01  0.72461570370E+02  0.70000000098E+02 0.  0.
         12    1    1    2    0    0 -0.14447048129E+02  0.10607709648E+02 -0.54257223568E+01  0.18726429630E+02  0.00000000000E+00 0. -1.
         11    1    3    3    0    0 -0.10937609922E+02 -0.29033263882E+01 -0.18989334684E+02  0.22105552401E+02  0.51100000000E-03 0. -1.
        -11    1    3    3    0    0 -0.20652471855E+01 -0.45462264530E+01 -0.69488750946E+01  0.85568853119E+01  0.51100000000E-03 0.  1.
        -12    1    3    3    0    0  0.27449905236E+02 -0.31581568068E+01  0.31363932136E+02  0.41799132657E+02  0.00000000000E+00 0.  1.
</event>
<event>
 7    1  0.3305651E-013  0.7246154E+02  0.7816164E-02  0.1226708E+00
        -11   -1    0    0    0    0  0.00000000000E+00  0.00000000000E+00  0.45593999997E+02  0.45594000000E+02  0.51100000000E-03 0.  1.
         11   -1    0    0    0    0 -0.00000000000E+00 -0.00000000000E+00 -0.45593999997E+02  0.45594000000E+02  0.51100000000E-03 0. -1.
    9900012    2    1    2    0    0  0.15223442991E+02  0.55643021343E+01  0.93790044017E+01  0.72461537486E+02  0.69999957261E+02 0.  0.
         12    1    1    2    0    0 -0.15223442991E+02 -0.55643021343E+01 -0.93790044017E+01  0.18726462514E+02  0.00000000000E+00 0. -1.
         11    1    3    3    0    0  0.17968894241E+02  0.11986481109E+02 -0.20827334207E+02  0.30005578483E+02  0.51100000000E-03 0. -1.
        -11    1    3    3    0    0 -0.87106158712E+01 -0.56171489538E+01 -0.12400923470E+01  0.10438631161E+02  0.51100000000E-03 0.  1.
        -12    1    3    3    0    0  0.59651646206E+01 -0.80503002089E+00  0.31446430956E+02  0.32017327842E+02  0.00000000000E+00 0.  1.
</event>
<event>
 7    1  0.3305651E-013  0.7246155E+02  0.7816164E-02  0.1226708E+00
        -11   -1    0    0    0    0  0.00000000000E+00  0.00000000000E+00  0.45593999997E+02  0.45594000000E+02  0.51100000000E-03 0.  1.
         11   -1    0    0    0    0 -0.00000000000E+00 -0.00000000000E+00 -0.45593999997E+02  0.45594000000E+02  0.51100000000E-03 0. -1.
    9900012    2    1    2    0    0 -0.64428816670E+01  0.13025370552E+02  0.11811386706E+02  0.72461551909E+02  0.69999976049E+02 0.  0.
         12    1    1    2    0    0  0.64428816670E+01 -0.13025370552E+02 -0.11811386706E+02  0.18726448091E+02  0.00000000000E+00 0. -1.
         11    1    3    3    0    0  0.22966091028E+02 -0.61634630149E+01  0.65756062859E+01  0.24671202074E+02  0.51100000000E-03 0. -1.
        -11    1    3    3    0    0 -0.10400666784E+01  0.15217468985E+02  0.10695454531E+02  0.18629166618E+02  0.51100000000E-03 0.  1.
        -12    1    3    3    0    0 -0.28368906017E+02  0.39713645820E+01 -0.54596741102E+01  0.29161183217E+02  0.00000000000E+00 0.  1.
</event>
<event>
 7    1  0.3305651E-013  0.7246158E+02  0.7816164E-02  0.1226708E+00
        -11   -1    0    0    0    0  0.00000000000E+00  0.00000000000E+00  0.45593999997E+02  0.45594000000E+02  0.51100000000E-03 0.  1.
         11   -1    0    0    0    0 -0.00000000000E+00 -0.00000000000E+00 -0.45593999997E+02  0.45594000000E+02  0.51100000000E-03 0. -1.
    9900012    2    1    2    0    0  0.13939673028E+02  0.54888990591E+01  0.11235487896E+02  0.72461583224E+02  0.70000016844E+02 0.  0.
         12    1    1    2    0    0 -0.13939673028E+02 -0.54888990591E+01 -0.11235487896E+02  0.18726416776E+02  0.00000000000E+00 0. -1.
         11    1    3    3    0    0 -0.49813669482E+01 -0.96669394091E+01 -0.13424995840E+02  0.17276986073E+02  0.51100000000E-03 0. -1.
        -11    1    3    3    0    0  0.21700793524E+02 -0.93177574573E+01  0.62387599672E+01  0.24426771579E+02  0.51100000000E-03 0.  1.
        -12    1    3    3    0    0 -0.27797535481E+01  0.24473595926E+02  0.18421723768E+02  0.30757825572E+02  0.00000000000E+00 0.  1.
</event>
<event>
 7    1  0.3305651E-013  0.7246158E+02  0.7816164E-02  0.1226708E+00
        -11   -1    0    0    0    0  0.00000000000E+00  0.00000000000E+00  0.45593999997E+02  0.45594000000E+02  0.51100000000E-03 0. -1.
         11   -1    0    0    0    0 -0.00000000000E+00 -0.00000000000E+00 -0.45593999997E+02  0.45594000000E+02  0.51100000000E-03 0.  1.
    9900012    2    1    2    0    0  0.10434188120E+02 -0.14420122717E+02 -0.58194920359E+01  0.72461582605E+02  0.70000016037E+02 0.  0.
         12    1    1    2    0    0 -0.10434188120E+02  0.14420122717E+02  0.58194920359E+01  0.18726417395E+02  0.00000000000E+00 0. -1.
         11    1    3    3    0    0  0.22477091746E+01 -0.16690028889E+02  0.13710469977E+02  0.21716036657E+02  0.51100000000E-03 0. -1.
        -11    1    3    3    0    0  0.87891474718E+01 -0.17943602541E+02  0.32954574727E+01  0.20250482109E+02  0.51100000000E-03 0.  1.
        -12    1    3    3    0    0 -0.60266852608E+00  0.20213508713E+02 -0.22825419486E+02  0.30495063839E+02  0.00000000000E+00 0.  1.
</event>
<event>
 7    1  0.3305651E-013  0.7246149E+02  0.7816164E-02  0.1226708E+00
        -11   -1    0    0    0    0  0.00000000000E+00  0.00000000000E+00  0.45593999997E+02  0.45594000000E+02  0.51100000000E-03 0.  1.
         11   -1    0    0    0    0 -0.00000000000E+00 -0.00000000000E+00 -0.45593999997E+02  0.45594000000E+02  0.51100000000E-03 0. -1.
    9900012    2    1    2    0    0 -0.14069013282E+02 -0.75143271006E+01  0.98122313990E+01  0.72461491208E+02  0.69999896975E+02 0.  0.
         12    1    1    2    0    0  0.14069013282E+02  0.75143271006E+01 -0.98122313990E+01  0.18726508792E+02  0.00000000000E+00 0. -1.
         11    1    3    3    0    0 -0.10083189877E+02 -0.49529168923E+01 -0.94701184944E+01  0.14693034009E+02  0.51100000000E-03 0. -1.
        -11    1    3    3    0    0  0.70809031412E+01  0.19855536548E+02 -0.62974552676E+01  0.22000896891E+02  0.51100000000E-03 0.  1.
        -12    1    3    3    0    0 -0.11066726546E+02 -0.22416946756E+02  0.25579805161E+02  0.35767560308E+02  0.00000000000E+00 0.  1.
</event>
<event>
 7    1  0.3305651E-013  0.7246174E+02  0.7816164E-02  0.1226708E+00
        -11   -1    0    0    0    0  0.00000000000E+00  0.00000000000E+00  0.45593999997E+02  0.45594000000E+02  0.51100000000E-03 0.  1.
         11   -1    0    0    0    0 -0.00000000000E+00 -0.00000000000E+00 -0.45593999997E+02  0.45594000000E+02  0.51100000000E-03 0. -1.
    9900012    2    1    2    0    0 -0.15215256205E+02  0.68546206374E+01  0.84960453397E+01  0.72461744852E+02  0.70000227393E+02 0.  0.
         12    1    1    2    0    0  0.15215256205E+02 -0.68546206374E+01 -0.84960453397E+01  0.18726255148E+02  0.00000000000E+00 0. -1.
         11    1    3    3    0    0 -0.47644414473E+01 -0.11473013186E+02  0.93392766230E+01  0.15541943957E+02  0.51100000000E-03 0. -1.
        -11    1    3    3    0    0  0.42713840297E+00 -0.96033009000E+01  0.18777248077E+02  0.21094806968E+02  0.51100000000E-03 0.  1.
         12    1    3    3    0    0 -0.10877953161E+02  0.27930934723E+02 -0.19620479361E+02  0.35824993926E+02  0.00000000000E+00 0. -1.
</event>
<event>
 7    1  0.3305651E-013  0.7246155E+02  0.7816164E-02  0.1226708E+00
        -11   -1    0    0    0    0  0.00000000000E+00  0.00000000000E+00  0.45593999997E+02  0.45594000000E+02  0.51100000000E-03 0.  1.
         11   -1    0    0    0    0 -0.00000000000E+00 -0.00000000000E+00 -0.45593999997E+02  0.45594000000E+02  0.51100000000E-03 0. -1.
    9900012    2    1    2    0    0 -0.15152748270E+02  0.10959186902E+02  0.98498826411E+00  0.72461554540E+02  0.69999979476E+02 0.  0.
         12    1    1    2    0    0  0.15152748270E+02 -0.10959186902E+02 -0.98498826411E+00  0.18726445460E+02  0.00000000000E+00 0. -1.
         11    1    3    3    0    0 -0.90386709101E+01  0.24223143091E+01  0.94084618517E+00  0.94048056991E+01  0.51100000000E-03 0. -1.
        -11    1    3    3    0    0 -0.87995334720E+01 -0.49147373800E+01  0.29170133894E+02  0.30862325649E+02  0.51100000000E-03 0.  1.
         12    1    3    3    0    0  0.26854561119E+01  0.13451609973E+02 -0.29125991815E+02  0.32194423191E+02  0.00000000000E+00 0. -1.
</event>
<event>
 7    1  0.3305651E-013  0.7246156E+02  0.7816164E-02  0.1226708E+00
        -11   -1    0    0    0    0  0.00000000000E+00  0.00000000000E+00  0.45593999997E+02  0.45594000000E+02  0.51100000000E-03 0. -1.
         11   -1    0    0    0    0 -0.00000000000E+00 -0.00000000000E+00 -0.45593999997E+02  0.45594000000E+02  0.51100000000E-03 0.  1.
    9900012    2    1    2    0    0 -0.15933496010E+02 -0.14694154234E+01 -0.97285190189E+01  0.72461559893E+02  0.69999986450E+02 0.  0.
         12    1    1    2    0    0  0.15933496010E+02  0.14694154234E+01  0.97285190189E+01  0.18726440107E+02  0.00000000000E+00 0. -1.
         11    1    3    3    0    0  0.13805456365E+02 -0.14747084556E+02  0.80689860768E+01  0.21752601336E+02  0.51100000000E-03 0.  1.
        -11    1    3    3    0    0 -0.20743227888E+02  0.34334027904E+01  0.73263349482E+01  0.22265330493E+02  0.51100000000E-03 0. -1.
         12    1    3    3    0    0 -0.89957244874E+01  0.98442663418E+01 -0.25123840044E+02  0.28443628064E+02  0.00000000000E+00 0. -1.
</event>
<event>
 7    1  0.3305651E-013  0.7246144E+02  0.7816164E-02  0.1226708E+00
        -11   -1    0    0    0    0  0.00000000000E+00  0.00000000000E+00  0.45593999997E+02  0.45594000000E+02  0.51100000000E-03 0.  1.
         11   -1    0    0    0    0 -0.00000000000E+00 -0.00000000000E+00 -0.45593999997E+02  0.45594000000E+02  0.51100000000E-03 0. -1.
    9900012    2    1    2    0    0  0.15123831059E+01 -0.18278578248E+02 -0.37802416628E+01  0.72461442589E+02  0.69999833640E+02 0.  0.
         12    1    1    2    0    0 -0.15123831059E+01  0.18278578248E+02  0.37802416628E+01  0.18726557411E+02  0.00000000000E+00 0. -1.
         11    1    3    3    0    0 -0.15535517777E+02 -0.16247454815E+02 -0.80919965367E+01  0.23891682837E+02  0.51100000000E-03 0. -1.
        -11    1    3    3    0    0 -0.83428399726E+01 -0.73260499531E+01  0.16519121039E+02  0.19903651597E+02  0.51100000000E-03 0.  1.
        -12    1    3    3    0    0  0.25390740856E+02  0.52949265195E+01 -0.12207366165E+02  0.28666108155E+02  0.00000000000E+00 0.  1.
</event>
<event>
 7    1  0.3305651E-013  0.7246157E+02  0.7816164E-02  0.1226708E+00
        -11   -1    0    0    0    0  0.00000000000E+00  0.00000000000E+00  0.45593999997E+02  0.45594000000E+02  0.51100000000E-03 0. -1.
         11   -1    0    0    0    0 -0.00000000000E+00 -0.00000000000E+00 -0.45593999997E+02  0.45594000000E+02  0.51100000000E-03 0.  1.
    9900012    2    1    2    0    0  0.63636902979E+01 -0.98145558690E+01 -0.14623857926E+02  0.72461567298E+02  0.69999996097E+02 0.  0.
         12    1    1    2    0    0 -0.63636902979E+01  0.98145558690E+01  0.14623857926E+02  0.18726432702E+02  0.00000000000E+00 0. -1.
         11    1    3    3    0    0  0.10414916021E+02  0.41460280808E+01  0.20323741607E+02  0.23210223992E+02  0.51100000000E-03 0. -1.
        -11    1    3    3    0    0  0.70924708033E+01 -0.14972242493E+02 -0.50365354668E+01  0.17315827359E+02  0.51100000000E-03 0.  1.
        -12    1    3    3    0    0 -0.11143696526E+02  0.10116585429E+01 -0.29911064066E+02  0.31935515947E+02  0.00000000000E+00 0.  1.
</event>
<event>
 7    1  0.3305651E-013  0.7246165E+02  0.7816164E-02  0.1226708E+00
        -11   -1    0    0    0    0  0.00000000000E+00  0.00000000000E+00  0.45593999997E+02  0.45594000000E+02  0.51100000000E-03 0.  1.
         11   -1    0    0    0    0 -0.00000000000E+00 -0.00000000000E+00 -0.45593999997E+02  0.45594000000E+02  0.51100000000E-03 0. -1.
    9900012    2    1    2    0    0  0.17809196823E+02 -0.23775743312E+01 -0.52778752582E+01  0.72461646419E+02  0.70000099167E+02 0.  0.
         12    1    1    2    0    0 -0.17809196823E+02  0.23775743312E+01  0.52778752582E+01  0.18726353581E+02  0.00000000000E+00 0. -1.
         11    1    3    3    0    0 -0.10786065697E+02  0.18778327791E+01 -0.20961146033E+02  0.23648152411E+02  0.51100000000E-03 0. -1.
        -11    1    3    3    0    0  0.15423851577E+01 -0.15307875761E+02 -0.52836306621E+00  0.15394452900E+02  0.51100000000E-03 0.  1.
        -12    1    3    3    0    0  0.27052877362E+02  0.11052468651E+02  0.16211633841E+02  0.33419041109E+02  0.00000000000E+00 0.  1.
</event>
<event>
 7    1  0.3305651E-013  0.7246095E+02  0.7816164E-02  0.1226710E+00
        -11   -1    0    0    0    0  0.00000000000E+00  0.00000000000E+00  0.45593999997E+02  0.45594000000E+02  0.51100000000E-03 0. -1.
         11   -1    0    0    0    0 -0.00000000000E+00 -0.00000000000E+00 -0.45593999997E+02  0.45594000000E+02  0.51100000000E-03 0.  1.
    9900012    2    1    2    0    0 -0.14683566412E+02  0.11180779471E+02 -0.31757313215E+01  0.72460954809E+02  0.69999198212E+02 0.  0.
         12    1    1    2    0    0  0.14683566412E+02 -0.11180779471E+02  0.31757313215E+01  0.18727045191E+02  0.00000000000E+00 0. -1.
         11    1    3    3    0    0  0.12610060638E+02  0.67469185499E+01 -0.96030583613E+01  0.17226528070E+02  0.51100000000E-03 0. -1.
        -11    1    3    3    0    0 -0.10561885828E+02  0.10563288903E+02 -0.19009988698E+02  0.24176769331E+02  0.51100000000E-03 0.  1.
         12    1    3    3    0    0 -0.16731741222E+02 -0.61294279822E+01  0.25437315738E+02  0.31057657408E+02  0.00000000000E+00 0. -1.
</event>
<event>
 7    1  0.3305651E-013  0.7246170E+02  0.7816164E-02  0.1226708E+00
        -11   -1    0    0    0    0  0.00000000000E+00  0.00000000000E+00  0.45593999997E+02  0.45594000000E+02  0.51100000000E-03 0. -1.
         11   -1    0    0    0    0 -0.00000000000E+00 -0.00000000000E+00 -0.45593999997E+02  0.45594000000E+02  0.51100000000E-03 0.  1.
    9900012    2    1    2    0    0  0.47752968491E+01  0.14219664308E+02 -0.11210349401E+02  0.72461701735E+02  0.70000171225E+02 0.  0.
         12    1    1    2    0    0 -0.47752968491E+01 -0.14219664308E+02  0.11210349401E+02  0.18726298265E+02  0.00000000000E+00 0. -1.
         11    1    3    3    0    0 -0.18728418858E+01 -0.52876385896E+01  0.11401134399E+02  0.12706396988E+02  0.51100000000E-03 0. -1.
        -11    1    3    3    0    0 -0.11309301360E+02  0.20662556118E+02  0.74625091100E+01  0.24708916712E+02  0.51100000000E-03 0.  1.
        -12    1    3    3    0    0  0.17957440094E+02 -0.11552532209E+01 -0.30073992910E+02  0.35046388035E+02  0.00000000000E+00 0.  1.
</event>
<event>
 7    1  0.3305651E-013  0.7246154E+02  0.7816164E-02  0.1226708E+00
        -11   -1    0    0    0    0  0.00000000000E+00  0.00000000000E+00  0.45593999997E+02  0.45594000000E+02  0.51100000000E-03 0. -1.
         11   -1    0    0    0    0 -0.00000000000E+00 -0.00000000000E+00 -0.45593999997E+02  0.45594000000E+02  0.51100000000E-03 0.  1.
    9900012    2    1    2    0    0  0.13518875888E+02  0.37642692392E+01  0.12399623173E+02  0.72461537894E+02  0.69999957793E+02 0.  0.
         12    1    1    2    0    0 -0.13518875888E+02 -0.37642692392E+01 -0.12399623173E+02  0.18726462106E+02  0.00000000000E+00 0. -1.
         11    1    3    3    0    0  0.79642765695E+01 -0.47957582329E+01 -0.15920416490E+01  0.94320514829E+01  0.51100000000E-03 0. -1.
        -11    1    3    3    0    0  0.40420643566E+01  0.34803596084E+02  0.10035017363E+02  0.36446263984E+02  0.51100000000E-03 0.  1.
         12    1    3    3    0    0  0.15125349618E+01 -0.26243568612E+02  0.39566474583E+01  0.26583222427E+02  0.00000000000E+00 0. -1.
</event>
<event>
 7    1  0.3305651E-013  0.7246159E+02  0.7816164E-02  0.1226708E+00
        -11   -1    0    0    0    0  0.00000000000E+00  0.00000000000E+00  0.45593999997E+02  0.45594000000E+02  0.51100000000E-03 0.  1.
         11   -1    0    0    0    0 -0.00000000000E+00 -0.00000000000E+00 -0.45593999997E+02  0.45594000000E+02  0.51100000000E-03 0. -1.
    9900012    2    1    2    0    0 -0.41004885324E+01  0.24216935970E+01  0.18110768740E+02  0.72461586824E+02  0.70000021533E+02 0.  0.
         12    1    1    2    0    0  0.41004885324E+01 -0.24216935970E+01 -0.18110768740E+02  0.18726413176E+02  0.00000000000E+00 0. -1.
         11    1    3    3    0    0  0.14374133214E+02 -0.18430170058E+02  0.11458333905E+00  0.23373061495E+02  0.51100000000E-03 0. -1.
        -11    1    3    3    0    0  0.56593263219E+01  0.56350109025E+00 -0.68809832570E+01  0.89271181655E+01  0.51100000000E-03 0.  1.
        -12    1    3    3    0    0 -0.24133948068E+02  0.20288362565E+02  0.24877168658E+02  0.40161407164E+02  0.00000000000E+00 0.  1.
</event>
<event>
 7    1  0.3305651E-013  0.7246155E+02  0.7816164E-02  0.1226708E+00
        -11   -1    0    0    0    0  0.00000000000E+00  0.00000000000E+00  0.45593999997E+02  0.45594000000E+02  0.51100000000E-03 0. -1.
         11   -1    0    0    0    0 -0.00000000000E+00 -0.00000000000E+00 -0.45593999997E+02  0.45594000000E+02  0.51100000000E-03 0.  1.
    9900012    2    1    2    0    0 -0.77663399843E+00  0.12928686441E+02 -0.13525001659E+02  0.72461554440E+02  0.69999979346E+02 0.  0.
         12    1    1    2    0    0  0.77663399843E+00 -0.12928686441E+02  0.13525001659E+02  0.18726445560E+02  0.00000000000E+00 0. -1.
         11    1    3    3    0    0  0.38502934291E+01  0.51539635417E+01  0.91011189841E+01  0.11145333853E+02  0.51100000000E-03 0. -1.
        -11    1    3    3    0    0 -0.28564435658E+02  0.12304505110E+02 -0.19609943318E+02  0.36767889628E+02  0.51100000000E-03 0.  1.
         12    1    3    3    0    0  0.23937508231E+02 -0.45297822113E+01 -0.30161773249E+01  0.24548330958E+02  0.00000000000E+00 0. -1.
</event>
<event>
 7    1  0.3305651E-013  0.7246170E+02  0.7816164E-02  0.1226708E+00
        -11   -1    0    0    0    0  0.00000000000E+00  0.00000000000E+00  0.45593999997E+02  0.45594000000E+02  0.51100000000E-03 0. -1.
         11   -1    0    0    0    0 -0.00000000000E+00 -0.00000000000E+00 -0.45593999997E+02  0.45594000000E+02  0.51100000000E-03 0.  1.
    9900012    2    1    2    0    0 -0.16716391944E+01 -0.60856205748E+01 -0.17630803647E+02  0.72461697839E+02  0.70000166150E+02 0.  0.
         12    1    1    2    0    0  0.16716391944E+01  0.60856205748E+01  0.17630803647E+02  0.18726302161E+02  0.00000000000E+00 0. -1.
         11    1    3    3    0    0  0.11795156413E+02 -0.29316590939E+01 -0.18308534217E+02  0.21975503755E+02  0.51100000000E-03 0. -1.
        -11    1    3    3    0    0  0.84240757299E+01  0.13025142187E+02  0.13344952219E+02  0.20462334444E+02  0.51100000000E-03 0.  1.
         12    1    3    3    0    0 -0.21890871337E+02 -0.16179103668E+02 -0.12667221649E+02  0.30023859640E+02  0.00000000000E+00 0. -1.
</event>
<event>
 7    1  0.3305651E-013  0.7246158E+02  0.7816164E-02  0.1226708E+00
        -11   -1    0    0    0    0  0.00000000000E+00  0.00000000000E+00  0.45593999997E+02  0.45594000000E+02  0.51100000000E-03 0.  1.
         11   -1    0    0    0    0 -0.00000000000E+00 -0.00000000000E+00 -0.45593999997E+02  0.45594000000E+02  0.51100000000E-03 0. -1.
    9900012    2    1    2    0    0  0.81531867487E+01 -0.65411813978E+01  0.15537614713E+02  0.72461575375E+02  0.70000006619E+02 0.  0.
         12    1    1    2    0    0 -0.81531867487E+01  0.65411813978E+01 -0.15537614713E+02  0.18726424625E+02  0.00000000000E+00 0. -1.
         11    1    3    3    0    0  0.21192727278E+01  0.56135119280E+00  0.75347789968E+01  0.78472496359E+01  0.51100000000E-03 0. -1.
        -11    1    3    3    0    0  0.25899561516E+02  0.16922165365E+02 -0.40285869748E+01  0.31198982045E+02  0.51100000000E-03 0.  1.
         12    1    3    3    0    0 -0.19865647495E+02 -0.24024697955E+02  0.12031422691E+02  0.33415343695E+02  0.00000000000E+00 0. -1.
</event>
<event>
 7    1  0.3305651E-013  0.7246150E+02  0.7816164E-02  0.1226708E+00
        -11   -1    0    0    0    0  0.00000000000E+00  0.00000000000E+00  0.45593999997E+02  0.45594000000E+02  0.51100000000E-03 0. -1.
         11   -1    0    0    0    0 -0.00000000000E+00 -0.00000000000E+00 -0.45593999997E+02  0.45594000000E+02  0.51100000000E-03 0.  1.
    9900012    2    1    2    0    0  0.22921660882E+01  0.17891001234E+02 -0.50338545180E+01  0.72461504283E+02  0.69999914008E+02 0.  0.
         12    1    1    2    0    0 -0.22921660882E+01 -0.17891001234E+02  0.50338545180E+01  0.18726495717E+02  0.00000000000E+00 0. -1.
         11    1    3    3    0    0  0.70418829073E+01  0.70864900174E+01 -0.10700227359E+02  0.14639034170E+02  0.51100000000E-03 0. -1.
        -11    1    3    3    0    0  0.12904001852E+02 -0.38320247765E+01 -0.19551280238E+02  0.23737106750E+02  0.51100000000E-03 0.  1.
         12    1    3    3    0    0 -0.17653718671E+02  0.14636535993E+02  0.25217653078E+02  0.34085363363E+02  0.00000000000E+00 0. -1.
</event>
<event>
 7    1  0.3305651E-013  0.7246160E+02  0.7816164E-02  0.1226708E+00
        -11   -1    0    0    0    0  0.00000000000E+00  0.00000000000E+00  0.45593999997E+02  0.45594000000E+02  0.51100000000E-03 0.  1.
         11   -1    0    0    0    0 -0.00000000000E+00 -0.00000000000E+00 -0.45593999997E+02  0.45594000000E+02  0.51100000000E-03 0. -1.
    9900012    2    1    2    0    0 -0.16467766174E+02 -0.45921771482E+01  0.76421673782E+01  0.72461597891E+02  0.70000035950E+02 0.  0.
         12    1    1    2    0    0  0.16467766174E+02  0.45921771482E+01 -0.76421673782E+01  0.18726402109E+02  0.00000000000E+00 0. -1.
         11    1    3    3    0    0 -0.24654025177E+02 -0.52821749364E+01 -0.62935881675E+00  0.25221388191E+02  0.51100000000E-03 0. -1.
        -11    1    3    3    0    0 -0.10865129046E+02 -0.47465409966E-01  0.21462581717E+02  0.24056094786E+02  0.51100000000E-03 0.  1.
         12    1    3    3    0    0  0.19051388049E+02  0.73746319812E+00 -0.13191055522E+02  0.23184114914E+02  0.00000000000E+00 0. -1.
</event>
<event>
 7    1  0.3305651E-013  0.7246155E+02  0.7816164E-02  0.1226708E+00
        -11   -1    0    0    0    0  0.00000000000E+00  0.00000000000E+00  0.45593999997E+02  0.45594000000E+02  0.51100000000E-03 0.  1.
         11   -1    0    0    0    0 -0.00000000000E+00 -0.00000000000E+00 -0.45593999997E+02  0.45594000000E+02  0.51100000000E-03 0. -1.
    9900012    2    1    2    0    0 -0.62805322921E+01 -0.11306119348E+02  0.13542768308E+02  0.72461548280E+02  0.69999971322E+02 0.  0.
         12    1    1    2    0    0  0.62805322921E+01  0.11306119348E+02 -0.13542768308E+02  0.18726451720E+02  0.00000000000E+00 0. -1.
         11    1    3    3    0    0  0.26466048315E+01  0.30360077370E+01  0.12671699091E+02  0.13296383652E+02  0.51100000000E-03 0. -1.
        -11    1    3    3    0    0 -0.20117847019E+02 -0.26885494188E+02  0.15404358705E+02  0.36943901172E+02  0.51100000000E-03 0.  1.
         12    1    3    3    0    0  0.11190709896E+02  0.12543367103E+02 -0.14533289488E+02  0.22221263456E+02  0.00000000000E+00 0. -1.
</event>
<event>
 7    1  0.3305651E-013  0.7246157E+02  0.7816164E-02  0.1226708E+00
        -11   -1    0    0    0    0  0.00000000000E+00  0.00000000000E+00  0.45593999997E+02  0.45594000000E+02  0.51100000000E-03 0. -1.
         11   -1    0    0    0    0 -0.00000000000E+00 -0.00000000000E+00 -0.45593999997E+02  0.45594000000E+02  0.51100000000E-03 0.  1.
    9900012    2    1    2    0    0 -0.65594926470E+01  0.12195797640E+02 -0.12606141454E+02  0.72461568780E+02  0.69999998027E+02 0.  0.
         12    1    1    2    0    0  0.65594926470E+01 -0.12195797640E+02  0.12606141454E+02  0.18726431220E+02  0.00000000000E+00 0. -1.
         11    1    3    3    0    0 -0.51780244848E+01  0.25489820520E+01 -0.62346865337E+00  0.58049944435E+01  0.51100000000E-03 0. -1.
        -11    1    3    3    0    0 -0.12174302899E+02 -0.13910418925E+02 -0.29900279189E+02  0.35153095192E+02  0.51100000000E-03 0.  1.
         12    1    3    3    0    0  0.10792834737E+02  0.23557234513E+02  0.17917606388E+02  0.31503479145E+02  0.00000000000E+00 0. -1.
</event>
<event>
 7    1  0.3305651E-013  0.7246153E+02  0.7816164E-02  0.1226708E+00
        -11   -1    0    0    0    0  0.00000000000E+00  0.00000000000E+00  0.45593999997E+02  0.45594000000E+02  0.51100000000E-03 0. -1.
         11   -1    0    0    0    0 -0.00000000000E+00 -0.00000000000E+00 -0.45593999997E+02  0.45594000000E+02  0.51100000000E-03 0.  1.
    9900012    2    1    2    0    0  0.16150365124E+02  0.92854307237E+01 -0.19044757333E+01  0.72461533564E+02  0.69999952152E+02 0.  0.
         12    1    1    2    0    0 -0.16150365124E+02 -0.92854307237E+01  0.19044757333E+01  0.18726466436E+02  0.00000000000E+00 0. -1.
         11    1    3    3    0    0  0.27866317728E+02 -0.10936147586E+02  0.16870959803E+02  0.34362192489E+02  0.51100000000E-03 0. -1.
        -11    1    3    3    0    0  0.40571263749E+01  0.62045248921E+01  0.27962572339E+01  0.79230965119E+01  0.51100000000E-03 0.  1.
        -12    1    3    3    0    0 -0.15773078979E+02  0.14017053417E+02 -0.21571692770E+02  0.30176244563E+02  0.00000000000E+00 0.  1.
</event>
<event>
 7    1  0.3305651E-013  0.7246158E+02  0.7816164E-02  0.1226708E+00
        -11   -1    0    0    0    0  0.00000000000E+00  0.00000000000E+00  0.45593999997E+02  0.45594000000E+02  0.51100000000E-03 0.  1.
         11   -1    0    0    0    0 -0.00000000000E+00 -0.00000000000E+00 -0.45593999997E+02  0.45594000000E+02  0.51100000000E-03 0. -1.
    9900012    2    1    2    0    0 -0.78744139648E+01 -0.16534494538E+02  0.39093229891E+01  0.72461582533E+02  0.70000015943E+02 0.  0.
         12    1    1    2    0    0  0.78744139648E+01  0.16534494538E+02 -0.39093229891E+01  0.18726417467E+02  0.00000000000E+00 0. -1.
         11    1    3    3    0    0  0.62751011734E+01 -0.27158943589E+02  0.80755679146E+01  0.29020680712E+02  0.51100000000E-03 0. -1.
        -11    1    3    3    0    0  0.13878801369E+02  0.37082266825E+01 -0.10443831016E+01  0.14403569310E+02  0.51100000000E-03 0.  1.
        -12    1    3    3    0    0 -0.28028316507E+02  0.69162223681E+01 -0.31218618239E+01  0.29037332510E+02  0.00000000000E+00 0.  1.
</event>
<event>
 7    1  0.3305651E-013  0.7246157E+02  0.7816164E-02  0.1226708E+00
        -11   -1    0    0    0    0  0.00000000000E+00  0.00000000000E+00  0.45593999997E+02  0.45594000000E+02  0.51100000000E-03 0.  1.
         11   -1    0    0    0    0 -0.00000000000E+00 -0.00000000000E+00 -0.45593999997E+02  0.45594000000E+02  0.51100000000E-03 0. -1.
    9900012    2    1    2    0    0 -0.49262188991E+01 -0.67121752143E+01  0.16773740735E+02  0.72461566624E+02  0.69999995219E+02 0.  0.
         12    1    1    2    0    0  0.49262188991E+01  0.67121752143E+01 -0.16773740735E+02  0.18726433376E+02  0.00000000000E+00 0. -1.
         11    1    3    3    0    0 -0.33007427463E+01 -0.11197012603E+02 -0.90913587837E+01  0.14795972381E+02  0.51100000000E-03 0. -1.
        -11    1    3    3    0    0 -0.93405355110E+01 -0.82296481478E+00 -0.13925348364E+02  0.16788037468E+02  0.51100000000E-03 0.  1.
        -12    1    3    3    0    0  0.77150593581E+01  0.53078022034E+01  0.39790447883E+02  0.40877556774E+02  0.00000000000E+00 0.  1.
</event>
<event>
 7    1  0.3305651E-013  0.7246158E+02  0.7816164E-02  0.1226708E+00
        -11   -1    0    0    0    0  0.00000000000E+00  0.00000000000E+00  0.45593999997E+02  0.45594000000E+02  0.51100000000E-03 0. -1.
         11   -1    0    0    0    0 -0.00000000000E+00 -0.00000000000E+00 -0.45593999997E+02  0.45594000000E+02  0.51100000000E-03 0.  1.
    9900012    2    1    2    0    0  0.13227976803E+00  0.97012523318E+01 -0.16017079250E+02  0.72461584901E+02  0.70000019028E+02 0.  0.
         12    1    1    2    0    0 -0.13227976803E+00 -0.97012523318E+01  0.16017079250E+02  0.18726415099E+02  0.00000000000E+00 0. -1.
         11    1    3    3    0    0 -0.93690908762E+01 -0.14899633133E+02 -0.75662882787E+01  0.19157965704E+02  0.51100000000E-03 0. -1.
        -11    1    3    3    0    0 -0.27811639598E+01 -0.12883997802E+02 -0.18773233426E+01  0.13313775405E+02  0.51100000000E-03 0.  1.
        -12    1    3    3    0    0  0.12282534604E+02  0.37484883267E+02 -0.65734676290E+01  0.39989843792E+02  0.00000000000E+00 0.  1.
</event>
<event>
 7    1  0.3312451E-013  0.7246155E+02  0.7816164E-02  0.1226708E+00
        -11   -1    0    0    0    0  0.00000000000E+00  0.00000000000E+00  0.45593999997E+02  0.45594000000E+02  0.51100000000E-03 0.  1.
         11   -1    0    0    0    0 -0.00000000000E+00 -0.00000000000E+00 -0.45593999997E+02  0.45594000000E+02  0.51100000000E-03 0. -1.
    9900012    2    1    2    0    0  0.18607211611E+02  0.21031509918E+01 -0.16794821555E+00  0.72461554138E+02  0.69999978953E+02 0.  0.
         12    1    1    2    0    0 -0.18607211611E+02 -0.21031509918E+01  0.16794821555E+00  0.18726445862E+02  0.00000000000E+00 0. -1.
         11    1    3    3    0    0  0.10586882588E+02 -0.67780825017E+01 -0.16889836468E+02  0.21054478419E+02  0.51100000000E-03 0. -1.
        -11    1    3    3    0    0  0.23625198666E+02  0.18727122168E+02  0.98002200586E+01  0.31700148740E+02  0.51100000000E-03 0.  1.
         12    1    3    3    0    0 -0.15604869643E+02 -0.98458886745E+01  0.69216681938E+01  0.19706926979E+02  0.00000000000E+00 0. -1.
</event>
<event>
 7    1  0.3305651E-013  0.7246151E+02  0.7816164E-02  0.1226708E+00
        -11   -1    0    0    0    0  0.00000000000E+00  0.00000000000E+00  0.45593999997E+02  0.45594000000E+02  0.51100000000E-03 0. -1.
         11   -1    0    0    0    0 -0.00000000000E+00 -0.00000000000E+00 -0.45593999997E+02  0.45594000000E+02  0.51100000000E-03 0.  1.
    9900012    2    1    2    0    0 -0.15008537139E+02  0.61169042284E+01 -0.93812873747E+01  0.72461514553E+02  0.69999927386E+02 0.  0.
         12    1    1    2    0    0  0.15008537139E+02 -0.61169042284E+01  0.93812873747E+01  0.18726485447E+02  0.00000000000E+00 0. -1.
         11    1    3    3    0    0  0.41385752207E+01  0.12438393449E+02  0.11360241361E+02  0.17346369087E+02  0.51100000000E-03 0. -1.
        -11    1    3    3    0    0 -0.51977108378E+01  0.14046674101E+02  0.81996955617E+01  0.17075135690E+02  0.51100000000E-03 0.  1.
        -12    1    3    3    0    0 -0.13949401522E+02 -0.20368163322E+02 -0.28941224298E+02  0.38040009776E+02  0.00000000000E+00 0.  1.
</event>
<event>
 7    1  0.3305651E-013  0.7246154E+02  0.7816164E-02  0.1226708E+00
        -11   -1    0    0    0    0  0.00000000000E+00  0.00000000000E+00  0.45593999997E+02  0.45594000000E+02  0.51100000000E-03 0. -1.
         11   -1    0    0    0    0 -0.00000000000E+00 -0.00000000000E+00 -0.45593999997E+02  0.45594000000E+02  0.51100000000E-03 0.  1.
    9900012    2    1    2    0    0 -0.57177870198E+01  0.11366319057E+02  0.13740232764E+02  0.72461540278E+02  0.69999960899E+02 0.  0.
         12    1    1    2    0    0  0.57177870198E+01 -0.11366319057E+02 -0.13740232764E+02  0.18726459722E+02  0.00000000000E+00 0. -1.
         11    1    3    3    0    0 -0.15094387101E+02 -0.11891889438E+01 -0.13074422758E+02  0.20004879980E+02  0.51100000000E-03 0. -1.
        -11    1    3    3    0    0 -0.77456793432E+01 -0.95361983055E+00 -0.81267787943E+01  0.11267185678E+02  0.51100000000E-03 0.  1.
         12    1    3    3    0    0  0.17122279424E+02  0.13509127831E+02  0.34941434316E+02  0.41189474620E+02  0.00000000000E+00 0. -1.
</event>
<event>
 7    1  0.3305651E-013  0.7246120E+02  0.7816164E-02  0.1226709E+00
        -11   -1    0    0    0    0  0.00000000000E+00  0.00000000000E+00  0.45593999997E+02  0.45594000000E+02  0.51100000000E-03 0.  1.
         11   -1    0    0    0    0 -0.00000000000E+00 -0.00000000000E+00 -0.45593999997E+02  0.45594000000E+02  0.51100000000E-03 0. -1.
    9900012    2    1    2    0    0 -0.76823506453E+01  0.79800812076E+01  0.15099433007E+02  0.72461198761E+02  0.69999516007E+02 0.  0.
         12    1    1    2    0    0  0.76823506453E+01 -0.79800812076E+01 -0.15099433007E+02  0.18726801239E+02  0.00000000000E+00 0. -1.
         11    1    3    3    0    0 -0.15533292054E+02 -0.35708029269E+01  0.23383793284E+02  0.28299038573E+02  0.51100000000E-03 0. -1.
        -11    1    3    3    0    0 -0.81902132700E+01 -0.12109820758E+02 -0.46788364418E+01  0.15349881528E+02  0.51100000000E-03 0.  1.
         12    1    3    3    0    0  0.16041154678E+02  0.23660704893E+02 -0.36055238351E+01  0.28812278660E+02  0.00000000000E+00 0. -1.
</event>
<event>
 7    1  0.3305651E-013  0.7246156E+02  0.7816164E-02  0.1226708E+00
        -11   -1    0    0    0    0  0.00000000000E+00  0.00000000000E+00  0.45593999997E+02  0.45594000000E+02  0.51100000000E-03 0. -1.
         11   -1    0    0    0    0 -0.00000000000E+00 -0.00000000000E+00 -0.45593999997E+02  0.45594000000E+02  0.51100000000E-03 0.  1.
    9900012    2    1    2    0    0  0.14984305261E+02  0.10635741648E+02 -0.36098467146E+01  0.72461564198E+02  0.69999992058E+02 0.  0.
         12    1    1    2    0    0 -0.14984305261E+02 -0.10635741648E+02  0.36098467146E+01  0.18726435802E+02  0.00000000000E+00 0. -1.
         11    1    3    3    0    0 -0.37847822932E+01  0.19738066066E+02  0.75418224437E+01  0.21466134143E+02  0.51100000000E-03 0. -1.
        -11    1    3    3    0    0 -0.59486568398E+01  0.81232615534E+01  0.99948252465E+01  0.14186980949E+02  0.51100000000E-03 0.  1.
         12    1    3    3    0    0  0.24717744394E+02 -0.17225585971E+02 -0.21146494405E+02  0.36808449106E+02  0.00000000000E+00 0. -1.
</event>
<event>
 7    1  0.3305651E-013  0.7246160E+02  0.7816164E-02  0.1226708E+00
        -11   -1    0    0    0    0  0.00000000000E+00  0.00000000000E+00  0.45593999997E+02  0.45594000000E+02  0.51100000000E-03 0.  1.
         11   -1    0    0    0    0 -0.00000000000E+00 -0.00000000000E+00 -0.45593999997E+02  0.45594000000E+02  0.51100000000E-03 0. -1.
    9900012    2    1    2    0    0 -0.15600615291E+00  0.36262607647E+01  0.18371283397E+02  0.72461597284E+02  0.70000035159E+02 0.  0.
         12    1    1    2    0    0  0.15600615291E+00 -0.36262607647E+01 -0.18371283397E+02  0.18726402716E+02  0.00000000000E+00 0. -1.
         11    1    3    3    0    0  0.14025475039E+02 -0.13782149929E+02 -0.60624446950E+01  0.20577046500E+02  0.51100000000E-03 0. -1.
        -11    1    3    3    0    0  0.68932147056E+01  0.18326545205E+02 -0.32427017695E-01  0.19580084777E+02  0.51100000000E-03 0.  1.
        -12    1    3    3    0    0 -0.21074695897E+02 -0.91813451103E+00  0.24466155109E+02  0.32304466006E+02  0.00000000000E+00 0.  1.
</event>
<event>
 7    1  0.3305651E-013  0.7246161E+02  0.7816164E-02  0.1226708E+00
        -11   -1    0    0    0    0  0.00000000000E+00  0.00000000000E+00  0.45593999997E+02  0.45594000000E+02  0.51100000000E-03 0.  1.
         11   -1    0    0    0    0 -0.00000000000E+00 -0.00000000000E+00 -0.45593999997E+02  0.45594000000E+02  0.51100000000E-03 0. -1.
    9900012    2    1    2    0    0 -0.82414549719E+01  0.14857795148E+02 -0.78741260952E+01  0.72461614377E+02  0.70000057426E+02 0.  0.
         12    1    1    2    0    0  0.82414549719E+01 -0.14857795148E+02  0.78741260952E+01  0.18726385623E+02  0.00000000000E+00 0. -1.
         11    1    3    3    0    0  0.14015902853E+02  0.94831361356E+01  0.10841431741E+02  0.20097563191E+02  0.51100000000E-03 0.  1.
        -11    1    3    3    0    0 -0.26632367025E+02 -0.62120081681E+01  0.28497354986E+01  0.27495327085E+02  0.51100000000E-03 0. -1.
         12    1    3    3    0    0  0.43750091995E+01  0.11586667181E+02 -0.21565293335E+02  0.24868724102E+02  0.00000000000E+00 0. -1.
</event>
<event>
 7    1  0.3305651E-013  0.7246155E+02  0.7816164E-02  0.1226708E+00
        -11   -1    0    0    0    0  0.00000000000E+00  0.00000000000E+00  0.45593999997E+02  0.45594000000E+02  0.51100000000E-03 0. -1.
         11   -1    0    0    0    0 -0.00000000000E+00 -0.00000000000E+00 -0.45593999997E+02  0.45594000000E+02  0.51100000000E-03 0.  1.
    9900012    2    1    2    0    0 -0.15333288516E+02 -0.44483921147E+01 -0.97868364495E+01  0.72461545536E+02  0.69999967747E+02 0.  0.
         12    1    1    2    0    0  0.15333288516E+02  0.44483921147E+01  0.97868364495E+01  0.18726454464E+02  0.00000000000E+00 0. -1.
         11    1    3    3    0    0  0.23989752741E+01 -0.16958309394E+01  0.10968587076E+02  0.11355211475E+02  0.51100000000E-03 0. -1.
        -11    1    3    3    0    0 -0.22932643674E+02 -0.21651253789E+02  0.13433643045E+01  0.31567191267E+02  0.51100000000E-03 0.  1.
        -12    1    3    3    0    0  0.52003798847E+01  0.18898692614E+02 -0.22098787830E+02  0.29539142794E+02  0.00000000000E+00 0.  1.
</event>
<event>
 7    1  0.3305651E-013  0.7246161E+02  0.7816164E-02  0.1226708E+00
        -11   -1    0    0    0    0  0.00000000000E+00  0.00000000000E+00  0.45593999997E+02  0.45594000000E+02  0.51100000000E-03 0.  1.
         11   -1    0    0    0    0 -0.00000000000E+00 -0.00000000000E+00 -0.45593999997E+02  0.45594000000E+02  0.51100000000E-03 0. -1.
    9900012    2    1    2    0    0 -0.98600115435E+00  0.37974549635E+01  0.18310788987E+02  0.72461605371E+02  0.70000045694E+02 0.  0.
         12    1    1    2    0    0  0.98600115435E+00 -0.37974549635E+01 -0.18310788987E+02  0.18726394629E+02  0.00000000000E+00 0. -1.
         11    1    3    3    0    0  0.14170118246E+02 -0.97128988896E+01  0.84973424756E+01  0.19166050332E+02  0.51100000000E-03 0. -1.
        -11    1    3    3    0    0 -0.49565784406E+01  0.43318340442E+01  0.28983058587E+02  0.29721206929E+02  0.51100000000E-03 0.  1.
         12    1    3    3    0    0 -0.10199540959E+02  0.91785198089E+01 -0.19169612076E+02  0.23574348110E+02  0.00000000000E+00 0. -1.
</event>
<event>
 7    1  0.3305651E-013  0.7246158E+02  0.7816164E-02  0.1226708E+00
        -11   -1    0    0    0    0  0.00000000000E+00  0.00000000000E+00  0.45593999997E+02  0.45594000000E+02  0.51100000000E-03 0. -1.
         11   -1    0    0    0    0 -0.00000000000E+00 -0.00000000000E+00 -0.45593999997E+02  0.45594000000E+02  0.51100000000E-03 0.  1.
    9900012    2    1    2    0    0 -0.67209678310E+01  0.15269073181E+02 -0.85066343596E+01  0.72461579293E+02  0.70000011722E+02 0.  0.
         12    1    1    2    0    0  0.67209678310E+01 -0.15269073181E+02  0.85066343596E+01  0.18726420707E+02  0.00000000000E+00 0. -1.
         11    1    3    3    0    0 -0.31468489614E+02 -0.73279312793E+01 -0.44402611239E+01  0.32614112506E+02  0.51100000000E-03 0. -1.
        -11    1    3    3    0    0 -0.18042851935E+01  0.98471984533E+01 -0.26653210860E+01  0.10359859999E+02  0.51100000000E-03 0.  1.
        -12    1    3    3    0    0  0.26551806977E+02  0.12749806007E+02 -0.14010521498E+01  0.29487606788E+02  0.00000000000E+00 0.  1.
</event>
<event>
 7    1  0.3305651E-013  0.7246162E+02  0.7816164E-02  0.1226708E+00
        -11   -1    0    0    0    0  0.00000000000E+00  0.00000000000E+00  0.45593999997E+02  0.45594000000E+02  0.51100000000E-03 0. -1.
         11   -1    0    0    0    0 -0.00000000000E+00 -0.00000000000E+00 -0.45593999997E+02  0.45594000000E+02  0.51100000000E-03 0.  1.
    9900012    2    1    2    0    0 -0.16953156423E+02 -0.75195763959E+01 -0.25929876090E+01  0.72461624841E+02  0.70000071057E+02 0.  0.
         12    1    1    2    0    0  0.16953156423E+02  0.75195763959E+01  0.25929876090E+01  0.18726375159E+02  0.00000000000E+00 0. -1.
         11    1    3    3    0    0  0.91977991823E+01 -0.23368939059E+02  0.17357440795E+02  0.30528471527E+02  0.51100000000E-03 0. -1.
        -11    1    3    3    0    0 -0.10455977365E+02  0.19539874013E+01  0.27984468690E+01  0.10998946976E+02  0.51100000000E-03 0.  1.
        -12    1    3    3    0    0 -0.15694978240E+02  0.13895375262E+02 -0.22748875273E+02  0.30934206339E+02  0.00000000000E+00 0.  1.
</event>
<event>
 7    1  0.3305651E-013  0.7246156E+02  0.7816164E-02  0.1226708E+00
        -11   -1    0    0    0    0  0.00000000000E+00  0.00000000000E+00  0.45593999997E+02  0.45594000000E+02  0.51100000000E-03 0.  1.
         11   -1    0    0    0    0 -0.00000000000E+00 -0.00000000000E+00 -0.45593999997E+02  0.45594000000E+02  0.51100000000E-03 0. -1.
    9900012    2    1    2    0    0 -0.11688426436E+01  0.83411001188E+01  0.16725413029E+02  0.72461559193E+02  0.69999985539E+02 0.  0.
         12    1    1    2    0    0  0.11688426436E+01 -0.83411001188E+01 -0.16725413029E+02  0.18726440807E+02  0.00000000000E+00 0. -1.
         11    1    3    3    0    0 -0.13772500141E+02 -0.19636179367E+02  0.18498965697E+01  0.24055839579E+02  0.51100000000E-03 0. -1.
        -11    1    3    3    0    0 -0.91266835028E+01  0.19142823242E+02  0.12997230982E+02  0.24873118963E+02  0.51100000000E-03 0.  1.
         12    1    3    3    0    0  0.21730341000E+02  0.88344562430E+01  0.18782854764E+01  0.23532600652E+02  0.00000000000E+00 0. -1.
</event>
<event>
 7    1  0.3305651E-013  0.7246156E+02  0.7816164E-02  0.1226708E+00
        -11   -1    0    0    0    0  0.00000000000E+00  0.00000000000E+00  0.45593999997E+02  0.45594000000E+02  0.51100000000E-03 0.  1.
         11   -1    0    0    0    0 -0.00000000000E+00 -0.00000000000E+00 -0.45593999997E+02  0.45594000000E+02  0.51100000000E-03 0. -1.
    9900012    2    1    2    0    0  0.74502948602E+01  0.15978235320E+02  0.63141535026E+01  0.72461563289E+02  0.69999990874E+02 0.  0.
         12    1    1    2    0    0 -0.74502948602E+01 -0.15978235320E+02 -0.63141535026E+01  0.18726436711E+02  0.00000000000E+00 0. -1.
         11    1    3    3    0    0 -0.10596074879E+02 -0.19667583303E+02  0.27681982836E+01  0.22511187393E+02  0.51100000000E-03 0. -1.
        -11    1    3    3    0    0  0.11914165423E+02 -0.53571011731E+00 -0.38157563020E+01  0.12521753850E+02  0.51100000000E-03 0.  1.
        -12    1    3    3    0    0  0.61322043158E+01  0.36181528741E+02  0.73617115211E+01  0.37428622046E+02  0.00000000000E+00 0.  1.
</event>
<event>
 7    1  0.3305651E-013  0.7246156E+02  0.7816164E-02  0.1226708E+00
        -11   -1    0    0    0    0  0.00000000000E+00  0.00000000000E+00  0.45593999997E+02  0.45594000000E+02  0.51100000000E-03 0.  1.
         11   -1    0    0    0    0 -0.00000000000E+00 -0.00000000000E+00 -0.45593999997E+02  0.45594000000E+02  0.51100000000E-03 0. -1.
    9900012    2    1    2    0    0  0.94842002010E+00 -0.54409210884E+01  0.17893474691E+02  0.72461559886E+02  0.69999986441E+02 0.  0.
         12    1    1    2    0    0 -0.94842002010E+00  0.54409210884E+01 -0.17893474691E+02  0.18726440114E+02  0.00000000000E+00 0. -1.
         11    1    3    3    0    0  0.79864813321E-01 -0.15465262017E+02  0.28305176915E+02  0.32254670175E+02  0.51100000000E-03 0.  1.
        -11    1    3    3    0    0  0.45096446214E+01 -0.13826703693E+02 -0.57179100686E+01  0.15627191860E+02  0.51100000000E-03 0. -1.
         12    1    3    3    0    0 -0.36410894146E+01  0.23851044621E+02 -0.46937921551E+01  0.24579697851E+02  0.00000000000E+00 0. -1.
</event>
<event>
 7    1  0.3305651E-013  0.7246154E+02  0.7816164E-02  0.1226708E+00
        -11   -1    0    0    0    0  0.00000000000E+00  0.00000000000E+00  0.45593999997E+02  0.45594000000E+02  0.51100000000E-03 0.  1.
         11   -1    0    0    0    0 -0.00000000000E+00 -0.00000000000E+00 -0.45593999997E+02  0.45594000000E+02  0.51100000000E-03 0. -1.
    9900012    2    1    2    0    0  0.37270662261E+01 -0.16673931223E+02  0.76661102296E+01  0.72461541415E+02  0.69999962380E+02 0.  0.
         12    1    1    2    0    0 -0.37270662261E+01  0.16673931223E+02 -0.76661102296E+01  0.18726458585E+02  0.00000000000E+00 0. -1.
         11    1    3    3    0    0 -0.19422031873E+01  0.77678171853E+01 -0.72396065312E+01  0.10794583829E+02  0.51100000000E-03 0. -1.
        -11    1    3    3    0    0 -0.74960868058E+01 -0.18915785445E+02  0.32907792900E+02  0.38690064490E+02  0.51100000000E-03 0.  1.
         12    1    3    3    0    0  0.13165356219E+02 -0.55259629637E+01 -0.18002076140E+02  0.22976893097E+02  0.00000000000E+00 0. -1.
</event>
<event>
 7    1  0.3305651E-013  0.7246142E+02  0.7816164E-02  0.1226708E+00
        -11   -1    0    0    0    0  0.00000000000E+00  0.00000000000E+00  0.45593999997E+02  0.45594000000E+02  0.51100000000E-03 0.  1.
         11   -1    0    0    0    0 -0.00000000000E+00 -0.00000000000E+00 -0.45593999997E+02  0.45594000000E+02  0.51100000000E-03 0. -1.
    9900012    2    1    2    0    0  0.16207168575E+02  0.45464704880E+01 -0.82062135566E+01  0.72461424017E+02  0.69999809446E+02 0.  0.
         12    1    1    2    0    0 -0.16207168575E+02 -0.45464704880E+01  0.82062135566E+01  0.18726575983E+02  0.00000000000E+00 0. -1.
         11    1    3    3    0    0  0.98310892926E+00 -0.10868308102E+02  0.24871994079E-01  0.10912710161E+02  0.51100000000E-03 0. -1.
        -11    1    3    3    0    0 -0.21791294717E+01  0.10722291739E+02  0.23011041516E+02  0.25479877890E+02  0.51100000000E-03 0.  1.
         12    1    3    3    0    0  0.17403189118E+02  0.46924868509E+01 -0.31242127066E+02  0.36068835966E+02  0.00000000000E+00 0. -1.
</event>
<event>
 7    1  0.3305651E-013  0.7246158E+02  0.7816164E-02  0.1226708E+00
        -11   -1    0    0    0    0  0.00000000000E+00  0.00000000000E+00  0.45593999997E+02  0.45594000000E+02  0.51100000000E-03 0. -1.
         11   -1    0    0    0    0 -0.00000000000E+00 -0.00000000000E+00 -0.45593999997E+02  0.45594000000E+02  0.51100000000E-03 0.  1.
    9900012    2    1    2    0    0 -0.16082571495E+02  0.95475375945E+01 -0.93507900397E+00  0.72461576082E+02  0.70000007540E+02 0.  0.
         12    1    1    2    0    0  0.16082571495E+02 -0.95475375945E+01  0.93507900397E+00  0.18726423918E+02  0.00000000000E+00 0. -1.
         11    1    3    3    0    0 -0.17876485548E+02 -0.35413339910E+00 -0.94695095422E+00  0.17905051309E+02  0.51100000000E-03 0. -1.
        -11    1    3    3    0    0  0.32489822962E+01 -0.21446579770E+02  0.62219031141E+01  0.22565986538E+02  0.51100000000E-03 0.  1.
         12    1    3    3    0    0 -0.14550682432E+01  0.31348250764E+02 -0.62100311638E+01  0.31990538235E+02  0.00000000000E+00 0. -1.
</event>
<event>
 7    1  0.3305651E-013  0.7246156E+02  0.7816164E-02  0.1226708E+00
        -11   -1    0    0    0    0  0.00000000000E+00  0.00000000000E+00  0.45593999997E+02  0.45594000000E+02  0.51100000000E-03 0.  1.
         11   -1    0    0    0    0 -0.00000000000E+00 -0.00000000000E+00 -0.45593999997E+02  0.45594000000E+02  0.51100000000E-03 0. -1.
    9900012    2    1    2    0    0 -0.38866150252E+01  0.17614177391E+02  0.50313412221E+01  0.72461563713E+02  0.69999991427E+02 0.  0.
         12    1    1    2    0    0  0.38866150252E+01 -0.17614177391E+02 -0.50313412221E+01  0.18726436287E+02  0.00000000000E+00 0. -1.
         11    1    3    3    0    0  0.45904604377E+01 -0.78260400036E+00  0.76617885729E+01  0.89659244057E+01  0.51100000000E-03 0. -1.
        -11    1    3    3    0    0 -0.12405066473E+02  0.29473855238E+02  0.20195722566E+02  0.37821436078E+02  0.51100000000E-03 0.  1.
         12    1    3    3    0    0  0.39279910096E+01 -0.11077073847E+02 -0.22826169917E+02  0.25674203229E+02  0.00000000000E+00 0. -1.
</event>
<event>
 7    1  0.3305651E-013  0.7246148E+02  0.7816164E-02  0.1226708E+00
        -11   -1    0    0    0    0  0.00000000000E+00  0.00000000000E+00  0.45593999997E+02  0.45594000000E+02  0.51100000000E-03 0.  1.
         11   -1    0    0    0    0 -0.00000000000E+00 -0.00000000000E+00 -0.45593999997E+02  0.45594000000E+02  0.51100000000E-03 0. -1.
    9900012    2    1    2    0    0 -0.16563086100E+02 -0.56993413361E+01  0.66229968589E+01  0.72461484034E+02  0.69999887630E+02 0.  0.
         12    1    1    2    0    0  0.16563086100E+02  0.56993413361E+01 -0.66229968589E+01  0.18726515966E+02  0.00000000000E+00 0. -1.
         11    1    3    3    0    0 -0.23047739500E+02  0.96329504897E+00  0.10488781423E+02  0.25340496629E+02  0.51100000000E-03 0. -1.
        -11    1    3    3    0    0  0.42206615630E+01  0.10373544237E+02  0.16832593152E+02  0.20217828681E+02  0.51100000000E-03 0.  1.
         12    1    3    3    0    0  0.22639918372E+01 -0.17036180622E+02 -0.20698377717E+02  0.26903158724E+02  0.00000000000E+00 0. -1.
</event>
<event>
 7    1  0.3305651E-013  0.7246151E+02  0.7816164E-02  0.1226708E+00
        -11   -1    0    0    0    0  0.00000000000E+00  0.00000000000E+00  0.45593999997E+02  0.45594000000E+02  0.51100000000E-03 0.  1.
         11   -1    0    0    0    0 -0.00000000000E+00 -0.00000000000E+00 -0.45593999997E+02  0.45594000000E+02  0.51100000000E-03 0. -1.
    9900012    2    1    2    0    0 -0.72341599924E+01 -0.16762455580E+02  0.41675273265E+01  0.72461514161E+02  0.69999926875E+02 0.  0.
         12    1    1    2    0    0  0.72341599924E+01  0.16762455580E+02 -0.41675273265E+01  0.18726485839E+02  0.00000000000E+00 0. -1.
         11    1    3    3    0    0  0.41524156254E+01 -0.22183558487E+02  0.70476218041E+01  0.23643641767E+02  0.51100000000E-03 0. -1.
        -11    1    3    3    0    0 -0.16486558261E+02 -0.49792472063E+01  0.18017598702E+02  0.24924553543E+02  0.51100000000E-03 0.  1.
         12    1    3    3    0    0  0.50999826437E+01  0.10400350113E+02 -0.20897693180E+02  0.23893318850E+02  0.00000000000E+00 0. -1.
</event>
<event>
 7    1  0.3305651E-013  0.7246160E+02  0.7816164E-02  0.1226708E+00
        -11   -1    0    0    0    0  0.00000000000E+00  0.00000000000E+00  0.45593999997E+02  0.45594000000E+02  0.51100000000E-03 0.  1.
         11   -1    0    0    0    0 -0.00000000000E+00 -0.00000000000E+00 -0.45593999997E+02  0.45594000000E+02  0.51100000000E-03 0. -1.
    9900012    2    1    2    0    0  0.63119966438E+01  0.10798236328E+02  0.13936817801E+02  0.72461598854E+02  0.70000037205E+02 0.  0.
         12    1    1    2    0    0 -0.63119966438E+01 -0.10798236328E+02 -0.13936817801E+02  0.18726401146E+02  0.00000000000E+00 0. -1.
         11    1    3    3    0    0 -0.31870049645E+01  0.16061136740E+02  0.56351088787E+01  0.17316800119E+02  0.51100000000E-03 0. -1.
        -11    1    3    3    0    0 -0.83212902729E+01  0.18701158539E+02  0.13924783654E+02  0.24756348733E+02  0.51100000000E-03 0.  1.
        -12    1    3    3    0    0  0.17820291881E+02 -0.23964058951E+02 -0.56230747313E+01  0.30388450003E+02  0.00000000000E+00 0.  1.
</event>
<event>
 7    1  0.3305651E-013  0.7246158E+02  0.7816164E-02  0.1226708E+00
        -11   -1    0    0    0    0  0.00000000000E+00  0.00000000000E+00  0.45593999997E+02  0.45594000000E+02  0.51100000000E-03 0. -1.
         11   -1    0    0    0    0 -0.00000000000E+00 -0.00000000000E+00 -0.45593999997E+02  0.45594000000E+02  0.51100000000E-03 0.  1.
    9900012    2    1    2    0    0  0.58387621091E+01  0.15099894442E+02 -0.94117398502E+01  0.72461580104E+02  0.70000012778E+02 0.  0.
         12    1    1    2    0    0 -0.58387621091E+01 -0.15099894442E+02  0.94117398502E+01  0.18726419896E+02  0.00000000000E+00 0. -1.
         11    1    3    3    0    0  0.58379065165E+01 -0.69876415757E+01 -0.15481466952E+02  0.17960626563E+02  0.51100000000E-03 0. -1.
        -11    1    3    3    0    0  0.11699503050E+02 -0.48798523065E+00 -0.16681835949E+02  0.20381367768E+02  0.51100000000E-03 0.  1.
         12    1    3    3    0    0 -0.11698647457E+02  0.22575521248E+02  0.22751563051E+02  0.34119585772E+02  0.00000000000E+00 0. -1.
</event>
<event>
 7    1  0.3305651E-013  0.7246157E+02  0.7816164E-02  0.1226708E+00
        -11   -1    0    0    0    0  0.00000000000E+00  0.00000000000E+00  0.45593999997E+02  0.45594000000E+02  0.51100000000E-03 0.  1.
         11   -1    0    0    0    0 -0.00000000000E+00 -0.00000000000E+00 -0.45593999997E+02  0.45594000000E+02  0.51100000000E-03 0. -1.
    9900012    2    1    2    0    0  0.13003304803E+02 -0.10613001256E+02  0.83040593379E+01  0.72461571271E+02  0.70000001272E+02 0.  0.
         12    1    1    2    0    0 -0.13003304803E+02  0.10613001256E+02 -0.83040593379E+01  0.18726428729E+02  0.00000000000E+00 0. -1.
         11    1    3    3    0    0  0.20475012094E+01 -0.28853646110E+01 -0.21296914527E+02  0.21588797067E+02  0.51100000000E-03 0. -1.
        -11    1    3    3    0    0  0.14980047524E+01 -0.76400858025E+01 -0.85518950284E+01  0.11565026509E+02  0.51100000000E-03 0.  1.
        -12    1    3    3    0    0  0.94577988409E+01 -0.87550842887E-01  0.38152868894E+02  0.39307747695E+02  0.00000000000E+00 0.  1.
</event>
<event>
 7    1  0.3305651E-013  0.7246155E+02  0.7816164E-02  0.1226708E+00
        -11   -1    0    0    0    0  0.00000000000E+00  0.00000000000E+00  0.45593999997E+02  0.45594000000E+02  0.51100000000E-03 0.  1.
         11   -1    0    0    0    0 -0.00000000000E+00 -0.00000000000E+00 -0.45593999997E+02  0.45594000000E+02  0.51100000000E-03 0. -1.
    9900012    2    1    2    0    0  0.18974302612E+01  0.17633337129E+02 -0.60120763953E+01  0.72461551258E+02  0.69999975202E+02 0.  0.
         12    1    1    2    0    0 -0.18974302612E+01 -0.17633337129E+02  0.60120763953E+01  0.18726448742E+02  0.00000000000E+00 0. -1.
         11    1    3    3    0    0 -0.12445039252E+02  0.10211804127E+02  0.45676127286E+00  0.16104923987E+02  0.51100000000E-03 0. -1.
        -11    1    3    3    0    0 -0.15641053168E+02 -0.10022525687E+02  0.59586955582E+01  0.19508962514E+02  0.51100000000E-03 0.  1.
         12    1    3    3    0    0  0.29983522682E+02  0.17444058689E+02 -0.12427533226E+02  0.36847664757E+02  0.00000000000E+00 0. -1.
</event>
<event>
 7    1  0.3305651E-013  0.7246148E+02  0.7816164E-02  0.1226708E+00
        -11   -1    0    0    0    0  0.00000000000E+00  0.00000000000E+00  0.45593999997E+02  0.45594000000E+02  0.51100000000E-03 0.  1.
         11   -1    0    0    0    0 -0.00000000000E+00 -0.00000000000E+00 -0.45593999997E+02  0.45594000000E+02  0.51100000000E-03 0. -1.
    9900012    2    1    2    0    0 -0.15901465157E+02 -0.98555003724E+01 -0.83363720266E+00  0.72461483166E+02  0.69999886499E+02 0.  0.
         12    1    1    2    0    0  0.15901465157E+02  0.98555003724E+01  0.83363720266E+00  0.18726516834E+02  0.00000000000E+00 0. -1.
         11    1    3    3    0    0 -0.10037964710E+02 -0.24745417394E+02  0.79790929309E+01  0.27870456433E+02  0.51100000000E-03 0.  1.
        -11    1    3    3    0    0 -0.20837652593E+02 -0.22417973531E+01 -0.42787926732E+01  0.21390219446E+02  0.51100000000E-03 0. -1.
         12    1    3    3    0    0  0.14974152145E+02  0.17131714375E+02 -0.45339374603E+01  0.23200807287E+02  0.00000000000E+00 0. -1.
</event>
<event>
 7    1  0.3305651E-013  0.7246116E+02  0.7816164E-02  0.1226709E+00
        -11   -1    0    0    0    0  0.00000000000E+00  0.00000000000E+00  0.45593999997E+02  0.45594000000E+02  0.51100000000E-03 0.  1.
         11   -1    0    0    0    0 -0.00000000000E+00 -0.00000000000E+00 -0.45593999997E+02  0.45594000000E+02  0.51100000000E-03 0. -1.
    9900012    2    1    2    0    0 -0.95976077357E+01  0.15815293166E+02 -0.29080803666E+01  0.72461160876E+02  0.69999466654E+02 0.  0.
         12    1    1    2    0    0  0.95976077357E+01 -0.15815293166E+02  0.29080803666E+01  0.18726839124E+02  0.00000000000E+00 0. -1.
         11    1    3    3    0    0  0.10090582881E+02 -0.89727203084E+01  0.15682025447E+01  0.13593705605E+02  0.51100000000E-03 0. -1.
        -11    1    3    3    0    0  0.87690138419E+01 -0.67267906887E+01  0.90701148425E+01  0.14297282967E+02  0.51100000000E-03 0.  1.
        -12    1    3    3    0    0 -0.28457204458E+02  0.31514804163E+02 -0.13546397754E+02  0.44570172303E+02  0.00000000000E+00 0.  1.
</event>
<event>
 7    1  0.3305651E-013  0.7246165E+02  0.7816164E-02  0.1226708E+00
        -11   -1    0    0    0    0  0.00000000000E+00  0.00000000000E+00  0.45593999997E+02  0.45594000000E+02  0.51100000000E-03 0.  1.
         11   -1    0    0    0    0 -0.00000000000E+00 -0.00000000000E+00 -0.45593999997E+02  0.45594000000E+02  0.51100000000E-03 0. -1.
    9900012    2    1    2    0    0  0.64305688512E+01  0.11295457597E+02  0.13480978333E+02  0.72461645446E+02  0.70000097898E+02 0.  0.
         12    1    1    2    0    0 -0.64305688512E+01 -0.11295457597E+02 -0.13480978333E+02  0.18726354554E+02  0.00000000000E+00 0. -1.
         11    1    3    3    0    0  0.53449903037E+01 -0.76249538603E+01 -0.99775567158E+01  0.13647728053E+02  0.51100000000E-03 0. -1.
        -11    1    3    3    0    0  0.37305929973E+01  0.62067037220E+01  0.38366068086E+02  0.39043510035E+02  0.51100000000E-03 0.  1.
         12    1    3    3    0    0 -0.26450144498E+01  0.12713707736E+02 -0.14907533038E+02  0.19770407358E+02  0.00000000000E+00 0. -1.
</event>
<event>
 7    1  0.3305651E-013  0.7246173E+02  0.7816164E-02  0.1226708E+00
        -11   -1    0    0    0    0  0.00000000000E+00  0.00000000000E+00  0.45593999997E+02  0.45594000000E+02  0.51100000000E-03 0.  1.
         11   -1    0    0    0    0 -0.00000000000E+00 -0.00000000000E+00 -0.45593999997E+02  0.45594000000E+02  0.51100000000E-03 0. -1.
    9900012    2    1    2    0    0 -0.13423289487E+01  0.16482185456E+02  0.87868588468E+01  0.72461730409E+02  0.70000208578E+02 0.  0.
         12    1    1    2    0    0  0.13423289487E+01 -0.16482185456E+02 -0.87868588468E+01  0.18726269591E+02  0.00000000000E+00 0. -1.
         11    1    3    3    0    0 -0.25129683066E+02  0.27230760985E+02 -0.11426843472E+02  0.38776127538E+02  0.51100000000E-03 0.  1.
        -11    1    3    3    0    0  0.13865251131E+02 -0.27642427782E+01  0.93947996046E+01  0.16974937023E+02  0.51100000000E-03 0. -1.
        -12    1    3    3    0    0  0.99221029859E+01 -0.79843327512E+01  0.10818902714E+02  0.16710665848E+02  0.00000000000E+00 0.  1.
</event>
<event>
 7    1  0.3305651E-013  0.7246162E+02  0.7816164E-02  0.1226708E+00
        -11   -1    0    0    0    0  0.00000000000E+00  0.00000000000E+00  0.45593999997E+02  0.45594000000E+02  0.51100000000E-03 0.  1.
         11   -1    0    0    0    0 -0.00000000000E+00 -0.00000000000E+00 -0.45593999997E+02  0.45594000000E+02  0.51100000000E-03 0. -1.
    9900012    2    1    2    0    0  0.83106122154E-01  0.18671369715E+02  0.14318695963E+01  0.72461622769E+02  0.70000068357E+02 0.  0.
         12    1    1    2    0    0 -0.83106122154E-01 -0.18671369715E+02 -0.14318695963E+01  0.18726377231E+02  0.00000000000E+00 0. -1.
         11    1    3    3    0    0 -0.15533980705E+02  0.56336665696E+01  0.19367465563E+02  0.25458622864E+02  0.51100000000E-03 0. -1.
        -11    1    3    3    0    0 -0.15168755118E+01  0.21061533331E+02 -0.26956336241E+00  0.21117806758E+02  0.51100000000E-03 0.  1.
         12    1    3    3    0    0  0.17133962339E+02 -0.80238301856E+01 -0.17666032604E+02  0.25885193147E+02  0.00000000000E+00 0. -1.
</event>
<event>
 7    1  0.3305651E-013  0.7246156E+02  0.7816164E-02  0.1226708E+00
        -11   -1    0    0    0    0  0.00000000000E+00  0.00000000000E+00  0.45593999997E+02  0.45594000000E+02  0.51100000000E-03 0. -1.
         11   -1    0    0    0    0 -0.00000000000E+00 -0.00000000000E+00 -0.45593999997E+02  0.45594000000E+02  0.51100000000E-03 0.  1.
    9900012    2    1    2    0    0  0.13974504563E+02 -0.12342545622E+02  0.17476220076E+01  0.72461564330E+02  0.69999992230E+02 0.  0.
         12    1    1    2    0    0 -0.13974504563E+02  0.12342545622E+02 -0.17476220076E+01  0.18726435670E+02  0.00000000000E+00 0. -1.
         11    1    3    3    0    0  0.65723935672E+01 -0.27198373676E+01  0.21671641835E+02  0.22809075663E+02  0.51100000000E-03 0. -1.
        -11    1    3    3    0    0 -0.28811616919E+00 -0.26624343882E+02 -0.94453531626E+01  0.28251608710E+02  0.51100000000E-03 0.  1.
        -12    1    3    3    0    0  0.76902271653E+01  0.17001635628E+02 -0.10478666665E+02  0.21400879957E+02  0.00000000000E+00 0.  1.
</event>
<event>
 7    1  0.3305651E-013  0.7246158E+02  0.7816164E-02  0.1226708E+00
        -11   -1    0    0    0    0  0.00000000000E+00  0.00000000000E+00  0.45593999997E+02  0.45594000000E+02  0.51100000000E-03 0. -1.
         11   -1    0    0    0    0 -0.00000000000E+00 -0.00000000000E+00 -0.45593999997E+02  0.45594000000E+02  0.51100000000E-03 0.  1.
    9900012    2    1    2    0    0 -0.45566728252E+01 -0.10072290272E+02 -0.15115041705E+02  0.72461580580E+02  0.70000013399E+02 0.  0.
         12    1    1    2    0    0  0.45566728252E+01  0.10072290272E+02  0.15115041705E+02  0.18726419420E+02  0.00000000000E+00 0. -1.
         11    1    3    3    0    0 -0.12511581351E+02  0.14698437462E+02 -0.14781483753E+02  0.24312054498E+02  0.51100000000E-03 0. -1.
        -11    1    3    3    0    0  0.14452598500E+02  0.41784690575E+01  0.83878637614E+01  0.17224792185E+02  0.51100000000E-03 0.  1.
        -12    1    3    3    0    0 -0.64976899746E+01 -0.28949196792E+02 -0.87214217133E+01  0.30924733897E+02  0.00000000000E+00 0.  1.
</event>
<event>
 7    1  0.3305651E-013  0.7246156E+02  0.7816164E-02  0.1226708E+00
        -11   -1    0    0    0    0  0.00000000000E+00  0.00000000000E+00  0.45593999997E+02  0.45594000000E+02  0.51100000000E-03 0.  1.
         11   -1    0    0    0    0 -0.00000000000E+00 -0.00000000000E+00 -0.45593999997E+02  0.45594000000E+02  0.51100000000E-03 0. -1.
    9900012    2    1    2    0    0  0.27464452511E+01 -0.31766673663E+00  0.18521226043E+02  0.72461556456E+02  0.69999981973E+02 0.  0.
         12    1    1    2    0    0 -0.27464452511E+01  0.31766673663E+00 -0.18521226043E+02  0.18726443544E+02  0.00000000000E+00 0. -1.
         11    1    3    3    0    0 -0.16198313755E+02  0.24279485504E+02  0.24190690158E+02  0.37908683377E+02  0.51100000000E-03 0. -1.
        -11    1    3    3    0    0 -0.21298707997E+01 -0.83319379948E+00 -0.77823320464E+00  0.24158246445E+01  0.51100000000E-03 0.  1.
        -12    1    3    3    0    0  0.21074629805E+02 -0.23763958441E+02 -0.48912309098E+01  0.32137048434E+02  0.00000000000E+00 0.  1.
</event>
<event>
 7    1  0.3305651E-013  0.7246152E+02  0.7816164E-02  0.1226708E+00
        -11   -1    0    0    0    0  0.00000000000E+00  0.00000000000E+00  0.45593999997E+02  0.45594000000E+02  0.51100000000E-03 0.  1.
         11   -1    0    0    0    0 -0.00000000000E+00 -0.00000000000E+00 -0.45593999997E+02  0.45594000000E+02  0.51100000000E-03 0. -1.
    9900012    2    1    2    0    0 -0.16464935799E+02  0.32842110657E+01  0.82946217127E+01  0.72461524023E+02  0.69999939722E+02 0.  0.
         12    1    1    2    0    0  0.16464935799E+02 -0.32842110657E+01 -0.82946217127E+01  0.18726475977E+02  0.00000000000E+00 0. -1.
         11    1    3    3    0    0  0.17417972859E+02  0.26117980913E+01  0.15891147982E+02  0.23722054131E+02  0.51100000000E-03 0.  1.
        -11    1    3    3    0    0  0.33719010920E+01  0.19699483176E+01 -0.10643937264E+02  0.11337716441E+02  0.51100000000E-03 0. -1.
        -12    1    3    3    0    0 -0.37254809749E+02 -0.12975353432E+01  0.30474109949E+01  0.37401753451E+02  0.00000000000E+00 0.  1.
</event>
<event>
 7    1  0.3305651E-013  0.7246163E+02  0.7816164E-02  0.1226708E+00
        -11   -1    0    0    0    0  0.00000000000E+00  0.00000000000E+00  0.45593999997E+02  0.45594000000E+02  0.51100000000E-03 0. -1.
         11   -1    0    0    0    0 -0.00000000000E+00 -0.00000000000E+00 -0.45593999997E+02  0.45594000000E+02  0.51100000000E-03 0.  1.
    9900012    2    1    2    0    0 -0.17771988835E+02  0.26828169169E+01 -0.52569956483E+01  0.72461625631E+02  0.70000072086E+02 0.  0.
         12    1    1    2    0    0  0.17771988835E+02 -0.26828169169E+01  0.52569956483E+01  0.18726374369E+02  0.00000000000E+00 0. -1.
         11    1    3    3    0    0  0.91377657933E+01  0.20729122898E+01  0.19472835717E+02  0.21609883391E+02  0.51100000000E-03 0. -1.
        -11    1    3    3    0    0  0.55823884247E+01 -0.34003756658E+01  0.36833128811E+01  0.75028267496E+01  0.51100000000E-03 0.  1.
        -12    1    3    3    0    0 -0.32492143053E+02  0.40102802929E+01 -0.28413144246E+02  0.43348915490E+02  0.00000000000E+00 0.  1.
</event>
<event>
 7    1  0.3305651E-013  0.7246152E+02  0.7816164E-02  0.1226708E+00
        -11   -1    0    0    0    0  0.00000000000E+00  0.00000000000E+00  0.45593999997E+02  0.45594000000E+02  0.51100000000E-03 0. -1.
         11   -1    0    0    0    0 -0.00000000000E+00 -0.00000000000E+00 -0.45593999997E+02  0.45594000000E+02  0.51100000000E-03 0.  1.
    9900012    2    1    2    0    0 -0.90463525282E+01  0.41214474147E+01 -0.15870037687E+02  0.72461523582E+02  0.69999939148E+02 0.  0.
         12    1    1    2    0    0  0.90463525282E+01 -0.41214474147E+01  0.15870037687E+02  0.18726476418E+02  0.00000000000E+00 0. -1.
         11    1    3    3    0    0  0.20135530191E+01  0.16546332492E+02 -0.17137730628E+02  0.23906846844E+02  0.51100000000E-03 0. -1.
        -11    1    3    3    0    0 -0.12869907167E+02  0.30400368074E+01  0.20136771243E+02  0.24090784351E+02  0.51100000000E-03 0.  1.
        -12    1    3    3    0    0  0.18100016200E+01 -0.15464921884E+02 -0.18869078302E+02  0.24463892387E+02  0.00000000000E+00 0.  1.
</event>
<event>
 7    1  0.3305651E-013  0.7246146E+02  0.7816164E-02  0.1226708E+00
        -11   -1    0    0    0    0  0.00000000000E+00  0.00000000000E+00  0.45593999997E+02  0.45594000000E+02  0.51100000000E-03 0.  1.
         11   -1    0    0    0    0 -0.00000000000E+00 -0.00000000000E+00 -0.45593999997E+02  0.45594000000E+02  0.51100000000E-03 0. -1.
    9900012    2    1    2    0    0 -0.34520469963E+01 -0.15645475888E+02  0.96946227108E+01  0.72461461246E+02  0.69999857944E+02 0.  0.
         12    1    1    2    0    0  0.34520469963E+01  0.15645475888E+02 -0.96946227108E+01  0.18726538754E+02  0.00000000000E+00 0. -1.
         11    1    3    3    0    0 -0.11344221392E+02 -0.34472086893E+02 -0.17611913857E+01  0.36333427159E+02  0.51100000000E-03 0. -1.
        -11    1    3    3    0    0  0.31228024204E+01 -0.19724748754E+01 -0.70002993867E+01  0.79149696054E+01  0.51100000000E-03 0.  1.
        -12    1    3    3    0    0  0.47693719750E+01  0.20799085881E+02  0.18456113483E+02  0.28213064481E+02  0.00000000000E+00 0.  1.
</event>
<event>
 7    1  0.3305651E-013  0.7246155E+02  0.7816164E-02  0.1226708E+00
        -11   -1    0    0    0    0  0.00000000000E+00  0.00000000000E+00  0.45593999997E+02  0.45594000000E+02  0.51100000000E-03 0. -1.
         11   -1    0    0    0    0 -0.00000000000E+00 -0.00000000000E+00 -0.45593999997E+02  0.45594000000E+02  0.51100000000E-03 0.  1.
    9900012    2    1    2    0    0  0.11013165061E+02 -0.13540110209E+01 -0.15084979342E+02  0.72461554735E+02  0.69999979731E+02 0.  0.
         12    1    1    2    0    0 -0.11013165061E+02  0.13540110209E+01  0.15084979342E+02  0.18726445265E+02  0.00000000000E+00 0. -1.
         11    1    3    3    0    0 -0.11802972524E+02  0.21649736433E+02 -0.12826650340E+02  0.27794679477E+02  0.51100000000E-03 0. -1.
        -11    1    3    3    0    0  0.17083646199E+01  0.66901853675E+01 -0.43742277930E+01  0.81737970964E+01  0.51100000000E-03 0.  1.
        -12    1    3    3    0    0  0.21107772965E+02 -0.29693932822E+02  0.21158987908E+01  0.36493078161E+02  0.00000000000E+00 0.  1.
</event>
<event>
 7    1  0.3305651E-013  0.7246154E+02  0.7816164E-02  0.1226708E+00
        -11   -1    0    0    0    0  0.00000000000E+00  0.00000000000E+00  0.45593999997E+02  0.45594000000E+02  0.51100000000E-03 0.  1.
         11   -1    0    0    0    0 -0.00000000000E+00 -0.00000000000E+00 -0.45593999997E+02  0.45594000000E+02  0.51100000000E-03 0. -1.
    9900012    2    1    2    0    0 -0.11198422342E+01  0.54474313245E+01  0.17881608202E+02  0.72461535663E+02  0.69999954886E+02 0.  0.
         12    1    1    2    0    0  0.11198422342E+01 -0.54474313245E+01 -0.17881608202E+02  0.18726464337E+02  0.00000000000E+00 0. -1.
         11    1    3    3    0    0  0.12092154065E+00  0.20959076421E+02 -0.18248646049E+02  0.27790476594E+02  0.51100000000E-03 0. -1.
        -11    1    3    3    0    0 -0.74214520080E+01  0.15485280016E+01  0.68130319302E+01  0.10192805954E+02  0.51100000000E-03 0.  1.
        -12    1    3    3    0    0  0.61806882332E+01 -0.17060173098E+02  0.29317222321E+02  0.34478253114E+02  0.00000000000E+00 0.  1.
</event>
<event>
 7    1  0.3305651E-013  0.7246156E+02  0.7816164E-02  0.1226708E+00
        -11   -1    0    0    0    0  0.00000000000E+00  0.00000000000E+00  0.45593999997E+02  0.45594000000E+02  0.51100000000E-03 0. -1.
         11   -1    0    0    0    0 -0.00000000000E+00 -0.00000000000E+00 -0.45593999997E+02  0.45594000000E+02  0.51100000000E-03 0.  1.
    9900012    2    1    2    0    0 -0.16756813883E+02 -0.83233348966E+01  0.78166466723E+00  0.72461555731E+02  0.69999981028E+02 0.  0.
         12    1    1    2    0    0  0.16756813883E+02  0.83233348966E+01 -0.78166466723E+00  0.18726444269E+02  0.00000000000E+00 0. -1.
         11    1    3    3    0    0 -0.12215409478E+02  0.87884219725E+00  0.29434592807E+01  0.12595735196E+02  0.51100000000E-03 0. -1.
        -11    1    3    3    0    0 -0.11016820401E+02 -0.32390583837E+02  0.53873598689E+01  0.34634432285E+02  0.51100000000E-03 0.  1.
        -12    1    3    3    0    0  0.64754159958E+01  0.23188406743E+02 -0.75491544824E+01  0.25231388250E+02  0.00000000000E+00 0.  1.
</event>
<event>
 7    1  0.3305651E-013  0.7246156E+02  0.7816164E-02  0.1226708E+00
        -11   -1    0    0    0    0  0.00000000000E+00  0.00000000000E+00  0.45593999997E+02  0.45594000000E+02  0.51100000000E-03 0. -1.
         11   -1    0    0    0    0 -0.00000000000E+00 -0.00000000000E+00 -0.45593999997E+02  0.45594000000E+02  0.51100000000E-03 0.  1.
    9900012    2    1    2    0    0  0.10068258153E+02 -0.31578930243E+01 -0.15470534505E+02  0.72461560177E+02  0.69999986820E+02 0.  0.
         12    1    1    2    0    0 -0.10068258153E+02  0.31578930243E+01  0.15470534505E+02  0.18726439823E+02  0.00000000000E+00 0. -1.
         11    1    3    3    0    0 -0.89347501645E+01  0.25542642160E+01 -0.13499200053E+02  0.16388484631E+02  0.51100000000E-03 0. -1.
        -11    1    3    3    0    0  0.10616910356E+02 -0.57054013423E+01 -0.27058435945E+02  0.29621433895E+02  0.51100000000E-03 0.  1.
        -12    1    3    3    0    0  0.83860979620E+01 -0.67558980308E-02  0.25087101493E+02  0.26451641650E+02  0.00000000000E+00 0.  1.
</event>
<event>
 7    1  0.3305651E-013  0.7246157E+02  0.7816164E-02  0.1226708E+00
        -11   -1    0    0    0    0  0.00000000000E+00  0.00000000000E+00  0.45593999997E+02  0.45594000000E+02  0.51100000000E-03 0.  1.
         11   -1    0    0    0    0 -0.00000000000E+00 -0.00000000000E+00 -0.45593999997E+02  0.45594000000E+02  0.51100000000E-03 0. -1.
    9900012    2    1    2    0    0  0.26745066727E+01  0.15731551410E+02  0.98002377502E+01  0.72461565324E+02  0.69999993525E+02 0.  0.
         12    1    1    2    0    0 -0.26745066727E+01 -0.15731551410E+02 -0.98002377502E+01  0.18726434676E+02  0.00000000000E+00 0. -1.
         11    1    3    3    0    0  0.29293808520E+01  0.13125284156E+02 -0.65264585515E+01  0.14948211192E+02  0.51100000000E-03 0. -1.
        -11    1    3    3    0    0  0.13815804841E+02  0.24909131549E+02  0.11431640151E+02  0.30692404512E+02  0.51100000000E-03 0.  1.
         12    1    3    3    0    0 -0.14070679020E+02 -0.22302864294E+02  0.48950561507E+01  0.26820949620E+02  0.00000000000E+00 0. -1.
</event>
<event>
 7    1  0.3305651E-013  0.7246157E+02  0.7816164E-02  0.1226708E+00
        -11   -1    0    0    0    0  0.00000000000E+00  0.00000000000E+00  0.45593999997E+02  0.45594000000E+02  0.51100000000E-03 0.  1.
         11   -1    0    0    0    0 -0.00000000000E+00 -0.00000000000E+00 -0.45593999997E+02  0.45594000000E+02  0.51100000000E-03 0. -1.
    9900012    2    1    2    0    0 -0.37249619319E+01 -0.12545943849E+02  0.13394150317E+02  0.72461566512E+02  0.69999995073E+02 0.  0.
         12    1    1    2    0    0  0.37249619319E+01  0.12545943849E+02 -0.13394150317E+02  0.18726433488E+02  0.00000000000E+00 0. -1.
         11    1    3    3    0    0 -0.24074255140E+02  0.94546684692E+01 -0.10465474720E+01  0.25885435641E+02  0.51100000000E-03 0. -1.
        -11    1    3    3    0    0 -0.13625080175E+01  0.75160782255E+01  0.25614520864E+01  0.80566058016E+01  0.51100000000E-03 0.  1.
        -12    1    3    3    0    0  0.21711801226E+02 -0.29516690544E+02  0.11879245703E+02  0.38519525070E+02  0.00000000000E+00 0.  1.
</event>
<event>
 7    1  0.3305651E-013  0.7246174E+02  0.7816164E-02  0.1226708E+00
        -11   -1    0    0    0    0  0.00000000000E+00  0.00000000000E+00  0.45593999997E+02  0.45594000000E+02  0.51100000000E-03 0.  1.
         11   -1    0    0    0    0 -0.00000000000E+00 -0.00000000000E+00 -0.45593999997E+02  0.45594000000E+02  0.51100000000E-03 0. -1.
    9900012    2    1    2    0    0  0.23016853412E+01  0.14066050397E+02  0.12145826844E+02  0.72461744664E+02  0.70000227148E+02 0.  0.
         12    1    1    2    0    0 -0.23016853412E+01 -0.14066050397E+02 -0.12145826844E+02  0.18726255336E+02  0.00000000000E+00 0. -1.
         11    1    3    3    0    0 -0.23654439661E+01  0.86844208800E+01  0.12343933923E+02  0.15277015288E+02  0.51100000000E-03 0. -1.
        -11    1    3    3    0    0  0.18548628685E+02  0.14476920601E+02  0.20114025359E+02  0.30954916776E+02  0.51100000000E-03 0.  1.
         12    1    3    3    0    0 -0.13881499378E+02 -0.90952910834E+01 -0.20312132437E+02  0.26229812600E+02  0.00000000000E+00 0. -1.
</event>
<event>
 7    1  0.3305651E-013  0.7246158E+02  0.7816164E-02  0.1226708E+00
        -11   -1    0    0    0    0  0.00000000000E+00  0.00000000000E+00  0.45593999997E+02  0.45594000000E+02  0.51100000000E-03 0.  1.
         11   -1    0    0    0    0 -0.00000000000E+00 -0.00000000000E+00 -0.45593999997E+02  0.45594000000E+02  0.51100000000E-03 0. -1.
    9900012    2    1    2    0    0  0.18251060283E+02  0.25164662042E+01  0.33533441182E+01  0.72461582286E+02  0.70000015622E+02 0.  0.
         12    1    1    2    0    0 -0.18251060283E+02 -0.25164662042E+01 -0.33533441182E+01  0.18726417714E+02  0.00000000000E+00 0. -1.
         11    1    3    3    0    0  0.27783158274E+01  0.55734486662E+01  0.44257562276E+01  0.76400057146E+01  0.51100000000E-03 0. -1.
        -11    1    3    3    0    0 -0.45362738428E+01  0.18390599983E+02  0.20874775126E+02  0.28187731107E+02  0.51100000000E-03 0.  1.
         12    1    3    3    0    0  0.20009018298E+02 -0.21447582445E+02 -0.21947187236E+02  0.36633845465E+02  0.00000000000E+00 0. -1.
</event>
<event>
 7    1  0.3305651E-013  0.7246155E+02  0.7816164E-02  0.1226708E+00
        -11   -1    0    0    0    0  0.00000000000E+00  0.00000000000E+00  0.45593999997E+02  0.45594000000E+02  0.51100000000E-03 0.  1.
         11   -1    0    0    0    0 -0.00000000000E+00 -0.00000000000E+00 -0.45593999997E+02  0.45594000000E+02  0.51100000000E-03 0. -1.
    9900012    2    1    2    0    0  0.15462601191E+02  0.36030510995E+01  0.99300593883E+01  0.72461545657E+02  0.69999967905E+02 0.  0.
         12    1    1    2    0    0 -0.15462601191E+02 -0.36030510995E+01 -0.99300593883E+01  0.18726454343E+02  0.00000000000E+00 0. -1.
         11    1    3    3    0    0 -0.45846253867E+01 -0.11520045007E+02  0.74834878086E+01  0.14482155121E+02  0.51100000000E-03 0. -1.
        -11    1    3    3    0    0 -0.11679954774E+02  0.19258179856E+02  0.10701200113E+02  0.24936208994E+02  0.51100000000E-03 0.  1.
        -12    1    3    3    0    0  0.31727181352E+02 -0.41350837493E+01 -0.82546285335E+01  0.33043181542E+02  0.00000000000E+00 0.  1.
</event>
<event>
 7    1  0.3305651E-013  0.7246154E+02  0.7816164E-02  0.1226708E+00
        -11   -1    0    0    0    0  0.00000000000E+00  0.00000000000E+00  0.45593999997E+02  0.45594000000E+02  0.51100000000E-03 0.  1.
         11   -1    0    0    0    0 -0.00000000000E+00 -0.00000000000E+00 -0.45593999997E+02  0.45594000000E+02  0.51100000000E-03 0. -1.
    9900012    2    1    2    0    0  0.10716709274E+01  0.18209687458E+02 -0.42354521480E+01  0.72461541424E+02  0.69999962391E+02 0.  0.
         12    1    1    2    0    0 -0.10716709274E+01 -0.18209687458E+02  0.42354521480E+01  0.18726458576E+02  0.00000000000E+00 0. -1.
         11    1    3    3    0    0 -0.58315842249E+01 -0.52852203717E+01 -0.13736513508E+02  0.15831384417E+02  0.51100000000E-03 0. -1.
        -11    1    3    3    0    0 -0.16507749308E+02  0.69422978647E+01  0.19301649526E+02  0.26329735311E+02  0.51100000000E-03 0.  1.
         12    1    3    3    0    0  0.23411004461E+02  0.16552609965E+02 -0.98005881664E+01  0.30300421695E+02  0.00000000000E+00 0. -1.
</event>
<event>
 7    1  0.3305651E-013  0.7246158E+02  0.7816164E-02  0.1226708E+00
        -11   -1    0    0    0    0  0.00000000000E+00  0.00000000000E+00  0.45593999997E+02  0.45594000000E+02  0.51100000000E-03 0. -1.
         11   -1    0    0    0    0 -0.00000000000E+00 -0.00000000000E+00 -0.45593999997E+02  0.45594000000E+02  0.51100000000E-03 0.  1.
    9900012    2    1    2    0    0  0.17722573336E+01 -0.17264157719E+02 -0.70346899865E+01  0.72461577464E+02  0.70000009340E+02 0.  0.
         12    1    1    2    0    0 -0.17722573336E+01  0.17264157719E+02  0.70346899865E+01  0.18726422536E+02  0.00000000000E+00 0. -1.
         11    1    3    3    0    0 -0.67736590271E+01 -0.94086818590E+01  0.47507105267E+01  0.12528966506E+02  0.51100000000E-03 0. -1.
        -11    1    3    3    0    0 -0.17963522467E+02  0.15210824299E+02 -0.63031556658E+01  0.24367746857E+02  0.51100000000E-03 0.  1.
         12    1    3    3    0    0  0.26509438828E+02 -0.23066300159E+02 -0.54822448475E+01  0.35564864101E+02  0.00000000000E+00 0. -1.
</event>
<event>
 7    1  0.3305651E-013  0.7246164E+02  0.7816164E-02  0.1226708E+00
        -11   -1    0    0    0    0  0.00000000000E+00  0.00000000000E+00  0.45593999997E+02  0.45594000000E+02  0.51100000000E-03 0. -1.
         11   -1    0    0    0    0 -0.00000000000E+00 -0.00000000000E+00 -0.45593999997E+02  0.45594000000E+02  0.51100000000E-03 0.  1.
    9900012    2    1    2    0    0  0.12385904008E+02  0.14026588734E+02  0.72165676729E+00  0.72461638952E+02  0.70000089439E+02 0.  0.
         12    1    1    2    0    0 -0.12385904008E+02 -0.14026588734E+02 -0.72165676729E+00  0.18726361048E+02  0.00000000000E+00 0. -1.
         11    1    3    3    0    0  0.10194540353E+01  0.37457734038E+02  0.72905946510E+01  0.38174256986E+02  0.51100000000E-03 0. -1.
        -11    1    3    3    0    0  0.63557525339E+01 -0.41134652859E+01  0.68734051083E+01  0.10225452800E+02  0.51100000000E-03 0.  1.
        -12    1    3    3    0    0  0.50106974384E+01 -0.19317680017E+02 -0.13442342992E+02  0.24061929166E+02  0.00000000000E+00 0.  1.
</event>
<event>
 7    1  0.3305651E-013  0.7246154E+02  0.7816164E-02  0.1226708E+00
        -11   -1    0    0    0    0  0.00000000000E+00  0.00000000000E+00  0.45593999997E+02  0.45594000000E+02  0.51100000000E-03 0. -1.
         11   -1    0    0    0    0 -0.00000000000E+00 -0.00000000000E+00 -0.45593999997E+02  0.45594000000E+02  0.51100000000E-03 0.  1.
    9900012    2    1    2    0    0  0.53615334499E+01  0.10726986306E+02 -0.14382833969E+02  0.72461543071E+02  0.69999964536E+02 0.  0.
         12    1    1    2    0    0 -0.53615334499E+01 -0.10726986306E+02  0.14382833969E+02  0.18726456929E+02  0.00000000000E+00 0. -1.
         11    1    3    3    0    0 -0.36693193808E+01 -0.25851890866E+02 -0.81323937831E+01  0.27348125986E+02  0.51100000000E-03 0. -1.
        -11    1    3    3    0    0  0.79779352857E+01  0.76947164741E+00 -0.46206473495E+01  0.92514820557E+01  0.51100000000E-03 0.  1.
        -12    1    3    3    0    0  0.10529175451E+01  0.35809405524E+02 -0.16297928364E+01  0.35861935029E+02  0.00000000000E+00 0.  1.
</event>
<event>
 7    1  0.3305651E-013  0.7246123E+02  0.7816164E-02  0.1226709E+00
        -11   -1    0    0    0    0  0.00000000000E+00  0.00000000000E+00  0.45593999997E+02  0.45594000000E+02  0.51100000000E-03 0.  1.
         11   -1    0    0    0    0 -0.00000000000E+00 -0.00000000000E+00 -0.45593999997E+02  0.45594000000E+02  0.51100000000E-03 0. -1.
    9900012    2    1    2    0    0  0.62105608151E+01  0.17736891895E+01  0.17577680257E+02  0.72461230866E+02  0.69999557831E+02 0.  0.
         12    1    1    2    0    0 -0.62105608151E+01 -0.17736891895E+01 -0.17577680257E+02  0.18726769134E+02  0.00000000000E+00 0. -1.
         11    1    3    3    0    0  0.12929908690E+02  0.49000901062E+01 -0.17043773649E+02  0.21947292367E+02  0.51100000000E-03 0. -1.
        -11    1    3    3    0    0  0.84964865554E+01  0.18250545933E+00 -0.36097079050E+01  0.92332867089E+01  0.51100000000E-03 0.  1.
        -12    1    3    3    0    0 -0.15215834431E+02 -0.33089063761E+01  0.38231161811E+02  0.41280651790E+02  0.00000000000E+00 0.  1.
</event>
<event>
 7    1  0.3305651E-013  0.7246157E+02  0.7816164E-02  0.1226708E+00
        -11   -1    0    0    0    0  0.00000000000E+00  0.00000000000E+00  0.45593999997E+02  0.45594000000E+02  0.51100000000E-03 0. -1.
         11   -1    0    0    0    0 -0.00000000000E+00 -0.00000000000E+00 -0.45593999997E+02  0.45594000000E+02  0.51100000000E-03 0.  1.
    9900012    2    1    2    0    0 -0.58022363511E+01 -0.12914964062E+02 -0.12256300588E+02  0.72461570882E+02  0.70000000766E+02 0.  0.
         12    1    1    2    0    0  0.58022363511E+01  0.12914964062E+02  0.12256300588E+02  0.18726429118E+02  0.00000000000E+00 0. -1.
         11    1    3    3    0    0  0.19294897250E+02 -0.12853671596E+02  0.12573159351E+02  0.26374121212E+02  0.51100000000E-03 0. -1.
        -11    1    3    3    0    0 -0.10996236272E+02  0.86971193292E+01  0.23739324568E+01  0.14219446274E+02  0.51100000000E-03 0.  1.
        -12    1    3    3    0    0 -0.14100897329E+02 -0.87584117952E+01 -0.27203392395E+02  0.31868003396E+02  0.00000000000E+00 0.  1.
</event>
<event>
 7    1  0.3305651E-013  0.7246155E+02  0.7816164E-02  0.1226708E+00
        -11   -1    0    0    0    0  0.00000000000E+00  0.00000000000E+00  0.45593999997E+02  0.45594000000E+02  0.51100000000E-03 0. -1.
         11   -1    0    0    0    0 -0.00000000000E+00 -0.00000000000E+00 -0.45593999997E+02  0.45594000000E+02  0.51100000000E-03 0.  1.
    9900012    2    1    2    0    0  0.20055193463E+01 -0.13535082634E+02 -0.12785116526E+02  0.72461554146E+02  0.69999978963E+02 0.  0.
         12    1    1    2    0    0 -0.20055193463E+01  0.13535082634E+02  0.12785116526E+02  0.18726445854E+02  0.00000000000E+00 0. -1.
         11    1    3    3    0    0  0.40739783504E+01 -0.31065956710E+02 -0.27071246552E+02  0.41407044763E+02  0.51100000000E-03 0. -1.
        -11    1    3    3    0    0 -0.24717638504E+01 -0.26289222773E+01 -0.28456726540E+01  0.45955088932E+01  0.51100000000E-03 0.  1.
         12    1    3    3    0    0  0.40330484629E+00  0.20159796354E+02  0.17131802680E+02  0.26459000489E+02  0.00000000000E+00 0. -1.
</event>
<event>
 7    1  0.3305651E-013  0.7246170E+02  0.7816164E-02  0.1226708E+00
        -11   -1    0    0    0    0  0.00000000000E+00  0.00000000000E+00  0.45593999997E+02  0.45594000000E+02  0.51100000000E-03 0.  1.
         11   -1    0    0    0    0 -0.00000000000E+00 -0.00000000000E+00 -0.45593999997E+02  0.45594000000E+02  0.51100000000E-03 0. -1.
    9900012    2    1    2    0    0  0.14866615147E+02  0.90299647106E+01  0.69366907996E+01  0.72461703306E+02  0.70000173273E+02 0.  0.
         12    1    1    2    0    0 -0.14866615147E+02 -0.90299647106E+01 -0.69366907996E+01  0.18726296694E+02  0.00000000000E+00 0. -1.
         11    1    3    3    0    0  0.50201439914E+01 -0.26514593561E+02 -0.56077949767E+00  0.26991479976E+02  0.51100000000E-03 0. -1.
        -11    1    3    3    0    0 -0.47362879324E+01 -0.12229939540E+01  0.28054152580E+01  0.56390152173E+01  0.51100000000E-03 0.  1.
        -12    1    3    3    0    0  0.14582759088E+02  0.36767552225E+02  0.46920550393E+01  0.39831208113E+02  0.00000000000E+00 0.  1.
</event>
<event>
 7    1  0.3305651E-013  0.7246156E+02  0.7816164E-02  0.1226708E+00
        -11   -1    0    0    0    0  0.00000000000E+00  0.00000000000E+00  0.45593999997E+02  0.45594000000E+02  0.51100000000E-03 0.  1.
         11   -1    0    0    0    0 -0.00000000000E+00 -0.00000000000E+00 -0.45593999997E+02  0.45594000000E+02  0.51100000000E-03 0. -1.
    9900012    2    1    2    0    0 -0.27995343077E+01  0.15071429767E+02  0.10756113806E+02  0.72461564894E+02  0.69999992965E+02 0.  0.
         12    1    1    2    0    0  0.27995343077E+01 -0.15071429767E+02 -0.10756113806E+02  0.18726435106E+02  0.00000000000E+00 0. -1.
         11    1    3    3    0    0 -0.69950541735E+01 -0.16875640899E+00 -0.49975840551E+01  0.85985526843E+01  0.51100000000E-03 0. -1.
        -11    1    3    3    0    0  0.16161769714E+02 -0.86151926807E+01 -0.14616807127E+02  0.23432357886E+02  0.51100000000E-03 0.  1.
        -12    1    3    3    0    0 -0.11966249849E+02  0.23855378857E+02  0.30370504988E+02  0.40430654324E+02  0.00000000000E+00 0.  1.
</event>
<event>
 7    1  0.3305651E-013  0.7246156E+02  0.7816164E-02  0.1226708E+00
        -11   -1    0    0    0    0  0.00000000000E+00  0.00000000000E+00  0.45593999997E+02  0.45594000000E+02  0.51100000000E-03 0.  1.
         11   -1    0    0    0    0 -0.00000000000E+00 -0.00000000000E+00 -0.45593999997E+02  0.45594000000E+02  0.51100000000E-03 0. -1.
    9900012    2    1    2    0    0  0.42945407821E+01 -0.18177950892E+02 -0.13411028000E+01  0.72461560512E+02  0.69999987257E+02 0.  0.
         12    1    1    2    0    0 -0.42945407821E+01  0.18177950892E+02  0.13411028000E+01  0.18726439488E+02  0.00000000000E+00 0. -1.
         11    1    3    3    0    0 -0.13943043940E+02  0.10606325296E+02  0.11043894258E+01  0.17553412399E+02  0.51100000000E-03 0. -1.
        -11    1    3    3    0    0  0.53266574444E+01  0.74154103047E+01 -0.12217434787E+02  0.15252124526E+02  0.51100000000E-03 0.  1.
        -12    1    3    3    0    0  0.12910927278E+02 -0.36199686493E+02  0.97719425615E+01  0.39656023587E+02  0.00000000000E+00 0.  1.
</event>
<event>
 7    1  0.3305651E-013  0.7246157E+02  0.7816164E-02  0.1226708E+00
        -11   -1    0    0    0    0  0.00000000000E+00  0.00000000000E+00  0.45593999997E+02  0.45594000000E+02  0.51100000000E-03 0. -1.
         11   -1    0    0    0    0 -0.00000000000E+00 -0.00000000000E+00 -0.45593999997E+02  0.45594000000E+02  0.51100000000E-03 0.  1.
    9900012    2    1    2    0    0  0.68279936412E+01 -0.17433165266E+02  0.37736365639E+00  0.72461570770E+02  0.70000000620E+02 0.  0.
         12    1    1    2    0    0 -0.68279936412E+01  0.17433165266E+02 -0.37736365639E+00  0.18726429230E+02  0.00000000000E+00 0. -1.
         11    1    3    3    0    0  0.91931576096E+01 -0.29356390799E+01 -0.12414629212E+02  0.15724348710E+02  0.51100000000E-03 0. -1.
        -11    1    3    3    0    0 -0.19256800098E+02  0.89475886928E+01 -0.62453883427E+01  0.22133426514E+02  0.51100000000E-03 0.  1.
         12    1    3    3    0    0  0.16891636130E+02 -0.23445114879E+02  0.19037381211E+02  0.34603795546E+02  0.00000000000E+00 0. -1.
</event>
<event>
 7    1  0.3305651E-013  0.7246148E+02  0.7816164E-02  0.1226708E+00
        -11   -1    0    0    0    0  0.00000000000E+00  0.00000000000E+00  0.45593999997E+02  0.45594000000E+02  0.51100000000E-03 0.  1.
         11   -1    0    0    0    0 -0.00000000000E+00 -0.00000000000E+00 -0.45593999997E+02  0.45594000000E+02  0.51100000000E-03 0. -1.
    9900012    2    1    2    0    0 -0.11081621463E+02  0.51541650181E+01  0.14188547312E+02  0.72461478003E+02  0.69999879774E+02 0.  0.
         12    1    1    2    0    0  0.11081621463E+02 -0.51541650181E+01 -0.14188547312E+02  0.18726521997E+02  0.00000000000E+00 0. -1.
         11    1    3    3    0    0 -0.16774139229E+02 -0.36253040878E+01 -0.13374200691E+02  0.21757385435E+02  0.51100000000E-03 0. -1.
        -11    1    3    3    0    0  0.11238452240E+01  0.17447160445E+02 -0.37613554561E+01  0.17883350659E+02  0.51100000000E-03 0.  1.
        -12    1    3    3    0    0  0.45686725418E+01 -0.86676913391E+01  0.31324103459E+02  0.32820741909E+02  0.00000000000E+00 0.  1.
</event>
<event>
 7    1  0.3305651E-013  0.7246158E+02  0.7816164E-02  0.1226708E+00
        -11   -1    0    0    0    0  0.00000000000E+00  0.00000000000E+00  0.45593999997E+02  0.45594000000E+02  0.51100000000E-03 0. -1.
         11   -1    0    0    0    0 -0.00000000000E+00 -0.00000000000E+00 -0.45593999997E+02  0.45594000000E+02  0.51100000000E-03 0.  1.
    9900012    2    1    2    0    0 -0.17849446972E+02  0.56179703992E+01 -0.71713997039E+00  0.72461584477E+02  0.70000018476E+02 0.  0.
         12    1    1    2    0    0  0.17849446972E+02 -0.56179703992E+01  0.71713997039E+00  0.18726415523E+02  0.00000000000E+00 0. -1.
         11    1    3    3    0    0  0.15064850437E+02  0.15479653764E+02  0.74051176021E-01  0.21600344516E+02  0.51100000000E-03 0. -1.
        -11    1    3    3    0    0  0.82262717873E+01  0.10212523982E+01  0.24350274442E+00  0.82929969146E+01  0.51100000000E-03 0.  1.
        -12    1    3    3    0    0 -0.41140569196E+02 -0.10882935763E+02 -0.10346938908E+01  0.42568243047E+02  0.00000000000E+00 0.  1.
</event>
<event>
 7    1  0.3305651E-013  0.7246177E+02  0.7816164E-02  0.1226707E+00
        -11   -1    0    0    0    0  0.00000000000E+00  0.00000000000E+00  0.45593999997E+02  0.45594000000E+02  0.51100000000E-03 0.  1.
         11   -1    0    0    0    0 -0.00000000000E+00 -0.00000000000E+00 -0.45593999997E+02  0.45594000000E+02  0.51100000000E-03 0. -1.
    9900012    2    1    2    0    0 -0.10207095383E+02 -0.19738894304E+01  0.15575323143E+02  0.72461769022E+02  0.70000258879E+02 0.  0.
         12    1    1    2    0    0  0.10207095383E+02  0.19738894304E+01 -0.15575323143E+02  0.18726230978E+02  0.00000000000E+00 0. -1.
         11    1    3    3    0    0  0.38767292241E+01  0.69915304803E+01 -0.76258935024E+01  0.11048293077E+02  0.51100000000E-03 0. -1.
        -11    1    3    3    0    0  0.13918792306E+02 -0.12264391542E+02 -0.72456289191E+01  0.19916004063E+02  0.51100000000E-03 0.  1.
        -12    1    3    3    0    0 -0.28002616913E+02  0.32989716311E+01  0.30446845564E+02  0.41497471882E+02  0.00000000000E+00 0.  1.
</event>
<event>
 7    1  0.3305651E-013  0.7246156E+02  0.7816164E-02  0.1226708E+00
        -11   -1    0    0    0    0  0.00000000000E+00  0.00000000000E+00  0.45593999997E+02  0.45594000000E+02  0.51100000000E-03 0. -1.
         11   -1    0    0    0    0 -0.00000000000E+00 -0.00000000000E+00 -0.45593999997E+02  0.45594000000E+02  0.51100000000E-03 0.  1.
    9900012    2    1    2    0    0 -0.18325978516E+02 -0.56477418124E+00  0.38104129029E+01  0.72461555999E+02  0.69999981378E+02 0.  0.
         12    1    1    2    0    0  0.18325978516E+02  0.56477418124E+00 -0.38104129029E+01  0.18726444001E+02  0.00000000000E+00 0. -1.
         11    1    3    3    0    0 -0.26120697890E+02 -0.70728163761E+01 -0.92179504878E+01  0.28588217874E+02  0.51100000000E-03 0. -1.
        -11    1    3    3    0    0 -0.37582263160E+01 -0.12738073272E+02  0.16476550066E+02  0.21162690709E+02  0.51100000000E-03 0.  1.
         12    1    3    3    0    0  0.11552945690E+02  0.19246115467E+02 -0.34481866751E+01  0.22710647416E+02  0.00000000000E+00 0. -1.
</event>
<event>
 7    1  0.3305651E-013  0.7246158E+02  0.7816164E-02  0.1226708E+00
        -11   -1    0    0    0    0  0.00000000000E+00  0.00000000000E+00  0.45593999997E+02  0.45594000000E+02  0.51100000000E-03 0. -1.
         11   -1    0    0    0    0 -0.00000000000E+00 -0.00000000000E+00 -0.45593999997E+02  0.45594000000E+02  0.51100000000E-03 0.  1.
    9900012    2    1    2    0    0  0.24695914355E+01 -0.35181366386E+01 -0.18226427263E+02  0.72461579679E+02  0.70000012225E+02 0.  0.
         12    1    1    2    0    0 -0.24695914355E+01  0.35181366386E+01  0.18226427263E+02  0.18726420321E+02  0.00000000000E+00 0. -1.
         11    1    3    3    0    0 -0.82003771305E+01 -0.88568566855E+01  0.99351846236E+01  0.15633233485E+02  0.51100000000E-03 0. -1.
        -11    1    3    3    0    0 -0.11208633027E+02 -0.11687308284E+02  0.14579744366E+01  0.16258915062E+02  0.51100000000E-03 0.  1.
        -12    1    3    3    0    0  0.21878601593E+02  0.17026028331E+02 -0.29619586324E+02  0.40569431132E+02  0.00000000000E+00 0.  1.
</event>
<event>
 7    1  0.3305651E-013  0.7246156E+02  0.7816164E-02  0.1226708E+00
        -11   -1    0    0    0    0  0.00000000000E+00  0.00000000000E+00  0.45593999997E+02  0.45594000000E+02  0.51100000000E-03 0.  1.
         11   -1    0    0    0    0 -0.00000000000E+00 -0.00000000000E+00 -0.45593999997E+02  0.45594000000E+02  0.51100000000E-03 0. -1.
    9900012    2    1    2    0    0  0.10017873860E+02  0.15581062839E+01  0.15744649947E+02  0.72461561636E+02  0.69999988720E+02 0.  0.
         12    1    1    2    0    0 -0.10017873860E+02 -0.15581062839E+01 -0.15744649947E+02  0.18726438364E+02  0.00000000000E+00 0. -1.
         11    1    3    3    0    0  0.13102711088E+01 -0.39299951988E+01 -0.70832403440E+01  0.82057276748E+01  0.51100000000E-03 0. -1.
        -11    1    3    3    0    0  0.14595922237E+01  0.52835110231E+01 -0.20041493332E+02  0.20777568516E+02  0.51100000000E-03 0.  1.
         12    1    3    3    0    0  0.72480105277E+01  0.20459045956E+00  0.42869383623E+02  0.43478265445E+02  0.00000000000E+00 0. -1.
</event>
<event>
 7    1  0.3305651E-013  0.7246156E+02  0.7816164E-02  0.1226708E+00
        -11   -1    0    0    0    0  0.00000000000E+00  0.00000000000E+00  0.45593999997E+02  0.45594000000E+02  0.51100000000E-03 0. -1.
         11   -1    0    0    0    0 -0.00000000000E+00 -0.00000000000E+00 -0.45593999997E+02  0.45594000000E+02  0.51100000000E-03 0.  1.
    9900012    2    1    2    0    0 -0.82234630267E+01  0.55400751867E+00 -0.16815090349E+02  0.72461560618E+02  0.69999987394E+02 0.  0.
         12    1    1    2    0    0  0.82234630267E+01 -0.55400751867E+00  0.16815090349E+02  0.18726439382E+02  0.00000000000E+00 0. -1.
         11    1    3    3    0    0 -0.60819449224E+01 -0.17884655324E+02 -0.49127902113E+01  0.19518874404E+02  0.51100000000E-03 0. -1.
        -11    1    3    3    0    0  0.38993172637E+01 -0.11260047997E+02 -0.18424383480E+02  0.21941997696E+02  0.51100000000E-03 0.  1.
         12    1    3    3    0    0 -0.60408353680E+01  0.29698710839E+02  0.65220833421E+01  0.31000688518E+02  0.00000000000E+00 0. -1.
</event>
<event>
 7    1  0.3305651E-013  0.7246164E+02  0.7816164E-02  0.1226708E+00
        -11   -1    0    0    0    0  0.00000000000E+00  0.00000000000E+00  0.45593999997E+02  0.45594000000E+02  0.51100000000E-03 0.  1.
         11   -1    0    0    0    0 -0.00000000000E+00 -0.00000000000E+00 -0.45593999997E+02  0.45594000000E+02  0.51100000000E-03 0. -1.
    9900012    2    1    2    0    0  0.62705952606E+01 -0.13334042058E+02  0.11556792380E+02  0.72461641768E+02  0.70000093107E+02 0.  0.
         12    1    1    2    0    0 -0.62705952606E+01  0.13334042058E+02 -0.11556792380E+02  0.18726358232E+02  0.00000000000E+00 0. -1.
         11    1    3    3    0    0  0.11297347502E+02  0.31774702033E+01  0.49085087195E+01  0.12720842566E+02  0.51100000000E-03 0. -1.
        -11    1    3    3    0    0 -0.14431237818E+02  0.18084268171E+02  0.59208533165E+01  0.23882166663E+02  0.51100000000E-03 0.  1.
         12    1    3    3    0    0  0.94044855766E+01 -0.34595780433E+02  0.72743034427E+00  0.35858632539E+02  0.00000000000E+00 0. -1.
</event>
<event>
 7    1  0.3305651E-013  0.7246158E+02  0.7816164E-02  0.1226708E+00
        -11   -1    0    0    0    0  0.00000000000E+00  0.00000000000E+00  0.45593999997E+02  0.45594000000E+02  0.51100000000E-03 0.  1.
         11   -1    0    0    0    0 -0.00000000000E+00 -0.00000000000E+00 -0.45593999997E+02  0.45594000000E+02  0.51100000000E-03 0. -1.
    9900012    2    1    2    0    0 -0.58332277538E+01  0.98933600582E+01  0.14790996332E+02  0.72461583051E+02  0.70000016617E+02 0.  0.
         12    1    1    2    0    0  0.58332277538E+01 -0.98933600582E+01 -0.14790996332E+02  0.18726416949E+02  0.00000000000E+00 0. -1.
         11    1    3    3    0    0 -0.24906917035E+02 -0.96269943261E+01 -0.11156322571E+02  0.28939541626E+02  0.51100000000E-03 0. -1.
        -11    1    3    3    0    0  0.58331628297E+00 -0.45364991393E+01  0.39775960078E+01  0.60614645581E+01  0.51100000000E-03 0.  1.
         12    1    3    3    0    0  0.18490372998E+02  0.24056853524E+02  0.21969722895E+02  0.37460576867E+02  0.00000000000E+00 0. -1.
</event>
<event>
 7    1  0.3305651E-013  0.7246157E+02  0.7816164E-02  0.1226708E+00
        -11   -1    0    0    0    0  0.00000000000E+00  0.00000000000E+00  0.45593999997E+02  0.45594000000E+02  0.51100000000E-03 0.  1.
         11   -1    0    0    0    0 -0.00000000000E+00 -0.00000000000E+00 -0.45593999997E+02  0.45594000000E+02  0.51100000000E-03 0. -1.
    9900012    2    1    2    0    0 -0.46605618140E+01 -0.82053693810E+01  0.16174992415E+02  0.72461566738E+02  0.69999995367E+02 0.  0.
         12    1    1    2    0    0  0.46605618140E+01  0.82053693810E+01 -0.16174992415E+02  0.18726433262E+02  0.00000000000E+00 0. -1.
         11    1    3    3    0    0 -0.17331714840E+00 -0.20441104893E+02  0.14735635735E+02  0.25199360485E+02  0.51100000000E-03 0.  1.
        -11    1    3    3    0    0  0.84697447619E+00 -0.14987788479E+02 -0.91364661925E+01  0.17573451113E+02  0.51100000000E-03 0. -1.
        -12    1    3    3    0    0 -0.53342191417E+01  0.27223523991E+02  0.10575822872E+02  0.29688755140E+02  0.00000000000E+00 0.  1.
</event>
<event>
 7    1  0.3305651E-013  0.7246157E+02  0.7816164E-02  0.1226708E+00
        -11   -1    0    0    0    0  0.00000000000E+00  0.00000000000E+00  0.45593999997E+02  0.45594000000E+02  0.51100000000E-03 0.  1.
         11   -1    0    0    0    0 -0.00000000000E+00 -0.00000000000E+00 -0.45593999997E+02  0.45594000000E+02  0.51100000000E-03 0. -1.
    9900012    2    1    2    0    0  0.17481711458E+02  0.63307010932E+01 -0.22341268209E+01  0.72461565889E+02  0.69999994262E+02 0.  0.
         12    1    1    2    0    0 -0.17481711458E+02 -0.63307010932E+01  0.22341268209E+01  0.18726434111E+02  0.00000000000E+00 0. -1.
         11    1    3    3    0    0  0.16256807880E+02  0.23520416104E+01 -0.63464145813E+01  0.17609454292E+02  0.51100000000E-03 0. -1.
        -11    1    3    3    0    0  0.14059080907E+02 -0.19791297814E+02  0.11476832369E+02  0.26852763482E+02  0.51100000000E-03 0.  1.
         12    1    3    3    0    0 -0.12834177329E+02  0.23769957297E+02 -0.73645446085E+01  0.27999348115E+02  0.00000000000E+00 0. -1.
</event>
<event>
 7    1  0.3305651E-013  0.7246158E+02  0.7816164E-02  0.1226708E+00
        -11   -1    0    0    0    0  0.00000000000E+00  0.00000000000E+00  0.45593999997E+02  0.45594000000E+02  0.51100000000E-03 0. -1.
         11   -1    0    0    0    0 -0.00000000000E+00 -0.00000000000E+00 -0.45593999997E+02  0.45594000000E+02  0.51100000000E-03 0.  1.
    9900012    2    1    2    0    0  0.18440030529E+02 -0.29869618446E+01  0.13123401769E+01  0.72461577391E+02  0.70000009245E+02 0.  0.
         12    1    1    2    0    0 -0.18440030529E+02  0.29869618446E+01 -0.13123401769E+01  0.18726422609E+02  0.00000000000E+00 0. -1.
         11    1    3    3    0    0 -0.35698374125E+01  0.13176397740E+02 -0.99090624024E+01  0.16868631080E+02  0.51100000000E-03 0. -1.
        -11    1    3    3    0    0  0.11301294382E+02  0.16255411128E+02  0.48813953412E+00  0.19803937136E+02  0.51100000000E-03 0.  1.
        -12    1    3    3    0    0  0.10708573560E+02 -0.32418770712E+02  0.10733263045E+02  0.35789009175E+02  0.00000000000E+00 0.  1.
</event>
<event>
 7    1  0.3305651E-013  0.7246146E+02  0.7816164E-02  0.1226708E+00
        -11   -1    0    0    0    0  0.00000000000E+00  0.00000000000E+00  0.45593999997E+02  0.45594000000E+02  0.51100000000E-03 0. -1.
         11   -1    0    0    0    0 -0.00000000000E+00 -0.00000000000E+00 -0.45593999997E+02  0.45594000000E+02  0.51100000000E-03 0.  1.
    9900012    2    1    2    0    0  0.65206400348E+01 -0.73138240879E+01 -0.15958459449E+02  0.72461462754E+02  0.69999859908E+02 0.  0.
         12    1    1    2    0    0 -0.65206400348E+01  0.73138240879E+01  0.15958459449E+02  0.18726537246E+02  0.00000000000E+00 0. -1.
         11    1    3    3    0    0 -0.55863999096E+01 -0.12730329378E+01  0.27255654174E+01  0.63448549169E+01  0.51100000000E-03 0. -1.
        -11    1    3    3    0    0 -0.23259789608E+02 -0.12106569450E+02 -0.13256756248E+01  0.26255366168E+02  0.51100000000E-03 0.  1.
         12    1    3    3    0    0  0.35366829553E+02  0.60657783002E+01 -0.17358349242E+02  0.39861241669E+02  0.00000000000E+00 0. -1.
</event>
<event>
 7    1  0.3305651E-013  0.7246159E+02  0.7816164E-02  0.1226708E+00
        -11   -1    0    0    0    0  0.00000000000E+00  0.00000000000E+00  0.45593999997E+02  0.45594000000E+02  0.51100000000E-03 0.  1.
         11   -1    0    0    0    0 -0.00000000000E+00 -0.00000000000E+00 -0.45593999997E+02  0.45594000000E+02  0.51100000000E-03 0. -1.
    9900012    2    1    2    0    0  0.44178995250E+01  0.17136346858E+02  0.61242422161E+01  0.72461586500E+02  0.70000021111E+02 0.  0.
         12    1    1    2    0    0 -0.44178995250E+01 -0.17136346858E+02 -0.61242422161E+01  0.18726413500E+02  0.00000000000E+00 0. -1.
         11    1    3    3    0    0  0.14020006164E+02  0.16147440207E+02  0.31506717476E+01  0.21615437326E+02  0.51100000000E-03 0. -1.
        -11    1    3    3    0    0  0.11728647779E+02  0.16440434910E+02  0.11401537830E+02  0.23191467049E+02  0.51100000000E-03 0.  1.
        -12    1    3    3    0    0 -0.21330754418E+02 -0.15451528259E+02 -0.84279673611E+01  0.27654682124E+02  0.00000000000E+00 0.  1.
</event>
<event>
 7    1  0.3305651E-013  0.7246161E+02  0.7816164E-02  0.1226708E+00
        -11   -1    0    0    0    0  0.00000000000E+00  0.00000000000E+00  0.45593999997E+02  0.45594000000E+02  0.51100000000E-03 0. -1.
         11   -1    0    0    0    0 -0.00000000000E+00 -0.00000000000E+00 -0.45593999997E+02  0.45594000000E+02  0.51100000000E-03 0.  1.
    9900012    2    1    2    0    0  0.59763280346E+01 -0.97439435220E+01 -0.14832961346E+02  0.72461610213E+02  0.70000052002E+02 0.  0.
         12    1    1    2    0    0 -0.59763280346E+01  0.97439435220E+01  0.14832961346E+02  0.18726389787E+02  0.00000000000E+00 0. -1.
         11    1    3    3    0    0  0.35622025072E+01  0.10991889499E+02 -0.78401710114E+01  0.13963495380E+02  0.51100000000E-03 0. -1.
        -11    1    3    3    0    0  0.12448697003E+02  0.13140510194E+02 -0.13489446809E+02  0.22574504218E+02  0.51100000000E-03 0.  1.
         12    1    3    3    0    0 -0.10034571475E+02 -0.33876343215E+02  0.64966564739E+01  0.35923610616E+02  0.00000000000E+00 0. -1.
</event>
<event>
 7    1  0.3305651E-013  0.7246156E+02  0.7816164E-02  0.1226708E+00
        -11   -1    0    0    0    0  0.00000000000E+00  0.00000000000E+00  0.45593999997E+02  0.45594000000E+02  0.51100000000E-03 0.  1.
         11   -1    0    0    0    0 -0.00000000000E+00 -0.00000000000E+00 -0.45593999997E+02  0.45594000000E+02  0.51100000000E-03 0. -1.
    9900012    2    1    2    0    0 -0.62499555214E+01  0.16217192695E-01  0.17652686522E+02  0.72461560177E+02  0.69999986820E+02 0.  0.
         12    1    1    2    0    0  0.62499555214E+01 -0.16217192695E-01 -0.17652686522E+02  0.18726439823E+02  0.00000000000E+00 0. -1.
         11    1    3    3    0    0 -0.46459405865E+01 -0.14167572187E+02 -0.16166526713E+02  0.21992304378E+02  0.51100000000E-03 0. -1.
        -11    1    3    3    0    0  0.15538409245E+02  0.11576792449E+02  0.22813192117E+02  0.29931689229E+02  0.51100000000E-03 0.  1.
        -12    1    3    3    0    0 -0.17142424180E+02  0.26069969301E+01  0.11006021118E+02  0.20537566570E+02  0.00000000000E+00 0.  1.
</event>
<event>
 7    1  0.3305651E-013  0.7246167E+02  0.7816164E-02  0.1226708E+00
        -11   -1    0    0    0    0  0.00000000000E+00  0.00000000000E+00  0.45593999997E+02  0.45594000000E+02  0.51100000000E-03 0.  1.
         11   -1    0    0    0    0 -0.00000000000E+00 -0.00000000000E+00 -0.45593999997E+02  0.45594000000E+02  0.51100000000E-03 0. -1.
    9900012    2    1    2    0    0  0.12138640217E+02 -0.14267546479E+01  0.14187779923E+02  0.72461673230E+02  0.70000134093E+02 0.  0.
         12    1    1    2    0    0 -0.12138640217E+02  0.14267546479E+01 -0.14187779923E+02  0.18726326770E+02  0.00000000000E+00 0. -1.
         11    1    3    3    0    0 -0.14044005680E+02  0.61771557458E+01  0.13398389536E+02  0.20369295302E+02  0.51100000000E-03 0. -1.
        -11    1    3    3    0    0 -0.92214728562E+01  0.76383882277E+01  0.56520169390E+01  0.13241066124E+02  0.51100000000E-03 0.  1.
        -12    1    3    3    0    0  0.35404118754E+02 -0.15242298621E+02 -0.48626265522E+01  0.38851311805E+02  0.00000000000E+00 0.  1.
</event>
<event>
 7    1  0.3305651E-013  0.7246157E+02  0.7816164E-02  0.1226708E+00
        -11   -1    0    0    0    0  0.00000000000E+00  0.00000000000E+00  0.45593999997E+02  0.45594000000E+02  0.51100000000E-03 0.  1.
         11   -1    0    0    0    0 -0.00000000000E+00 -0.00000000000E+00 -0.45593999997E+02  0.45594000000E+02  0.51100000000E-03 0. -1.
    9900012    2    1    2    0    0  0.16023370374E+02 -0.63874692194E+01  0.72891119674E+01  0.72461566425E+02  0.69999994959E+02 0.  0.
         12    1    1    2    0    0 -0.16023370374E+02  0.63874692194E+01 -0.72891119674E+01  0.18726433575E+02  0.00000000000E+00 0. -1.
         11    1    3    3    0    0  0.41786796696E+01 -0.10604037096E+02  0.20979998082E+01  0.11589157432E+02  0.51100000000E-03 0. -1.
        -11    1    3    3    0    0 -0.16123771906E+02 -0.18475001830E+02  0.39307458418E+01  0.24834501731E+02  0.51100000000E-03 0.  1.
         12    1    3    3    0    0  0.27968462611E+02  0.22691569707E+02  0.12603663175E+01  0.36037907262E+02  0.00000000000E+00 0. -1.
</event>
<event>
 7    1  0.3305651E-013  0.7246162E+02  0.7816164E-02  0.1226708E+00
        -11   -1    0    0    0    0  0.00000000000E+00  0.00000000000E+00  0.45593999997E+02  0.45594000000E+02  0.51100000000E-03 0.  1.
         11   -1    0    0    0    0 -0.00000000000E+00 -0.00000000000E+00 -0.45593999997E+02  0.45594000000E+02  0.51100000000E-03 0. -1.
    9900012    2    1    2    0    0 -0.15748264481E+02  0.65115479248E+01  0.77633215233E+01  0.72461621503E+02  0.70000066709E+02 0.  0.
         12    1    1    2    0    0  0.15748264481E+02 -0.65115479248E+01 -0.77633215233E+01  0.18726378497E+02  0.00000000000E+00 0. -1.
         11    1    3    3    0    0 -0.58630899997E+01 -0.64622445633E+01  0.13540186485E+02  0.16108168097E+02  0.51100000000E-03 0. -1.
        -11    1    3    3    0    0 -0.10154718369E+01  0.14284225318E+02  0.22510338600E+02  0.26679310713E+02  0.51100000000E-03 0.  1.
         12    1    3    3    0    0 -0.88697026443E+01 -0.13104328296E+01 -0.28287203562E+02  0.29674142693E+02  0.00000000000E+00 0. -1.
</event>
<event>
 7    1  0.3305651E-013  0.7246156E+02  0.7816164E-02  0.1226708E+00
        -11   -1    0    0    0    0  0.00000000000E+00  0.00000000000E+00  0.45593999997E+02  0.45594000000E+02  0.51100000000E-03 0. -1.
         11   -1    0    0    0    0 -0.00000000000E+00 -0.00000000000E+00 -0.45593999997E+02  0.45594000000E+02  0.51100000000E-03 0.  1.
    9900012    2    1    2    0    0  0.17684790155E+01 -0.15416286489E+02  0.10482853381E+02  0.72461558209E+02  0.69999984256E+02 0.  0.
         12    1    1    2    0    0 -0.17684790155E+01  0.15416286489E+02 -0.10482853381E+02  0.18726441791E+02  0.00000000000E+00 0. -1.
         11    1    3    3    0    0  0.22678562188E+02  0.21540499359E+01 -0.65311170010E+01  0.23698367108E+02  0.51100000000E-03 0. -1.
        -11    1    3    3    0    0 -0.44898579842E+01  0.66385494838E+01 -0.72121254571E+01  0.10781647269E+02  0.51100000000E-03 0.  1.
        -12    1    3    3    0    0 -0.16420225188E+02 -0.24208885909E+02  0.24226095839E+02  0.37981543831E+02  0.00000000000E+00 0.  1.
</event>
<event>
 7    1  0.3305651E-013  0.7246158E+02  0.7816164E-02  0.1226708E+00
        -11   -1    0    0    0    0  0.00000000000E+00  0.00000000000E+00  0.45593999997E+02  0.45594000000E+02  0.51100000000E-03 0. -1.
         11   -1    0    0    0    0 -0.00000000000E+00 -0.00000000000E+00 -0.45593999997E+02  0.45594000000E+02  0.51100000000E-03 0.  1.
    9900012    2    1    2    0    0 -0.14704824692E+02 -0.92018841132E+01 -0.70549559300E+01  0.72461576326E+02  0.70000007857E+02 0.  0.
         12    1    1    2    0    0  0.14704824692E+02  0.92018841132E+01  0.70549559300E+01  0.18726423674E+02  0.00000000000E+00 0. -1.
         11    1    3    3    0    0 -0.17544702522E+02 -0.17340844771E+02  0.14786967136E+02  0.28760665522E+02  0.51100000000E-03 0.  1.
        -11    1    3    3    0    0 -0.73656789396E+01 -0.78001352457E+01 -0.22324360295E+02  0.24768374975E+02  0.51100000000E-03 0. -1.
         12    1    3    3    0    0  0.10205556770E+02  0.15939095903E+02  0.48243722886E+00  0.18932535828E+02  0.00000000000E+00 0. -1.
</event>
<event>
 7    1  0.3305651E-013  0.7246155E+02  0.7816164E-02  0.1226708E+00
        -11   -1    0    0    0    0  0.00000000000E+00  0.00000000000E+00  0.45593999997E+02  0.45594000000E+02  0.51100000000E-03 0. -1.
         11   -1    0    0    0    0 -0.00000000000E+00 -0.00000000000E+00 -0.45593999997E+02  0.45594000000E+02  0.51100000000E-03 0.  1.
    9900012    2    1    2    0    0 -0.46050341669E+01 -0.18150756743E+02  0.15337517705E+00  0.72461552553E+02  0.69999976889E+02 0.  0.
         12    1    1    2    0    0  0.46050341669E+01  0.18150756743E+02 -0.15337517705E+00  0.18726447447E+02  0.00000000000E+00 0. -1.
         11    1    3    3    0    0  0.19262531736E+02 -0.23242475998E+02 -0.63026739326E+00  0.30193626093E+02  0.51100000000E-03 0. -1.
        -11    1    3    3    0    0  0.64104743973E+01 -0.70437353187E+01  0.14949842930E+01  0.96407140573E+01  0.51100000000E-03 0.  1.
        -12    1    3    3    0    0 -0.30278040300E+02  0.12135454574E+02 -0.71134172269E+00  0.32627212403E+02  0.00000000000E+00 0.  1.
</event>
<event>
 7    1  0.3305651E-013  0.7246159E+02  0.7816164E-02  0.1226708E+00
        -11   -1    0    0    0    0  0.00000000000E+00  0.00000000000E+00  0.45593999997E+02  0.45594000000E+02  0.51100000000E-03 0.  1.
         11   -1    0    0    0    0 -0.00000000000E+00 -0.00000000000E+00 -0.45593999997E+02  0.45594000000E+02  0.51100000000E-03 0. -1.
    9900012    2    1    2    0    0 -0.37987632248E+01  0.18228313768E+02  0.19940798761E+01  0.72461591390E+02  0.70000027482E+02 0.  0.
         12    1    1    2    0    0  0.37987632248E+01 -0.18228313768E+02 -0.19940798761E+01  0.18726408610E+02  0.00000000000E+00 0. -1.
         11    1    3    3    0    0 -0.26108858510E+02  0.19842113066E+02  0.19163572963E+02  0.37981896643E+02  0.51100000000E-03 0. -1.
        -11    1    3    3    0    0  0.68594296114E+01 -0.75479522320E+01  0.57376252531E+00  0.10215310137E+02  0.51100000000E-03 0.  1.
        -12    1    3    3    0    0  0.15450665674E+02  0.59341529336E+01 -0.17743255613E+02  0.24264384611E+02  0.00000000000E+00 0.  1.
</event>
<event>
 7    1  0.3305651E-013  0.7246156E+02  0.7816164E-02  0.1226708E+00
        -11   -1    0    0    0    0  0.00000000000E+00  0.00000000000E+00  0.45593999997E+02  0.45594000000E+02  0.51100000000E-03 0.  1.
         11   -1    0    0    0    0 -0.00000000000E+00 -0.00000000000E+00 -0.45593999997E+02  0.45594000000E+02  0.51100000000E-03 0. -1.
    9900012    2    1    2    0    0  0.18048328499E+02  0.49801641848E+01  0.36767681197E+00  0.72461564590E+02  0.69999992569E+02 0.  0.
         12    1    1    2    0    0 -0.18048328499E+02 -0.49801641848E+01 -0.36767681197E+00  0.18726435410E+02  0.00000000000E+00 0. -1.
         11    1    3    3    0    0  0.83326707713E+01  0.12477288808E+02  0.97621932045E+01  0.17900183089E+02  0.51100000000E-03 0. -1.
        -11    1    3    3    0    0  0.30665661517E+02 -0.97414639528E+01 -0.20232465058E+01  0.32239299665E+02  0.51100000000E-03 0.  1.
         12    1    3    3    0    0 -0.20950003789E+02  0.22443393297E+01 -0.73712698868E+01  0.22322081837E+02  0.00000000000E+00 0. -1.
</event>
<event>
 7    1  0.3305651E-013  0.7246155E+02  0.7816164E-02  0.1226708E+00
        -11   -1    0    0    0    0  0.00000000000E+00  0.00000000000E+00  0.45593999997E+02  0.45594000000E+02  0.51100000000E-03 0.  1.
         11   -1    0    0    0    0 -0.00000000000E+00 -0.00000000000E+00 -0.45593999997E+02  0.45594000000E+02  0.51100000000E-03 0. -1.
    9900012    2    1    2    0    0 -0.75673894340E+01  0.16432910011E+00  0.17128555501E+02  0.72461553448E+02  0.69999978055E+02 0.  0.
         12    1    1    2    0    0  0.75673894340E+01 -0.16432910011E+00 -0.17128555501E+02  0.18726446552E+02  0.00000000000E+00 0. -1.
         11    1    3    3    0    0  0.13140062766E+02 -0.50610933109E+01 -0.44740691987E-01  0.14081119167E+02  0.51100000000E-03 0. -1.
        -11    1    3    3    0    0  0.87673289124E+01  0.74459983880E+01 -0.12159343753E+02  0.16737938613E+02  0.51100000000E-03 0.  1.
        -12    1    3    3    0    0 -0.29474781113E+02 -0.22205759770E+01  0.29332639946E+02  0.41642495668E+02  0.00000000000E+00 0.  1.
</event>
<event>
 7    1  0.3305651E-013  0.7246157E+02  0.7816164E-02  0.1226708E+00
        -11   -1    0    0    0    0  0.00000000000E+00  0.00000000000E+00  0.45593999997E+02  0.45594000000E+02  0.51100000000E-03 0. -1.
         11   -1    0    0    0    0 -0.00000000000E+00 -0.00000000000E+00 -0.45593999997E+02  0.45594000000E+02  0.51100000000E-03 0.  1.
    9900012    2    1    2    0    0  0.15865861446E+02 -0.41473897326E+00 -0.99388944130E+01  0.72461569748E+02  0.69999999288E+02 0.  0.
         12    1    1    2    0    0 -0.15865861446E+02  0.41473897326E+00  0.99388944130E+01  0.18726430252E+02  0.00000000000E+00 0. -1.
         11    1    3    3    0    0  0.16972006860E+02  0.10334186477E+01 -0.21146344311E+02  0.27134569260E+02  0.51100000000E-03 0. -1.
        -11    1    3    3    0    0  0.77829374372E+01  0.10954591708E+01 -0.15328699617E+02  0.17226235171E+02  0.51100000000E-03 0.  1.
         12    1    3    3    0    0 -0.88890828510E+01 -0.25436167918E+01  0.26536149515E+02  0.28100765317E+02  0.00000000000E+00 0. -1.
</event>
<event>
 7    1  0.3305651E-013  0.7246158E+02  0.7816164E-02  0.1226708E+00
        -11   -1    0    0    0    0  0.00000000000E+00  0.00000000000E+00  0.45593999997E+02  0.45594000000E+02  0.51100000000E-03 0. -1.
         11   -1    0    0    0    0 -0.00000000000E+00 -0.00000000000E+00 -0.45593999997E+02  0.45594000000E+02  0.51100000000E-03 0.  1.
    9900012    2    1    2    0    0 -0.88852704755E+01  0.11279456125E+01 -0.16445624192E+02  0.72461578884E+02  0.70000011190E+02 0.  0.
         12    1    1    2    0    0  0.88852704755E+01 -0.11279456125E+01  0.16445624192E+02  0.18726421116E+02  0.00000000000E+00 0. -1.
         11    1    3    3    0    0  0.70176773815E+01 -0.41259918171E+01  0.39211407317E+01  0.90358701409E+01  0.51100000000E-03 0. -1.
        -11    1    3    3    0    0  0.16882290687E+02  0.56698718446E+01 -0.24595710966E+02  0.30366234270E+02  0.51100000000E-03 0.  1.
        -12    1    3    3    0    0 -0.32785238544E+02 -0.41593441508E+00  0.42289460418E+01  0.33059474473E+02  0.00000000000E+00 0.  1.
</event>
<event>
 7    1  0.3305651E-013  0.7246153E+02  0.7816164E-02  0.1226708E+00
        -11   -1    0    0    0    0  0.00000000000E+00  0.00000000000E+00  0.45593999997E+02  0.45594000000E+02  0.51100000000E-03 0.  1.
         11   -1    0    0    0    0 -0.00000000000E+00 -0.00000000000E+00 -0.45593999997E+02  0.45594000000E+02  0.51100000000E-03 0. -1.
    9900012    2    1    2    0    0  0.62154057950E+01  0.31911141205E+01  0.17374300169E+02  0.72461527164E+02  0.69999943814E+02 0.  0.
         12    1    1    2    0    0 -0.62154057950E+01 -0.31911141205E+01 -0.17374300169E+02  0.18726472836E+02  0.00000000000E+00 0. -1.
         11    1    3    3    0    0 -0.19257972767E+02  0.63458197702E+01 -0.21937336977E+01  0.20394886895E+02  0.51100000000E-03 0. -1.
        -11    1    3    3    0    0  0.60385876574E+01  0.17069516345E+02  0.15280077282E+02  0.23692059665E+02  0.51100000000E-03 0.  1.
         12    1    3    3    0    0  0.19434790905E+02 -0.20224221995E+02  0.42879565845E+01  0.28374580604E+02  0.00000000000E+00 0. -1.
</event>
<event>
 7    1  0.3305651E-013  0.7246152E+02  0.7816164E-02  0.1226708E+00
        -11   -1    0    0    0    0  0.00000000000E+00  0.00000000000E+00  0.45593999997E+02  0.45594000000E+02  0.51100000000E-03 0. -1.
         11   -1    0    0    0    0 -0.00000000000E+00 -0.00000000000E+00 -0.45593999997E+02  0.45594000000E+02  0.51100000000E-03 0.  1.
    9900012    2    1    2    0    0 -0.15826350769E+02  0.54406648955E+01 -0.84027912929E+01  0.72461518358E+02  0.69999932343E+02 0.  0.
         12    1    1    2    0    0  0.15826350769E+02 -0.54406648955E+01  0.84027912929E+01  0.18726481642E+02  0.00000000000E+00 0. -1.
         11    1    3    3    0    0 -0.12637110970E+02  0.29009450873E+01 -0.26795430463E+01  0.13239788793E+02  0.51100000000E-03 0. -1.
        -11    1    3    3    0    0 -0.45010649163E+01  0.30339462757E+02  0.61804290172E+00  0.30677753553E+02  0.51100000000E-03 0.  1.
         12    1    3    3    0    0  0.13118251173E+01 -0.27799742949E+02 -0.63412911483E+01  0.28543976012E+02  0.00000000000E+00 0. -1.
</event>
<event>
 7    1  0.3305651E-013  0.7246152E+02  0.7816164E-02  0.1226708E+00
        -11   -1    0    0    0    0  0.00000000000E+00  0.00000000000E+00  0.45593999997E+02  0.45594000000E+02  0.51100000000E-03 0.  1.
         11   -1    0    0    0    0 -0.00000000000E+00 -0.00000000000E+00 -0.45593999997E+02  0.45594000000E+02  0.51100000000E-03 0. -1.
    9900012    2    1    2    0    0 -0.75986069515E+01  0.10623768837E+02  0.13419307769E+02  0.72461518405E+02  0.69999932405E+02 0.  0.
         12    1    1    2    0    0  0.75986069515E+01 -0.10623768837E+02 -0.13419307769E+02  0.18726481595E+02  0.00000000000E+00 0. -1.
         11    1    3    3    0    0 -0.35600226188E+01 -0.97079224846E+01 -0.16134073080E+02  0.19163137385E+02  0.51100000000E-03 0. -1.
        -11    1    3    3    0    0  0.11856307281E+02  0.24297511027E+01 -0.33960059232E+01  0.12570145952E+02  0.51100000000E-03 0.  1.
        -12    1    3    3    0    0 -0.15894891614E+02  0.17901940219E+02  0.32949386773E+02  0.40728235068E+02  0.00000000000E+00 0.  1.
</event>
<event>
 7    1  0.3305651E-013  0.7246160E+02  0.7816164E-02  0.1226708E+00
        -11   -1    0    0    0    0  0.00000000000E+00  0.00000000000E+00  0.45593999997E+02  0.45594000000E+02  0.51100000000E-03 0. -1.
         11   -1    0    0    0    0 -0.00000000000E+00 -0.00000000000E+00 -0.45593999997E+02  0.45594000000E+02  0.51100000000E-03 0.  1.
    9900012    2    1    2    0    0 -0.89824214759E+01  0.15784058151E+02 -0.45670275129E+01  0.72461598114E+02  0.70000036240E+02 0.  0.
         12    1    1    2    0    0  0.89824214759E+01 -0.15784058151E+02  0.45670275129E+01  0.18726401886E+02  0.00000000000E+00 0. -1.
         11    1    3    3    0    0  0.10958840350E+00 -0.45502729433E+01  0.24586287341E+00  0.45582279770E+01  0.51100000000E-03 0. -1.
        -11    1    3    3    0    0  0.82834572693E+01 -0.19711667124E+02 -0.10606351477E+02  0.23867554903E+02  0.51100000000E-03 0.  1.
         12    1    3    3    0    0 -0.17375467149E+02  0.40045998218E+02  0.57934610909E+01  0.44035815234E+02  0.00000000000E+00 0. -1.
</event>
<event>
 7    1  0.3305651E-013  0.7246154E+02  0.7816164E-02  0.1226708E+00
        -11   -1    0    0    0    0  0.00000000000E+00  0.00000000000E+00  0.45593999997E+02  0.45594000000E+02  0.51100000000E-03 0.  1.
         11   -1    0    0    0    0 -0.00000000000E+00 -0.00000000000E+00 -0.45593999997E+02  0.45594000000E+02  0.51100000000E-03 0. -1.
    9900012    2    1    2    0    0 -0.82242566172E+01  0.13235826976E+02  0.10385318507E+02  0.72461538692E+02  0.69999958832E+02 0.  0.
         12    1    1    2    0    0  0.82242566172E+01 -0.13235826976E+02 -0.10385318507E+02  0.18726461308E+02  0.00000000000E+00 0. -1.
         11    1    3    3    0    0  0.24641399264E+02  0.63581974569E+01  0.18656329234E+02  0.31554458533E+02  0.51100000000E-03 0. -1.
        -11    1    3    3    0    0 -0.65416873886E+01 -0.29378214063E+01  0.60417431435E+01  0.93769466767E+01  0.51100000000E-03 0.  1.
         12    1    3    3    0    0 -0.26323968492E+02  0.98154509250E+01 -0.14312753871E+02  0.31530133482E+02  0.00000000000E+00 0. -1.
</event>
<event>
 7    1  0.3305651E-013  0.7246142E+02  0.7816164E-02  0.1226708E+00
        -11   -1    0    0    0    0  0.00000000000E+00  0.00000000000E+00  0.45593999997E+02  0.45594000000E+02  0.51100000000E-03 0.  1.
         11   -1    0    0    0    0 -0.00000000000E+00 -0.00000000000E+00 -0.45593999997E+02  0.45594000000E+02  0.51100000000E-03 0. -1.
    9900012    2    1    2    0    0 -0.29597554081E+01 -0.16671920821E+02  0.79982274667E+01  0.72461421600E+02  0.69999806298E+02 0.  0.
         12    1    1    2    0    0  0.29597554081E+01  0.16671920821E+02 -0.79982274667E+01  0.18726578400E+02  0.00000000000E+00 0. -1.
         11    1    3    3    0    0 -0.18667646151E+02 -0.81449339358E+01 -0.12161986681E+02  0.23722033680E+02  0.51100000000E-03 0. -1.
        -11    1    3    3    0    0 -0.96952184421E+00  0.13855486663E+02 -0.67864817542E+00  0.13905935671E+02  0.51100000000E-03 0.  1.
         12    1    3    3    0    0  0.16677412587E+02 -0.22382473548E+02  0.20838862323E+02  0.34833452250E+02  0.00000000000E+00 0. -1.
</event>
<event>
 7    1  0.3305651E-013  0.7246157E+02  0.7816164E-02  0.1226708E+00
        -11   -1    0    0    0    0  0.00000000000E+00  0.00000000000E+00  0.45593999997E+02  0.45594000000E+02  0.51100000000E-03 0.  1.
         11   -1    0    0    0    0 -0.00000000000E+00 -0.00000000000E+00 -0.45593999997E+02  0.45594000000E+02  0.51100000000E-03 0. -1.
    9900012    2    1    2    0    0  0.59485646256E+01 -0.33746217711E+01  0.17432895900E+02  0.72461565404E+02  0.69999993629E+02 0.  0.
         12    1    1    2    0    0 -0.59485646256E+01  0.33746217711E+01 -0.17432895900E+02  0.18726434596E+02  0.00000000000E+00 0. -1.
         11    1    3    3    0    0 -0.14112016893E+02  0.10789850160E+02 -0.21793242698E+00  0.17765623605E+02  0.51100000000E-03 0. -1.
        -11    1    3    3    0    0 -0.87683633464E+01  0.10474584255E+02  0.67496581148E+01  0.15236764618E+02  0.51100000000E-03 0.  1.
        -12    1    3    3    0    0  0.28828944866E+02 -0.24639056186E+02  0.10901170213E+02  0.39459177181E+02  0.00000000000E+00 0.  1.
</event>
<event>
 7    1  0.3305651E-013  0.7246159E+02  0.7816164E-02  0.1226708E+00
        -11   -1    0    0    0    0  0.00000000000E+00  0.00000000000E+00  0.45593999997E+02  0.45594000000E+02  0.51100000000E-03 0. -1.
         11   -1    0    0    0    0 -0.00000000000E+00 -0.00000000000E+00 -0.45593999997E+02  0.45594000000E+02  0.51100000000E-03 0.  1.
    9900012    2    1    2    0    0 -0.10505539668E+02  0.11878303959E+02  0.99608197341E+01  0.72461590882E+02  0.70000026820E+02 0.  0.
         12    1    1    2    0    0  0.10505539668E+02 -0.11878303959E+02 -0.99608197341E+01  0.18726409118E+02  0.00000000000E+00 0. -1.
         11    1    3    3    0    0  0.30306266615E+01  0.29258122083E+01 -0.25492902901E+01  0.49238152163E+01  0.51100000000E-03 0. -1.
        -11    1    3    3    0    0  0.59283878596E+01  0.44242649090E+01 -0.24437105063E+02  0.25532175911E+02  0.51100000000E-03 0.  1.
        -12    1    3    3    0    0 -0.19464554189E+02  0.45282268421E+01  0.36947215087E+02  0.42005599756E+02  0.00000000000E+00 0.  1.
</event>
<event>
 7    1  0.3305651E-013  0.7246160E+02  0.7816164E-02  0.1226708E+00
        -11   -1    0    0    0    0  0.00000000000E+00  0.00000000000E+00  0.45593999997E+02  0.45594000000E+02  0.51100000000E-03 0.  1.
         11   -1    0    0    0    0 -0.00000000000E+00 -0.00000000000E+00 -0.45593999997E+02  0.45594000000E+02  0.51100000000E-03 0. -1.
    9900012    2    1    2    0    0  0.89968301060E+01 -0.84547874259E+01  0.14080185516E+02  0.72461601346E+02  0.70000040451E+02 0.  0.
         12    1    1    2    0    0 -0.89968301060E+01  0.84547874259E+01 -0.14080185516E+02  0.18726398654E+02  0.00000000000E+00 0. -1.
         11    1    3    3    0    0 -0.12558329517E+02 -0.90059053012E+01  0.17392924236E+01  0.15551305700E+02  0.51100000000E-03 0. -1.
        -11    1    3    3    0    0  0.81726526878E+01 -0.18329476685E+02 -0.11952246111E+02  0.23358470731E+02  0.51100000000E-03 0.  1.
        -12    1    3    3    0    0  0.13382506936E+02  0.18880594560E+02  0.24293139204E+02  0.33551824916E+02  0.00000000000E+00 0.  1.
</event>
<event>
 7    1  0.3305651E-013  0.7246205E+02  0.7816164E-02  0.1226707E+00
        -11   -1    0    0    0    0  0.00000000000E+00  0.00000000000E+00  0.45593999997E+02  0.45594000000E+02  0.51100000000E-03 0.  1.
         11   -1    0    0    0    0 -0.00000000000E+00 -0.00000000000E+00 -0.45593999997E+02  0.45594000000E+02  0.51100000000E-03 0. -1.
    9900012    2    1    2    0    0  0.15073668143E+02  0.64570100033E+01  0.90417243351E+01  0.72462049332E+02  0.70000624033E+02 0.  0.
         12    1    1    2    0    0 -0.15073668143E+02 -0.64570100033E+01 -0.90417243351E+01  0.18725950668E+02  0.00000000000E+00 0. -1.
         11    1    3    3    0    0  0.12189669161E+02  0.31787822497E+02  0.13874691247E+02  0.36763579135E+02  0.51100000000E-03 0. -1.
        -11    1    3    3    0    0 -0.91889027188E+01 -0.24675261712E+01 -0.12359410966E+01  0.95943821706E+01  0.51100000000E-03 0.  1.
        -12    1    3    3    0    0  0.12072901701E+02 -0.22863286323E+02 -0.35970258153E+01  0.26104088026E+02  0.00000000000E+00 0.  1.
</event>
<event>
 7    1  0.3305651E-013  0.7246156E+02  0.7816164E-02  0.1226708E+00
        -11   -1    0    0    0    0  0.00000000000E+00  0.00000000000E+00  0.45593999997E+02  0.45594000000E+02  0.51100000000E-03 0.  1.
         11   -1    0    0    0    0 -0.00000000000E+00 -0.00000000000E+00 -0.45593999997E+02  0.45594000000E+02  0.51100000000E-03 0. -1.
    9900012    2    1    2    0    0  0.17912541154E+02  0.27136823326E+01  0.47388164590E+01  0.72461559232E+02  0.69999985589E+02 0.  0.
         12    1    1    2    0    0 -0.17912541154E+02 -0.27136823326E+01 -0.47388164590E+01  0.18726440768E+02  0.00000000000E+00 0. -1.
         11    1    3    3    0    0  0.28621504078E+02  0.70687356028E+01 -0.12461303945E+02  0.32006899490E+02  0.51100000000E-03 0. -1.
        -11    1    3    3    0    0  0.36312906456E+01  0.13204625818E+02  0.42186112622E+01  0.14329867270E+02  0.51100000000E-03 0.  1.
        -12    1    3    3    0    0 -0.14340253569E+02 -0.17559679088E+02  0.12981509142E+02  0.26124792472E+02  0.00000000000E+00 0.  1.
</event>
<event>
 7    1  0.3305651E-013  0.7246154E+02  0.7816164E-02  0.1226708E+00
        -11   -1    0    0    0    0  0.00000000000E+00  0.00000000000E+00  0.45593999997E+02  0.45594000000E+02  0.51100000000E-03 0.  1.
         11   -1    0    0    0    0 -0.00000000000E+00 -0.00000000000E+00 -0.45593999997E+02  0.45594000000E+02  0.51100000000E-03 0. -1.
    9900012    2    1    2    0    0 -0.12159279481E+02  0.10385250883E+02  0.97456978423E+01  0.72461544387E+02  0.69999966251E+02 0.  0.
         12    1    1    2    0    0  0.12159279481E+02 -0.10385250883E+02 -0.97456978423E+01  0.18726455613E+02  0.00000000000E+00 0. -1.
         11    1    3    3    0    0 -0.18720026220E+02 -0.22188968492E+01 -0.50783716153E+01  0.19523133545E+02  0.51100000000E-03 0. -1.
        -11    1    3    3    0    0  0.74083014142E+01  0.17907794531E+02 -0.13815224909E+02  0.23799841898E+02  0.51100000000E-03 0.  1.
         12    1    3    3    0    0 -0.84755467504E+00 -0.53036467987E+01  0.28639294366E+02  0.29138568944E+02  0.00000000000E+00 0. -1.
</event>
<event>
 7    1  0.3305651E-013  0.7246156E+02  0.7816164E-02  0.1226708E+00
        -11   -1    0    0    0    0  0.00000000000E+00  0.00000000000E+00  0.45593999997E+02  0.45594000000E+02  0.51100000000E-03 0.  1.
         11   -1    0    0    0    0 -0.00000000000E+00 -0.00000000000E+00 -0.45593999997E+02  0.45594000000E+02  0.51100000000E-03 0. -1.
    9900012    2    1    2    0    0 -0.15927733018E+02 -0.92434839069E+01  0.33977490880E+01  0.72461564869E+02  0.69999992933E+02 0.  0.
         12    1    1    2    0    0  0.15927733018E+02  0.92434839069E+01 -0.33977490880E+01  0.18726435131E+02  0.00000000000E+00 0. -1.
         11    1    3    3    0    0 -0.11397107762E+02 -0.29684140913E+01 -0.12381225203E+02  0.17088015840E+02  0.51100000000E-03 0. -1.
        -11    1    3    3    0    0 -0.27964961111E+02 -0.35667626068E+01  0.14614669425E+02  0.31754517916E+02  0.51100000000E-03 0.  1.
         12    1    3    3    0    0  0.23434335855E+02 -0.27083072088E+01  0.11643048658E+01  0.23619031113E+02  0.00000000000E+00 0. -1.
</event>
<event>
 7    1  0.3305651E-013  0.7246158E+02  0.7816164E-02  0.1226708E+00
        -11   -1    0    0    0    0  0.00000000000E+00  0.00000000000E+00  0.45593999997E+02  0.45594000000E+02  0.51100000000E-03 0. -1.
         11   -1    0    0    0    0 -0.00000000000E+00 -0.00000000000E+00 -0.45593999997E+02  0.45594000000E+02  0.51100000000E-03 0.  1.
    9900012    2    1    2    0    0  0.11994061729E+02  0.11530293133E+02 -0.85949747840E+01  0.72461581014E+02  0.70000013964E+02 0.  0.
         12    1    1    2    0    0 -0.11994061729E+02 -0.11530293133E+02  0.85949747840E+01  0.18726418986E+02  0.00000000000E+00 0. -1.
         11    1    3    3    0    0  0.14351938236E+02  0.10374591448E+02 -0.15352536503E+02  0.23437377332E+02  0.51100000000E-03 0.  1.
        -11    1    3    3    0    0 -0.24355378511E+02  0.64268996805E+01  0.78316167291E+01  0.26378470819E+02  0.51100000000E-03 0. -1.
         12    1    3    3    0    0  0.21997502004E+02 -0.52711979953E+01 -0.10740550097E+01  0.22645732863E+02  0.00000000000E+00 0. -1.
</event>
<event>
 7    1  0.3305651E-013  0.7246165E+02  0.7816164E-02  0.1226708E+00
        -11   -1    0    0    0    0  0.00000000000E+00  0.00000000000E+00  0.45593999997E+02  0.45594000000E+02  0.51100000000E-03 0. -1.
         11   -1    0    0    0    0 -0.00000000000E+00 -0.00000000000E+00 -0.45593999997E+02  0.45594000000E+02  0.51100000000E-03 0.  1.
    9900012    2    1    2    0    0  0.11509404984E+02 -0.55628318439E+01 -0.13684465477E+02  0.72461652342E+02  0.70000106883E+02 0.  0.
         12    1    1    2    0    0 -0.11509404984E+02  0.55628318439E+01  0.13684465477E+02  0.18726347658E+02  0.00000000000E+00 0. -1.
         11    1    3    3    0    0 -0.10087265763E+02 -0.16704617255E+02 -0.51082576509E+01  0.20171550875E+02  0.51100000000E-03 0. -1.
        -11    1    3    3    0    0 -0.13703013726E+01 -0.15761321647E+02  0.28733294434E+00  0.15823386059E+02  0.51100000000E-03 0.  1.
        -12    1    3    3    0    0  0.22966972119E+02  0.26903107058E+02 -0.88635407703E+01  0.36466715408E+02  0.00000000000E+00 0.  1.
</event>
<event>
 7    1  0.3305651E-013  0.7246156E+02  0.7816164E-02  0.1226708E+00
        -11   -1    0    0    0    0  0.00000000000E+00  0.00000000000E+00  0.45593999997E+02  0.45594000000E+02  0.51100000000E-03 0.  1.
         11   -1    0    0    0    0 -0.00000000000E+00 -0.00000000000E+00 -0.45593999997E+02  0.45594000000E+02  0.51100000000E-03 0. -1.
    9900012    2    1    2    0    0 -0.73831593262E+01  0.17185394934E+02 -0.91135333729E+00  0.72461563991E+02  0.69999991789E+02 0.  0.
         12    1    1    2    0    0  0.73831593262E+01 -0.17185394934E+02  0.91135333729E+00  0.18726436009E+02  0.00000000000E+00 0. -1.
         11    1    3    3    0    0 -0.25408636622E+02 -0.12396307852E+02  0.14837171576E+01  0.28310222186E+02  0.51100000000E-03 0. -1.
        -11    1    3    3    0    0 -0.52742396103E+01 -0.72330681772E+00 -0.25991777472E+01  0.59242300295E+01  0.51100000000E-03 0.  1.
        -12    1    3    3    0    0  0.23299716906E+02  0.30305009604E+02  0.20410725233E+00  0.38227111776E+02  0.00000000000E+00 0.  1.
</event>
<event>
 7    1  0.3305651E-013  0.7246163E+02  0.7816164E-02  0.1226708E+00
        -11   -1    0    0    0    0  0.00000000000E+00  0.00000000000E+00  0.45593999997E+02  0.45594000000E+02  0.51100000000E-03 0.  1.
         11   -1    0    0    0    0 -0.00000000000E+00 -0.00000000000E+00 -0.45593999997E+02  0.45594000000E+02  0.51100000000E-03 0. -1.
    9900012    2    1    2    0    0  0.10968460006E+02  0.33605224062E+00  0.15174217150E+02  0.72461630567E+02  0.70000078516E+02 0.  0.
         12    1    1    2    0    0 -0.10968460006E+02 -0.33605224062E+00 -0.15174217150E+02  0.18726369433E+02  0.00000000000E+00 0. -1.
         11    1    3    3    0    0  0.33765538704E+01  0.86489100097E+01 -0.21388517677E+02  0.23316806151E+02  0.51100000000E-03 0. -1.
        -11    1    3    3    0    0  0.20065671963E+01 -0.86070641263E+01 -0.28894007446E+01  0.92981988424E+01  0.51100000000E-03 0.  1.
        -12    1    3    3    0    0  0.55853389394E+01  0.29420635719E+00  0.39452135572E+02  0.39846625574E+02  0.00000000000E+00 0.  1.
</event>
<event>
 7    1  0.3305651E-013  0.7246153E+02  0.7816164E-02  0.1226708E+00
        -11   -1    0    0    0    0  0.00000000000E+00  0.00000000000E+00  0.45593999997E+02  0.45594000000E+02  0.51100000000E-03 0.  1.
         11   -1    0    0    0    0 -0.00000000000E+00 -0.00000000000E+00 -0.45593999997E+02  0.45594000000E+02  0.51100000000E-03 0. -1.
    9900012    2    1    2    0    0 -0.84015813045E+01 -0.16600257856E+02  0.21273423061E+01  0.72461529041E+02  0.69999946259E+02 0.  0.
         12    1    1    2    0    0  0.84015813045E+01  0.16600257856E+02 -0.21273423061E+01  0.18726470959E+02  0.00000000000E+00 0. -1.
         11    1    3    3    0    0 -0.32316739986E+02 -0.12012563036E+02 -0.31933144398E+01  0.34624710994E+02  0.51100000000E-03 0. -1.
        -11    1    3    3    0    0  0.22634987851E+01 -0.13431724047E+02 -0.85193793094E+00  0.13647726408E+02  0.51100000000E-03 0.  1.
         12    1    3    3    0    0  0.21651659897E+02  0.88440292270E+01  0.61725946769E+01  0.24189091638E+02  0.00000000000E+00 0. -1.
</event>
<event>
 7    1  0.3305651E-013  0.7246161E+02  0.7816164E-02  0.1226708E+00
        -11   -1    0    0    0    0  0.00000000000E+00  0.00000000000E+00  0.45593999997E+02  0.45594000000E+02  0.51100000000E-03 0. -1.
         11   -1    0    0    0    0 -0.00000000000E+00 -0.00000000000E+00 -0.45593999997E+02  0.45594000000E+02  0.51100000000E-03 0.  1.
    9900012    2    1    2    0    0 -0.13719767083E+02  0.94860838254E+01 -0.85123434672E+01  0.72461607223E+02  0.70000048106E+02 0.  0.
         12    1    1    2    0    0  0.13719767083E+02 -0.94860838254E+01  0.85123434672E+01  0.18726392777E+02  0.00000000000E+00 0. -1.
         11    1    3    3    0    0  0.10392722040E+02 -0.13194433175E+02 -0.61351776313E+01  0.17881335046E+02  0.51100000000E-03 0. -1.
        -11    1    3    3    0    0  0.46309998234E+01 -0.14822364061E+01  0.13093991117E+02  0.13967669374E+02  0.51100000000E-03 0.  1.
        -12    1    3    3    0    0 -0.28743488946E+02  0.24162753406E+02 -0.15471156952E+02  0.40612602802E+02  0.00000000000E+00 0.  1.
</event>
<event>
 7    1  0.3305651E-013  0.7246149E+02  0.7816164E-02  0.1226708E+00
        -11   -1    0    0    0    0  0.00000000000E+00  0.00000000000E+00  0.45593999997E+02  0.45594000000E+02  0.51100000000E-03 0. -1.
         11   -1    0    0    0    0 -0.00000000000E+00 -0.00000000000E+00 -0.45593999997E+02  0.45594000000E+02  0.51100000000E-03 0.  1.
    9900012    2    1    2    0    0  0.15176218041E+02 -0.11859031542E+01 -0.10906791950E+02  0.72461492825E+02  0.69999899082E+02 0.  0.
         12    1    1    2    0    0 -0.15176218041E+02  0.11859031542E+01  0.10906791950E+02  0.18726507175E+02  0.00000000000E+00 0. -1.
         11    1    3    3    0    0  0.47920113760E+00  0.67038352938E+00 -0.53048635024E+01  0.53684844087E+01  0.51100000000E-03 0. -1.
        -11    1    3    3    0    0  0.12886517595E+02  0.11957022148E+02 -0.32415959033E+02  0.36875833749E+02  0.51100000000E-03 0.  1.
         12    1    3    3    0    0  0.18104993090E+01 -0.13813308831E+02  0.26814030586E+02  0.30217174667E+02  0.00000000000E+00 0. -1.
</event>
<event>
 7    1  0.3305651E-013  0.7246154E+02  0.7816164E-02  0.1226708E+00
        -11   -1    0    0    0    0  0.00000000000E+00  0.00000000000E+00  0.45593999997E+02  0.45594000000E+02  0.51100000000E-03 0.  1.
         11   -1    0    0    0    0 -0.00000000000E+00 -0.00000000000E+00 -0.45593999997E+02  0.45594000000E+02  0.51100000000E-03 0. -1.
    9900012    2    1    2    0    0  0.10064721931E+02 -0.16633524194E+01  0.15703977440E+02  0.72461540744E+02  0.69999961505E+02 0.  0.
         12    1    1    2    0    0 -0.10064721931E+02  0.16633524194E+01 -0.15703977440E+02  0.18726459256E+02  0.00000000000E+00 0. -1.
         11    1    3    3    0    0 -0.91639027791E+01 -0.13060272108E+02  0.21996701347E+02  0.27173566054E+02  0.51100000000E-03 0. -1.
        -11    1    3    3    0    0 -0.23294635539E+01  0.18488170507E+02  0.58735676541E+01  0.19538107544E+02  0.51100000000E-03 0.  1.
        -12    1    3    3    0    0  0.21558088264E+02 -0.70912508183E+01 -0.12166291560E+02  0.25749867147E+02  0.00000000000E+00 0.  1.
</event>
<event>
 7    1  0.3305651E-013  0.7246154E+02  0.7816164E-02  0.1226708E+00
        -11   -1    0    0    0    0  0.00000000000E+00  0.00000000000E+00  0.45593999997E+02  0.45594000000E+02  0.51100000000E-03 0. -1.
         11   -1    0    0    0    0 -0.00000000000E+00 -0.00000000000E+00 -0.45593999997E+02  0.45594000000E+02  0.51100000000E-03 0.  1.
    9900012    2    1    2    0    0  0.16405838141E+02 -0.79079512880E+01  0.43581178864E+01  0.72461537168E+02  0.69999956847E+02 0.  0.
         12    1    1    2    0    0 -0.16405838141E+02  0.79079512880E+01 -0.43581178864E+01  0.18726462832E+02  0.00000000000E+00 0. -1.
         11    1    3    3    0    0 -0.57110265652E+01 -0.68481444248E+01 -0.13843816397E+02  0.16467062858E+02  0.51100000000E-03 0. -1.
        -11    1    3    3    0    0  0.16039352512E+02 -0.23748437236E+02  0.14823307693E+02  0.32264214718E+02  0.51100000000E-03 0.  1.
         12    1    3    3    0    0  0.60775121944E+01  0.22688630372E+02  0.33786265897E+01  0.23730259592E+02  0.00000000000E+00 0. -1.
</event>
<event>
 7    1  0.3305651E-013  0.7246162E+02  0.7816164E-02  0.1226708E+00
        -11   -1    0    0    0    0  0.00000000000E+00  0.00000000000E+00  0.45593999997E+02  0.45594000000E+02  0.51100000000E-03 0.  1.
         11   -1    0    0    0    0 -0.00000000000E+00 -0.00000000000E+00 -0.45593999997E+02  0.45594000000E+02  0.51100000000E-03 0. -1.
    9900012    2    1    2    0    0 -0.49506175284E+01 -0.96946259456E+01  0.15237552382E+02  0.72461617842E+02  0.70000061939E+02 0.  0.
         12    1    1    2    0    0  0.49506175284E+01  0.96946259456E+01 -0.15237552382E+02  0.18726382158E+02  0.00000000000E+00 0. -1.
         11    1    3    3    0    0  0.15930294432E+02  0.37138752485E+01 -0.39755936170E+01  0.16833671463E+02  0.51100000000E-03 0. -1.
        -11    1    3    3    0    0 -0.12639380884E+02 -0.92041675785E+00  0.32958043312E+02  0.35310532924E+02  0.51100000000E-03 0.  1.
         12    1    3    3    0    0 -0.82415310758E+01 -0.12488084436E+02 -0.13744897313E+02  0.20317413455E+02  0.00000000000E+00 0. -1.
</event>
<event>
 7    1  0.3305651E-013  0.7246158E+02  0.7816164E-02  0.1226708E+00
        -11   -1    0    0    0    0  0.00000000000E+00  0.00000000000E+00  0.45593999997E+02  0.45594000000E+02  0.51100000000E-03 0. -1.
         11   -1    0    0    0    0 -0.00000000000E+00 -0.00000000000E+00 -0.45593999997E+02  0.45594000000E+02  0.51100000000E-03 0.  1.
    9900012    2    1    2    0    0  0.70008427760E+00  0.13033300636E+02 -0.13428395404E+02  0.72461578916E+02  0.70000011232E+02 0.  0.
         12    1    1    2    0    0 -0.70008427760E+00 -0.13033300636E+02  0.13428395404E+02  0.18726421084E+02  0.00000000000E+00 0. -1.
         11    1    3    3    0    0  0.13959373033E+02  0.37348560428E+01  0.18655660044E+02  0.23597603630E+02  0.51100000000E-03 0. -1.
        -11    1    3    3    0    0  0.53467651476E+01 -0.84107111994E+01 -0.38245339669E+01  0.10674971698E+02  0.51100000000E-03 0.  1.
        -12    1    3    3    0    0 -0.18606053903E+02  0.17709155793E+02 -0.28259521481E+02  0.38189003589E+02  0.00000000000E+00 0.  1.
</event>
<event>
 7    1  0.3305651E-013  0.7246122E+02  0.7816164E-02  0.1226709E+00
        -11   -1    0    0    0    0  0.00000000000E+00  0.00000000000E+00  0.45593999997E+02  0.45594000000E+02  0.51100000000E-03 0. -1.
         11   -1    0    0    0    0 -0.00000000000E+00 -0.00000000000E+00 -0.45593999997E+02  0.45594000000E+02  0.51100000000E-03 0.  1.
    9900012    2    1    2    0    0 -0.14539207315E+02  0.11408406704E+02  0.30252275810E+01  0.72461219850E+02  0.69999543479E+02 0.  0.
         12    1    1    2    0    0  0.14539207315E+02 -0.11408406704E+02 -0.30252275810E+01  0.18726780150E+02  0.00000000000E+00 0. -1.
         11    1    3    3    0    0 -0.18082391332E+02  0.58224095436E+01  0.25571615333E+01  0.19168004710E+02  0.51100000000E-03 0. -1.
        -11    1    3    3    0    0 -0.20024297608E+02  0.15403896522E+02  0.82935108644E+01  0.26590126842E+02  0.51100000000E-03 0.  1.
        -12    1    3    3    0    0  0.23567481625E+02 -0.98178993619E+01 -0.78254448168E+01  0.26703088298E+02  0.00000000000E+00 0.  1.
</event>
<event>
 7    1  0.3305651E-013  0.7246159E+02  0.7816164E-02  0.1226708E+00
        -11   -1    0    0    0    0  0.00000000000E+00  0.00000000000E+00  0.45593999997E+02  0.45594000000E+02  0.51100000000E-03 0.  1.
         11   -1    0    0    0    0 -0.00000000000E+00 -0.00000000000E+00 -0.45593999997E+02  0.45594000000E+02  0.51100000000E-03 0. -1.
    9900012    2    1    2    0    0  0.15411785412E+02 -0.68570524955E+00  0.10615318675E+02  0.72461593195E+02  0.70000029832E+02 0.  0.
         12    1    1    2    0    0 -0.15411785412E+02  0.68570524955E+00 -0.10615318675E+02  0.18726406805E+02  0.00000000000E+00 0. -1.
         11    1    3    3    0    0  0.15621211520E+02 -0.90692534060E+01  0.97182224974E+01  0.20511398184E+02  0.51100000000E-03 0. -1.
        -11    1    3    3    0    0  0.19718557628E+02  0.31504987583E+01 -0.15773508297E+02  0.25447017931E+02  0.51100000000E-03 0.  1.
        -12    1    3    3    0    0 -0.19927983735E+02  0.52330493982E+01  0.16670604475E+02  0.26503177079E+02  0.00000000000E+00 0.  1.
</event>
<event>
 7    1  0.3305651E-013  0.7246159E+02  0.7816164E-02  0.1226708E+00
        -11   -1    0    0    0    0  0.00000000000E+00  0.00000000000E+00  0.45593999997E+02  0.45594000000E+02  0.51100000000E-03 0.  1.
         11   -1    0    0    0    0 -0.00000000000E+00 -0.00000000000E+00 -0.45593999997E+02  0.45594000000E+02  0.51100000000E-03 0. -1.
    9900012    2    1    2    0    0  0.79171510496E+01 -0.16069971646E+02  0.54546422567E+01  0.72461591065E+02  0.70000027057E+02 0.  0.
         12    1    1    2    0    0 -0.79171510496E+01  0.16069971646E+02 -0.54546422567E+01  0.18726408935E+02  0.00000000000E+00 0. -1.
         11    1    3    3    0    0 -0.53655186180E+01 -0.65325354127E+01 -0.24043074804E+02  0.25485922688E+02  0.51100000000E-03 0. -1.
        -11    1    3    3    0    0 -0.86234839613E+01  0.19746806739E+01  0.50993778756E+00  0.88613698829E+01  0.51100000000E-03 0.  1.
        -12    1    3    3    0    0  0.21906153629E+02 -0.11512116908E+02  0.28987779273E+02  0.38114298494E+02  0.00000000000E+00 0.  1.
</event>
<event>
 7    1  0.3305651E-013  0.7246160E+02  0.7816164E-02  0.1226708E+00
        -11   -1    0    0    0    0  0.00000000000E+00  0.00000000000E+00  0.45593999997E+02  0.45594000000E+02  0.51100000000E-03 0.  1.
         11   -1    0    0    0    0 -0.00000000000E+00 -0.00000000000E+00 -0.45593999997E+02  0.45594000000E+02  0.51100000000E-03 0. -1.
    9900012    2    1    2    0    0  0.29650107995E+01  0.11304869521E+02  0.14631695815E+02  0.72461604556E+02  0.70000044632E+02 0.  0.
         12    1    1    2    0    0 -0.29650107995E+01 -0.11304869521E+02 -0.14631695815E+02  0.18726395444E+02  0.00000000000E+00 0. -1.
         11    1    3    3    0    0 -0.63483121066E+01  0.10075760636E+02 -0.78853589206E+01  0.14282888523E+02  0.51100000000E-03 0. -1.
        -11    1    3    3    0    0  0.61824699889E+01  0.24188508017E+02  0.24426954401E+02  0.34928254420E+02  0.51100000000E-03 0.  1.
         12    1    3    3    0    0  0.31308529171E+01 -0.22959399132E+02 -0.19098996656E+01  0.23250461613E+02  0.00000000000E+00 0. -1.
</event>
<event>
 7    1  0.3305651E-013  0.7246163E+02  0.7816164E-02  0.1226708E+00
        -11   -1    0    0    0    0  0.00000000000E+00  0.00000000000E+00  0.45593999997E+02  0.45594000000E+02  0.51100000000E-03 0.  1.
         11   -1    0    0    0    0 -0.00000000000E+00 -0.00000000000E+00 -0.45593999997E+02  0.45594000000E+02  0.51100000000E-03 0. -1.
    9900012    2    1    2    0    0 -0.47790492975E-02 -0.14436203571E+02  0.11927821685E+02  0.72461630183E+02  0.70000078016E+02 0.  0.
         12    1    1    2    0    0  0.47790492975E-02  0.14436203571E+02 -0.11927821685E+02  0.18726369817E+02  0.00000000000E+00 0. -1.
         11    1    3    3    0    0  0.15709127195E+02 -0.14656658004E+02  0.76552154287E+01  0.22807819374E+02  0.51100000000E-03 0. -1.
        -11    1    3    3    0    0  0.12692459183E+02  0.22252996804E+01  0.14497644919E+02  0.19396705577E+02  0.51100000000E-03 0.  1.
        -12    1    3    3    0    0 -0.28406365428E+02 -0.20048452472E+01 -0.10225038663E+02  0.30257105231E+02  0.00000000000E+00 0.  1.
</event>
<event>
 7    1  0.3305651E-013  0.7246158E+02  0.7816164E-02  0.1226708E+00
        -11   -1    0    0    0    0  0.00000000000E+00  0.00000000000E+00  0.45593999997E+02  0.45594000000E+02  0.51100000000E-03 0. -1.
         11   -1    0    0    0    0 -0.00000000000E+00 -0.00000000000E+00 -0.45593999997E+02  0.45594000000E+02  0.51100000000E-03 0.  1.
    9900012    2    1    2    0    0 -0.28700808655E+01  0.18002680172E+02  0.42830858004E+01  0.72461583324E+02  0.70000016973E+02 0.  0.
         12    1    1    2    0    0  0.28700808655E+01 -0.18002680172E+02 -0.42830858004E+01  0.18726416676E+02  0.00000000000E+00 0. -1.
         11    1    3    3    0    0 -0.37199851326E+01 -0.49185247290E+01 -0.67838652759E+01  0.91679334225E+01  0.51100000000E-03 0. -1.
        -11    1    3    3    0    0 -0.32630218464E+01 -0.80707105695E+01 -0.18385164792E+02  0.20342024613E+02  0.51100000000E-03 0.  1.
         12    1    3    3    0    0  0.41129261136E+01  0.30991915471E+02  0.29452115869E+02  0.42951625288E+02  0.00000000000E+00 0. -1.
</event>
<event>
 7    1  0.3305651E-013  0.7246158E+02  0.7816164E-02  0.1226708E+00
        -11   -1    0    0    0    0  0.00000000000E+00  0.00000000000E+00  0.45593999997E+02  0.45594000000E+02  0.51100000000E-03 0.  1.
         11   -1    0    0    0    0 -0.00000000000E+00 -0.00000000000E+00 -0.45593999997E+02  0.45594000000E+02  0.51100000000E-03 0. -1.
    9900012    2    1    2    0    0  0.11916655111E+02  0.13063674319E+02  0.61654447107E+01  0.72461575776E+02  0.70000007140E+02 0.  0.
         12    1    1    2    0    0 -0.11916655111E+02 -0.13063674319E+02 -0.61654447107E+01  0.18726424224E+02  0.00000000000E+00 0. -1.
         11    1    3    3    0    0  0.67214984891E+01 -0.22961372964E+01  0.48177324033E+01  0.85826181433E+01  0.51100000000E-03 0. -1.
        -11    1    3    3    0    0  0.17773906209E+02 -0.33361494876E+00  0.26353286873E+02  0.31788657885E+02  0.51100000000E-03 0.  1.
         12    1    3    3    0    0 -0.12578749587E+02  0.15693426564E+02 -0.25005574566E+02  0.32090299747E+02  0.00000000000E+00 0. -1.
</event>
<event>
 7    1  0.3305651E-013  0.7246153E+02  0.7816164E-02  0.1226708E+00
        -11   -1    0    0    0    0  0.00000000000E+00  0.00000000000E+00  0.45593999997E+02  0.45594000000E+02  0.51100000000E-03 0. -1.
         11   -1    0    0    0    0 -0.00000000000E+00 -0.00000000000E+00 -0.45593999997E+02  0.45594000000E+02  0.51100000000E-03 0.  1.
    9900012    2    1    2    0    0  0.58481242794E+01 -0.16386272608E+02 -0.69260513579E+01  0.72461530098E+02  0.69999947636E+02 0.  0.
         12    1    1    2    0    0 -0.58481242794E+01  0.16386272608E+02  0.69260513579E+01  0.18726469902E+02  0.00000000000E+00 0. -1.
         11    1    3    3    0    0  0.21252760303E+02 -0.26137007739E+02 -0.16746005909E+00  0.33687550181E+02  0.51100000000E-03 0. -1.
        -11    1    3    3    0    0 -0.15603597032E+02 -0.88668956183E+00 -0.17631845116E+02  0.23561418064E+02  0.51100000000E-03 0.  1.
         12    1    3    3    0    0  0.19896100867E+00  0.10637424692E+02  0.10873253817E+02  0.15212561853E+02  0.00000000000E+00 0. -1.
</event>
<event>
 7    1  0.3305651E-013  0.7246155E+02  0.7816164E-02  0.1226708E+00
        -11   -1    0    0    0    0  0.00000000000E+00  0.00000000000E+00  0.45593999997E+02  0.45594000000E+02  0.51100000000E-03 0. -1.
         11   -1    0    0    0    0 -0.00000000000E+00 -0.00000000000E+00 -0.45593999997E+02  0.45594000000E+02  0.51100000000E-03 0.  1.
    9900012    2    1    2    0    0 -0.17292646099E+02  0.33127506763E+01 -0.63772927473E+01  0.72461553756E+02  0.69999978455E+02 0.  0.
         12    1    1    2    0    0  0.17292646099E+02 -0.33127506763E+01  0.63772927473E+01  0.18726446244E+02  0.00000000000E+00 0. -1.
         11    1    3    3    0    0  0.12668728747E+02 -0.39315215323E+00  0.10311866728E+02  0.16339701722E+02  0.51100000000E-03 0. -1.
        -11    1    3    3    0    0 -0.10871949759E+02 -0.20013361583E+02 -0.39423310468E+01  0.23114409094E+02  0.51100000000E-03 0.  1.
        -12    1    3    3    0    0 -0.19089425088E+02  0.23719264412E+02 -0.12746828428E+02  0.33007442940E+02  0.00000000000E+00 0.  1.
</event>
<event>
 7    1  0.3305651E-013  0.7246158E+02  0.7816164E-02  0.1226708E+00
        -11   -1    0    0    0    0  0.00000000000E+00  0.00000000000E+00  0.45593999997E+02  0.45594000000E+02  0.51100000000E-03 0. -1.
         11   -1    0    0    0    0 -0.00000000000E+00 -0.00000000000E+00 -0.45593999997E+02  0.45594000000E+02  0.51100000000E-03 0.  1.
    9900012    2    1    2    0    0  0.18133296176E+02  0.44486263955E+01 -0.14394138703E+01  0.72461584985E+02  0.70000019137E+02 0.  0.
         12    1    1    2    0    0 -0.18133296176E+02 -0.44486263955E+01  0.14394138703E+01  0.18726415015E+02  0.00000000000E+00 0. -1.
         11    1    3    3    0    0 -0.68430701156E+01  0.61576860845E+01  0.16706418745E+02  0.19074829856E+02  0.51100000000E-03 0. -1.
        -11    1    3    3    0    0 -0.10862233495E+02 -0.78153229408E+01 -0.17148769045E+01  0.13491041184E+02  0.51100000000E-03 0.  1.
        -12    1    3    3    0    0  0.35838599787E+02  0.61062632518E+01 -0.16430955710E+02  0.39895713945E+02  0.00000000000E+00 0.  1.
</event>
<event>
 7    1  0.3305651E-013  0.7246144E+02  0.7816164E-02  0.1226708E+00
        -11   -1    0    0    0    0  0.00000000000E+00  0.00000000000E+00  0.45593999997E+02  0.45594000000E+02  0.51100000000E-03 0.  1.
         11   -1    0    0    0    0 -0.00000000000E+00 -0.00000000000E+00 -0.45593999997E+02  0.45594000000E+02  0.51100000000E-03 0. -1.
    9900012    2    1    2    0    0 -0.50104954206E+01  0.55948623868E+00  0.18035130646E+02  0.72461440609E+02  0.69999831061E+02 0.  0.
         12    1    1    2    0    0  0.50104954206E+01 -0.55948623868E+00 -0.18035130646E+02  0.18726559391E+02  0.00000000000E+00 0. -1.
         11    1    3    3    0    0 -0.96677542625E+01 -0.12647305931E+02 -0.11778892636E+02  0.19803083896E+02  0.51100000000E-03 0. -1.
        -11    1    3    3    0    0  0.70613245197E+00 -0.12965251232E+02  0.21131699517E+02  0.24802118605E+02  0.51100000000E-03 0.  1.
        -12    1    3    3    0    0  0.39511263899E+01  0.26172043402E+02  0.86823237645E+01  0.27856238108E+02  0.00000000000E+00 0.  1.
</event>
<event>
 7    1  0.3305651E-013  0.7246160E+02  0.7816164E-02  0.1226708E+00
        -11   -1    0    0    0    0  0.00000000000E+00  0.00000000000E+00  0.45593999997E+02  0.45594000000E+02  0.51100000000E-03 0. -1.
         11   -1    0    0    0    0 -0.00000000000E+00 -0.00000000000E+00 -0.45593999997E+02  0.45594000000E+02  0.51100000000E-03 0.  1.
    9900012    2    1    2    0    0  0.13464690670E+02  0.93260106618E+01 -0.90777634357E+01  0.72461597283E+02  0.70000035158E+02 0.  0.
         12    1    1    2    0    0 -0.13464690670E+02 -0.93260106618E+01  0.90777634357E+01  0.18726402717E+02  0.00000000000E+00 0. -1.
         11    1    3    3    0    0  0.61431402920E+01  0.24809950357E+01 -0.89201081342E-01  0.66258181464E+01  0.51100000000E-03 0. -1.
        -11    1    3    3    0    0 -0.17733829040E+02  0.26489697264E+02 -0.11523337049E+02  0.33896608246E+02  0.51100000000E-03 0.  1.
         12    1    3    3    0    0  0.25055379419E+02 -0.19644681638E+02  0.25347746948E+01  0.31939170891E+02  0.00000000000E+00 0. -1.
</event>
<event>
 7    1  0.3305651E-013  0.7246158E+02  0.7816164E-02  0.1226708E+00
        -11   -1    0    0    0    0  0.00000000000E+00  0.00000000000E+00  0.45593999997E+02  0.45594000000E+02  0.51100000000E-03 0. -1.
         11   -1    0    0    0    0 -0.00000000000E+00 -0.00000000000E+00 -0.45593999997E+02  0.45594000000E+02  0.51100000000E-03 0.  1.
    9900012    2    1    2    0    0  0.15951775995E+02  0.64106591739E+01 -0.74244893688E+01  0.72461581473E+02  0.70000014563E+02 0.  0.
         12    1    1    2    0    0 -0.15951775995E+02 -0.64106591739E+01  0.74244893688E+01  0.18726418527E+02  0.00000000000E+00 0. -1.
         11    1    3    3    0    0 -0.10142074114E+02 -0.12839822257E+01  0.18776227995E+02  0.21378891825E+02  0.51100000000E-03 0.  1.
        -11    1    3    3    0    0  0.38588237063E+01  0.18251797670E+02 -0.72337110414E+01  0.20008628496E+02  0.51100000000E-03 0. -1.
        -12    1    3    3    0    0  0.22235026404E+02 -0.10557156271E+02 -0.18967006322E+02  0.31074061152E+02  0.00000000000E+00 0.  1.
</event>
<event>
 7    1  0.3305651E-013  0.7246155E+02  0.7816164E-02  0.1226708E+00
        -11   -1    0    0    0    0  0.00000000000E+00  0.00000000000E+00  0.45593999997E+02  0.45594000000E+02  0.51100000000E-03 0.  1.
         11   -1    0    0    0    0 -0.00000000000E+00 -0.00000000000E+00 -0.45593999997E+02  0.45594000000E+02  0.51100000000E-03 0. -1.
    9900012    2    1    2    0    0 -0.73491529766E+01 -0.89884864034E+01 -0.14692756759E+02  0.72461547093E+02  0.69999969776E+02 0.  0.
         12    1    1    2    0    0  0.73491529766E+01  0.89884864034E+01  0.14692756759E+02  0.18726452907E+02  0.00000000000E+00 0. -1.
         11    1    3    3    0    0 -0.20160795708E+01  0.11115308956E+02 -0.40232799804E+01  0.11991724316E+02  0.51100000000E-03 0. -1.
        -11    1    3    3    0    0 -0.21013934013E+02  0.11207542837E+02  0.15583951370E+00  0.23816354157E+02  0.51100000000E-03 0.  1.
        -12    1    3    3    0    0  0.15680860607E+02 -0.31311338196E+02 -0.10825316292E+02  0.36653468619E+02  0.00000000000E+00 0.  1.
</event>
<event>
 7    1  0.3305651E-013  0.7246177E+02  0.7816164E-02  0.1226707E+00
        -11   -1    0    0    0    0  0.00000000000E+00  0.00000000000E+00  0.45593999997E+02  0.45594000000E+02  0.51100000000E-03 0.  1.
         11   -1    0    0    0    0 -0.00000000000E+00 -0.00000000000E+00 -0.45593999997E+02  0.45594000000E+02  0.51100000000E-03 0. -1.
    9900012    2    1    2    0    0 -0.23628008504E+01  0.18574753772E+02 -0.25924399937E+00  0.72461774726E+02  0.70000266310E+02 0.  0.
         12    1    1    2    0    0  0.23628008504E+01 -0.18574753772E+02  0.25924399937E+00  0.18726225274E+02  0.00000000000E+00 0. -1.
         11    1    3    3    0    0 -0.16275107527E+02  0.12172045220E+02 -0.81167008446E+01  0.21884209894E+02  0.51100000000E-03 0. -1.
        -11    1    3    3    0    0  0.16256608534E+02 -0.67860880579E+01  0.23891741613E+02  0.29684063565E+02  0.51100000000E-03 0.  1.
         12    1    3    3    0    0 -0.23443018578E+01  0.13188796610E+02 -0.16034284767E+02  0.20893501268E+02  0.00000000000E+00 0. -1.
</event>
<event>
 7    1  0.3305651E-013  0.7246149E+02  0.7816164E-02  0.1226708E+00
        -11   -1    0    0    0    0  0.00000000000E+00  0.00000000000E+00  0.45593999997E+02  0.45594000000E+02  0.51100000000E-03 0. -1.
         11   -1    0    0    0    0 -0.00000000000E+00 -0.00000000000E+00 -0.45593999997E+02  0.45594000000E+02  0.51100000000E-03 0.  1.
    9900012    2    1    2    0    0  0.45738163867E+01 -0.11145909322E+02 -0.14336350817E+02  0.72461493500E+02  0.69999899961E+02 0.  0.
         12    1    1    2    0    0 -0.45738163867E+01  0.11145909322E+02  0.14336350817E+02  0.18726506500E+02  0.00000000000E+00 0. -1.
         11    1    3    3    0    0  0.10222039091E+02  0.30921560136E+00 -0.47888930391E+01  0.11292439695E+02  0.51100000000E-03 0. -1.
        -11    1    3    3    0    0  0.13586684617E+02 -0.98508833641E+01  0.19854941453E+02  0.25997242206E+02  0.51100000000E-03 0.  1.
         12    1    3    3    0    0 -0.19234907321E+02 -0.16042415595E+01 -0.29402399231E+02  0.35171811599E+02  0.00000000000E+00 0. -1.
</event>
<event>
 7    1  0.3305651E-013  0.7246161E+02  0.7816164E-02  0.1226708E+00
        -11   -1    0    0    0    0  0.00000000000E+00  0.00000000000E+00  0.45593999997E+02  0.45594000000E+02  0.51100000000E-03 0.  1.
         11   -1    0    0    0    0 -0.00000000000E+00 -0.00000000000E+00 -0.45593999997E+02  0.45594000000E+02  0.51100000000E-03 0. -1.
    9900012    2    1    2    0    0 -0.13455415489E+02 -0.13020206020E+02 -0.32227760592E+00  0.72461605963E+02  0.70000046465E+02 0.  0.
         12    1    1    2    0    0  0.13455415489E+02  0.13020206020E+02  0.32227760592E+00  0.18726394037E+02  0.00000000000E+00 0. -1.
         11    1    3    3    0    0  0.12989686141E+02 -0.14880543495E+02  0.73805102648E+01  0.21086357030E+02  0.51100000000E-03 0. -1.
        -11    1    3    3    0    0  0.59551872264E+01 -0.13330442704E+02  0.70137000174E+00  0.14617006456E+02  0.51100000000E-03 0.  1.
        -12    1    3    3    0    0 -0.32400288857E+02  0.15190780179E+02 -0.84041578724E+01  0.36758242477E+02  0.00000000000E+00 0.  1.
</event>
<event>
 7    1  0.3305651E-013  0.7246143E+02  0.7816164E-02  0.1226708E+00
        -11   -1    0    0    0    0  0.00000000000E+00  0.00000000000E+00  0.45593999997E+02  0.45594000000E+02  0.51100000000E-03 0.  1.
         11   -1    0    0    0    0 -0.00000000000E+00 -0.00000000000E+00 -0.45593999997E+02  0.45594000000E+02  0.51100000000E-03 0. -1.
    9900012    2    1    2    0    0 -0.14505690578E+02  0.11026931640E+02  0.43216112533E+01  0.72461425183E+02  0.69999810965E+02 0.  0.
         12    1    1    2    0    0  0.14505690578E+02 -0.11026931640E+02 -0.43216112533E+01  0.18726574817E+02  0.00000000000E+00 0. -1.
         11    1    3    3    0    0 -0.77798462936E+01  0.14045332096E+02 -0.19906994000E+01  0.16179006348E+02  0.51100000000E-03 0. -1.
        -11    1    3    3    0    0 -0.82802642218E+01 -0.23166013403E+02 -0.13432817842E+02  0.28029761826E+02  0.51100000000E-03 0.  1.
         12    1    3    3    0    0  0.15544199373E+01  0.20147612947E+02  0.19745128495E+02  0.28252657010E+02  0.00000000000E+00 0. -1.
</event>
<event>
 7    1  0.3305651E-013  0.7246154E+02  0.7816164E-02  0.1226708E+00
        -11   -1    0    0    0    0  0.00000000000E+00  0.00000000000E+00  0.45593999997E+02  0.45594000000E+02  0.51100000000E-03 0.  1.
         11   -1    0    0    0    0 -0.00000000000E+00 -0.00000000000E+00 -0.45593999997E+02  0.45594000000E+02  0.51100000000E-03 0. -1.
    9900012    2    1    2    0    0  0.16881008068E+02 -0.69168574278E+01 -0.42271611346E+01  0.72461541677E+02  0.69999962720E+02 0.  0.
         12    1    1    2    0    0 -0.16881008068E+02  0.69168574278E+01  0.42271611346E+01  0.18726458323E+02  0.00000000000E+00 0. -1.
         11    1    3    3    0    0 -0.34514000664E+01 -0.37807260678E+01 -0.94128748772E+00  0.52050047468E+01  0.51100000000E-03 0. -1.
        -11    1    3    3    0    0  0.98507452575E+01  0.14588666241E+02  0.26034768980E+02  0.31427305976E+02  0.51100000000E-03 0.  1.
         12    1    3    3    0    0  0.10481662877E+02 -0.17724797601E+02 -0.29320642627E+02  0.35829230954E+02  0.00000000000E+00 0. -1.
</event>
<event>
 7    1  0.3305651E-013  0.7246164E+02  0.7816164E-02  0.1226708E+00
        -11   -1    0    0    0    0  0.00000000000E+00  0.00000000000E+00  0.45593999997E+02  0.45594000000E+02  0.51100000000E-03 0. -1.
         11   -1    0    0    0    0 -0.00000000000E+00 -0.00000000000E+00 -0.45593999997E+02  0.45594000000E+02  0.51100000000E-03 0.  1.
    9900012    2    1    2    0    0 -0.14794336213E+02  0.11395164721E+02 -0.13980137953E+01  0.72461638753E+02  0.70000089179E+02 0.  0.
         12    1    1    2    0    0  0.14794336213E+02 -0.11395164721E+02  0.13980137953E+01  0.18726361247E+02  0.00000000000E+00 0. -1.
         11    1    3    3    0    0  0.13693600725E+02 -0.15803553121E+02 -0.80957298079E+01  0.22423376941E+02  0.51100000000E-03 0. -1.
        -11    1    3    3    0    0 -0.90593838394E+01  0.33396829253E+01  0.15297896551E+02  0.18090095542E+02  0.51100000000E-03 0.  1.
        -12    1    3    3    0    0 -0.19428553098E+02  0.23859034918E+02 -0.86001805380E+01  0.31948166269E+02  0.00000000000E+00 0.  1.
</event>
<event>
 7    1  0.3305651E-013  0.7246164E+02  0.7816164E-02  0.1226708E+00
        -11   -1    0    0    0    0  0.00000000000E+00  0.00000000000E+00  0.45593999997E+02  0.45594000000E+02  0.51100000000E-03 0.  1.
         11   -1    0    0    0    0 -0.00000000000E+00 -0.00000000000E+00 -0.45593999997E+02  0.45594000000E+02  0.51100000000E-03 0. -1.
    9900012    2    1    2    0    0 -0.73757696521E+01 -0.60076174055E+01 -0.16130195388E+02  0.72461637616E+02  0.70000087700E+02 0.  0.
         12    1    1    2    0    0  0.73757696521E+01  0.60076174055E+01  0.16130195388E+02  0.18726362384E+02  0.00000000000E+00 0. -1.
         11    1    3    3    0    0 -0.15818508646E+01 -0.10639884710E+01  0.11419698197E+02  0.11577729950E+02  0.51100000000E-03 0. -1.
        -11    1    3    3    0    0  0.16783979210E+02  0.16167846115E+02 -0.10221027093E+02  0.25447408536E+02  0.51100000000E-03 0.  1.
         12    1    3    3    0    0 -0.22577897998E+02 -0.21111475049E+02 -0.17328866492E+02  0.35436499131E+02  0.00000000000E+00 0. -1.
</event>
<event>
 7    1  0.3305651E-013  0.7246156E+02  0.7816164E-02  0.1226708E+00
        -11   -1    0    0    0    0  0.00000000000E+00  0.00000000000E+00  0.45593999997E+02  0.45594000000E+02  0.51100000000E-03 0.  1.
         11   -1    0    0    0    0 -0.00000000000E+00 -0.00000000000E+00 -0.45593999997E+02  0.45594000000E+02  0.51100000000E-03 0. -1.
    9900012    2    1    2    0    0 -0.16079359290E+02  0.93651020920E+01 -0.21044421610E+01  0.72461558555E+02  0.69999984707E+02 0.  0.
         12    1    1    2    0    0  0.16079359290E+02 -0.93651020920E+01  0.21044421610E+01  0.18726441445E+02  0.00000000000E+00 0. -1.
         11    1    3    3    0    0  0.10506482291E+02  0.20525158386E+00  0.52526430164E+00  0.10521606398E+02  0.51100000000E-03 0. -1.
        -11    1    3    3    0    0 -0.63145594134E+01  0.24901523488E+02 -0.18595513530E+02  0.31713603647E+02  0.51100000000E-03 0.  1.
        -12    1    3    3    0    0 -0.20271282168E+02 -0.15741672980E+02  0.15965807067E+02  0.30226348510E+02  0.00000000000E+00 0.  1.
</event>
<event>
 7    1  0.3305651E-013  0.7246154E+02  0.7816164E-02  0.1226708E+00
        -11   -1    0    0    0    0  0.00000000000E+00  0.00000000000E+00  0.45593999997E+02  0.45594000000E+02  0.51100000000E-03 0. -1.
         11   -1    0    0    0    0 -0.00000000000E+00 -0.00000000000E+00 -0.45593999997E+02  0.45594000000E+02  0.51100000000E-03 0.  1.
    9900012    2    1    2    0    0  0.77669984030E+00 -0.72884015513E+00 -0.18696148341E+02  0.72461536548E+02  0.69999956040E+02 0.  0.
         12    1    1    2    0    0 -0.77669984030E+00  0.72884015513E+00  0.18696148341E+02  0.18726463452E+02  0.00000000000E+00 0. -1.
         11    1    3    3    0    0 -0.17384378476E+02 -0.21953015194E+02 -0.69050792222E+01  0.28841491127E+02  0.51100000000E-03 0. -1.
        -11    1    3    3    0    0  0.91184488167E+01  0.62967311755E+01 -0.21105200112E+02  0.23837458009E+02  0.51100000000E-03 0.  1.
         12    1    3    3    0    0  0.90426294993E+01  0.14927443864E+02  0.93141309929E+01  0.19782587412E+02  0.00000000000E+00 0. -1.
</event>
<event>
 7    1  0.3305651E-013  0.7246168E+02  0.7816164E-02  0.1226708E+00
        -11   -1    0    0    0    0  0.00000000000E+00  0.00000000000E+00  0.45593999997E+02  0.45594000000E+02  0.51100000000E-03 0. -1.
         11   -1    0    0    0    0 -0.00000000000E+00 -0.00000000000E+00 -0.45593999997E+02  0.45594000000E+02  0.51100000000E-03 0.  1.
    9900012    2    1    2    0    0  0.51688291533E+01 -0.15926646460E+02 -0.83845260638E+01  0.72461677894E+02  0.70000140169E+02 0.  0.
         12    1    1    2    0    0 -0.51688291533E+01  0.15926646460E+02  0.83845260638E+01  0.18726322106E+02  0.00000000000E+00 0. -1.
         11    1    3    3    0    0 -0.22928833172E+01  0.73642253802E+01 -0.12609650768E+02  0.14781489171E+02  0.51100000000E-03 0. -1.
        -11    1    3    3    0    0 -0.10483649148E+02  0.11198837763E+02 -0.74947633255E+01  0.17073146876E+02  0.51100000000E-03 0.  1.
         12    1    3    3    0    0  0.17945361618E+02 -0.34489709604E+02  0.11719888030E+02  0.40607041847E+02  0.00000000000E+00 0. -1.
</event>
<event>
 7    1  0.3305651E-013  0.7246208E+02  0.7816164E-02  0.1226707E+00
        -11   -1    0    0    0    0  0.00000000000E+00  0.00000000000E+00  0.45593999997E+02  0.45594000000E+02  0.51100000000E-03 0.  1.
         11   -1    0    0    0    0 -0.00000000000E+00 -0.00000000000E+00 -0.45593999997E+02  0.45594000000E+02  0.51100000000E-03 0. -1.
    9900012    2    1    2    0    0  0.56409405386E+01  0.81283964857E+01 -0.15898711482E+02  0.72462080360E+02  0.70000664452E+02 0.  0.
         12    1    1    2    0    0 -0.56409405386E+01 -0.81283964857E+01  0.15898711482E+02  0.18725919640E+02  0.00000000000E+00 0. -1.
         11    1    3    3    0    0 -0.49850190563E+01  0.12340764216E+01 -0.26470376872E+01  0.57775573026E+01  0.51100000000E-03 0. -1.
        -11    1    3    3    0    0  0.13268870288E+02  0.27895883370E+02  0.12522475075E+02  0.33332500806E+02  0.51100000000E-03 0.  1.
         12    1    3    3    0    0 -0.26429106930E+01 -0.21001563306E+02 -0.25774148870E+02  0.33352022251E+02  0.00000000000E+00 0. -1.
</event>
<event>
 7    1  0.3305651E-013  0.7246156E+02  0.7816164E-02  0.1226708E+00
        -11   -1    0    0    0    0  0.00000000000E+00  0.00000000000E+00  0.45593999997E+02  0.45594000000E+02  0.51100000000E-03 0. -1.
         11   -1    0    0    0    0 -0.00000000000E+00 -0.00000000000E+00 -0.45593999997E+02  0.45594000000E+02  0.51100000000E-03 0.  1.
    9900012    2    1    2    0    0 -0.15925837708E+02  0.36531045519E+01 -0.91488813665E+01  0.72461561208E+02  0.69999988164E+02 0.  0.
         12    1    1    2    0    0  0.15925837708E+02 -0.36531045519E+01  0.91488813665E+01  0.18726438792E+02  0.00000000000E+00 0. -1.
         11    1    3    3    0    0  0.35648909107E+01  0.68466509491E+01  0.38027336916E+01  0.86049904250E+01  0.51100000000E-03 0. -1.
        -11    1    3    3    0    0 -0.15334915474E+02  0.14397419815E+02 -0.31551824897E+02  0.37920482388E+02  0.51100000000E-03 0.  1.
         12    1    3    3    0    0 -0.41558131446E+01 -0.17590966213E+02  0.18600209839E+02  0.25936088395E+02  0.00000000000E+00 0. -1.
</event>
<event>
 7    1  0.3305651E-013  0.7246164E+02  0.7816164E-02  0.1226708E+00
        -11   -1    0    0    0    0  0.00000000000E+00  0.00000000000E+00  0.45593999997E+02  0.45594000000E+02  0.51100000000E-03 0. -1.
         11   -1    0    0    0    0 -0.00000000000E+00 -0.00000000000E+00 -0.45593999997E+02  0.45594000000E+02  0.51100000000E-03 0.  1.
    9900012    2    1    2    0    0  0.43152226092E-01  0.18008487245E+02 -0.51350837737E+01  0.72461639961E+02  0.70000090754E+02 0.  0.
         12    1    1    2    0    0 -0.43152226092E-01 -0.18008487245E+02  0.51350837737E+01  0.18726360039E+02  0.00000000000E+00 0. -1.
         11    1    3    3    0    0 -0.28721267776E+00  0.74699817584E+01 -0.23444522357E+02  0.24607493724E+02  0.51100000000E-03 0. -1.
        -11    1    3    3    0    0 -0.69617306239E+01  0.14786457959E+02 -0.94235653615E+01  0.18865540454E+02  0.51100000000E-03 0.  1.
         12    1    3    3    0    0  0.72920955278E+01 -0.42479524728E+01  0.27733003945E+02  0.28988605782E+02  0.00000000000E+00 0. -1.
</event>
<event>
 7    1  0.3305651E-013  0.7246157E+02  0.7816164E-02  0.1226708E+00
        -11   -1    0    0    0    0  0.00000000000E+00  0.00000000000E+00  0.45593999997E+02  0.45594000000E+02  0.51100000000E-03 0. -1.
         11   -1    0    0    0    0 -0.00000000000E+00 -0.00000000000E+00 -0.45593999997E+02  0.45594000000E+02  0.51100000000E-03 0.  1.
    9900012    2    1    2    0    0 -0.21836905968E+01 -0.17342394991E+02  0.67195281058E+01  0.72461568770E+02  0.69999998014E+02 0.  0.
         12    1    1    2    0    0  0.21836905968E+01  0.17342394991E+02 -0.67195281058E+01  0.18726431230E+02  0.00000000000E+00 0. -1.
         11    1    3    3    0    0  0.11119834039E+02 -0.75287944622E+01  0.29385756187E+02  0.32308762310E+02  0.51100000000E-03 0. -1.
        -11    1    3    3    0    0  0.50610633157E+01 -0.28442174477E+01  0.39875719501E+01  0.70430579362E+01  0.51100000000E-03 0.  1.
        -12    1    3    3    0    0 -0.18364587951E+02 -0.69693830814E+01 -0.26653800031E+02  0.33109748523E+02  0.00000000000E+00 0.  1.
</event>
<event>
 7    1  0.3305651E-013  0.7246142E+02  0.7816164E-02  0.1226708E+00
        -11   -1    0    0    0    0  0.00000000000E+00  0.00000000000E+00  0.45593999997E+02  0.45594000000E+02  0.51100000000E-03 0. -1.
         11   -1    0    0    0    0 -0.00000000000E+00 -0.00000000000E+00 -0.45593999997E+02  0.45594000000E+02  0.51100000000E-03 0.  1.
    9900012    2    1    2    0    0  0.11307984485E+02  0.14788567116E+02 -0.20279835949E+01  0.72461416010E+02  0.69999799016E+02 0.  0.
         12    1    1    2    0    0 -0.11307984485E+02 -0.14788567116E+02  0.20279835949E+01  0.18726583990E+02  0.00000000000E+00 0. -1.
         11    1    3    3    0    0 -0.17907225750E+02  0.16897019892E+02 -0.43801305722E+01  0.25007270131E+02  0.51100000000E-03 0. -1.
        -11    1    3    3    0    0  0.60757661513E+01 -0.74560706084E+01  0.17013387920E+02  0.19543881191E+02  0.51100000000E-03 0.  1.
        -12    1    3    3    0    0  0.23139444084E+02  0.53476178325E+01 -0.14661240942E+02  0.27910264688E+02  0.00000000000E+00 0.  1.
</event>
<event>
 7    1  0.3305651E-013  0.7246155E+02  0.7816164E-02  0.1226708E+00
        -11   -1    0    0    0    0  0.00000000000E+00  0.00000000000E+00  0.45593999997E+02  0.45594000000E+02  0.51100000000E-03 0.  1.
         11   -1    0    0    0    0 -0.00000000000E+00 -0.00000000000E+00 -0.45593999997E+02  0.45594000000E+02  0.51100000000E-03 0. -1.
    9900012    2    1    2    0    0  0.23173389600E+01  0.15909379946E+02  0.96021694586E+01  0.72461545759E+02  0.69999968038E+02 0.  0.
         12    1    1    2    0    0 -0.23173389600E+01 -0.15909379946E+02 -0.96021694586E+01  0.18726454241E+02  0.00000000000E+00 0. -1.
         11    1    3    3    0    0 -0.98305949817E+01  0.11051246165E+01 -0.19702989550E+02  0.22046988357E+02  0.51100000000E-03 0. -1.
        -11    1    3    3    0    0 -0.12484847766E+02  0.97549783844E+01  0.10341807365E+02  0.18920465291E+02  0.51100000000E-03 0.  1.
        -12    1    3    3    0    0  0.24632781707E+02  0.50492769454E+01  0.18963351644E+02  0.31494092111E+02  0.00000000000E+00 0.  1.
</event>
<event>
 7    1  0.3305651E-013  0.7246158E+02  0.7816164E-02  0.1226708E+00
        -11   -1    0    0    0    0  0.00000000000E+00  0.00000000000E+00  0.45593999997E+02  0.45594000000E+02  0.51100000000E-03 0.  1.
         11   -1    0    0    0    0 -0.00000000000E+00 -0.00000000000E+00 -0.45593999997E+02  0.45594000000E+02  0.51100000000E-03 0. -1.
    9900012    2    1    2    0    0 -0.11301354226E+02  0.94319249311E+01  0.11575706980E+02  0.72461579964E+02  0.70000012597E+02 0.  0.
         12    1    1    2    0    0  0.11301354226E+02 -0.94319249311E+01 -0.11575706980E+02  0.18726420036E+02  0.00000000000E+00 0. -1.
         11    1    3    3    0    0  0.80343710723E+01 -0.14511945107E+02 -0.79887720293E+01  0.18411087640E+02  0.51100000000E-03 0. -1.
        -11    1    3    3    0    0 -0.25481865936E+01  0.18765862821E+02 -0.86449309160E+01  0.20817917599E+02  0.51100000000E-03 0.  1.
        -12    1    3    3    0    0 -0.16787538705E+02  0.51780072164E+01  0.28209409926E+02  0.33232574725E+02  0.00000000000E+00 0.  1.
</event>
<event>
 7    1  0.3305651E-013  0.7246115E+02  0.7816164E-02  0.1226709E+00
        -11   -1    0    0    0    0  0.00000000000E+00  0.00000000000E+00  0.45593999997E+02  0.45594000000E+02  0.51100000000E-03 0. -1.
         11   -1    0    0    0    0 -0.00000000000E+00 -0.00000000000E+00 -0.45593999997E+02  0.45594000000E+02  0.51100000000E-03 0.  1.
    9900012    2    1    2    0    0  0.11517185653E+02 -0.24229731317E+01 -0.14566346718E+02  0.72461152404E+02  0.69999455618E+02 0.  0.
         12    1    1    2    0    0 -0.11517185653E+02  0.24229731317E+01  0.14566346718E+02  0.18726847596E+02  0.00000000000E+00 0. -1.
         11    1    3    3    0    0 -0.41388860163E+01 -0.59654881481E+01  0.43890989708E+01  0.84841980374E+01  0.51100000000E-03 0. -1.
        -11    1    3    3    0    0 -0.11703602118E+02  0.17756186834E+02 -0.24722535258E+02  0.32610737852E+02  0.51100000000E-03 0.  1.
         12    1    3    3    0    0  0.27359673788E+02 -0.14213671818E+02  0.57670895690E+01  0.31366216514E+02  0.00000000000E+00 0. -1.
</event>
<event>
 7    1  0.3305651E-013  0.7246148E+02  0.7816164E-02  0.1226708E+00
        -11   -1    0    0    0    0  0.00000000000E+00  0.00000000000E+00  0.45593999997E+02  0.45594000000E+02  0.51100000000E-03 0.  1.
         11   -1    0    0    0    0 -0.00000000000E+00 -0.00000000000E+00 -0.45593999997E+02  0.45594000000E+02  0.51100000000E-03 0. -1.
    9900012    2    1    2    0    0  0.15496181983E+02  0.71448918694E+01  0.77137128323E+01  0.72461481329E+02  0.69999884106E+02 0.  0.
         12    1    1    2    0    0 -0.15496181983E+02 -0.71448918694E+01 -0.77137128323E+01  0.18726518671E+02  0.00000000000E+00 0. -1.
         11    1    3    3    0    0  0.18475265417E+01  0.78889263706E+01  0.10655243123E+02  0.13385914981E+02  0.51100000000E-03 0. -1.
        -11    1    3    3    0    0  0.29016903902E+02 -0.16296945746E+02  0.85693061412E+01  0.34365741090E+02  0.51100000000E-03 0.  1.
         12    1    3    3    0    0 -0.15368248460E+02  0.15552911245E+02 -0.11510836432E+02  0.24709825258E+02  0.00000000000E+00 0. -1.
</event>
<event>
 7    1  0.3305651E-013  0.7246157E+02  0.7816164E-02  0.1226708E+00
        -11   -1    0    0    0    0  0.00000000000E+00  0.00000000000E+00  0.45593999997E+02  0.45594000000E+02  0.51100000000E-03 0.  1.
         11   -1    0    0    0    0 -0.00000000000E+00 -0.00000000000E+00 -0.45593999997E+02  0.45594000000E+02  0.51100000000E-03 0. -1.
    9900012    2    1    2    0    0 -0.87359413657E+01 -0.87662680241E+01  0.14054010540E+02  0.72461565773E+02  0.69999994110E+02 0.  0.
         12    1    1    2    0    0  0.87359413657E+01  0.87662680241E+01 -0.14054010540E+02  0.18726434227E+02  0.00000000000E+00 0. -1.
         11    1    3    3    0    0 -0.56329161530E+01 -0.91025224658E+01  0.64278270541E+01  0.12486097089E+02  0.51100000000E-03 0. -1.
        -11    1    3    3    0    0 -0.39213658113E+01  0.23226326129E+02  0.22573368144E+02  0.32625086741E+02  0.51100000000E-03 0.  1.
         12    1    3    3    0    0  0.81834059863E+00 -0.22890071687E+02 -0.14947184658E+02  0.27350381942E+02  0.00000000000E+00 0. -1.
</event>
<event>
 7    1  0.3305651E-013  0.7246164E+02  0.7816164E-02  0.1226708E+00
        -11   -1    0    0    0    0  0.00000000000E+00  0.00000000000E+00  0.45593999997E+02  0.45594000000E+02  0.51100000000E-03 0.  1.
         11   -1    0    0    0    0 -0.00000000000E+00 -0.00000000000E+00 -0.45593999997E+02  0.45594000000E+02  0.51100000000E-03 0. -1.
    9900012    2    1    2    0    0  0.12184444696E+02  0.54617695984E+01  0.13129545228E+02  0.72461639499E+02  0.70000090152E+02 0.  0.
         12    1    1    2    0    0 -0.12184444696E+02 -0.54617695984E+01 -0.13129545228E+02  0.18726360501E+02  0.00000000000E+00 0. -1.
         11    1    3    3    0    0  0.23961859302E+02  0.10071073028E+02  0.30561184829E+01  0.26171302481E+02  0.51100000000E-03 0. -1.
        -11    1    3    3    0    0  0.16561143065E+02 -0.18895879541E+01  0.27409611144E+01  0.16892450099E+02  0.51100000000E-03 0.  1.
        -12    1    3    3    0    0 -0.28338557670E+02 -0.27197154751E+01  0.73324656311E+01  0.29397886919E+02  0.00000000000E+00 0.  1.
</event>
<event>
 7    1  0.3305651E-013  0.7246153E+02  0.7816164E-02  0.1226708E+00
        -11   -1    0    0    0    0  0.00000000000E+00  0.00000000000E+00  0.45593999997E+02  0.45594000000E+02  0.51100000000E-03 0.  1.
         11   -1    0    0    0    0 -0.00000000000E+00 -0.00000000000E+00 -0.45593999997E+02  0.45594000000E+02  0.51100000000E-03 0. -1.
    9900012    2    1    2    0    0 -0.45343386046E+01 -0.10562267767E+02  0.14783743844E+02  0.72461526519E+02  0.69999942975E+02 0.  0.
         12    1    1    2    0    0  0.45343386046E+01  0.10562267767E+02 -0.14783743844E+02  0.18726473481E+02  0.00000000000E+00 0. -1.
         11    1    3    3    0    0  0.56172068553E+01 -0.13002366381E+02 -0.10486921199E+02  0.17623565498E+02  0.51100000000E-03 0. -1.
        -11    1    3    3    0    0 -0.54903514586E+01 -0.21166667636E+02  0.30387840635E+01  0.22077273083E+02  0.51100000000E-03 0.  1.
        -12    1    3    3    0    0 -0.46611940012E+01  0.23606766250E+02  0.22231880980E+02  0.32760687938E+02  0.00000000000E+00 0.  1.
</event>
<event>
 7    1  0.3411822E-013  0.7246155E+02  0.7816164E-02  0.1226708E+00
        -11   -1    0    0    0    0  0.00000000000E+00  0.00000000000E+00  0.45593999997E+02  0.45594000000E+02  0.51100000000E-03 0. -1.
         11   -1    0    0    0    0 -0.00000000000E+00 -0.00000000000E+00 -0.45593999997E+02  0.45594000000E+02  0.51100000000E-03 0.  1.
    9900012    2    1    2    0    0 -0.13739176953E+02 -0.59188109578E+01 -0.11264213379E+02  0.72461553206E+02  0.69999977739E+02 0.  0.
         12    1    1    2    0    0  0.13739176953E+02  0.59188109578E+01  0.11264213379E+02  0.18726446794E+02  0.00000000000E+00 0. -1.
         11    1    3    3    0    0  0.18843544881E+02 -0.19675577852E+02  0.65755775855E+00  0.27251420696E+02  0.51100000000E-03 0. -1.
        -11    1    3    3    0    0 -0.11848092418E+02 -0.65579371728E+01 -0.84826434063E+01  0.15979332693E+02  0.51100000000E-03 0.  1.
        -12    1    3    3    0    0 -0.20734629416E+02  0.20314704067E+02 -0.34391277310E+01  0.29230799816E+02  0.00000000000E+00 0.  1.
</event>
<event>
 7    1  0.3305651E-013  0.7246155E+02  0.7816164E-02  0.1226708E+00
        -11   -1    0    0    0    0  0.00000000000E+00  0.00000000000E+00  0.45593999997E+02  0.45594000000E+02  0.51100000000E-03 0. -1.
         11   -1    0    0    0    0 -0.00000000000E+00 -0.00000000000E+00 -0.45593999997E+02  0.45594000000E+02  0.51100000000E-03 0.  1.
    9900012    2    1    2    0    0  0.25293247060E+01  0.55601064841E+00 -0.18546521376E+02  0.72461545812E+02  0.69999968107E+02 0.  0.
         12    1    1    2    0    0 -0.25293247060E+01 -0.55601064841E+00  0.18546521376E+02  0.18726454188E+02  0.00000000000E+00 0. -1.
         11    1    3    3    0    0 -0.10290141997E+02 -0.17555648515E+02  0.15446302205E+02  0.25547525696E+02  0.51100000000E-03 0. -1.
        -11    1    3    3    0    0 -0.34108695858E+01  0.57068808395E+01  0.66725924649E+00  0.66818975906E+01  0.51100000000E-03 0.  1.
        -12    1    3    3    0    0  0.16230336289E+02  0.12404778324E+02 -0.34660082828E+02  0.40232122526E+02  0.00000000000E+00 0.  1.
</event>
<event>
 7    1  0.3305651E-013  0.7246160E+02  0.7816164E-02  0.1226708E+00
        -11   -1    0    0    0    0  0.00000000000E+00  0.00000000000E+00  0.45593999997E+02  0.45594000000E+02  0.51100000000E-03 0.  1.
         11   -1    0    0    0    0 -0.00000000000E+00 -0.00000000000E+00 -0.45593999997E+02  0.45594000000E+02  0.51100000000E-03 0. -1.
    9900012    2    1    2    0    0  0.17920344246E+02 -0.35149074007E+01 -0.41454308846E+01  0.72461603947E+02  0.70000043839E+02 0.  0.
         12    1    1    2    0    0 -0.17920344246E+02  0.35149074007E+01  0.41454308846E+01  0.18726396053E+02  0.00000000000E+00 0. -1.
         11    1    3    3    0    0 -0.14574651990E+02  0.54531740744E+01  0.49287991417E+01  0.16323316126E+02  0.51100000000E-03 0. -1.
        -11    1    3    3    0    0  0.13883743938E+02 -0.12393992188E+02  0.16124756959E+02  0.24624726909E+02  0.51100000000E-03 0.  1.
         12    1    3    3    0    0  0.18611252297E+02  0.34259107130E+01 -0.25198986985E+02  0.31513560912E+02  0.00000000000E+00 0. -1.
</event>
<event>
 7    1  0.3305651E-013  0.7246157E+02  0.7816164E-02  0.1226708E+00
        -11   -1    0    0    0    0  0.00000000000E+00  0.00000000000E+00  0.45593999997E+02  0.45594000000E+02  0.51100000000E-03 0.  1.
         11   -1    0    0    0    0 -0.00000000000E+00 -0.00000000000E+00 -0.45593999997E+02  0.45594000000E+02  0.51100000000E-03 0. -1.
    9900012    2    1    2    0    0  0.11397266159E+02 -0.28032511514E+01  0.14591894052E+02  0.72461567747E+02  0.69999996681E+02 0.  0.
         12    1    1    2    0    0 -0.11397266159E+02  0.28032511514E+01 -0.14591894052E+02  0.18726432253E+02  0.00000000000E+00 0. -1.
         11    1    3    3    0    0 -0.34178849455E+00 -0.22761157201E+02 -0.16353766587E+02  0.28029141591E+02  0.51100000000E-03 0. -1.
        -11    1    3    3    0    0 -0.23234597216E+01 -0.26166853925E+00 -0.21512493875E+01  0.31772330243E+01  0.51100000000E-03 0.  1.
        -12    1    3    3    0    0  0.14062514375E+02  0.20219574588E+02  0.33096910026E+02  0.41255193132E+02  0.00000000000E+00 0.  1.
</event>
<event>
 7    1  0.3305651E-013  0.7246159E+02  0.7816164E-02  0.1226708E+00
        -11   -1    0    0    0    0  0.00000000000E+00  0.00000000000E+00  0.45593999997E+02  0.45594000000E+02  0.51100000000E-03 0. -1.
         11   -1    0    0    0    0 -0.00000000000E+00 -0.00000000000E+00 -0.45593999997E+02  0.45594000000E+02  0.51100000000E-03 0.  1.
    9900012    2    1    2    0    0  0.48105641938E+01  0.74461546810E+01 -0.16495205556E+02  0.72461586736E+02  0.70000021419E+02 0.  0.
         12    1    1    2    0    0 -0.48105641938E+01 -0.74461546810E+01  0.16495205556E+02  0.18726413264E+02  0.00000000000E+00 0. -1.
         11    1    3    3    0    0 -0.65082222870E+01 -0.14069876655E+02 -0.17821640014E+02  0.23620525809E+02  0.51100000000E-03 0. -1.
        -11    1    3    3    0    0 -0.84462284557E+01  0.17218559176E+02 -0.13762984519E+02  0.23605874234E+02  0.51100000000E-03 0.  1.
         12    1    3    3    0    0  0.19765014936E+02  0.42974721597E+01  0.15089418977E+02  0.25235186694E+02  0.00000000000E+00 0. -1.
</event>
<event>
 7    1  0.3305651E-013  0.7246155E+02  0.7816164E-02  0.1226708E+00
        -11   -1    0    0    0    0  0.00000000000E+00  0.00000000000E+00  0.45593999997E+02  0.45594000000E+02  0.51100000000E-03 0.  1.
         11   -1    0    0    0    0 -0.00000000000E+00 -0.00000000000E+00 -0.45593999997E+02  0.45594000000E+02  0.51100000000E-03 0. -1.
    9900012    2    1    2    0    0 -0.97929419320E+01 -0.85940912087E+01 -0.13450647077E+02  0.72461547528E+02  0.69999970343E+02 0.  0.
         12    1    1    2    0    0  0.97929419320E+01  0.85940912087E+01  0.13450647077E+02  0.18726452472E+02  0.00000000000E+00 0. -1.
         11    1    3    3    0    0  0.70991875203E+01 -0.13640494019E+02  0.96500347289E+00  0.15407555695E+02  0.51100000000E-03 0. -1.
        -11    1    3    3    0    0  0.18671317916E+02  0.59821041390E+01 -0.58732141527E+01  0.20467005824E+02  0.51100000000E-03 0.  1.
         12    1    3    3    0    0 -0.35563447368E+02 -0.93570132879E+00 -0.85424363974E+01  0.36586986010E+02  0.00000000000E+00 0. -1.
</event>
<event>
 7    1  0.3305651E-013  0.7246159E+02  0.7816164E-02  0.1226708E+00
        -11   -1    0    0    0    0  0.00000000000E+00  0.00000000000E+00  0.45593999997E+02  0.45594000000E+02  0.51100000000E-03 0. -1.
         11   -1    0    0    0    0 -0.00000000000E+00 -0.00000000000E+00 -0.45593999997E+02  0.45594000000E+02  0.51100000000E-03 0.  1.
    9900012    2    1    2    0    0 -0.17449192832E+02  0.53092998099E+01  0.42444596113E+01  0.72461589977E+02  0.70000025640E+02 0.  0.
         12    1    1    2    0    0  0.17449192832E+02 -0.53092998099E+01 -0.42444596113E+01  0.18726410023E+02  0.00000000000E+00 0. -1.
         11    1    3    3    0    0  0.66699387713E+01  0.13542738612E+02  0.10559689059E+02  0.18422835982E+02  0.51100000000E-03 0. -1.
        -11    1    3    3    0    0 -0.49527244990E+01  0.12046219551E+02  0.14302476875E+02  0.19344294520E+02  0.51100000000E-03 0.  1.
        -12    1    3    3    0    0 -0.19166407105E+02 -0.20279658354E+02 -0.20617706323E+02  0.34694459475E+02  0.00000000000E+00 0.  1.
</event>
<event>
 7    1  0.3305651E-013  0.7246162E+02  0.7816164E-02  0.1226708E+00
        -11   -1    0    0    0    0  0.00000000000E+00  0.00000000000E+00  0.45593999997E+02  0.45594000000E+02  0.51100000000E-03 0. -1.
         11   -1    0    0    0    0 -0.00000000000E+00 -0.00000000000E+00 -0.45593999997E+02  0.45594000000E+02  0.51100000000E-03 0.  1.
    9900012    2    1    2    0    0  0.57486912040E+00  0.43563267444E+01 -0.18203553434E+02  0.72461617145E+02  0.70000061031E+02 0.  0.
         12    1    1    2    0    0 -0.57486912040E+00 -0.43563267444E+01  0.18203553434E+02  0.18726382855E+02  0.00000000000E+00 0. -1.
         11    1    3    3    0    0  0.12820245182E+02 -0.10033165048E+02  0.65157316055E+01  0.17535046223E+02  0.51100000000E-03 0. -1.
        -11    1    3    3    0    0  0.32998384925E+01  0.15746844177E+02  0.85208570090E+01  0.18205961662E+02  0.51100000000E-03 0.  1.
         12    1    3    3    0    0 -0.15545214554E+02 -0.13573523843E+01 -0.33240142049E+02  0.36720609260E+02  0.00000000000E+00 0. -1.
</event>
<event>
 7    1  0.3305651E-013  0.7246164E+02  0.7816164E-02  0.1226708E+00
        -11   -1    0    0    0    0  0.00000000000E+00  0.00000000000E+00  0.45593999997E+02  0.45594000000E+02  0.51100000000E-03 0. -1.
         11   -1    0    0    0    0 -0.00000000000E+00 -0.00000000000E+00 -0.45593999997E+02  0.45594000000E+02  0.51100000000E-03 0.  1.
    9900012    2    1    2    0    0 -0.18461390618E+01 -0.13310071856E+02 -0.13042635433E+02  0.72461639401E+02  0.70000090024E+02 0.  0.
         12    1    1    2    0    0  0.18461390618E+01  0.13310071856E+02  0.13042635433E+02  0.18726360599E+02  0.00000000000E+00 0. -1.
         11    1    3    3    0    0  0.32228500980E+01 -0.12739156492E+02  0.11788330395E+02  0.17653260454E+02  0.51100000000E-03 0. -1.
        -11    1    3    3    0    0 -0.10237112059E+02 -0.11363157561E+02 -0.35577171086E+02  0.38725378188E+02  0.51100000000E-03 0.  1.
         12    1    3    3    0    0  0.51681228994E+01  0.10792242197E+02  0.10746205258E+02  0.16083000759E+02  0.00000000000E+00 0. -1.
</event>
<event>
 7    1  0.3305651E-013  0.7246154E+02  0.7816164E-02  0.1226708E+00
        -11   -1    0    0    0    0  0.00000000000E+00  0.00000000000E+00  0.45593999997E+02  0.45594000000E+02  0.51100000000E-03 0.  1.
         11   -1    0    0    0    0 -0.00000000000E+00 -0.00000000000E+00 -0.45593999997E+02  0.45594000000E+02  0.51100000000E-03 0. -1.
    9900012    2    1    2    0    0  0.12017611824E+02 -0.13015514714E+02 -0.60707146903E+01  0.72461542938E+02  0.69999964364E+02 0.  0.
         12    1    1    2    0    0 -0.12017611824E+02  0.13015514714E+02  0.60707146903E+01  0.18726457062E+02  0.00000000000E+00 0. -1.
         11    1    3    3    0    0  0.41938093913E+01 -0.15414096900E+02 -0.28734767201E+00  0.15977014408E+02  0.51100000000E-03 0. -1.
        -11    1    3    3    0    0  0.71463391085E+01 -0.26031250738E+02  0.17955655896E+01  0.27054024353E+02  0.51100000000E-03 0.  1.
         12    1    3    3    0    0  0.67746332411E+00  0.28429832924E+02 -0.75789326080E+01  0.29430504177E+02  0.00000000000E+00 0. -1.
</event>
<event>
 7    1  0.3305651E-013  0.7246145E+02  0.7816164E-02  0.1226708E+00
        -11   -1    0    0    0    0  0.00000000000E+00  0.00000000000E+00  0.45593999997E+02  0.45594000000E+02  0.51100000000E-03 0.  1.
         11   -1    0    0    0    0 -0.00000000000E+00 -0.00000000000E+00 -0.45593999997E+02  0.45594000000E+02  0.51100000000E-03 0. -1.
    9900012    2    1    2    0    0  0.57731582034E+01 -0.12528170028E+02  0.12664890445E+02  0.72461445328E+02  0.69999837208E+02 0.  0.
         12    1    1    2    0    0 -0.57731582034E+01  0.12528170028E+02 -0.12664890445E+02  0.18726554672E+02  0.00000000000E+00 0. -1.
         11    1    3    3    0    0  0.97316236957E+01  0.12625685881E+02 -0.15756067293E+02  0.22413524947E+02  0.51100000000E-03 0. -1.
        -11    1    3    3    0    0  0.91396716742E+01  0.33408955170E+01  0.82732405716E+01  0.12772693177E+02  0.51100000000E-03 0.  1.
        -12    1    3    3    0    0 -0.13098137166E+02 -0.28494751427E+02  0.20147717167E+02  0.37275227204E+02  0.00000000000E+00 0.  1.
</event>
<event>
 7    1  0.3305651E-013  0.7246158E+02  0.7816164E-02  0.1226708E+00
        -11   -1    0    0    0    0  0.00000000000E+00  0.00000000000E+00  0.45593999997E+02  0.45594000000E+02  0.51100000000E-03 0. -1.
         11   -1    0    0    0    0 -0.00000000000E+00 -0.00000000000E+00 -0.45593999997E+02  0.45594000000E+02  0.51100000000E-03 0.  1.
    9900012    2    1    2    0    0  0.73000416495E+01  0.88124234531E+01 -0.14823269069E+02  0.72461582268E+02  0.70000015597E+02 0.  0.
         12    1    1    2    0    0 -0.73000416495E+01 -0.88124234531E+01  0.14823269069E+02  0.18726417732E+02  0.00000000000E+00 0. -1.
         11    1    3    3    0    0  0.10715744694E+02  0.10018806546E+02 -0.11014802257E+02  0.18344741426E+02  0.51100000000E-03 0. -1.
        -11    1    3    3    0    0  0.11233343643E+02  0.17171772990E+02 -0.17455490330E+02  0.26939783591E+02  0.51100000000E-03 0.  1.
         12    1    3    3    0    0 -0.14649046688E+02 -0.18378156083E+02  0.13647023519E+02  0.27177057250E+02  0.00000000000E+00 0. -1.
</event>
<event>
 7    1  0.3305651E-013  0.7246163E+02  0.7816164E-02  0.1226708E+00
        -11   -1    0    0    0    0  0.00000000000E+00  0.00000000000E+00  0.45593999997E+02  0.45594000000E+02  0.51100000000E-03 0. -1.
         11   -1    0    0    0    0 -0.00000000000E+00 -0.00000000000E+00 -0.45593999997E+02  0.45594000000E+02  0.51100000000E-03 0.  1.
    9900012    2    1    2    0    0  0.27314816840E+01  0.18278709153E+02  0.30174125553E+01  0.72461628781E+02  0.70000076190E+02 0.  0.
         12    1    1    2    0    0 -0.27314816840E+01 -0.18278709153E+02 -0.30174125553E+01  0.18726371219E+02  0.00000000000E+00 0. -1.
         11    1    3    3    0    0 -0.12661177079E+02  0.11790020437E+02  0.60076580752E+01  0.18313982165E+02  0.51100000000E-03 0. -1.
        -11    1    3    3    0    0 -0.74371062105E+01  0.17437277886E+02  0.14077838188E+02  0.23612597002E+02  0.51100000000E-03 0.  1.
        -12    1    3    3    0    0  0.22829764973E+02 -0.10948589169E+02 -0.17068083708E+02  0.30535049615E+02  0.00000000000E+00 0.  1.
</event>
<event>
 7    1  0.3305651E-013  0.7246162E+02  0.7816164E-02  0.1226708E+00
        -11   -1    0    0    0    0  0.00000000000E+00  0.00000000000E+00  0.45593999997E+02  0.45594000000E+02  0.51100000000E-03 0. -1.
         11   -1    0    0    0    0 -0.00000000000E+00 -0.00000000000E+00 -0.45593999997E+02  0.45594000000E+02  0.51100000000E-03 0.  1.
    9900012    2    1    2    0    0  0.11277034794E+02  0.26161588100E+01 -0.14719424511E+02  0.72461621316E+02  0.70000066466E+02 0.  0.
         12    1    1    2    0    0 -0.11277034794E+02 -0.26161588100E+01  0.14719424511E+02  0.18726378684E+02  0.00000000000E+00 0. -1.
         11    1    3    3    0    0  0.12772503663E+02  0.12187400348E+02  0.15526632477E+02  0.23510548556E+02  0.51100000000E-03 0. -1.
        -11    1    3    3    0    0  0.10193576995E+02  0.57197837736E+01  0.15422717366E+01  0.11789976282E+02  0.51100000000E-03 0.  1.
        -12    1    3    3    0    0 -0.11689045864E+02 -0.15291025311E+02 -0.31788328725E+02  0.37161096478E+02  0.00000000000E+00 0.  1.
</event>
<event>
 7    1  0.3305651E-013  0.7246155E+02  0.7816164E-02  0.1226708E+00
        -11   -1    0    0    0    0  0.00000000000E+00  0.00000000000E+00  0.45593999997E+02  0.45594000000E+02  0.51100000000E-03 0. -1.
         11   -1    0    0    0    0 -0.00000000000E+00 -0.00000000000E+00 -0.45593999997E+02  0.45594000000E+02  0.51100000000E-03 0.  1.
    9900012    2    1    2    0    0  0.91006100260E+01 -0.40287435129E+01 -0.15862793762E+02  0.72461545368E+02  0.69999967529E+02 0.  0.
         12    1    1    2    0    0 -0.91006100260E+01  0.40287435129E+01  0.15862793762E+02  0.18726454632E+02  0.00000000000E+00 0. -1.
         11    1    3    3    0    0 -0.68525874111E+01  0.41889004314E+01  0.12780648663E+01  0.81325451806E+01  0.51100000000E-03 0. -1.
        -11    1    3    3    0    0 -0.62236364990E+01 -0.15643036149E+02 -0.32324122311E+02  0.36445673470E+02  0.51100000000E-03 0.  1.
         12    1    3    3    0    0  0.22176833936E+02  0.74253922045E+01  0.15183263682E+02  0.27883326718E+02  0.00000000000E+00 0. -1.
</event>
<event>
 7    1  0.3305651E-013  0.7246153E+02  0.7816164E-02  0.1226708E+00
        -11   -1    0    0    0    0  0.00000000000E+00  0.00000000000E+00  0.45593999997E+02  0.45594000000E+02  0.51100000000E-03 0.  1.
         11   -1    0    0    0    0 -0.00000000000E+00 -0.00000000000E+00 -0.45593999997E+02  0.45594000000E+02  0.51100000000E-03 0. -1.
    9900012    2    1    2    0    0  0.91436939895E+01  0.15914432996E+02  0.37154057365E+01  0.72461533244E+02  0.69999951735E+02 0.  0.
         12    1    1    2    0    0 -0.91436939895E+01 -0.15914432996E+02 -0.37154057365E+01  0.18726466756E+02  0.00000000000E+00 0. -1.
         11    1    3    3    0    0  0.99810187720E+00 -0.15167434030E+02 -0.39523587679E+01  0.15705680580E+02  0.51100000000E-03 0. -1.
        -11    1    3    3    0    0 -0.23304660463E+01 -0.92934478702E+01  0.11382856373E+02  0.14878463119E+02  0.51100000000E-03 0.  1.
         12    1    3    3    0    0  0.10476058159E+02  0.40375314896E+02 -0.37150918689E+01  0.41877389545E+02  0.00000000000E+00 0. -1.
</event>
<event>
 7    1  0.3305651E-013  0.7246155E+02  0.7816164E-02  0.1226708E+00
        -11   -1    0    0    0    0  0.00000000000E+00  0.00000000000E+00  0.45593999997E+02  0.45594000000E+02  0.51100000000E-03 0.  1.
         11   -1    0    0    0    0 -0.00000000000E+00 -0.00000000000E+00 -0.45593999997E+02  0.45594000000E+02  0.51100000000E-03 0. -1.
    9900012    2    1    2    0    0 -0.31984972454E+01 -0.12585792125E+02  0.13492496069E+02  0.72461548169E+02  0.69999971177E+02 0.  0.
         12    1    1    2    0    0  0.31984972454E+01  0.12585792125E+02 -0.13492496069E+02  0.18726451831E+02  0.00000000000E+00 0. -1.
         11    1    3    3    0    0 -0.17205550425E+02 -0.28776252946E+02 -0.13736325096E+01  0.33555782893E+02  0.51100000000E-03 0. -1.
        -11    1    3    3    0    0 -0.54766588050E+01 -0.47434272429E+01  0.42572364541E+01  0.84034490635E+01  0.51100000000E-03 0.  1.
        -12    1    3    3    0    0  0.19483711985E+02  0.20933888064E+02  0.10608892124E+02  0.30502316212E+02  0.00000000000E+00 0.  1.
</event>
<event>
 7    1  0.3305651E-013  0.7246160E+02  0.7816164E-02  0.1226708E+00
        -11   -1    0    0    0    0  0.00000000000E+00  0.00000000000E+00  0.45593999997E+02  0.45594000000E+02  0.51100000000E-03 0. -1.
         11   -1    0    0    0    0 -0.00000000000E+00 -0.00000000000E+00 -0.45593999997E+02  0.45594000000E+02  0.51100000000E-03 0.  1.
    9900012    2    1    2    0    0  0.12747591930E+02  0.26872398550E+01 -0.13451983190E+02  0.72461595919E+02  0.70000033381E+02 0.  0.
         12    1    1    2    0    0 -0.12747591930E+02 -0.26872398550E+01  0.13451983190E+02  0.18726404081E+02  0.00000000000E+00 0. -1.
         11    1    3    3    0    0 -0.72931890827E+01 -0.12232173625E+02  0.75491903881E+01  0.16118528294E+02  0.51100000000E-03 0. -1.
        -11    1    3    3    0    0 -0.33489901843E+01 -0.36612111404E+01 -0.25637872922E+02  0.26113611977E+02  0.51100000000E-03 0.  1.
         12    1    3    3    0    0  0.23389771197E+02  0.18580624620E+02  0.46366993436E+01  0.30229455648E+02  0.00000000000E+00 0. -1.
</event>
<event>
 7    1  0.3305651E-013  0.7246157E+02  0.7816164E-02  0.1226708E+00
        -11   -1    0    0    0    0  0.00000000000E+00  0.00000000000E+00  0.45593999997E+02  0.45594000000E+02  0.51100000000E-03 0.  1.
         11   -1    0    0    0    0 -0.00000000000E+00 -0.00000000000E+00 -0.45593999997E+02  0.45594000000E+02  0.51100000000E-03 0. -1.
    9900012    2    1    2    0    0 -0.10193770080E+02  0.13964525009E+02  0.71943275086E+01  0.72461567999E+02  0.69999997010E+02 0.  0.
         12    1    1    2    0    0  0.10193770080E+02 -0.13964525009E+02 -0.71943275086E+01  0.18726432001E+02  0.00000000000E+00 0. -1.
         11    1    3    3    0    0 -0.13180669609E+02 -0.12210140262E+02 -0.10856813033E+01  0.17999896686E+02  0.51100000000E-03 0. -1.
        -11    1    3    3    0    0  0.21647116736E+02  0.96478587791E+01  0.15730721797E+02  0.28445288723E+02  0.51100000000E-03 0.  1.
         12    1    3    3    0    0 -0.18660217208E+02  0.16526806492E+02 -0.74507129853E+01  0.26016382590E+02  0.00000000000E+00 0. -1.
</event>
<event>
 7    1  0.3305651E-013  0.7246185E+02  0.7816164E-02  0.1226707E+00
        -11   -1    0    0    0    0  0.00000000000E+00  0.00000000000E+00  0.45593999997E+02  0.45594000000E+02  0.51100000000E-03 0.  1.
         11   -1    0    0    0    0 -0.00000000000E+00 -0.00000000000E+00 -0.45593999997E+02  0.45594000000E+02  0.51100000000E-03 0. -1.
    9900012    2    1    2    0    0  0.39111335547E+01 -0.25954492640E+01  0.18128305093E+02  0.72461848016E+02  0.70000361784E+02 0.  0.
         12    1    1    2    0    0 -0.39111335547E+01  0.25954492640E+01 -0.18128305093E+02  0.18726151984E+02  0.00000000000E+00 0. -1.
         11    1    3    3    0    0  0.19174352342E+01  0.25090162038E+02 -0.45011210962E+01  0.25562724431E+02  0.51100000000E-03 0. -1.
        -11    1    3    3    0    0 -0.27706303415E+01  0.61790613282E+01  0.50480404387E+01  0.84462952777E+01  0.51100000000E-03 0.  1.
        -12    1    3    3    0    0  0.47643286620E+01 -0.33864672630E+02  0.17581385751E+02  0.38452828308E+02  0.00000000000E+00 0.  1.
</event>
<event>
 7    1  0.3305651E-013  0.7246156E+02  0.7816164E-02  0.1226708E+00
        -11   -1    0    0    0    0  0.00000000000E+00  0.00000000000E+00  0.45593999997E+02  0.45594000000E+02  0.51100000000E-03 0. -1.
         11   -1    0    0    0    0 -0.00000000000E+00 -0.00000000000E+00 -0.45593999997E+02  0.45594000000E+02  0.51100000000E-03 0.  1.
    9900012    2    1    2    0    0  0.34590091622E+01  0.18361722776E+02 -0.12498363627E+01  0.72461556167E+02  0.69999981596E+02 0.  0.
         12    1    1    2    0    0 -0.34590091622E+01 -0.18361722776E+02  0.12498363627E+01  0.18726443833E+02  0.00000000000E+00 0. -1.
         11    1    3    3    0    0  0.73957279274E+01  0.59705595487E+01  0.21460479320E+02  0.23471185437E+02  0.51100000000E-03 0. -1.
        -11    1    3    3    0    0  0.14023934874E+02  0.13777941690E+02  0.43067392703E+00  0.19664381680E+02  0.51100000000E-03 0.  1.
         12    1    3    3    0    0 -0.17960653639E+02 -0.13867784626E+01 -0.23140989610E+02  0.29325989050E+02  0.00000000000E+00 0. -1.
</event>
<event>
 7    1  0.3305651E-013  0.7246163E+02  0.7816164E-02  0.1226708E+00
        -11   -1    0    0    0    0  0.00000000000E+00  0.00000000000E+00  0.45593999997E+02  0.45594000000E+02  0.51100000000E-03 0.  1.
         11   -1    0    0    0    0 -0.00000000000E+00 -0.00000000000E+00 -0.45593999997E+02  0.45594000000E+02  0.51100000000E-03 0. -1.
    9900012    2    1    2    0    0 -0.11391968881E+02 -0.10452872255E+02  0.10565857163E+02  0.72461632735E+02  0.70000081340E+02 0.  0.
         12    1    1    2    0    0  0.11391968881E+02  0.10452872255E+02 -0.10565857163E+02  0.18726367265E+02  0.00000000000E+00 0. -1.
         11    1    3    3    0    0  0.80418169999E+00 -0.30234466824E+02 -0.44277215049E+00  0.30248400616E+02  0.51100000000E-03 0. -1.
        -11    1    3    3    0    0 -0.74275391042E+01 -0.81322469346E+01  0.82499656525E+01  0.13760948764E+02  0.51100000000E-03 0.  1.
         12    1    3    3    0    0 -0.47686114766E+01  0.27913841504E+02  0.27586636614E+01  0.28452283356E+02  0.00000000000E+00 0. -1.
</event>
<event>
 7    1  0.3305651E-013  0.7246160E+02  0.7816164E-02  0.1226708E+00
        -11   -1    0    0    0    0  0.00000000000E+00  0.00000000000E+00  0.45593999997E+02  0.45594000000E+02  0.51100000000E-03 0. -1.
         11   -1    0    0    0    0 -0.00000000000E+00 -0.00000000000E+00 -0.45593999997E+02  0.45594000000E+02  0.51100000000E-03 0.  1.
    9900012    2    1    2    0    0 -0.28140147431E+01  0.14786619798E+02 -0.11140695426E+02  0.72461604229E+02  0.70000044206E+02 0.  0.
         12    1    1    2    0    0  0.28140147431E+01 -0.14786619798E+02  0.11140695426E+02  0.18726395771E+02  0.00000000000E+00 0. -1.
         11    1    3    3    0    0  0.39090262701E+01 -0.16832640379E+01  0.44932266297E+01  0.61889377124E+01  0.51100000000E-03 0. -1.
        -11    1    3    3    0    0  0.20856151515E+02  0.91282140091E+01  0.12689676258E+02  0.26063983402E+02  0.51100000000E-03 0.  1.
        -12    1    3    3    0    0 -0.27579192528E+02  0.73416698266E+01 -0.28323598313E+02  0.40208683114E+02  0.00000000000E+00 0.  1.
</event>
<event>
 7    1  0.3305651E-013  0.7246158E+02  0.7816164E-02  0.1226708E+00
        -11   -1    0    0    0    0  0.00000000000E+00  0.00000000000E+00  0.45593999997E+02  0.45594000000E+02  0.51100000000E-03 0.  1.
         11   -1    0    0    0    0 -0.00000000000E+00 -0.00000000000E+00 -0.45593999997E+02  0.45594000000E+02  0.51100000000E-03 0. -1.
    9900012    2    1    2    0    0  0.17791016265E+02  0.12816481019E+01  0.57022672692E+01  0.72461581933E+02  0.70000015162E+02 0.  0.
         12    1    1    2    0    0 -0.17791016265E+02 -0.12816481019E+01 -0.57022672692E+01  0.18726418067E+02  0.00000000000E+00 0. -1.
         11    1    3    3    0    0  0.38736292385E+01 -0.16980427833E+02 -0.11664429560E+02  0.20961842717E+02  0.51100000000E-03 0. -1.
        -11    1    3    3    0    0  0.95970773125E+01  0.23336153192E+01  0.29439052540E+02  0.31051690262E+02  0.51100000000E-03 0.  1.
         12    1    3    3    0    0  0.43203097143E+01  0.15928460616E+02 -0.12072355711E+02  0.20448048954E+02  0.00000000000E+00 0. -1.
</event>
<event>
 7    1  0.3305651E-013  0.7246155E+02  0.7816164E-02  0.1226708E+00
        -11   -1    0    0    0    0  0.00000000000E+00  0.00000000000E+00  0.45593999997E+02  0.45594000000E+02  0.51100000000E-03 0.  1.
         11   -1    0    0    0    0 -0.00000000000E+00 -0.00000000000E+00 -0.45593999997E+02  0.45594000000E+02  0.51100000000E-03 0. -1.
    9900012    2    1    2    0    0  0.68311611586E+01 -0.12531099015E+02  0.12123800459E+02  0.72461554986E+02  0.69999980058E+02 0.  0.
         12    1    1    2    0    0 -0.68311611586E+01  0.12531099015E+02 -0.12123800459E+02  0.18726445014E+02  0.00000000000E+00 0. -1.
         11    1    3    3    0    0 -0.25904359797E+01 -0.16585663215E+01  0.10110304424E+02  0.10567850142E+02  0.51100000000E-03 0. -1.
        -11    1    3    3    0    0  0.12611396062E+02  0.17228522536E+02  0.19271735134E+02  0.28762285632E+02  0.51100000000E-03 0.  1.
         12    1    3    3    0    0 -0.31897989239E+01 -0.28101055229E+02 -0.17258239099E+02  0.33131419212E+02  0.00000000000E+00 0. -1.
</event>
<event>
 7    1  0.3305651E-013  0.7246121E+02  0.7816164E-02  0.1226709E+00
        -11   -1    0    0    0    0  0.00000000000E+00  0.00000000000E+00  0.45593999997E+02  0.45594000000E+02  0.51100000000E-03 0.  1.
         11   -1    0    0    0    0 -0.00000000000E+00 -0.00000000000E+00 -0.45593999997E+02  0.45594000000E+02  0.51100000000E-03 0. -1.
    9900012    2    1    2    0    0 -0.93724487117E+01 -0.28420521071E+01  0.15961600740E+02  0.72461207610E+02  0.69999527535E+02 0.  0.
         12    1    1    2    0    0  0.93724487117E+01  0.28420521071E+01 -0.15961600740E+02  0.18726792390E+02  0.00000000000E+00 0. -1.
         11    1    3    3    0    0  0.54758469578E+01 -0.15997028050E+01 -0.36128558663E+01  0.67525311359E+01  0.51100000000E-03 0. -1.
        -11    1    3    3    0    0 -0.17833288605E+01 -0.26028507471E+02 -0.70839579049E+01  0.27034162144E+02  0.51100000000E-03 0.  1.
        -12    1    3    3    0    0 -0.13064966809E+02  0.24786158168E+02  0.26658414511E+02  0.38674514331E+02  0.00000000000E+00 0.  1.
</event>
<event>
 7    1  0.3305651E-013  0.7246162E+02  0.7816164E-02  0.1226708E+00
        -11   -1    0    0    0    0  0.00000000000E+00  0.00000000000E+00  0.45593999997E+02  0.45594000000E+02  0.51100000000E-03 0.  1.
         11   -1    0    0    0    0 -0.00000000000E+00 -0.00000000000E+00 -0.45593999997E+02  0.45594000000E+02  0.51100000000E-03 0. -1.
    9900012    2    1    2    0    0 -0.16937582762E+01 -0.18643676881E+02 -0.47103880458E+00  0.72461618014E+02  0.70000062163E+02 0.  0.
         12    1    1    2    0    0  0.16937582762E+01  0.18643676881E+02  0.47103880458E+00  0.18726381986E+02  0.00000000000E+00 0. -1.
         11    1    3    3    0    0  0.31529524166E+01  0.21653106892E+02 -0.44516656512E+01  0.22329699379E+02  0.51100000000E-03 0. -1.
        -11    1    3    3    0    0 -0.11400837339E+00  0.45070623216E+01  0.22666401036E+01  0.50462130653E+01  0.51100000000E-03 0.  1.
        -12    1    3    3    0    0 -0.47327023194E+01 -0.44803846095E+02  0.17139867431E+01  0.45085705569E+02  0.00000000000E+00 0.  1.
</event>
<event>
 7    1  0.3305651E-013  0.7246158E+02  0.7816164E-02  0.1226708E+00
        -11   -1    0    0    0    0  0.00000000000E+00  0.00000000000E+00  0.45593999997E+02  0.45594000000E+02  0.51100000000E-03 0.  1.
         11   -1    0    0    0    0 -0.00000000000E+00 -0.00000000000E+00 -0.45593999997E+02  0.45594000000E+02  0.51100000000E-03 0. -1.
    9900012    2    1    2    0    0  0.47610856351E+01  0.18048292849E+02 -0.15066881861E+01  0.72461576944E+02  0.70000008662E+02 0.  0.
         12    1    1    2    0    0 -0.47610856351E+01 -0.18048292849E+02  0.15066881861E+01  0.18726423056E+02  0.00000000000E+00 0. -1.
         11    1    3    3    0    0 -0.51720949893E+01  0.48715619793E+01  0.72220003636E+01  0.10131138742E+02  0.51100000000E-03 0. -1.
        -11    1    3    3    0    0  0.37050486159E+01 -0.93750320065E+01  0.21711765648E+02  0.23937823171E+02  0.51100000000E-03 0.  1.
         12    1    3    3    0    0  0.62281320085E+01  0.22551762876E+02 -0.30440454198E+02  0.38392615031E+02  0.00000000000E+00 0. -1.
</event>
<event>
 7    1  0.3305651E-013  0.7246129E+02  0.7816164E-02  0.1226709E+00
        -11   -1    0    0    0    0  0.00000000000E+00  0.00000000000E+00  0.45593999997E+02  0.45594000000E+02  0.51100000000E-03 0. -1.
         11   -1    0    0    0    0 -0.00000000000E+00 -0.00000000000E+00 -0.45593999997E+02  0.45594000000E+02  0.51100000000E-03 0.  1.
    9900012    2    1    2    0    0 -0.83216801491E+01 -0.16776157777E+02  0.19207729515E-04  0.72461285652E+02  0.69999629199E+02 0.  0.
         12    1    1    2    0    0  0.83216801491E+01  0.16776157777E+02 -0.19207729515E-04  0.18726714348E+02  0.00000000000E+00 0. -1.
         11    1    3    3    0    0 -0.15148035916E+01 -0.40302374832E+01  0.38262334836E+01  0.57599919292E+01  0.51100000000E-03 0. -1.
        -11    1    3    3    0    0 -0.14712917881E+02 -0.26936106678E+02  0.20888540886E+02  0.37126202824E+02  0.51100000000E-03 0.  1.
        -12    1    3    3    0    0  0.79060413231E+01  0.14190186383E+02 -0.24714755161E+02  0.29575090899E+02  0.00000000000E+00 0.  1.
</event>
<event>
 7    1  0.3305651E-013  0.7246141E+02  0.7816164E-02  0.1226708E+00
        -11   -1    0    0    0    0  0.00000000000E+00  0.00000000000E+00  0.45593999997E+02  0.45594000000E+02  0.51100000000E-03 0.  1.
         11   -1    0    0    0    0 -0.00000000000E+00 -0.00000000000E+00 -0.45593999997E+02  0.45594000000E+02  0.51100000000E-03 0. -1.
    9900012    2    1    2    0    0  0.17765884467E+01 -0.10628857868E+02  0.15315226008E+02  0.72461413718E+02  0.69999796030E+02 0.  0.
         12    1    1    2    0    0 -0.17765884467E+01  0.10628857868E+02 -0.15315226008E+02  0.18726586282E+02  0.00000000000E+00 0. -1.
         11    1    3    3    0    0  0.16371005744E+02  0.10876674737E+02  0.13788668652E+01  0.19703125551E+02  0.51100000000E-03 0. -1.
        -11    1    3    3    0    0  0.11371626335E+02 -0.40616600104E+01  0.17513728868E+02  0.21273026740E+02  0.51100000000E-03 0.  1.
        -12    1    3    3    0    0 -0.25966043632E+02 -0.17443872594E+02 -0.35773697251E+01  0.31485261427E+02  0.00000000000E+00 0.  1.
</event>
<event>
 7    1  0.3305651E-013  0.7246157E+02  0.7816164E-02  0.1226708E+00
        -11   -1    0    0    0    0  0.00000000000E+00  0.00000000000E+00  0.45593999997E+02  0.45594000000E+02  0.51100000000E-03 0.  1.
         11   -1    0    0    0    0 -0.00000000000E+00 -0.00000000000E+00 -0.45593999997E+02  0.45594000000E+02  0.51100000000E-03 0. -1.
    9900012    2    1    2    0    0 -0.15133250113E+01 -0.17903127976E+02  0.52789338032E+01  0.72461567184E+02  0.69999995948E+02 0.  0.
         12    1    1    2    0    0  0.15133250113E+01  0.17903127976E+02 -0.52789338032E+01  0.18726432816E+02  0.00000000000E+00 0. -1.
         11    1    3    3    0    0 -0.10419818154E+02  0.18973825144E+01 -0.28479574445E+01  0.10967384949E+02  0.51100000000E-03 0. -1.
        -11    1    3    3    0    0  0.32372511616E+01 -0.12243516024E+02  0.32754097016E+02  0.35117151811E+02  0.51100000000E-03 0.  1.
         12    1    3    3    0    0  0.56692419808E+01 -0.75569944659E+01 -0.24627205769E+02  0.26377030423E+02  0.00000000000E+00 0. -1.
</event>
<event>
 7    1  0.3305651E-013  0.7246185E+02  0.7816164E-02  0.1226707E+00
        -11   -1    0    0    0    0  0.00000000000E+00  0.00000000000E+00  0.45593999997E+02  0.45594000000E+02  0.51100000000E-03 0.  1.
         11   -1    0    0    0    0 -0.00000000000E+00 -0.00000000000E+00 -0.45593999997E+02  0.45594000000E+02  0.51100000000E-03 0. -1.
    9900012    2    1    2    0    0  0.31142895499E+00 -0.18527075583E+02  0.27053942731E+01  0.72461850481E+02  0.70000364994E+02 0.  0.
         12    1    1    2    0    0 -0.31142895499E+00  0.18527075583E+02 -0.27053942731E+01  0.18726149519E+02  0.00000000000E+00 0. -1.
         11    1    3    3    0    0 -0.49809368852E+00  0.34583990928E+01 -0.41915331087E+01  0.54568829629E+01  0.51100000000E-03 0. -1.
        -11    1    3    3    0    0 -0.27331505476E+02  0.29916483968E+01 -0.41125050271E+01  0.27800608799E+02  0.51100000000E-03 0.  1.
        -12    1    3    3    0    0  0.28141028120E+02 -0.24977123072E+02  0.11009432409E+02  0.39204358719E+02  0.00000000000E+00 0.  1.
</event>
<event>
 7    1  0.3305651E-013  0.7246174E+02  0.7816164E-02  0.1226708E+00
        -11   -1    0    0    0    0  0.00000000000E+00  0.00000000000E+00  0.45593999997E+02  0.45594000000E+02  0.51100000000E-03 0.  1.
         11   -1    0    0    0    0 -0.00000000000E+00 -0.00000000000E+00 -0.45593999997E+02  0.45594000000E+02  0.51100000000E-03 0. -1.
    9900012    2    1    2    0    0 -0.11965435247E+02  0.99601125427E+01  0.10406592972E+02  0.72461744106E+02  0.70000226422E+02 0.  0.
         12    1    1    2    0    0  0.11965435247E+02 -0.99601125427E+01 -0.10406592972E+02  0.18726255894E+02  0.00000000000E+00 0. -1.
         11    1    3    3    0    0  0.12373558215E+01  0.59459803012E+01  0.16484136802E+01  0.62930913781E+01  0.51100000000E-03 0. -1.
        -11    1    3    3    0    0  0.21145528957E+02 -0.31567429369E+01  0.20047196324E+02  0.29308505618E+02  0.51100000000E-03 0.  1.
         12    1    3    3    0    0 -0.34348320026E+02  0.71708751784E+01 -0.11289017032E+02  0.36860147110E+02  0.00000000000E+00 0. -1.
</event>
<event>
 7    1  0.3305651E-013  0.7246140E+02  0.7816164E-02  0.1226708E+00
        -11   -1    0    0    0    0  0.00000000000E+00  0.00000000000E+00  0.45593999997E+02  0.45594000000E+02  0.51100000000E-03 0. -1.
         11   -1    0    0    0    0 -0.00000000000E+00 -0.00000000000E+00 -0.45593999997E+02  0.45594000000E+02  0.51100000000E-03 0.  1.
    9900012    2    1    2    0    0 -0.27234671180E+01 -0.12411393714E+02 -0.13755925177E+02  0.72461402750E+02  0.69999781743E+02 0.  0.
         12    1    1    2    0    0  0.27234671180E+01  0.12411393714E+02  0.13755925177E+02  0.18726597250E+02  0.00000000000E+00 0. -1.
         11    1    3    3    0    0 -0.40482545061E+00  0.11444642509E+02 -0.87459637666E+01  0.14409566554E+02  0.51100000000E-03 0. -1.
        -11    1    3    3    0    0  0.13062153692E+02 -0.11411650122E+02 -0.24671930673E+02  0.30158743027E+02  0.51100000000E-03 0.  1.
         12    1    3    3    0    0 -0.15380795359E+02 -0.12444386100E+02  0.19661969262E+02  0.27893093170E+02  0.00000000000E+00 0. -1.
</event>
<event>
 7    1  0.3305651E-013  0.7246165E+02  0.7816164E-02  0.1226708E+00
        -11   -1    0    0    0    0  0.00000000000E+00  0.00000000000E+00  0.45593999997E+02  0.45594000000E+02  0.51100000000E-03 0.  1.
         11   -1    0    0    0    0 -0.00000000000E+00 -0.00000000000E+00 -0.45593999997E+02  0.45594000000E+02  0.51100000000E-03 0. -1.
    9900012    2    1    2    0    0 -0.11488491136E+02 -0.84850762300E+00  0.14763839876E+02  0.72461645265E+02  0.70000097663E+02 0.  0.
         12    1    1    2    0    0  0.11488491136E+02  0.84850762300E+00 -0.14763839876E+02  0.18726354735E+02  0.00000000000E+00 0. -1.
         11    1    3    3    0    0  0.17262453139E+02 -0.58112769109E+01  0.39776676412E+01  0.18643633440E+02  0.51100000000E-03 0. -1.
        -11    1    3    3    0    0  0.69320545874E+01  0.79351441221E+01  0.14384921231E+02  0.17831036204E+02  0.51100000000E-03 0.  1.
         12    1    3    3    0    0 -0.35682998863E+02 -0.29723748342E+01 -0.35987489957E+01  0.35986975621E+02  0.00000000000E+00 0. -1.
</event>
<event>
 7    1  0.3305651E-013  0.7246152E+02  0.7816164E-02  0.1226708E+00
        -11   -1    0    0    0    0  0.00000000000E+00  0.00000000000E+00  0.45593999997E+02  0.45594000000E+02  0.51100000000E-03 0.  1.
         11   -1    0    0    0    0 -0.00000000000E+00 -0.00000000000E+00 -0.45593999997E+02  0.45594000000E+02  0.51100000000E-03 0. -1.
    9900012    2    1    2    0    0 -0.17025869614E+02  0.32105298350E+00 -0.77908814798E+01  0.72461517539E+02  0.69999931277E+02 0.  0.
         12    1    1    2    0    0  0.17025869614E+02 -0.32105298350E+00  0.77908814798E+01  0.18726482461E+02  0.00000000000E+00 0. -1.
         11    1    3    3    0    0  0.12843370736E+02 -0.13326050064E+02 -0.29074730018E+01  0.18734705274E+02  0.51100000000E-03 0.  1.
        -11    1    3    3    0    0 -0.33432959679E+02  0.19309903440E+01 -0.16066072514E+02  0.37143104379E+02  0.51100000000E-03 0. -1.
         12    1    3    3    0    0  0.35637193292E+01  0.11716112704E+02  0.11182664036E+02  0.16583707887E+02  0.00000000000E+00 0. -1.
</event>
<event>
 7    1  0.3305651E-013  0.7246155E+02  0.7816164E-02  0.1226708E+00
        -11   -1    0    0    0    0  0.00000000000E+00  0.00000000000E+00  0.45593999997E+02  0.45594000000E+02  0.51100000000E-03 0. -1.
         11   -1    0    0    0    0 -0.00000000000E+00 -0.00000000000E+00 -0.45593999997E+02  0.45594000000E+02  0.51100000000E-03 0.  1.
    9900012    2    1    2    0    0 -0.61784501044E+01  0.16965674320E+01 -0.17596258038E+02  0.72461551226E+02  0.69999975160E+02 0.  0.
         12    1    1    2    0    0  0.61784501044E+01 -0.16965674320E+01  0.17596258038E+02  0.18726448774E+02  0.00000000000E+00 0. -1.
         11    1    3    3    0    0 -0.14628420554E+01 -0.15440578024E+02  0.13223634846E+02  0.20381753491E+02  0.51100000000E-03 0. -1.
        -11    1    3    3    0    0  0.72864854723E+01 -0.62171614765E+01 -0.22631210295E+02  0.24574735950E+02  0.51100000000E-03 0.  1.
        -12    1    3    3    0    0 -0.12002093521E+02  0.23354306932E+02 -0.81886825892E+01  0.27505061784E+02  0.00000000000E+00 0.  1.
</event>
<event>
 7    1  0.3305651E-013  0.7246156E+02  0.7816164E-02  0.1226708E+00
        -11   -1    0    0    0    0  0.00000000000E+00  0.00000000000E+00  0.45593999997E+02  0.45594000000E+02  0.51100000000E-03 0.  1.
         11   -1    0    0    0    0 -0.00000000000E+00 -0.00000000000E+00 -0.45593999997E+02  0.45594000000E+02  0.51100000000E-03 0. -1.
    9900012    2    1    2    0    0 -0.13646808743E+02  0.79144640138E+01  0.10089865108E+02  0.72461561273E+02  0.69999988248E+02 0.  0.
         12    1    1    2    0    0  0.13646808743E+02 -0.79144640138E+01 -0.10089865108E+02  0.18726438727E+02  0.00000000000E+00 0. -1.
         11    1    3    3    0    0  0.14829806989E+00  0.46380359073E+01  0.25540763983E+01  0.52968552844E+01  0.51100000000E-03 0. -1.
        -11    1    3    3    0    0 -0.26036192461E+02 -0.15595504759E+02  0.24488703330E+02  0.38997431679E+02  0.51100000000E-03 0.  1.
         12    1    3    3    0    0  0.12241085648E+02  0.18871932866E+02 -0.16952914620E+02  0.28167274310E+02  0.00000000000E+00 0. -1.
</event>
<event>
 7    1  0.3305651E-013  0.7246156E+02  0.7816164E-02  0.1226708E+00
        -11   -1    0    0    0    0  0.00000000000E+00  0.00000000000E+00  0.45593999997E+02  0.45594000000E+02  0.51100000000E-03 0.  1.
         11   -1    0    0    0    0 -0.00000000000E+00 -0.00000000000E+00 -0.45593999997E+02  0.45594000000E+02  0.51100000000E-03 0. -1.
    9900012    2    1    2    0    0  0.15432785770E+01  0.89069648325E+01  0.16400114120E+02  0.72461562153E+02  0.69999989394E+02 0.  0.
         12    1    1    2    0    0 -0.15432785770E+01 -0.89069648325E+01 -0.16400114120E+02  0.18726437847E+02  0.00000000000E+00 0. -1.
         11    1    3    3    0    0 -0.22197440041E+01 -0.16260512528E+02 -0.52992255485E+00  0.16419876653E+02  0.51100000000E-03 0. -1.
        -11    1    3    3    0    0 -0.21534200528E+02  0.10738592082E+02  0.50414561611E+01  0.24585675357E+02  0.51100000000E-03 0.  1.
        -12    1    3    3    0    0  0.25297223109E+02  0.14428885278E+02  0.11888580514E+02  0.31456010142E+02  0.00000000000E+00 0.  1.
</event>
<event>
 7    1  0.3305651E-013  0.7246157E+02  0.7816164E-02  0.1226708E+00
        -11   -1    0    0    0    0  0.00000000000E+00  0.00000000000E+00  0.45593999997E+02  0.45594000000E+02  0.51100000000E-03 0. -1.
         11   -1    0    0    0    0 -0.00000000000E+00 -0.00000000000E+00 -0.45593999997E+02  0.45594000000E+02  0.51100000000E-03 0.  1.
    9900012    2    1    2    0    0 -0.89245063671E+01  0.89051550452E+01 -0.13846679498E+02  0.72461571259E+02  0.70000001257E+02 0.  0.
         12    1    1    2    0    0  0.89245063671E+01 -0.89051550452E+01  0.13846679498E+02  0.18726428741E+02  0.00000000000E+00 0. -1.
         11    1    3    3    0    0 -0.94748338338E+01 -0.88301541658E+01 -0.11657906593E+01  0.13003967352E+02  0.51100000000E-03 0. -1.
        -11    1    3    3    0    0 -0.16065656291E+02  0.32208433603E+02 -0.65376567382E+01  0.36581818751E+02  0.51100000000E-03 0.  1.
         12    1    3    3    0    0  0.16615983758E+02 -0.14473124392E+02 -0.61432321000E+01  0.22875785157E+02  0.00000000000E+00 0. -1.
</event>
<event>
 7    1  0.3305651E-013  0.7246160E+02  0.7816164E-02  0.1226708E+00
        -11   -1    0    0    0    0  0.00000000000E+00  0.00000000000E+00  0.45593999997E+02  0.45594000000E+02  0.51100000000E-03 0. -1.
         11   -1    0    0    0    0 -0.00000000000E+00 -0.00000000000E+00 -0.45593999997E+02  0.45594000000E+02  0.51100000000E-03 0.  1.
    9900012    2    1    2    0    0 -0.74876038037E+01  0.15910314083E+02 -0.64401620553E+01  0.72461601728E+02  0.70000040948E+02 0.  0.
         12    1    1    2    0    0  0.74876038037E+01 -0.15910314083E+02  0.64401620553E+01  0.18726398272E+02  0.00000000000E+00 0. -1.
         11    1    3    3    0    0  0.19582116257E+01 -0.46762685061E+01 -0.17164849552E+00  0.50726268717E+01  0.51100000000E-03 0. -1.
        -11    1    3    3    0    0  0.12285830872E+02  0.29656787367E+02 -0.22136159162E+02  0.38993284292E+02  0.51100000000E-03 0.  1.
         12    1    3    3    0    0 -0.21731646301E+02 -0.90702047779E+01  0.15867645602E+02  0.28395690564E+02  0.00000000000E+00 0. -1.
</event>
<event>
 7    1  0.3305651E-013  0.7246157E+02  0.7816164E-02  0.1226708E+00
        -11   -1    0    0    0    0  0.00000000000E+00  0.00000000000E+00  0.45593999997E+02  0.45594000000E+02  0.51100000000E-03 0.  1.
         11   -1    0    0    0    0 -0.00000000000E+00 -0.00000000000E+00 -0.45593999997E+02  0.45594000000E+02  0.51100000000E-03 0. -1.
    9900012    2    1    2    0    0  0.48793180415E+01  0.83524413156E+01  0.16034593946E+02  0.72461568853E+02  0.69999998123E+02 0.  0.
         12    1    1    2    0    0 -0.48793180415E+01 -0.83524413156E+01 -0.16034593946E+02  0.18726431147E+02  0.00000000000E+00 0. -1.
         11    1    3    3    0    0  0.18262975035E+02  0.10602409290E+02 -0.11370485581E+02  0.23984063094E+02  0.51100000000E-03 0. -1.
        -11    1    3    3    0    0 -0.35292400255E+01  0.13641679833E+02 -0.13734330927E+01  0.14157587455E+02  0.51100000000E-03 0.  1.
        -12    1    3    3    0    0 -0.98544169683E+01 -0.15891647807E+02  0.28778512620E+02  0.34319918304E+02  0.00000000000E+00 0.  1.
</event>
<event>
 7    1  0.3305651E-013  0.7246167E+02  0.7816164E-02  0.1226708E+00
        -11   -1    0    0    0    0  0.00000000000E+00  0.00000000000E+00  0.45593999997E+02  0.45594000000E+02  0.51100000000E-03 0.  1.
         11   -1    0    0    0    0 -0.00000000000E+00 -0.00000000000E+00 -0.45593999997E+02  0.45594000000E+02  0.51100000000E-03 0. -1.
    9900012    2    1    2    0    0  0.18211929234E+02 -0.67907386511E+00  0.43057817868E+01  0.72461674559E+02  0.70000135823E+02 0.  0.
         12    1    1    2    0    0 -0.18211929234E+02  0.67907386511E+00 -0.43057817868E+01  0.18726325441E+02  0.00000000000E+00 0. -1.
         11    1    3    3    0    0  0.12852676035E+02  0.28130260586E+02 -0.14760871071E+02  0.34269318011E+02  0.51100000000E-03 0. -1.
        -11    1    3    3    0    0 -0.31146073254E+01 -0.97698231079E+00 -0.24376454016E+00  0.32733308172E+01  0.51100000000E-03 0.  1.
        -12    1    3    3    0    0  0.84738605249E+01 -0.27832352141E+02  0.19310417398E+02  0.34919025730E+02  0.00000000000E+00 0.  1.
</event>
<event>
 7    1  0.3305651E-013  0.7246174E+02  0.7816164E-02  0.1226708E+00
        -11   -1    0    0    0    0  0.00000000000E+00  0.00000000000E+00  0.45593999997E+02  0.45594000000E+02  0.51100000000E-03 0. -1.
         11   -1    0    0    0    0 -0.00000000000E+00 -0.00000000000E+00 -0.45593999997E+02  0.45594000000E+02  0.51100000000E-03 0.  1.
    9900012    2    1    2    0    0  0.11883166195E+02 -0.14470790973E+02  0.24392001168E+00  0.72461736967E+02  0.70000217122E+02 0.  0.
         12    1    1    2    0    0 -0.11883166195E+02  0.14470790973E+02 -0.24392001168E+00  0.18726263033E+02  0.00000000000E+00 0. -1.
         11    1    3    3    0    0  0.65845288700E+01 -0.15924052137E+02  0.25697070435E+02  0.30939794538E+02  0.51100000000E-03 0. -1.
        -11    1    3    3    0    0  0.82531898306E+01 -0.10497787875E+02 -0.11801559725E+00  0.13354123730E+02  0.51100000000E-03 0.  1.
         12    1    3    3    0    0 -0.29545525058E+01  0.11951049039E+02 -0.25335134826E+02  0.28167818699E+02  0.00000000000E+00 0. -1.
</event>
<event>
 7    1  0.3305651E-013  0.7246159E+02  0.7816164E-02  0.1226708E+00
        -11   -1    0    0    0    0  0.00000000000E+00  0.00000000000E+00  0.45593999997E+02  0.45594000000E+02  0.51100000000E-03 0.  1.
         11   -1    0    0    0    0 -0.00000000000E+00 -0.00000000000E+00 -0.45593999997E+02  0.45594000000E+02  0.51100000000E-03 0. -1.
    9900012    2    1    2    0    0  0.15337603033E+02 -0.25912230241E+01 -0.10426974294E+02  0.72461593605E+02  0.70000030366E+02 0.  0.
         12    1    1    2    0    0 -0.15337603033E+02  0.25912230241E+01  0.10426974294E+02  0.18726406395E+02  0.00000000000E+00 0. -1.
         11    1    3    3    0    0  0.36890892434E+02 -0.34389915225E+01 -0.19133997381E+02  0.41699813709E+02  0.51100000000E-03 0. -1.
        -11    1    3    3    0    0  0.89857920281E+00  0.30819734498E+01 -0.37918972774E+01  0.49683488357E+01  0.51100000000E-03 0.  1.
        -12    1    3    3    0    0 -0.22451868604E+02 -0.22342049514E+01  0.12498920365E+02  0.25793431060E+02  0.00000000000E+00 0.  1.
</event>
<event>
 7    1  0.3305651E-013  0.7246159E+02  0.7816164E-02  0.1226708E+00
        -11   -1    0    0    0    0  0.00000000000E+00  0.00000000000E+00  0.45593999997E+02  0.45594000000E+02  0.51100000000E-03 0. -1.
         11   -1    0    0    0    0 -0.00000000000E+00 -0.00000000000E+00 -0.45593999997E+02  0.45594000000E+02  0.51100000000E-03 0.  1.
    9900012    2    1    2    0    0  0.61291042536E+01  0.17320440935E+02 -0.36214273400E+01  0.72461592734E+02  0.70000029231E+02 0.  0.
         12    1    1    2    0    0 -0.61291042536E+01 -0.17320440935E+02  0.36214273400E+01  0.18726407266E+02  0.00000000000E+00 0. -1.
         11    1    3    3    0    0  0.15916722475E+02  0.18778774164E+02  0.21843353351E+02  0.32910735320E+02  0.51100000000E-03 0. -1.
        -11    1    3    3    0    0  0.70727922913E+01 -0.48951038741E+01  0.25564942458E+00  0.86053349512E+01  0.51100000000E-03 0.  1.
        -12    1    3    3    0    0 -0.16860410513E+02  0.34367706449E+01 -0.25720430115E+02  0.30945522462E+02  0.00000000000E+00 0.  1.
</event>
<event>
 7    1  0.3305651E-013  0.7246155E+02  0.7816164E-02  0.1226708E+00
        -11   -1    0    0    0    0  0.00000000000E+00  0.00000000000E+00  0.45593999997E+02  0.45594000000E+02  0.51100000000E-03 0. -1.
         11   -1    0    0    0    0 -0.00000000000E+00 -0.00000000000E+00 -0.45593999997E+02  0.45594000000E+02  0.51100000000E-03 0.  1.
    9900012    2    1    2    0    0 -0.11044280783E+02 -0.79742431943E+01 -0.12849717023E+02  0.72461550253E+02  0.69999973893E+02 0.  0.
         12    1    1    2    0    0  0.11044280783E+02  0.79742431943E+01  0.12849717023E+02  0.18726449747E+02  0.00000000000E+00 0. -1.
         11    1    3    3    0    0 -0.11863558107E+02 -0.13231378312E+02  0.21362664605E+01  0.17899078682E+02  0.51100000000E-03 0. -1.
        -11    1    3    3    0    0  0.25876659916E+02  0.29879793864E+01 -0.13548819378E+02  0.29361540423E+02  0.51100000000E-03 0.  1.
         12    1    3    3    0    0 -0.25057382592E+02  0.22691557311E+01 -0.14371641058E+01  0.25200931149E+02  0.00000000000E+00 0. -1.
</event>
<event>
 7    1  0.3305651E-013  0.7246156E+02  0.7816164E-02  0.1226708E+00
        -11   -1    0    0    0    0  0.00000000000E+00  0.00000000000E+00  0.45593999997E+02  0.45594000000E+02  0.51100000000E-03 0. -1.
         11   -1    0    0    0    0 -0.00000000000E+00 -0.00000000000E+00 -0.45593999997E+02  0.45594000000E+02  0.51100000000E-03 0.  1.
    9900012    2    1    2    0    0 -0.15774776446E+02 -0.53898160555E+01 -0.85314609272E+01  0.72461561081E+02  0.69999987998E+02 0.  0.
         12    1    1    2    0    0  0.15774776446E+02  0.53898160555E+01  0.85314609272E+01  0.18726438919E+02  0.00000000000E+00 0. -1.
         11    1    3    3    0    0 -0.42806097140E+01 -0.19649323997E+02  0.12867280726E+02  0.23874389345E+02  0.51100000000E-03 0. -1.
        -11    1    3    3    0    0  0.13292713658E+02 -0.77832818355E+00 -0.14479193374E+01  0.13393972593E+02  0.51100000000E-03 0.  1.
         12    1    3    3    0    0 -0.24786880390E+02  0.15037836125E+02 -0.19950822316E+02  0.35193199142E+02  0.00000000000E+00 0. -1.
</event>
<event>
 7    1  0.3305651E-013  0.7246158E+02  0.7816164E-02  0.1226708E+00
        -11   -1    0    0    0    0  0.00000000000E+00  0.00000000000E+00  0.45593999997E+02  0.45594000000E+02  0.51100000000E-03 0.  1.
         11   -1    0    0    0    0 -0.00000000000E+00 -0.00000000000E+00 -0.45593999997E+02  0.45594000000E+02  0.51100000000E-03 0. -1.
    9900012    2    1    2    0    0  0.18431312390E+02 -0.26287198156E+01 -0.20137801551E+01  0.72461581368E+02  0.70000014425E+02 0.  0.
         12    1    1    2    0    0 -0.18431312390E+02  0.26287198156E+01  0.20137801551E+01  0.18726418632E+02  0.00000000000E+00 0. -1.
         11    1    3    3    0    0  0.36599000098E+01 -0.29067611040E+01 -0.48508739417E+01  0.67361046946E+01  0.51100000000E-03 0. -1.
        -11    1    3    3    0    0  0.31870314166E+02 -0.13685715562E+02  0.17869586911E+02  0.39017148436E+02  0.51100000000E-03 0.  1.
         12    1    3    3    0    0 -0.17098901786E+02  0.13963756850E+02 -0.15032493125E+02  0.26708328237E+02  0.00000000000E+00 0. -1.
</event>
<event>
 7    1  0.3305651E-013  0.7246171E+02  0.7816164E-02  0.1226708E+00
        -11   -1    0    0    0    0  0.00000000000E+00  0.00000000000E+00  0.45593999997E+02  0.45594000000E+02  0.51100000000E-03 0.  1.
         11   -1    0    0    0    0 -0.00000000000E+00 -0.00000000000E+00 -0.45593999997E+02  0.45594000000E+02  0.51100000000E-03 0. -1.
    9900012    2    1    2    0    0 -0.10942769014E+01  0.14067768374E+02  0.12311550912E+02  0.72461712733E+02  0.70000185553E+02 0.  0.
         12    1    1    2    0    0  0.10942769014E+01 -0.14067768374E+02 -0.12311550912E+02  0.18726287267E+02  0.00000000000E+00 0. -1.
         11    1    3    3    0    0 -0.73308939602E+00  0.37182201646E+01  0.30694910343E+01  0.48769208242E+01  0.51100000000E-03 0. -1.
        -11    1    3    3    0    0  0.28725893896E+02  0.10888022417E+01  0.20219467476E+02  0.35145260502E+02  0.51100000000E-03 0.  1.
         12    1    3    3    0    0 -0.29087081401E+02  0.92607459673E+01 -0.10977407599E+02  0.32439531407E+02  0.00000000000E+00 0. -1.
</event>
<event>
 7    1  0.3305651E-013  0.7246156E+02  0.7816164E-02  0.1226708E+00
        -11   -1    0    0    0    0  0.00000000000E+00  0.00000000000E+00  0.45593999997E+02  0.45594000000E+02  0.51100000000E-03 0. -1.
         11   -1    0    0    0    0 -0.00000000000E+00 -0.00000000000E+00 -0.45593999997E+02  0.45594000000E+02  0.51100000000E-03 0.  1.
    9900012    2    1    2    0    0  0.14641756305E+02 -0.87145246332E+01 -0.77688946861E+01  0.72461556346E+02  0.69999981829E+02 0.  0.
         12    1    1    2    0    0 -0.14641756305E+02  0.87145246332E+01  0.77688946861E+01  0.18726443654E+02  0.00000000000E+00 0. -1.
         11    1    3    3    0    0 -0.13643015259E+02 -0.14253531478E+02 -0.83320688561E+01  0.21417712218E+02  0.51100000000E-03 0. -1.
        -11    1    3    3    0    0  0.17852490514E+02  0.12105323661E+02 -0.18450262036E+02  0.28384193628E+02  0.51100000000E-03 0.  1.
        -12    1    3    3    0    0  0.10432281050E+02 -0.65663168159E+01  0.19013436206E+02  0.22659650500E+02  0.00000000000E+00 0.  1.
</event>
<event>
 7    1  0.3305651E-013  0.7246195E+02  0.7816164E-02  0.1226707E+00
        -11   -1    0    0    0    0  0.00000000000E+00  0.00000000000E+00  0.45593999997E+02  0.45594000000E+02  0.51100000000E-03 0.  1.
         11   -1    0    0    0    0 -0.00000000000E+00 -0.00000000000E+00 -0.45593999997E+02  0.45594000000E+02  0.51100000000E-03 0. -1.
    9900012    2    1    2    0    0 -0.52181149932E+01 -0.17877278579E+02  0.19593294156E+01  0.72461954362E+02  0.70000500318E+02 0.  0.
         12    1    1    2    0    0  0.52181149932E+01  0.17877278579E+02 -0.19593294156E+01  0.18726045638E+02  0.00000000000E+00 0. -1.
         11    1    3    3    0    0  0.45563781143E+01 -0.11909409979E+02 -0.14122814115E+02  0.19027572267E+02  0.51100000000E-03 0. -1.
        -11    1    3    3    0    0 -0.27736979624E+02 -0.13854423696E+02  0.12805859844E+02  0.33545120975E+02  0.51100000000E-03 0.  1.
         12    1    3    3    0    0  0.17962486516E+02  0.78865550964E+01  0.32762836870E+01  0.19889261121E+02  0.00000000000E+00 0. -1.
</event>
<event>
 7    1  0.3305651E-013  0.7246166E+02  0.7816164E-02  0.1226708E+00
        -11   -1    0    0    0    0  0.00000000000E+00  0.00000000000E+00  0.45593999997E+02  0.45594000000E+02  0.51100000000E-03 0.  1.
         11   -1    0    0    0    0 -0.00000000000E+00 -0.00000000000E+00 -0.45593999997E+02  0.45594000000E+02  0.51100000000E-03 0. -1.
    9900012    2    1    2    0    0  0.39263192188E+00  0.13209294207E+02  0.13267867924E+02  0.72461656724E+02  0.70000112590E+02 0.  0.
         12    1    1    2    0    0 -0.39263192188E+00 -0.13209294207E+02 -0.13267867924E+02  0.18726343276E+02  0.00000000000E+00 0. -1.
         11    1    3    3    0    0 -0.25876431709E+01 -0.17507271100E+02 -0.89621014269E+01  0.19837330990E+02  0.51100000000E-03 0. -1.
        -11    1    3    3    0    0 -0.28204844822E+01 -0.41813352998E+01  0.15906392186E+02  0.16686881381E+02  0.51100000000E-03 0.  1.
        -12    1    3    3    0    0  0.58007595750E+01  0.34897900607E+02  0.63235771649E+01  0.35937444352E+02  0.00000000000E+00 0.  1.
</event>
<event>
 7    1  0.3305651E-013  0.7246166E+02  0.7816164E-02  0.1226708E+00
        -11   -1    0    0    0    0  0.00000000000E+00  0.00000000000E+00  0.45593999997E+02  0.45594000000E+02  0.51100000000E-03 0.  1.
         11   -1    0    0    0    0 -0.00000000000E+00 -0.00000000000E+00 -0.45593999997E+02  0.45594000000E+02  0.51100000000E-03 0. -1.
    9900012    2    1    2    0    0  0.68574345974E+01  0.16142790343E+02  0.65621512512E+01  0.72461657101E+02  0.70000113082E+02 0.  0.
         12    1    1    2    0    0 -0.68574345974E+01 -0.16142790343E+02 -0.65621512512E+01  0.18726342899E+02  0.00000000000E+00 0. -1.
         11    1    3    3    0    0  0.48654436277E+01 -0.11739549330E+01  0.15108869130E+02  0.15916301031E+02  0.51100000000E-03 0. -1.
        -11    1    3    3    0    0  0.20152571765E+02 -0.10439817889E+02 -0.25666067511E+01  0.22840827848E+02  0.51100000000E-03 0.  1.
         12    1    3    3    0    0 -0.18160580795E+02  0.27756563165E+02 -0.59801111274E+01  0.33704528222E+02  0.00000000000E+00 0. -1.
</event>
<event>
 7    1  0.3305651E-013  0.7246155E+02  0.7816164E-02  0.1226708E+00
        -11   -1    0    0    0    0  0.00000000000E+00  0.00000000000E+00  0.45593999997E+02  0.45594000000E+02  0.51100000000E-03 0.  1.
         11   -1    0    0    0    0 -0.00000000000E+00 -0.00000000000E+00 -0.45593999997E+02  0.45594000000E+02  0.51100000000E-03 0. -1.
    9900012    2    1    2    0    0 -0.56599453968E+01  0.17086449307E+02  0.51670198076E+01  0.72461552779E+02  0.69999977183E+02 0.  0.
         12    1    1    2    0    0  0.56599453968E+01 -0.17086449307E+02 -0.51670198076E+01  0.18726447221E+02  0.00000000000E+00 0. -1.
         11    1    3    3    0    0  0.13292501199E+02  0.10117298510E+02 -0.14275184658E+02  0.21973420639E+02  0.51100000000E-03 0. -1.
        -11    1    3    3    0    0 -0.78994090040E+01  0.22887407659E+02  0.17966216311E+01  0.24278837318E+02  0.51100000000E-03 0.  1.
        -12    1    3    3    0    0 -0.11053037592E+02 -0.15918256862E+02  0.17645582834E+02  0.26209294823E+02  0.00000000000E+00 0.  1.
</event>
<event>
 7    1  0.3305651E-013  0.7246157E+02  0.7816164E-02  0.1226708E+00
        -11   -1    0    0    0    0  0.00000000000E+00  0.00000000000E+00  0.45593999997E+02  0.45594000000E+02  0.51100000000E-03 0.  1.
         11   -1    0    0    0    0 -0.00000000000E+00 -0.00000000000E+00 -0.45593999997E+02  0.45594000000E+02  0.51100000000E-03 0. -1.
    9900012    2    1    2    0    0 -0.11367231611E+02 -0.13932046800E+02  0.52309940645E+01  0.72461569976E+02  0.69999999585E+02 0.  0.
         12    1    1    2    0    0  0.11367231611E+02  0.13932046800E+02 -0.52309940645E+01  0.18726430024E+02  0.00000000000E+00 0. -1.
         11    1    3    3    0    0  0.10222187877E+02  0.17650842952E+02 -0.28835696337E+01  0.20600008641E+02  0.51100000000E-03 0. -1.
        -11    1    3    3    0    0  0.64003555229E+01 -0.13005846359E+02  0.10923797202E+02  0.18150645606E+02  0.51100000000E-03 0.  1.
        -12    1    3    3    0    0 -0.27989775011E+02 -0.18577043393E+02 -0.28092335037E+01  0.33710915729E+02  0.00000000000E+00 0.  1.
</event>
<event>
 7    1  0.3305651E-013  0.7246154E+02  0.7816164E-02  0.1226708E+00
        -11   -1    0    0    0    0  0.00000000000E+00  0.00000000000E+00  0.45593999997E+02  0.45594000000E+02  0.51100000000E-03 0.  1.
         11   -1    0    0    0    0 -0.00000000000E+00 -0.00000000000E+00 -0.45593999997E+02  0.45594000000E+02  0.51100000000E-03 0. -1.
    9900012    2    1    2    0    0  0.14606797184E+02  0.10143602408E+02 -0.58676314287E+01  0.72461540314E+02  0.69999960945E+02 0.  0.
         12    1    1    2    0    0 -0.14606797184E+02 -0.10143602408E+02  0.58676314287E+01  0.18726459686E+02  0.00000000000E+00 0. -1.
         11    1    3    3    0    0 -0.18179987824E+02  0.83325628016E+01 -0.90147612531E+01  0.21936487431E+02  0.51100000000E-03 0. -1.
        -11    1    3    3    0    0  0.12958556452E+00  0.52460046892E+01  0.14783241739E+02  0.15686988053E+02  0.51100000000E-03 0.  1.
         12    1    3    3    0    0  0.32657199443E+02 -0.34349650831E+01 -0.11636111914E+02  0.34838064830E+02  0.00000000000E+00 0. -1.
</event>
<event>
 7    1  0.3305651E-013  0.7246167E+02  0.7816164E-02  0.1226708E+00
        -11   -1    0    0    0    0  0.00000000000E+00  0.00000000000E+00  0.45593999997E+02  0.45594000000E+02  0.51100000000E-03 0. -1.
         11   -1    0    0    0    0 -0.00000000000E+00 -0.00000000000E+00 -0.45593999997E+02  0.45594000000E+02  0.51100000000E-03 0.  1.
    9900012    2    1    2    0    0  0.11813424418E+02  0.20676869553E+01 -0.14382044535E+02  0.72461667449E+02  0.70000126561E+02 0.  0.
         12    1    1    2    0    0 -0.11813424418E+02 -0.20676869553E+01  0.14382044535E+02  0.18726332551E+02  0.00000000000E+00 0. -1.
         11    1    3    3    0    0  0.12943184803E+02 -0.11584648757E+01 -0.98984584324E+01  0.16335469179E+02  0.51100000000E-03 0. -1.
        -11    1    3    3    0    0 -0.37891164248E+01  0.57821529069E+01 -0.29775117795E+02  0.30567111991E+02  0.51100000000E-03 0.  1.
         12    1    3    3    0    0  0.26593560397E+01 -0.25560010759E+01  0.25291531692E+02  0.25559086278E+02  0.00000000000E+00 0. -1.
</event>
<event>
 7    1  0.3305651E-013  0.7246150E+02  0.7816164E-02  0.1226708E+00
        -11   -1    0    0    0    0  0.00000000000E+00  0.00000000000E+00  0.45593999997E+02  0.45594000000E+02  0.51100000000E-03 0. -1.
         11   -1    0    0    0    0 -0.00000000000E+00 -0.00000000000E+00 -0.45593999997E+02  0.45594000000E+02  0.51100000000E-03 0.  1.
    9900012    2    1    2    0    0 -0.46184102234E+01 -0.74183886612E+01 -0.16562590762E+02  0.72461504971E+02  0.69999914904E+02 0.  0.
         12    1    1    2    0    0  0.46184102234E+01  0.74183886612E+01  0.16562590762E+02  0.18726495029E+02  0.00000000000E+00 0. -1.
         11    1    3    3    0    0 -0.15720798567E+01 -0.21462680586E+02  0.96366309499E+01  0.23579286447E+02  0.51100000000E-03 0. -1.
        -11    1    3    3    0    0 -0.75867807412E+01  0.30856051023E+01  0.87438632742E+01  0.11980623777E+02  0.51100000000E-03 0.  1.
        -12    1    3    3    0    0  0.45404503745E+01  0.10958686823E+02 -0.34943084987E+02  0.36901594747E+02  0.00000000000E+00 0.  1.
</event>
<event>
 7    1  0.3305651E-013  0.7246155E+02  0.7816164E-02  0.1226708E+00
        -11   -1    0    0    0    0  0.00000000000E+00  0.00000000000E+00  0.45593999997E+02  0.45594000000E+02  0.51100000000E-03 0.  1.
         11   -1    0    0    0    0 -0.00000000000E+00 -0.00000000000E+00 -0.45593999997E+02  0.45594000000E+02  0.51100000000E-03 0. -1.
    9900012    2    1    2    0    0 -0.15818511156E+01  0.86515453778E+01  0.16532647711E+02  0.72461549971E+02  0.69999973524E+02 0.  0.
         12    1    1    2    0    0  0.15818511156E+01 -0.86515453778E+01 -0.16532647711E+02  0.18726450029E+02  0.00000000000E+00 0. -1.
         11    1    3    3    0    0 -0.32827425846E+01 -0.11274103759E+01 -0.83357474792E+01  0.90295149000E+01  0.51100000000E-03 0. -1.
        -11    1    3    3    0    0 -0.20954534722E+02 -0.81168472752E+01 -0.37478944341E+01  0.22782064175E+02  0.51100000000E-03 0.  1.
        -12    1    3    3    0    0  0.22655426191E+02  0.17895803029E+02  0.28616289624E+02  0.40649970896E+02  0.00000000000E+00 0.  1.
</event>
<event>
 7    1  0.3305651E-013  0.7246159E+02  0.7816164E-02  0.1226708E+00
        -11   -1    0    0    0    0  0.00000000000E+00  0.00000000000E+00  0.45593999997E+02  0.45594000000E+02  0.51100000000E-03 0. -1.
         11   -1    0    0    0    0 -0.00000000000E+00 -0.00000000000E+00 -0.45593999997E+02  0.45594000000E+02  0.51100000000E-03 0.  1.
    9900012    2    1    2    0    0  0.10265652871E+02 -0.64880111554E+01 -0.14254837196E+02  0.72461593481E+02  0.70000030205E+02 0.  0.
         12    1    1    2    0    0 -0.10265652871E+02  0.64880111554E+01  0.14254837196E+02  0.18726406519E+02  0.00000000000E+00 0. -1.
         11    1    3    3    0    0 -0.65683875785E+01  0.21363757379E+02 -0.15061049857E+01  0.22401388288E+02  0.51100000000E-03 0. -1.
        -11    1    3    3    0    0  0.97635336989E+01  0.59316027807E+01 -0.10426537010E+02  0.15466841181E+02  0.51100000000E-03 0.  1.
         12    1    3    3    0    0  0.70705067504E+01 -0.33783371315E+02 -0.23221952005E+01  0.34593364012E+02  0.00000000000E+00 0. -1.
</event>
<event>
 7    1  0.3305651E-013  0.7246166E+02  0.7816164E-02  0.1226708E+00
        -11   -1    0    0    0    0  0.00000000000E+00  0.00000000000E+00  0.45593999997E+02  0.45594000000E+02  0.51100000000E-03 0. -1.
         11   -1    0    0    0    0 -0.00000000000E+00 -0.00000000000E+00 -0.45593999997E+02  0.45594000000E+02  0.51100000000E-03 0.  1.
    9900012    2    1    2    0    0  0.32639948427E+01  0.10544056656E+02  0.15127628154E+02  0.72461656879E+02  0.70000112793E+02 0.  0.
         12    1    1    2    0    0 -0.32639948427E+01 -0.10544056656E+02 -0.15127628154E+02  0.18726343121E+02  0.00000000000E+00 0. -1.
         11    1    3    3    0    0  0.15415282781E+01  0.46630122546E+01  0.33574155613E+02  0.33931459121E+02  0.51100000000E-03 0. -1.
        -11    1    3    3    0    0 -0.17478547679E+01  0.88033680062E+00  0.96170190414E+01  0.98141247535E+01  0.51100000000E-03 0.  1.
        -12    1    3    3    0    0  0.34703213325E+01  0.50007076010E+01 -0.28063546500E+02  0.28716073005E+02  0.00000000000E+00 0.  1.
</event>
<event>
 7    1  0.3305651E-013  0.7246156E+02  0.7816164E-02  0.1226708E+00
        -11   -1    0    0    0    0  0.00000000000E+00  0.00000000000E+00  0.45593999997E+02  0.45594000000E+02  0.51100000000E-03 0. -1.
         11   -1    0    0    0    0 -0.00000000000E+00 -0.00000000000E+00 -0.45593999997E+02  0.45594000000E+02  0.51100000000E-03 0.  1.
    9900012    2    1    2    0    0 -0.65574356694E-01 -0.18723469363E+02 -0.32728394610E+00  0.72461555603E+02  0.69999980862E+02 0.  0.
         12    1    1    2    0    0  0.65574356694E-01  0.18723469363E+02  0.32728394610E+00  0.18726444397E+02  0.00000000000E+00 0. -1.
         11    1    3    3    0    0  0.14278106892E+02  0.34268575744E+01 -0.60271040070E+01  0.15872418601E+02  0.51100000000E-03 0. -1.
        -11    1    3    3    0    0 -0.28383651689E+02 -0.24924646600E+01 -0.69391466115E+01  0.29325685316E+02  0.51100000000E-03 0.  1.
         12    1    3    3    0    0  0.14039970440E+02 -0.19657862277E+02  0.12638966672E+02  0.27263451686E+02  0.00000000000E+00 0. -1.
</event>
<event>
 7    1  0.3305651E-013  0.7246155E+02  0.7816164E-02  0.1226708E+00
        -11   -1    0    0    0    0  0.00000000000E+00  0.00000000000E+00  0.45593999997E+02  0.45594000000E+02  0.51100000000E-03 0. -1.
         11   -1    0    0    0    0 -0.00000000000E+00 -0.00000000000E+00 -0.45593999997E+02  0.45594000000E+02  0.51100000000E-03 0.  1.
    9900012    2    1    2    0    0  0.11018082512E+02 -0.15141046141E+02 -0.17513581408E+00  0.72461545637E+02  0.69999967879E+02 0.  0.
         12    1    1    2    0    0 -0.11018082512E+02  0.15141046141E+02  0.17513581408E+00  0.18726454363E+02  0.00000000000E+00 0. -1.
         11    1    3    3    0    0 -0.17027249510E+02 -0.30940453957E+02  0.21676405274E+01  0.35382730006E+02  0.51100000000E-03 0. -1.
        -11    1    3    3    0    0  0.10159337738E+01  0.39119843255E+01 -0.60951025592E+01  0.73134135849E+01  0.51100000000E-03 0.  1.
        -12    1    3    3    0    0  0.27029398249E+02  0.11887423491E+02  0.37523262177E+01  0.29765402046E+02  0.00000000000E+00 0.  1.
</event>
<event>
 7    1  0.3305651E-013  0.7246176E+02  0.7816164E-02  0.1226708E+00
        -11   -1    0    0    0    0  0.00000000000E+00  0.00000000000E+00  0.45593999997E+02  0.45594000000E+02  0.51100000000E-03 0. -1.
         11   -1    0    0    0    0 -0.00000000000E+00 -0.00000000000E+00 -0.45593999997E+02  0.45594000000E+02  0.51100000000E-03 0.  1.
    9900012    2    1    2    0    0  0.14361990895E+01  0.15778966763E+01 -0.18604288991E+02  0.72461761867E+02  0.70000249559E+02 0.  0.
         12    1    1    2    0    0 -0.14361990895E+01 -0.15778966763E+01  0.18604288991E+02  0.18726238133E+02  0.00000000000E+00 0. -1.
         11    1    3    3    0    0  0.44477842002E+01 -0.11280380819E+02  0.54497223761E+01  0.13293955392E+02  0.51100000000E-03 0. -1.
        -11    1    3    3    0    0  0.33272848381E+01 -0.19587362733E+02 -0.33164548626E+01  0.20142851743E+02  0.51100000000E-03 0.  1.
         12    1    3    3    0    0 -0.63388699488E+01  0.32445640229E+02 -0.20737556504E+02  0.39024954732E+02  0.00000000000E+00 0. -1.
</event>
