<event>
 7    1  0.4630495E-010  0.4778727E+02  0.7816164E-02  0.1312668E+00
        -11   -1    0    0    0    0  0.00000000000E+00  0.00000000000E+00  0.45593999997E+02  0.45594000000E+02  0.51100000000E-03 0.  1.
         11   -1    0    0    0    0 -0.00000000000E+00 -0.00000000000E+00 -0.45593999997E+02  0.45594000000E+02  0.51100000000E-03 0. -1.
    9900012    2    1    2    0    0 -0.19837009457E+02 -0.29668358938E+02 -0.24696248797E+02  0.47787272230E+02  0.20000005405E+02 0.  0.
        -12    1    1    2    0    0  0.19837009457E+02  0.29668358938E+02  0.24696248797E+02  0.43400727770E+02  0.00000000000E+00 0.  1.
         11    1    3    3    0    0 -0.31938589901E+01 -0.56750612755E+01 -0.64258636280E+01  0.91487036982E+01  0.51100000000E-03 0. -1.
        -11    1    3    3    0    0 -0.12099677370E+02 -0.26296642580E+02 -0.15291485616E+02  0.32737518782E+02  0.51100000000E-03 0.  1.
         12    1    3    3    0    0 -0.45434730976E+01  0.23033449170E+01 -0.29788995533E+01  0.59010497493E+01  0.00000000000E+00 0. -1.
</event>
<event>
 7    1  0.4630495E-010  0.4778729E+02  0.7816164E-02  0.1312668E+00
        -11   -1    0    0    0    0  0.00000000000E+00  0.00000000000E+00  0.45593999997E+02  0.45594000000E+02  0.51100000000E-03 0.  1.
         11   -1    0    0    0    0 -0.00000000000E+00 -0.00000000000E+00 -0.45593999997E+02  0.45594000000E+02  0.51100000000E-03 0. -1.
    9900012    2    1    2    0    0 -0.23833488551E+02 -0.13308585302E+02 -0.33741197091E+02  0.47787285715E+02  0.20000066891E+02 0.  0.
        -12    1    1    2    0    0  0.23833488551E+02  0.13308585302E+02  0.33741197091E+02  0.43400714285E+02  0.00000000000E+00 0.  1.
         11    1    3    3    0    0 -0.45156060896E+01 -0.23149295702E+01 -0.10169027932E+01  0.51752960131E+01  0.51100000000E-03 0. -1.
        -11    1    3    3    0    0 -0.16927271813E+02 -0.28902646102E+01 -0.14314102752E+02  0.22355753139E+02  0.51100000000E-03 0.  1.
         12    1    3    3    0    0 -0.23906106481E+01 -0.81033911215E+01 -0.18410191546E+02  0.20256236563E+02  0.00000000000E+00 0. -1.
</event>
<event>
 7    1  0.4630495E-010  0.4778727E+02  0.7816164E-02  0.1312668E+00
        -11   -1    0    0    0    0  0.00000000000E+00  0.00000000000E+00  0.45593999997E+02  0.45594000000E+02  0.51100000000E-03 0.  1.
         11   -1    0    0    0    0 -0.00000000000E+00 -0.00000000000E+00 -0.45593999997E+02  0.45594000000E+02  0.51100000000E-03 0. -1.
    9900012    2    1    2    0    0 -0.91069499368E+01  0.14704910405E+02 -0.39805176420E+02  0.47787274235E+02  0.20000014546E+02 0.  0.
        -12    1    1    2    0    0  0.91069499368E+01 -0.14704910405E+02  0.39805176420E+02  0.43400725765E+02  0.00000000000E+00 0.  1.
         11    1    3    3    0    0 -0.37215345691E+01  0.43716190972E+01 -0.64771566482E+01  0.86553123332E+01  0.51100000000E-03 0. -1.
        -11    1    3    3    0    0  0.22156556750E+01  0.22988809471E+00 -0.22132315292E+02  0.22244130890E+02  0.51100000000E-03 0.  1.
        -12    1    3    3    0    0 -0.76010710427E+01  0.10103403213E+02 -0.11195704479E+02  0.16887831011E+02  0.00000000000E+00 0.  1.
</event>
<event>
 7    1  0.4630495E-010  0.4778727E+02  0.7816164E-02  0.1312668E+00
        -11   -1    0    0    0    0  0.00000000000E+00  0.00000000000E+00  0.45593999997E+02  0.45594000000E+02  0.51100000000E-03 0.  1.
         11   -1    0    0    0    0 -0.00000000000E+00 -0.00000000000E+00 -0.45593999997E+02  0.45594000000E+02  0.51100000000E-03 0. -1.
    9900012    2    1    2    0    0 -0.31723549882E+02 -0.16374648353E+02 -0.24680168595E+02  0.47787269043E+02  0.19999990873E+02 0.  0.
        -12    1    1    2    0    0  0.31723549882E+02  0.16374648353E+02  0.24680168595E+02  0.43400730957E+02  0.00000000000E+00 0.  1.
         11    1    3    3    0    0 -0.13229686603E+02 -0.57944852664E+01 -0.17460428779E+02  0.22659815545E+02  0.51100000000E-03 0. -1.
        -11    1    3    3    0    0 -0.17694052662E+02 -0.11059218808E+02 -0.93024477668E+01  0.22845598153E+02  0.51100000000E-03 0.  1.
        -12    1    3    3    0    0 -0.79981061725E+00  0.47905572162E+00  0.20827079509E+01  0.22818553453E+01  0.00000000000E+00 0.  1.
</event>
<event>
 7    1  0.4630495E-010  0.4778727E+02  0.7816164E-02  0.1312668E+00
        -11   -1    0    0    0    0  0.00000000000E+00  0.00000000000E+00  0.45593999997E+02  0.45594000000E+02  0.51100000000E-03 0. -1.
         11   -1    0    0    0    0 -0.00000000000E+00 -0.00000000000E+00 -0.45593999997E+02  0.45594000000E+02  0.51100000000E-03 0.  1.
    9900012    2    1    2    0    0  0.32060024675E+01  0.16233103744E+01  0.43251698664E+02  0.47787273903E+02  0.20000013033E+02 0.  0.
        -12    1    1    2    0    0 -0.32060024675E+01 -0.16233103744E+01 -0.43251698664E+02  0.43400726097E+02  0.00000000000E+00 0.  1.
         11    1    3    3    0    0  0.32315559235E+01  0.15286059446E+01  0.22821455648E+02  0.23099749522E+02  0.51100000000E-03 0. -1.
        -11    1    3    3    0    0 -0.52178631852E+01 -0.21575593810E+01  0.17346240916E+02  0.18242073151E+02  0.51100000000E-03 0.  1.
        -12    1    3    3    0    0  0.51923097291E+01  0.22522638108E+01  0.30840021011E+01  0.64454512298E+01  0.00000000000E+00 0.  1.
</event>
<event>
 7    1  0.4630495E-010  0.4778727E+02  0.7816164E-02  0.1312668E+00
        -11   -1    0    0    0    0  0.00000000000E+00  0.00000000000E+00  0.45593999997E+02  0.45594000000E+02  0.51100000000E-03 0.  1.
         11   -1    0    0    0    0 -0.00000000000E+00 -0.00000000000E+00 -0.45593999997E+02  0.45594000000E+02  0.51100000000E-03 0. -1.
    9900012    2    1    2    0    0 -0.37563629339E+02  0.88687048156E+01 -0.19848000224E+02  0.47787270891E+02  0.19999999302E+02 0.  0.
        -12    1    1    2    0    0  0.37563629339E+02 -0.88687048156E+01  0.19848000224E+02  0.43400729109E+02  0.00000000000E+00 0.  1.
         11    1    3    3    0    0 -0.31766419991E+02  0.12646187944E+02 -0.15632457169E+02  0.37595281964E+02  0.51100000000E-03 0.  1.
        -11    1    3    3    0    0 -0.34249728341E+01 -0.42021040535E+00 -0.49319355118E+01  0.60192195385E+01  0.51100000000E-03 0. -1.
        -12    1    3    3    0    0 -0.23722365141E+01 -0.33572727234E+01  0.71639245658E+00  0.41727693885E+01  0.00000000000E+00 0.  1.
</event>
<event>
 7    1  0.4630495E-010  0.4778727E+02  0.7816164E-02  0.1312668E+00
        -11   -1    0    0    0    0  0.00000000000E+00  0.00000000000E+00  0.45593999997E+02  0.45594000000E+02  0.51100000000E-03 0.  1.
         11   -1    0    0    0    0 -0.00000000000E+00 -0.00000000000E+00 -0.45593999997E+02  0.45594000000E+02  0.51100000000E-03 0. -1.
    9900012    2    1    2    0    0 -0.25414384873E+02 -0.34007082627E+02 -0.90139050359E+01  0.47787272918E+02  0.20000008542E+02 0.  0.
        -12    1    1    2    0    0  0.25414384873E+02  0.34007082627E+02  0.90139050359E+01  0.43400727082E+02  0.00000000000E+00 0.  1.
         11    1    3    3    0    0  0.24507964227E+01 -0.19165484148E+01 -0.33809837812E+00  0.31295162096E+01  0.51100000000E-03 0. -1.
        -11    1    3    3    0    0 -0.53118621072E+00 -0.22126771950E+01  0.17168645505E+01  0.28505654362E+01  0.51100000000E-03 0.  1.
         12    1    3    3    0    0 -0.27333995085E+02 -0.29877857017E+02 -0.10392671208E+02  0.41807191272E+02  0.00000000000E+00 0. -1.
</event>
<event>
 7    1  0.4630495E-010  0.4778727E+02  0.7816164E-02  0.1312668E+00
        -11   -1    0    0    0    0  0.00000000000E+00  0.00000000000E+00  0.45593999997E+02  0.45594000000E+02  0.51100000000E-03 0. -1.
         11   -1    0    0    0    0 -0.00000000000E+00 -0.00000000000E+00 -0.45593999997E+02  0.45594000000E+02  0.51100000000E-03 0.  1.
    9900012    2    1    2    0    0 -0.11049403048E+02 -0.23302387246E+01  0.41905896108E+02  0.47787269029E+02  0.19999990811E+02 0.  0.
        -12    1    1    2    0    0  0.11049403048E+02  0.23302387246E+01 -0.41905896108E+02  0.43400730971E+02  0.00000000000E+00 0.  1.
         11    1    3    3    0    0 -0.62594864634E+00  0.93080265328E+00  0.14526724440E+02  0.14569966661E+02  0.51100000000E-03 0. -1.
        -11    1    3    3    0    0 -0.13218686122E+02  0.14540959861E+01  0.18532517567E+02  0.22810135150E+02  0.51100000000E-03 0.  1.
         12    1    3    3    0    0  0.27952317198E+01 -0.47151373639E+01  0.88466541005E+01  0.10407167218E+02  0.00000000000E+00 0. -1.
</event>
<event>
 7    1  0.4630495E-010  0.4778728E+02  0.7816164E-02  0.1312668E+00
        -11   -1    0    0    0    0  0.00000000000E+00  0.00000000000E+00  0.45593999997E+02  0.45594000000E+02  0.51100000000E-03 0.  1.
         11   -1    0    0    0    0 -0.00000000000E+00 -0.00000000000E+00 -0.45593999997E+02  0.45594000000E+02  0.51100000000E-03 0. -1.
    9900012    2    1    2    0    0  0.42134180955E+01 -0.86675951631E+01 -0.42317162281E+02  0.47787282016E+02  0.20000050025E+02 0.  0.
        -12    1    1    2    0    0 -0.42134180955E+01  0.86675951631E+01  0.42317162281E+02  0.43400717984E+02  0.00000000000E+00 0.  1.
         11    1    3    3    0    0 -0.10355654466E+01 -0.98462377356E+01 -0.33179732840E+02  0.34625358698E+02  0.51100000000E-03 0. -1.
        -11    1    3    3    0    0 -0.92743242576E+00 -0.22273347380E+01 -0.25579447418E+01  0.35162810614E+01  0.51100000000E-03 0.  1.
        -12    1    3    3    0    0  0.61764159678E+01  0.34059773104E+01 -0.65794846989E+01  0.96456422570E+01  0.00000000000E+00 0.  1.
</event>
<event>
 7    1  0.4630495E-010  0.4778727E+02  0.7816164E-02  0.1312668E+00
        -11   -1    0    0    0    0  0.00000000000E+00  0.00000000000E+00  0.45593999997E+02  0.45594000000E+02  0.51100000000E-03 0. -1.
         11   -1    0    0    0    0 -0.00000000000E+00 -0.00000000000E+00 -0.45593999997E+02  0.45594000000E+02  0.51100000000E-03 0.  1.
    9900012    2    1    2    0    0  0.40802325956E+02 -0.14790358535E+02  0.19615845049E+00  0.47787274348E+02  0.20000015061E+02 0.  0.
        -12    1    1    2    0    0 -0.40802325956E+02  0.14790358535E+02 -0.19615845049E+00  0.43400725652E+02  0.00000000000E+00 0.  1.
         11    1    3    3    0    0  0.21766136275E+02 -0.48724835680E+01  0.48651871894E+01  0.22829275746E+02  0.51100000000E-03 0. -1.
        -11    1    3    3    0    0  0.19276596637E+02 -0.11318235226E+02 -0.26803014531E+01  0.22513854461E+02  0.51100000000E-03 0.  1.
        -12    1    3    3    0    0 -0.24040695617E+00  0.14003602595E+01 -0.19887272858E+01  0.24441441402E+01  0.00000000000E+00 0.  1.
</event>
<event>
 7    1  0.5116184E-010  0.4778727E+02  0.7816164E-02  0.1312668E+00
        -11   -1    0    0    0    0  0.00000000000E+00  0.00000000000E+00  0.45593999997E+02  0.45594000000E+02  0.51100000000E-03 0.  1.
         11   -1    0    0    0    0 -0.00000000000E+00 -0.00000000000E+00 -0.45593999997E+02  0.45594000000E+02  0.51100000000E-03 0. -1.
    9900012    2    1    2    0    0  0.30006156699E+02 -0.22589568314E+02 -0.21747766230E+02  0.47787269909E+02  0.19999994823E+02 0.  0.
        -12    1    1    2    0    0 -0.30006156699E+02  0.22589568314E+02  0.21747766230E+02  0.43400730091E+02  0.00000000000E+00 0.  1.
         11    1    3    3    0    0  0.99965143164E+01 -0.74231709360E+00 -0.16605392922E+01  0.10160645853E+02  0.51100000000E-03 0. -1.
        -11    1    3    3    0    0 -0.94974816032E+00 -0.18858900010E+01 -0.39730764682E+01  0.44993265660E+01  0.51100000000E-03 0.  1.
         12    1    3    3    0    0  0.20959390543E+02 -0.19961361219E+02 -0.16114150469E+02  0.33127297490E+02  0.00000000000E+00 0. -1.
</event>
<event>
 7    1  0.4630495E-010  0.4778731E+02  0.7816164E-02  0.1312668E+00
        -11   -1    0    0    0    0  0.00000000000E+00  0.00000000000E+00  0.45593999997E+02  0.45594000000E+02  0.51100000000E-03 0. -1.
         11   -1    0    0    0    0 -0.00000000000E+00 -0.00000000000E+00 -0.45593999997E+02  0.45594000000E+02  0.51100000000E-03 0.  1.
    9900012    2    1    2    0    0  0.30521661994E+02  0.16032586296E+02  0.26362939349E+02  0.47787305935E+02  0.20000159078E+02 0.  0.
        -12    1    1    2    0    0 -0.30521661994E+02 -0.16032586296E+02 -0.26362939349E+02  0.43400694065E+02  0.00000000000E+00 0.  1.
         11    1    3    3    0    0  0.10209754022E+02  0.66923041167E+01  0.61981905041E+01  0.13691003519E+02  0.51100000000E-03 0. -1.
        -11    1    3    3    0    0  0.13965221974E+01  0.57442667923E+01  0.11607554147E+02  0.13026211605E+02  0.51100000000E-03 0.  1.
        -12    1    3    3    0    0  0.18915385775E+02  0.35960153870E+01  0.85571946981E+01  0.21070090811E+02  0.00000000000E+00 0.  1.
</event>
<event>
 7    1  0.4630495E-010  0.4778728E+02  0.7816164E-02  0.1312668E+00
        -11   -1    0    0    0    0  0.00000000000E+00  0.00000000000E+00  0.45593999997E+02  0.45594000000E+02  0.51100000000E-03 0. -1.
         11   -1    0    0    0    0 -0.00000000000E+00 -0.00000000000E+00 -0.45593999997E+02  0.45594000000E+02  0.51100000000E-03 0.  1.
    9900012    2    1    2    0    0  0.40899248483E+02 -0.48829941405E+01  0.13675898955E+02  0.47787281452E+02  0.20000047452E+02 0.  0.
        -12    1    1    2    0    0 -0.40899248483E+02  0.48829941405E+01 -0.13675898955E+02  0.43400718548E+02  0.00000000000E+00 0.  1.
         11    1    3    3    0    0  0.14944425254E+02 -0.51887808869E+01  0.87825460247E+01  0.18093988178E+02  0.51100000000E-03 0. -1.
        -11    1    3    3    0    0  0.70437105375E+01 -0.57638517664E+01  0.36079278303E+01  0.97904539634E+01  0.51100000000E-03 0.  1.
         12    1    3    3    0    0  0.18911112692E+02  0.60696385127E+01  0.12854251000E+01  0.19902839310E+02  0.00000000000E+00 0. -1.
</event>
<event>
 7    1  0.5058471E-010  0.4778728E+02  0.7816164E-02  0.1312668E+00
        -11   -1    0    0    0    0  0.00000000000E+00  0.00000000000E+00  0.45593999997E+02  0.45594000000E+02  0.51100000000E-03 0. -1.
         11   -1    0    0    0    0 -0.00000000000E+00 -0.00000000000E+00 -0.45593999997E+02  0.45594000000E+02  0.51100000000E-03 0.  1.
    9900012    2    1    2    0    0  0.91201368912E+01 -0.28166319120E+01  0.42338068915E+02  0.47787281208E+02  0.20000046340E+02 0.  0.
        -12    1    1    2    0    0 -0.91201368912E+01  0.28166319120E+01 -0.42338068915E+02  0.43400718792E+02  0.00000000000E+00 0.  1.
         11    1    3    3    0    0 -0.17419108684E+01 -0.32113828744E+01  0.12951311821E+02  0.13456734804E+02  0.51100000000E-03 0. -1.
        -11    1    3    3    0    0 -0.10720937474E+01 -0.17874298954E+01 -0.44053621240E+00  0.21303434112E+01  0.51100000000E-03 0.  1.
         12    1    3    3    0    0  0.11934141507E+02  0.21821808578E+01  0.29827293306E+02  0.32200202993E+02  0.00000000000E+00 0. -1.
</event>
<event>
 7    1  0.4630495E-010  0.4778727E+02  0.7816164E-02  0.1312668E+00
        -11   -1    0    0    0    0  0.00000000000E+00  0.00000000000E+00  0.45593999997E+02  0.45594000000E+02  0.51100000000E-03 0.  1.
         11   -1    0    0    0    0 -0.00000000000E+00 -0.00000000000E+00 -0.45593999997E+02  0.45594000000E+02  0.51100000000E-03 0. -1.
    9900012    2    1    2    0    0 -0.30636277268E+02  0.15793344085E+02 -0.26374464665E+02  0.47787267419E+02  0.19999983469E+02 0.  0.
        -12    1    1    2    0    0  0.30636277268E+02 -0.15793344085E+02  0.26374464665E+02  0.43400732581E+02  0.00000000000E+00 0.  1.
         11    1    3    3    0    0 -0.10746648146E+02  0.11818740681E+02 -0.14033447397E+02  0.21262895470E+02  0.51100000000E-03 0. -1.
        -11    1    3    3    0    0 -0.87673732597E+01  0.37776201094E+01 -0.12080576263E+02  0.15397323491E+02  0.51100000000E-03 0.  1.
        -12    1    3    3    0    0 -0.11122255862E+02  0.19698329511E+00 -0.26044100509E+00  0.11127048459E+02  0.00000000000E+00 0.  1.
</event>
<event>
 7    1  0.4630495E-010  0.4778727E+02  0.7816164E-02  0.1312668E+00
        -11   -1    0    0    0    0  0.00000000000E+00  0.00000000000E+00  0.45593999997E+02  0.45594000000E+02  0.51100000000E-03 0.  1.
         11   -1    0    0    0    0 -0.00000000000E+00 -0.00000000000E+00 -0.45593999997E+02  0.45594000000E+02  0.51100000000E-03 0. -1.
    9900012    2    1    2    0    0 -0.68745170499E+01  0.53709558375E+01 -0.42514905591E+02  0.47787270183E+02  0.19999996071E+02 0.  0.
        -12    1    1    2    0    0  0.68745170499E+01 -0.53709558375E+01  0.42514905591E+02  0.43400729817E+02  0.00000000000E+00 0.  1.
         11    1    3    3    0    0 -0.33847677964E+00 -0.14677068137E+01 -0.18245914180E+01  0.23659805420E+01  0.51100000000E-03 0.  1.
        -11    1    3    3    0    0  0.47040453349E+01 -0.26737299729E+01 -0.12369946614E+02  0.13501572278E+02  0.51100000000E-03 0. -1.
         12    1    3    3    0    0 -0.11240085605E+02  0.95123926240E+01 -0.28320367559E+02  0.31919717362E+02  0.00000000000E+00 0. -1.
</event>
<event>
 7    1  0.4630495E-010  0.4778727E+02  0.7816164E-02  0.1312668E+00
        -11   -1    0    0    0    0  0.00000000000E+00  0.00000000000E+00  0.45593999997E+02  0.45594000000E+02  0.51100000000E-03 0.  1.
         11   -1    0    0    0    0 -0.00000000000E+00 -0.00000000000E+00 -0.45593999997E+02  0.45594000000E+02  0.51100000000E-03 0. -1.
    9900012    2    1    2    0    0  0.20289647632E+02 -0.34211245011E+02  0.17365026704E+02  0.47787271450E+02  0.20000001848E+02 0.  0.
        -12    1    1    2    0    0 -0.20289647632E+02  0.34211245011E+02 -0.17365026704E+02  0.43400728550E+02  0.00000000000E+00 0.  1.
         11    1    3    3    0    0  0.47012571624E+01 -0.57102139379E+01  0.44945804853E+01  0.86550341492E+01  0.51100000000E-03 0. -1.
        -11    1    3    3    0    0 -0.27029171044E+01 -0.36390210105E+01  0.59849534519E+01  0.75078560768E+01  0.51100000000E-03 0.  1.
        -12    1    3    3    0    0  0.18291307574E+02 -0.24862010063E+02  0.68854927671E+01  0.31624381224E+02  0.00000000000E+00 0.  1.
</event>
<event>
 7    1  0.4630495E-010  0.4778727E+02  0.7816164E-02  0.1312668E+00
        -11   -1    0    0    0    0  0.00000000000E+00  0.00000000000E+00  0.45593999997E+02  0.45594000000E+02  0.51100000000E-03 0.  1.
         11   -1    0    0    0    0 -0.00000000000E+00 -0.00000000000E+00 -0.45593999997E+02  0.45594000000E+02  0.51100000000E-03 0. -1.
    9900012    2    1    2    0    0  0.77444987610E+01  0.42699329153E+02  0.64268511759E+00  0.47787274023E+02  0.20000013580E+02 0.  0.
        -12    1    1    2    0    0 -0.77444987610E+01 -0.42699329153E+02 -0.64268511759E+00  0.43400725977E+02  0.00000000000E+00 0.  1.
         11    1    3    3    0    0  0.10219488768E+02  0.11487817133E+02 -0.12018812845E+01  0.15422464526E+02  0.51100000000E-03 0. -1.
        -11    1    3    3    0    0  0.23619788726E+01  0.10175809877E+02  0.26068873325E+01  0.10766703891E+02  0.51100000000E-03 0.  1.
        -12    1    3    3    0    0 -0.48369688795E+01  0.21035702143E+02 -0.76232093040E+00  0.21598105606E+02  0.00000000000E+00 0.  1.
</event>
<event>
 7    1  0.4630495E-010  0.4778727E+02  0.7816164E-02  0.1312668E+00
        -11   -1    0    0    0    0  0.00000000000E+00  0.00000000000E+00  0.45593999997E+02  0.45594000000E+02  0.51100000000E-03 0.  1.
         11   -1    0    0    0    0 -0.00000000000E+00 -0.00000000000E+00 -0.45593999997E+02  0.45594000000E+02  0.51100000000E-03 0. -1.
    9900012    2    1    2    0    0  0.33338912720E+02 -0.11798139574E+02 -0.25158382107E+02  0.47787269718E+02  0.19999993953E+02 0.  0.
        -12    1    1    2    0    0 -0.33338912720E+02  0.11798139574E+02  0.25158382107E+02  0.43400730282E+02  0.00000000000E+00 0.  1.
         11    1    3    3    0    0  0.80056711092E+01 -0.72397529397E+01 -0.10533883323E+02  0.15082025417E+02  0.51100000000E-03 0. -1.
        -11    1    3    3    0    0  0.32129936810E+00 -0.41341345926E+01 -0.12079579560E+01  0.43189657093E+01  0.51100000000E-03 0.  1.
        -12    1    3    3    0    0  0.25011942243E+02 -0.42425204196E+00 -0.13416540827E+02  0.28386278592E+02  0.00000000000E+00 0.  1.
</event>
<event>
 7    1  0.4630495E-010  0.4778726E+02  0.7816164E-02  0.1312668E+00
        -11   -1    0    0    0    0  0.00000000000E+00  0.00000000000E+00  0.45593999997E+02  0.45594000000E+02  0.51100000000E-03 0. -1.
         11   -1    0    0    0    0 -0.00000000000E+00 -0.00000000000E+00 -0.45593999997E+02  0.45594000000E+02  0.51100000000E-03 0.  1.
    9900012    2    1    2    0    0 -0.15969290545E+02  0.14159880190E+02  0.37790265535E+02  0.47787255574E+02  0.19999929465E+02 0.  0.
        -12    1    1    2    0    0  0.15969290545E+02 -0.14159880190E+02 -0.37790265535E+02  0.43400744426E+02  0.00000000000E+00 0.  1.
         11    1    3    3    0    0 -0.68377202944E+01  0.12010224459E+02  0.92539754822E+01  0.16632377246E+02  0.51100000000E-03 0. -1.
        -11    1    3    3    0    0  0.71434450687E-01  0.26691906830E+01  0.11272197712E+02  0.11584132393E+02  0.51100000000E-03 0.  1.
         12    1    3    3    0    0 -0.92030047016E+01 -0.51953495124E+00  0.17264092341E+02  0.19570745935E+02  0.00000000000E+00 0. -1.
</event>
<event>
 7    1  0.4630495E-010  0.4778727E+02  0.7816164E-02  0.1312668E+00
        -11   -1    0    0    0    0  0.00000000000E+00  0.00000000000E+00  0.45593999997E+02  0.45594000000E+02  0.51100000000E-03 0. -1.
         11   -1    0    0    0    0 -0.00000000000E+00 -0.00000000000E+00 -0.45593999997E+02  0.45594000000E+02  0.51100000000E-03 0.  1.
    9900012    2    1    2    0    0  0.70134033840E+00 -0.41923207385E+02  0.11206081303E+02  0.47787268971E+02  0.19999990545E+02 0.  0.
        -12    1    1    2    0    0 -0.70134033840E+00  0.41923207385E+02 -0.11206081303E+02  0.43400731029E+02  0.00000000000E+00 0.  1.
         11    1    3    3    0    0  0.35661891507E+01 -0.68439755826E+01  0.38732169623E+00  0.77270774029E+01  0.51100000000E-03 0. -1.
        -11    1    3    3    0    0 -0.10139467425E+01 -0.25627900066E+02  0.97104306238E-01  0.25648134031E+02  0.51100000000E-03 0.  1.
        -12    1    3    3    0    0 -0.18509020698E+01 -0.94513317368E+01  0.10721655300E+02  0.14412057537E+02  0.00000000000E+00 0.  1.
</event>
<event>
 7    1  0.4630495E-010  0.4778727E+02  0.7816164E-02  0.1312668E+00
        -11   -1    0    0    0    0  0.00000000000E+00  0.00000000000E+00  0.45593999997E+02  0.45594000000E+02  0.51100000000E-03 0. -1.
         11   -1    0    0    0    0 -0.00000000000E+00 -0.00000000000E+00 -0.45593999997E+02  0.45594000000E+02  0.51100000000E-03 0.  1.
    9900012    2    1    2    0    0 -0.36556310217E+02  0.21747299741E+02  0.86205955385E+01  0.47787268092E+02  0.19999986540E+02 0.  0.
        -12    1    1    2    0    0  0.36556310217E+02 -0.21747299741E+02 -0.86205955385E+01  0.43400731908E+02  0.00000000000E+00 0.  1.
         11    1    3    3    0    0 -0.56248016825E+01  0.83340926257E+01 -0.27859143691E+01  0.10433446842E+02  0.51100000000E-03 0. -1.
        -11    1    3    3    0    0 -0.13191100354E+02  0.11846184230E+02  0.49158616185E+01  0.18398448442E+02  0.51100000000E-03 0.  1.
        -12    1    3    3    0    0 -0.17740408180E+02  0.15670228859E+01  0.64906482891E+01  0.18955372809E+02  0.00000000000E+00 0.  1.
</event>
<event>
 7    1  0.4630495E-010  0.4778727E+02  0.7816164E-02  0.1312668E+00
        -11   -1    0    0    0    0  0.00000000000E+00  0.00000000000E+00  0.45593999997E+02  0.45594000000E+02  0.51100000000E-03 0. -1.
         11   -1    0    0    0    0 -0.00000000000E+00 -0.00000000000E+00 -0.45593999997E+02  0.45594000000E+02  0.51100000000E-03 0.  1.
    9900012    2    1    2    0    0  0.13204363896E+02 -0.34935750019E+02  0.22107951972E+02  0.47787269641E+02  0.19999993600E+02 0.  0.
        -12    1    1    2    0    0 -0.13204363896E+02  0.34935750019E+02 -0.22107951972E+02  0.43400730359E+02  0.00000000000E+00 0.  1.
         11    1    3    3    0    0  0.45178289560E+01 -0.19399864081E+02  0.63496578257E+01  0.20906545855E+02  0.51100000000E-03 0.  1.
        -11    1    3    3    0    0 -0.23195151015E+01 -0.80132495458E+01  0.73584046296E+01  0.11123778025E+02  0.51100000000E-03 0. -1.
        -12    1    3    3    0    0  0.11006050041E+02 -0.75226363930E+01  0.83998895169E+01  0.15756945761E+02  0.00000000000E+00 0.  1.
</event>
<event>
 7    1  0.4630495E-010  0.4778728E+02  0.7816164E-02  0.1312668E+00
        -11   -1    0    0    0    0  0.00000000000E+00  0.00000000000E+00  0.45593999997E+02  0.45594000000E+02  0.51100000000E-03 0.  1.
         11   -1    0    0    0    0 -0.00000000000E+00 -0.00000000000E+00 -0.45593999997E+02  0.45594000000E+02  0.51100000000E-03 0. -1.
    9900012    2    1    2    0    0  0.11327269334E+02  0.14517324625E+02 -0.39300925653E+02  0.47787279937E+02  0.20000040544E+02 0.  0.
        -12    1    1    2    0    0 -0.11327269334E+02 -0.14517324625E+02  0.39300925653E+02  0.43400720063E+02  0.00000000000E+00 0.  1.
         11    1    3    3    0    0  0.78449809587E+01  0.46853540926E+01 -0.14036184881E+02  0.16748455317E+02  0.51100000000E-03 0. -1.
        -11    1    3    3    0    0  0.51970297228E+01  0.12451757616E+02 -0.14407339868E+02  0.19738967247E+02  0.51100000000E-03 0.  1.
        -12    1    3    3    0    0 -0.17147413473E+01 -0.26197870839E+01 -0.10857400904E+02  0.11299857372E+02  0.00000000000E+00 0.  1.
</event>
<event>
 7    1  0.4630495E-010  0.4778727E+02  0.7816164E-02  0.1312668E+00
        -11   -1    0    0    0    0  0.00000000000E+00  0.00000000000E+00  0.45593999997E+02  0.45594000000E+02  0.51100000000E-03 0.  1.
         11   -1    0    0    0    0 -0.00000000000E+00 -0.00000000000E+00 -0.45593999997E+02  0.45594000000E+02  0.51100000000E-03 0. -1.
    9900012    2    1    2    0    0  0.12581585630E+02 -0.40580005339E+02  0.88651128313E+01  0.47787270101E+02  0.19999995698E+02 0.  0.
        -12    1    1    2    0    0 -0.12581585630E+02  0.40580005339E+02 -0.88651128313E+01  0.43400729899E+02  0.00000000000E+00 0.  1.
         11    1    3    3    0    0 -0.37343979041E+01 -0.77444848202E+01  0.16400707811E+01  0.87528626897E+01  0.51100000000E-03 0. -1.
        -11    1    3    3    0    0  0.67774512494E+00 -0.11542165947E+02 -0.29569131654E+00  0.11565827546E+02  0.51100000000E-03 0.  1.
        -12    1    3    3    0    0  0.15638238409E+02 -0.21293354572E+02  0.75207333667E+01  0.27468579866E+02  0.00000000000E+00 0.  1.
</event>
<event>
 7    1  0.4630495E-010  0.4778727E+02  0.7816164E-02  0.1312668E+00
        -11   -1    0    0    0    0  0.00000000000E+00  0.00000000000E+00  0.45593999997E+02  0.45594000000E+02  0.51100000000E-03 0.  1.
         11   -1    0    0    0    0 -0.00000000000E+00 -0.00000000000E+00 -0.45593999997E+02  0.45594000000E+02  0.51100000000E-03 0. -1.
    9900012    2    1    2    0    0 -0.33366745446E+02 -0.25280722901E+02 -0.11452892139E+02  0.47787269702E+02  0.19999993878E+02 0.  0.
        -12    1    1    2    0    0  0.33366745446E+02  0.25280722901E+02  0.11452892139E+02  0.43400730298E+02  0.00000000000E+00 0.  1.
         11    1    3    3    0    0 -0.13265002624E+02 -0.11622708300E+02  0.37035524634E+01  0.18021208171E+02  0.51100000000E-03 0. -1.
        -11    1    3    3    0    0 -0.33531946990E+01 -0.44223743610E+01 -0.31830923609E+00  0.55590134655E+01  0.51100000000E-03 0.  1.
         12    1    3    3    0    0 -0.16748548123E+02 -0.92356402401E+01 -0.14838135366E+02  0.24207048065E+02  0.00000000000E+00 0. -1.
</event>
<event>
 7    1  0.6343436E-010  0.4778727E+02  0.7816164E-02  0.1312668E+00
        -11   -1    0    0    0    0  0.00000000000E+00  0.00000000000E+00  0.45593999997E+02  0.45594000000E+02  0.51100000000E-03 0. -1.
         11   -1    0    0    0    0 -0.00000000000E+00 -0.00000000000E+00 -0.45593999997E+02  0.45594000000E+02  0.51100000000E-03 0.  1.
    9900012    2    1    2    0    0  0.33815329174E+02 -0.19759838576E+02  0.18700152482E+02  0.47787269470E+02  0.19999992822E+02 0.  0.
        -12    1    1    2    0    0 -0.33815329174E+02  0.19759838576E+02 -0.18700152482E+02  0.43400730530E+02  0.00000000000E+00 0.  1.
         11    1    3    3    0    0  0.81720472486E+01 -0.22625819787E+00  0.11947729108E+01  0.82620234552E+01  0.51100000000E-03 0. -1.
        -11    1    3    3    0    0  0.16053970354E+00  0.76269384998E+00  0.43045763504E+01  0.43745688614E+01  0.51100000000E-03 0.  1.
         12    1    3    3    0    0  0.25482742222E+02 -0.20296274228E+02  0.13200803220E+02  0.35150677154E+02  0.00000000000E+00 0. -1.
</event>
<event>
 7    1  0.4630495E-010  0.4778727E+02  0.7816164E-02  0.1312668E+00
        -11   -1    0    0    0    0  0.00000000000E+00  0.00000000000E+00  0.45593999997E+02  0.45594000000E+02  0.51100000000E-03 0. -1.
         11   -1    0    0    0    0 -0.00000000000E+00 -0.00000000000E+00 -0.45593999997E+02  0.45594000000E+02  0.51100000000E-03 0.  1.
    9900012    2    1    2    0    0 -0.37132918599E+02  0.21001234450E+02 -0.79823687767E+01  0.47787266096E+02  0.19999977437E+02 0.  0.
        -12    1    1    2    0    0  0.37132918599E+02 -0.21001234450E+02  0.79823687767E+01  0.43400733904E+02  0.00000000000E+00 0.  1.
         11    1    3    3    0    0 -0.69916576715E+01  0.55313675055E+01  0.48506560887E+01  0.10149293977E+02  0.51100000000E-03 0. -1.
        -11    1    3    3    0    0 -0.25354557736E+01  0.71371646774E-01 -0.41385864841E+01  0.48540218623E+01  0.51100000000E-03 0.  1.
        -12    1    3    3    0    0 -0.27605805154E+02  0.15398495298E+02 -0.86944383813E+01  0.32783950257E+02  0.00000000000E+00 0.  1.
</event>
<event>
 7    1  0.4630495E-010  0.4778727E+02  0.7816164E-02  0.1312668E+00
        -11   -1    0    0    0    0  0.00000000000E+00  0.00000000000E+00  0.45593999997E+02  0.45594000000E+02  0.51100000000E-03 0.  1.
         11   -1    0    0    0    0 -0.00000000000E+00 -0.00000000000E+00 -0.45593999997E+02  0.45594000000E+02  0.51100000000E-03 0. -1.
    9900012    2    1    2    0    0  0.38802963044E+02  0.92803269280E+01  0.17082997252E+02  0.47787271849E+02  0.20000003670E+02 0.  0.
        -12    1    1    2    0    0 -0.38802963044E+02 -0.92803269280E+01 -0.17082997252E+02  0.43400728151E+02  0.00000000000E+00 0.  1.
         11    1    3    3    0    0  0.17537564764E+02  0.53275779299E+01  0.99674217828E+01  0.20863814649E+02  0.51100000000E-03 0. -1.
        -11    1    3    3    0    0  0.91408556360E+01  0.81723491201E+01  0.69300022508E+01  0.14084298469E+02  0.51100000000E-03 0.  1.
        -12    1    3    3    0    0  0.12124542644E+02 -0.42196001220E+01  0.18557321853E+00  0.12839158732E+02  0.00000000000E+00 0.  1.
</event>
<event>
 7    1  0.4630495E-010  0.4778727E+02  0.7816164E-02  0.1312668E+00
        -11   -1    0    0    0    0  0.00000000000E+00  0.00000000000E+00  0.45593999997E+02  0.45594000000E+02  0.51100000000E-03 0.  1.
         11   -1    0    0    0    0 -0.00000000000E+00 -0.00000000000E+00 -0.45593999997E+02  0.45594000000E+02  0.51100000000E-03 0. -1.
    9900012    2    1    2    0    0  0.26092789615E+02 -0.28426771372E+02 -0.19867268978E+02  0.47787269854E+02  0.19999994572E+02 0.  0.
        -12    1    1    2    0    0 -0.26092789615E+02  0.28426771372E+02  0.19867268978E+02  0.43400730146E+02  0.00000000000E+00 0.  1.
         11    1    3    3    0    0  0.46439356443E+00  0.25098175467E+00 -0.18851226376E+01  0.19576365454E+01  0.51100000000E-03 0. -1.
        -11    1    3    3    0    0  0.16052084917E+02 -0.14876894463E+02 -0.94831955677E+00  0.21906408407E+02  0.51100000000E-03 0.  1.
         12    1    3    3    0    0  0.95763111339E+01 -0.13800858664E+02 -0.17033826783E+02  0.23923224902E+02  0.00000000000E+00 0. -1.
</event>
<event>
 7    1  0.4630495E-010  0.4778727E+02  0.7816164E-02  0.1312668E+00
        -11   -1    0    0    0    0  0.00000000000E+00  0.00000000000E+00  0.45593999997E+02  0.45594000000E+02  0.51100000000E-03 0.  1.
         11   -1    0    0    0    0 -0.00000000000E+00 -0.00000000000E+00 -0.45593999997E+02  0.45594000000E+02  0.51100000000E-03 0. -1.
    9900012    2    1    2    0    0  0.63120998717E+01  0.39992383487E+02 -0.15632984228E+02  0.47787268006E+02  0.19999986145E+02 0.  0.
        -12    1    1    2    0    0 -0.63120998717E+01 -0.39992383487E+02  0.15632984228E+02  0.43400731994E+02  0.00000000000E+00 0.  1.
         11    1    3    3    0    0 -0.32193822933E+01  0.96839927597E+01 -0.58518618082E+01  0.11763860973E+02  0.51100000000E-03 0. -1.
        -11    1    3    3    0    0  0.40066810362E+01  0.25932294311E+02 -0.11683029992E+02  0.28723345404E+02  0.51100000000E-03 0.  1.
        -12    1    3    3    0    0  0.55248011289E+01  0.43760964164E+01  0.19019075718E+01  0.73000616279E+01  0.00000000000E+00 0.  1.
</event>
<event>
 7    1  0.4630495E-010  0.4778727E+02  0.7816164E-02  0.1312668E+00
        -11   -1    0    0    0    0  0.00000000000E+00  0.00000000000E+00  0.45593999997E+02  0.45594000000E+02  0.51100000000E-03 0. -1.
         11   -1    0    0    0    0 -0.00000000000E+00 -0.00000000000E+00 -0.45593999997E+02  0.45594000000E+02  0.51100000000E-03 0.  1.
    9900012    2    1    2    0    0 -0.29123783748E+02 -0.16435453754E+02  0.27664135037E+02  0.47787270890E+02  0.19999999296E+02 0.  0.
        -12    1    1    2    0    0  0.29123783748E+02  0.16435453754E+02 -0.27664135037E+02  0.43400729110E+02  0.00000000000E+00 0.  1.
         11    1    3    3    0    0 -0.73891990947E-01  0.10481844671E+01  0.97977602528E-01  0.10553438184E+01  0.51100000000E-03 0. -1.
        -11    1    3    3    0    0 -0.10515458884E+02 -0.15342830771E+02  0.17467945277E+02  0.25516787495E+02  0.51100000000E-03 0.  1.
         12    1    3    3    0    0 -0.18534432873E+02 -0.21408074498E+01  0.10098212158E+02  0.21215139576E+02  0.00000000000E+00 0. -1.
</event>
<event>
 7    1  0.4630495E-010  0.4778728E+02  0.7816164E-02  0.1312668E+00
        -11   -1    0    0    0    0  0.00000000000E+00  0.00000000000E+00  0.45593999997E+02  0.45594000000E+02  0.51100000000E-03 0.  1.
         11   -1    0    0    0    0 -0.00000000000E+00 -0.00000000000E+00 -0.45593999997E+02  0.45594000000E+02  0.51100000000E-03 0. -1.
    9900012    2    1    2    0    0  0.43333142420E+02  0.14425498193E+01  0.19444083763E+01  0.47787275283E+02  0.20000019327E+02 0.  0.
        -12    1    1    2    0    0 -0.43333142420E+02 -0.14425498193E+01 -0.19444083763E+01  0.43400724717E+02  0.00000000000E+00 0.  1.
         11    1    3    3    0    0  0.16951669183E+01 -0.88127458198E+00 -0.33286760242E+01  0.38380099147E+01  0.51100000000E-03 0. -1.
        -11    1    3    3    0    0  0.14858631406E+02 -0.42214949086E+01 -0.16243624380E+01  0.15531854368E+02  0.51100000000E-03 0.  1.
         12    1    3    3    0    0  0.26779344096E+02  0.65453193099E+01  0.68974468386E+01  0.28417411001E+02  0.00000000000E+00 0. -1.
</event>
<event>
 7    1  0.4630495E-010  0.4778727E+02  0.7816164E-02  0.1312668E+00
        -11   -1    0    0    0    0  0.00000000000E+00  0.00000000000E+00  0.45593999997E+02  0.45594000000E+02  0.51100000000E-03 0.  1.
         11   -1    0    0    0    0 -0.00000000000E+00 -0.00000000000E+00 -0.45593999997E+02  0.45594000000E+02  0.51100000000E-03 0. -1.
    9900012    2    1    2    0    0 -0.27341059211E+02  0.11165756306E+02 -0.31802763110E+02  0.47787269890E+02  0.19999994735E+02 0.  0.
        -12    1    1    2    0    0  0.27341059211E+02 -0.11165756306E+02  0.31802763110E+02  0.43400730110E+02  0.00000000000E+00 0.  1.
         11    1    3    3    0    0 -0.89390659029E+01 -0.16645323787E+01 -0.20675578268E+02  0.22586657660E+02  0.51100000000E-03 0. -1.
        -11    1    3    3    0    0 -0.45871123122E+01  0.46473061398E+01 -0.37549003864E+01  0.75324850411E+01  0.51100000000E-03 0.  1.
         12    1    3    3    0    0 -0.13814880996E+02  0.81829825448E+01 -0.73722844553E+01  0.17668127189E+02  0.00000000000E+00 0. -1.
</event>
<event>
 7    1  0.4630495E-010  0.4778727E+02  0.7816164E-02  0.1312668E+00
        -11   -1    0    0    0    0  0.00000000000E+00  0.00000000000E+00  0.45593999997E+02  0.45594000000E+02  0.51100000000E-03 0.  1.
         11   -1    0    0    0    0 -0.00000000000E+00 -0.00000000000E+00 -0.45593999997E+02  0.45594000000E+02  0.51100000000E-03 0. -1.
    9900012    2    1    2    0    0 -0.29164326689E+02 -0.24371955242E+02 -0.20954071740E+02  0.47787271019E+02  0.19999999885E+02 0.  0.
        -12    1    1    2    0    0  0.29164326689E+02  0.24371955242E+02  0.20954071740E+02  0.43400728981E+02  0.00000000000E+00 0.  1.
         11    1    3    3    0    0 -0.45227315566E+01 -0.15416202110E+01  0.13873201785E+01  0.49755754589E+01  0.51100000000E-03 0. -1.
        -11    1    3    3    0    0 -0.57554892533E+01  0.45747977624E-01 -0.80179332294E+01  0.98699038979E+01  0.51100000000E-03 0.  1.
         12    1    3    3    0    0 -0.18886105879E+02 -0.22876083009E+02 -0.14323458689E+02  0.32941791662E+02  0.00000000000E+00 0. -1.
</event>
<event>
 7    1  0.4630495E-010  0.4778727E+02  0.7816164E-02  0.1312668E+00
        -11   -1    0    0    0    0  0.00000000000E+00  0.00000000000E+00  0.45593999997E+02  0.45594000000E+02  0.51100000000E-03 0.  1.
         11   -1    0    0    0    0 -0.00000000000E+00 -0.00000000000E+00 -0.45593999997E+02  0.45594000000E+02  0.51100000000E-03 0. -1.
    9900012    2    1    2    0    0 -0.33564920764E+02 -0.24259118522E+02 -0.12981318695E+02  0.47787269910E+02  0.19999994826E+02 0.  0.
        -12    1    1    2    0    0  0.33564920764E+02  0.24259118522E+02  0.12981318695E+02  0.43400730090E+02  0.00000000000E+00 0.  1.
         11    1    3    3    0    0 -0.36157655030E+00 -0.33943253365E+01  0.65997786115E+00  0.34767446167E+01  0.51100000000E-03 0. -1.
        -11    1    3    3    0    0 -0.75111953216E+01 -0.94103774098E+01  0.18741474122E+01  0.12185470321E+02  0.51100000000E-03 0.  1.
         12    1    3    3    0    0 -0.25692148892E+02 -0.11454415776E+02 -0.15515443968E+02  0.32125054972E+02  0.00000000000E+00 0. -1.
</event>
<event>
 7    1  0.4630495E-010  0.4778727E+02  0.7816164E-02  0.1312668E+00
        -11   -1    0    0    0    0  0.00000000000E+00  0.00000000000E+00  0.45593999997E+02  0.45594000000E+02  0.51100000000E-03 0. -1.
         11   -1    0    0    0    0 -0.00000000000E+00 -0.00000000000E+00 -0.45593999997E+02  0.45594000000E+02  0.51100000000E-03 0.  1.
    9900012    2    1    2    0    0  0.15105827178E+02  0.36951504735E+02  0.17030078975E+02  0.47787270665E+02  0.19999998269E+02 0.  0.
        -12    1    1    2    0    0 -0.15105827178E+02 -0.36951504735E+02 -0.17030078975E+02  0.43400729335E+02  0.00000000000E+00 0.  1.
         11    1    3    3    0    0  0.82437198281E+01  0.10043235298E+02 -0.20010009249E+01  0.13146463282E+02  0.51100000000E-03 0. -1.
        -11    1    3    3    0    0  0.43562345569E+01  0.51392114385E+01  0.24772481280E+01  0.71780939164E+01  0.51100000000E-03 0.  1.
        -12    1    3    3    0    0  0.25058727927E+01  0.21769057999E+02  0.16553831772E+02  0.27462713467E+02  0.00000000000E+00 0.  1.
</event>
<event>
 7    1  0.4630495E-010  0.4778727E+02  0.7816164E-02  0.1312668E+00
        -11   -1    0    0    0    0  0.00000000000E+00  0.00000000000E+00  0.45593999997E+02  0.45594000000E+02  0.51100000000E-03 0.  1.
         11   -1    0    0    0    0 -0.00000000000E+00 -0.00000000000E+00 -0.45593999997E+02  0.45594000000E+02  0.51100000000E-03 0. -1.
    9900012    2    1    2    0    0 -0.38545447322E+01  0.25149495648E+02 -0.35160613700E+02  0.47787269566E+02  0.19999993258E+02 0.  0.
        -12    1    1    2    0    0  0.38545447322E+01 -0.25149495648E+02  0.35160613700E+02  0.43400730434E+02  0.00000000000E+00 0.  1.
         11    1    3    3    0    0 -0.82538598673E+01  0.15192980116E+02 -0.31181065111E+02  0.35654055439E+02  0.51100000000E-03 0. -1.
        -11    1    3    3    0    0 -0.37271655356E-02  0.15068981156E+01  0.52277874225E+00  0.15950089959E+01  0.51100000000E-03 0.  1.
         12    1    3    3    0    0  0.44030423006E+01  0.84496174166E+01 -0.45023273314E+01  0.10538205131E+02  0.00000000000E+00 0. -1.
</event>
<event>
 7    1  0.4630495E-010  0.4778728E+02  0.7816164E-02  0.1312668E+00
        -11   -1    0    0    0    0  0.00000000000E+00  0.00000000000E+00  0.45593999997E+02  0.45594000000E+02  0.51100000000E-03 0.  1.
         11   -1    0    0    0    0 -0.00000000000E+00 -0.00000000000E+00 -0.45593999997E+02  0.45594000000E+02  0.51100000000E-03 0. -1.
    9900012    2    1    2    0    0  0.27553120655E+02  0.20982175357E+02 -0.26157153340E+02  0.47787276373E+02  0.20000024293E+02 0.  0.
        -12    1    1    2    0    0 -0.27553120655E+02 -0.20982175357E+02  0.26157153340E+02  0.43400723627E+02  0.00000000000E+00 0.  1.
         11    1    3    3    0    0  0.93845625632E+01  0.14883651139E+02 -0.78533559532E+01  0.19268323376E+02  0.51100000000E-03 0. -1.
        -11    1    3    3    0    0  0.84979760547E+01  0.48039043972E+01 -0.27215365661E+01  0.10134093745E+02  0.51100000000E-03 0.  1.
         12    1    3    3    0    0  0.96705820372E+01  0.12946198199E+01 -0.15582260821E+02  0.18384859252E+02  0.00000000000E+00 0. -1.
</event>
<event>
 7    1  0.4630495E-010  0.4778727E+02  0.7816164E-02  0.1312668E+00
        -11   -1    0    0    0    0  0.00000000000E+00  0.00000000000E+00  0.45593999997E+02  0.45594000000E+02  0.51100000000E-03 0.  1.
         11   -1    0    0    0    0 -0.00000000000E+00 -0.00000000000E+00 -0.45593999997E+02  0.45594000000E+02  0.51100000000E-03 0. -1.
    9900012    2    1    2    0    0 -0.13138957748E+01 -0.35089155773E+02  0.25507799697E+02  0.47787273965E+02  0.20000013316E+02 0.  0.
        -12    1    1    2    0    0  0.13138957748E+01  0.35089155773E+02 -0.25507799697E+02  0.43400726035E+02  0.00000000000E+00 0.  1.
         11    1    3    3    0    0 -0.17299188871E+01 -0.28063766177E+01  0.13032293570E+01  0.35449648933E+01  0.51100000000E-03 0. -1.
        -11    1    3    3    0    0 -0.49489007202E+01 -0.30925601104E+02  0.22055516650E+02  0.38305746788E+02  0.51100000000E-03 0.  1.
         12    1    3    3    0    0  0.53649238325E+01 -0.13571780514E+01  0.21490536896E+01  0.59365622840E+01  0.00000000000E+00 0. -1.
</event>
<event>
 7    1  0.4630495E-010  0.4778726E+02  0.7816164E-02  0.1312668E+00
        -11   -1    0    0    0    0  0.00000000000E+00  0.00000000000E+00  0.45593999997E+02  0.45594000000E+02  0.51100000000E-03 0.  1.
         11   -1    0    0    0    0 -0.00000000000E+00 -0.00000000000E+00 -0.45593999997E+02  0.45594000000E+02  0.51100000000E-03 0. -1.
    9900012    2    1    2    0    0 -0.12697715738E+02  0.39955574356E+02 -0.11222501156E+02  0.47787257619E+02  0.19999938786E+02 0.  0.
        -12    1    1    2    0    0  0.12697715738E+02 -0.39955574356E+02  0.11222501156E+02  0.43400742381E+02  0.00000000000E+00 0.  1.
         11    1    3    3    0    0  0.78563481885E+00  0.90416217011E+01 -0.10815612661E+01  0.91399081007E+01  0.51100000000E-03 0. -1.
        -11    1    3    3    0    0 -0.14759510943E+02  0.30250154119E+02 -0.59037438227E+01  0.34172637869E+02  0.51100000000E-03 0.  1.
        -12    1    3    3    0    0  0.12761603867E+01  0.66379853534E+00 -0.42371960674E+01  0.44747116490E+01  0.00000000000E+00 0.  1.
</event>
<event>
 7    1  0.4630495E-010  0.4778727E+02  0.7816164E-02  0.1312668E+00
        -11   -1    0    0    0    0  0.00000000000E+00  0.00000000000E+00  0.45593999997E+02  0.45594000000E+02  0.51100000000E-03 0. -1.
         11   -1    0    0    0    0 -0.00000000000E+00 -0.00000000000E+00 -0.45593999997E+02  0.45594000000E+02  0.51100000000E-03 0.  1.
    9900012    2    1    2    0    0  0.16972340219E+02 -0.32059660859E+02  0.23827311401E+02  0.47787274712E+02  0.20000016723E+02 0.  0.
        -12    1    1    2    0    0 -0.16972340219E+02  0.32059660859E+02 -0.23827311401E+02  0.43400725288E+02  0.00000000000E+00 0.  1.
         11    1    3    3    0    0  0.37561192348E+01 -0.64373573572E+01  0.10208335609E+02  0.12639545784E+02  0.51100000000E-03 0. -1.
        -11    1    3    3    0    0 -0.78348780778E+00  0.48868733255E+00  0.38382401633E+01  0.39477533188E+01  0.51100000000E-03 0.  1.
         12    1    3    3    0    0  0.13999708792E+02 -0.26110990834E+02  0.97807356284E+01  0.31199975610E+02  0.00000000000E+00 0. -1.
</event>
<event>
 7    1  0.4630495E-010  0.4778727E+02  0.7816164E-02  0.1312668E+00
        -11   -1    0    0    0    0  0.00000000000E+00  0.00000000000E+00  0.45593999997E+02  0.45594000000E+02  0.51100000000E-03 0. -1.
         11   -1    0    0    0    0 -0.00000000000E+00 -0.00000000000E+00 -0.45593999997E+02  0.45594000000E+02  0.51100000000E-03 0.  1.
    9900012    2    1    2    0    0 -0.14202457783E+01 -0.33055155347E+02  0.28088492221E+02  0.47787265118E+02  0.19999972978E+02 0.  0.
        -12    1    1    2    0    0  0.14202457783E+01  0.33055155347E+02 -0.28088492221E+02  0.43400734882E+02  0.00000000000E+00 0.  1.
         11    1    3    3    0    0  0.18261837023E+00 -0.18546274472E+02  0.22688744837E+02  0.29304893598E+02  0.51100000000E-03 0. -1.
        -11    1    3    3    0    0 -0.68643753473E+00 -0.61269088322E+01  0.75823714416E+01  0.97725413924E+01  0.51100000000E-03 0.  1.
        -12    1    3    3    0    0 -0.91642661380E+00 -0.83819720429E+01 -0.21826240579E+01  0.87098301272E+01  0.00000000000E+00 0.  1.
</event>
<event>
 7    1  0.4630495E-010  0.4778727E+02  0.7816164E-02  0.1312668E+00
        -11   -1    0    0    0    0  0.00000000000E+00  0.00000000000E+00  0.45593999997E+02  0.45594000000E+02  0.51100000000E-03 0.  1.
         11   -1    0    0    0    0 -0.00000000000E+00 -0.00000000000E+00 -0.45593999997E+02  0.45594000000E+02  0.51100000000E-03 0. -1.
    9900012    2    1    2    0    0 -0.31493210034E+02 -0.10469962717E+02 -0.27967497241E+02  0.47787270749E+02  0.19999998653E+02 0.  0.
        -12    1    1    2    0    0  0.31493210034E+02  0.10469962717E+02  0.27967497241E+02  0.43400729251E+02  0.00000000000E+00 0.  1.
         11    1    3    3    0    0 -0.63199819095E+01 -0.64886583045E+00 -0.60231016789E+01  0.87544818406E+01  0.51100000000E-03 0. -1.
        -11    1    3    3    0    0 -0.19339494449E+01 -0.43339048706E+01  0.20607734727E+01  0.51739423508E+01  0.51100000000E-03 0.  1.
        -12    1    3    3    0    0 -0.23239278680E+02 -0.54871920162E+01 -0.24005169035E+02  0.33858846557E+02  0.00000000000E+00 0.  1.
</event>
<event>
 7    1  0.4630495E-010  0.4778727E+02  0.7816164E-02  0.1312668E+00
        -11   -1    0    0    0    0  0.00000000000E+00  0.00000000000E+00  0.45593999997E+02  0.45594000000E+02  0.51100000000E-03 0.  1.
         11   -1    0    0    0    0 -0.00000000000E+00 -0.00000000000E+00 -0.45593999997E+02  0.45594000000E+02  0.51100000000E-03 0. -1.
    9900012    2    1    2    0    0 -0.32260286649E+02  0.61715043791E+01 -0.28369170212E+02  0.47787269827E+02  0.19999994450E+02 0.  0.
        -12    1    1    2    0    0  0.32260286649E+02 -0.61715043791E+01  0.28369170212E+02  0.43400730173E+02  0.00000000000E+00 0.  1.
         11    1    3    3    0    0 -0.21757663293E+02  0.12052173663E+02 -0.23795914960E+02  0.34422323730E+02  0.51100000000E-03 0. -1.
        -11    1    3    3    0    0 -0.42456960600E+01 -0.18957410624E+01 -0.36057525197E+01  0.58839800054E+01  0.51100000000E-03 0.  1.
         12    1    3    3    0    0 -0.62569272967E+01 -0.39849282214E+01 -0.96750273280E+00  0.74809660916E+01  0.00000000000E+00 0. -1.
</event>
<event>
 7    1  0.4630495E-010  0.4778727E+02  0.7816164E-02  0.1312668E+00
        -11   -1    0    0    0    0  0.00000000000E+00  0.00000000000E+00  0.45593999997E+02  0.45594000000E+02  0.51100000000E-03 0.  1.
         11   -1    0    0    0    0 -0.00000000000E+00 -0.00000000000E+00 -0.45593999997E+02  0.45594000000E+02  0.51100000000E-03 0. -1.
    9900012    2    1    2    0    0 -0.37313285855E+02 -0.20155463055E+02 -0.92249267144E+01  0.47787271145E+02  0.20000000460E+02 0.  0.
        -12    1    1    2    0    0  0.37313285855E+02  0.20155463055E+02  0.92249267144E+01  0.43400728855E+02  0.00000000000E+00 0.  1.
         11    1    3    3    0    0 -0.66509141969E+01 -0.39308512975E+01 -0.70062101730E+00  0.77573914203E+01  0.51100000000E-03 0. -1.
        -11    1    3    3    0    0 -0.56506949046E+01 -0.12344281390E+02 -0.50343942181E+01  0.14479529044E+02  0.51100000000E-03 0.  1.
        -12    1    3    3    0    0 -0.25011676753E+02 -0.38803303676E+01 -0.34899114789E+01  0.25550350681E+02  0.00000000000E+00 0.  1.
</event>
<event>
 7    1  0.4630495E-010  0.4778727E+02  0.7816164E-02  0.1312668E+00
        -11   -1    0    0    0    0  0.00000000000E+00  0.00000000000E+00  0.45593999997E+02  0.45594000000E+02  0.51100000000E-03 0.  1.
         11   -1    0    0    0    0 -0.00000000000E+00 -0.00000000000E+00 -0.45593999997E+02  0.45594000000E+02  0.51100000000E-03 0. -1.
    9900012    2    1    2    0    0 -0.35735934511E+02 -0.19283715024E+02 -0.15320069724E+02  0.47787271701E+02  0.20000002996E+02 0.  0.
        -12    1    1    2    0    0  0.35735934511E+02  0.19283715024E+02  0.15320069724E+02  0.43400728299E+02  0.00000000000E+00 0.  1.
         11    1    3    3    0    0 -0.13559838472E+02 -0.61778955216E+01 -0.16151470453E+01  0.14988139068E+02  0.51100000000E-03 0. -1.
        -11    1    3    3    0    0 -0.21897362981E+02 -0.13331233998E+02 -0.76776578523E+01  0.26761217009E+02  0.51100000000E-03 0.  1.
         12    1    3    3    0    0 -0.27873305765E+00  0.22541449523E+00 -0.60272648263E+01  0.60379156253E+01  0.00000000000E+00 0. -1.
</event>
<event>
 7    1  0.4630495E-010  0.4778726E+02  0.7816164E-02  0.1312668E+00
        -11   -1    0    0    0    0  0.00000000000E+00  0.00000000000E+00  0.45593999997E+02  0.45594000000E+02  0.51100000000E-03 0.  1.
         11   -1    0    0    0    0 -0.00000000000E+00 -0.00000000000E+00 -0.45593999997E+02  0.45594000000E+02  0.51100000000E-03 0. -1.
    9900012    2    1    2    0    0  0.32286555879E+02  0.50057299496E+01 -0.28568249230E+02  0.47787263981E+02  0.19999967797E+02 0.  0.
        -12    1    1    2    0    0 -0.32286555879E+02 -0.50057299496E+01  0.28568249230E+02  0.43400736019E+02  0.00000000000E+00 0.  1.
         11    1    3    3    0    0  0.52020093150E+01  0.48826425285E+00 -0.13095993034E+02  0.14099799173E+02  0.51100000000E-03 0. -1.
        -11    1    3    3    0    0  0.70339738214E+01  0.67298420165E+01 -0.45069371944E+01  0.10727536736E+02  0.51100000000E-03 0.  1.
        -12    1    3    3    0    0  0.20050572743E+02 -0.22123763197E+01 -0.10965319002E+02  0.22959928073E+02  0.00000000000E+00 0.  1.
</event>
<event>
 7    1  0.4630495E-010  0.4778727E+02  0.7816164E-02  0.1312668E+00
        -11   -1    0    0    0    0  0.00000000000E+00  0.00000000000E+00  0.45593999997E+02  0.45594000000E+02  0.51100000000E-03 0. -1.
         11   -1    0    0    0    0 -0.00000000000E+00 -0.00000000000E+00 -0.45593999997E+02  0.45594000000E+02  0.51100000000E-03 0.  1.
    9900012    2    1    2    0    0 -0.15355834442E+02 -0.36065732604E+01  0.40432833397E+02  0.47787273754E+02  0.20000012356E+02 0.  0.
        -12    1    1    2    0    0  0.15355834442E+02  0.36065732604E+01 -0.40432833397E+02  0.43400726246E+02  0.00000000000E+00 0.  1.
         11    1    3    3    0    0 -0.17483982131E+02 -0.40618370333E+01  0.32064559965E+02  0.36746757098E+02  0.51100000000E-03 0. -1.
        -11    1    3    3    0    0  0.15227295621E+00  0.75393408489E+00  0.89313282710E+01  0.89643866830E+01  0.51100000000E-03 0.  1.
         12    1    3    3    0    0  0.19758747328E+01 -0.29867031192E+00 -0.56305483816E+00  0.20761299733E+01  0.00000000000E+00 0. -1.
</event>
<event>
 7    1  0.4630495E-010  0.4778727E+02  0.7816164E-02  0.1312668E+00
        -11   -1    0    0    0    0  0.00000000000E+00  0.00000000000E+00  0.45593999997E+02  0.45594000000E+02  0.51100000000E-03 0. -1.
         11   -1    0    0    0    0 -0.00000000000E+00 -0.00000000000E+00 -0.45593999997E+02  0.45594000000E+02  0.51100000000E-03 0.  1.
    9900012    2    1    2    0    0 -0.27078189394E+02 -0.17478263413E+02  0.29067253101E+02  0.47787271485E+02  0.20000002010E+02 0.  0.
        -12    1    1    2    0    0  0.27078189394E+02  0.17478263413E+02 -0.29067253101E+02  0.43400728515E+02  0.00000000000E+00 0.  1.
         11    1    3    3    0    0 -0.53245229197E+01 -0.86430077247E+01  0.81766310444E+01  0.13034930853E+02  0.51100000000E-03 0. -1.
        -11    1    3    3    0    0 -0.19804213327E+02 -0.91252618389E+01  0.23117285658E+02  0.31778706166E+02  0.51100000000E-03 0.  1.
        -12    1    3    3    0    0 -0.19494531472E+01  0.29000615095E+00 -0.22266636018E+01  0.29736344658E+01  0.00000000000E+00 0.  1.
</event>
<event>
 7    1  0.4630495E-010  0.4778727E+02  0.7816164E-02  0.1312668E+00
        -11   -1    0    0    0    0  0.00000000000E+00  0.00000000000E+00  0.45593999997E+02  0.45594000000E+02  0.51100000000E-03 0.  1.
         11   -1    0    0    0    0 -0.00000000000E+00 -0.00000000000E+00 -0.45593999997E+02  0.45594000000E+02  0.51100000000E-03 0. -1.
    9900012    2    1    2    0    0 -0.97870028179E+01 -0.39224445964E+02 -0.15788617259E+02  0.47787273966E+02  0.20000013321E+02 0.  0.
        -12    1    1    2    0    0  0.97870028179E+01  0.39224445964E+02  0.15788617259E+02  0.43400726034E+02  0.00000000000E+00 0.  1.
         11    1    3    3    0    0  0.31327001688E+01 -0.35277382163E+01 -0.38401500515E+01  0.60832146066E+01  0.51100000000E-03 0. -1.
        -11    1    3    3    0    0 -0.17384570545E+01 -0.58361317441E+01  0.26432898396E+01  0.66384974280E+01  0.51100000000E-03 0.  1.
         12    1    3    3    0    0 -0.11181245932E+02 -0.29860576003E+02 -0.14591757047E+02  0.35065561932E+02  0.00000000000E+00 0. -1.
</event>
<event>
 7    1  0.4630495E-010  0.4778727E+02  0.7816164E-02  0.1312668E+00
        -11   -1    0    0    0    0  0.00000000000E+00  0.00000000000E+00  0.45593999997E+02  0.45594000000E+02  0.51100000000E-03 0.  1.
         11   -1    0    0    0    0 -0.00000000000E+00 -0.00000000000E+00 -0.45593999997E+02  0.45594000000E+02  0.51100000000E-03 0. -1.
    9900012    2    1    2    0    0 -0.11500056379E+02 -0.39969648517E+02 -0.12401589886E+02  0.47787268082E+02  0.19999986493E+02 0.  0.
        -12    1    1    2    0    0  0.11500056379E+02  0.39969648517E+02  0.12401589886E+02  0.43400731918E+02  0.00000000000E+00 0.  1.
         11    1    3    3    0    0  0.38772129641E+01 -0.46520257260E+01 -0.94734968675E+00  0.61295673106E+01  0.51100000000E-03 0. -1.
        -11    1    3    3    0    0 -0.28683695492E+01 -0.13652976248E+02 -0.88142796393E+01  0.16502206826E+02  0.51100000000E-03 0.  1.
         12    1    3    3    0    0 -0.12508899794E+02 -0.21664646543E+02 -0.26399605597E+01  0.25155493946E+02  0.00000000000E+00 0. -1.
</event>
<event>
 7    1  0.4630495E-010  0.4778727E+02  0.7816164E-02  0.1312668E+00
        -11   -1    0    0    0    0  0.00000000000E+00  0.00000000000E+00  0.45593999997E+02  0.45594000000E+02  0.51100000000E-03 0. -1.
         11   -1    0    0    0    0 -0.00000000000E+00 -0.00000000000E+00 -0.45593999997E+02  0.45594000000E+02  0.51100000000E-03 0.  1.
    9900012    2    1    2    0    0  0.16208653230E+02 -0.23258374818E+02  0.32862603851E+02  0.47787272234E+02  0.20000005425E+02 0.  0.
        -12    1    1    2    0    0 -0.16208653230E+02  0.23258374818E+02 -0.32862603851E+02  0.43400727766E+02  0.00000000000E+00 0.  1.
         11    1    3    3    0    0  0.39503123914E+01  0.22544372648E+01  0.52921951342E+01  0.69781648712E+01  0.51100000000E-03 0.  1.
        -11    1    3    3    0    0  0.61531129720E+01 -0.80027208876E+01  0.16104179443E+02  0.19006549835E+02  0.51100000000E-03 0. -1.
         12    1    3    3    0    0  0.61052278666E+01 -0.17510091196E+02  0.11466229274E+02  0.21802557528E+02  0.00000000000E+00 0. -1.
</event>
<event>
 7    1  0.4630495E-010  0.4778728E+02  0.7816164E-02  0.1312668E+00
        -11   -1    0    0    0    0  0.00000000000E+00  0.00000000000E+00  0.45593999997E+02  0.45594000000E+02  0.51100000000E-03 0.  1.
         11   -1    0    0    0    0 -0.00000000000E+00 -0.00000000000E+00 -0.45593999997E+02  0.45594000000E+02  0.51100000000E-03 0. -1.
    9900012    2    1    2    0    0 -0.69898068529E+01 -0.10516036679E+02 -0.41523227264E+02  0.47787276162E+02  0.20000023331E+02 0.  0.
        -12    1    1    2    0    0  0.69898068529E+01  0.10516036679E+02  0.41523227264E+02  0.43400723838E+02  0.00000000000E+00 0.  1.
         11    1    3    3    0    0 -0.71967951706E+00  0.50212068483E+00 -0.90804678491E+01  0.91227715311E+01  0.51100000000E-03 0. -1.
        -11    1    3    3    0    0 -0.14937594729E+01  0.67091567109E+00  0.16401537204E+01  0.23176603911E+01  0.51100000000E-03 0.  1.
         12    1    3    3    0    0 -0.47763678629E+01 -0.11689073035E+02 -0.34082913135E+02  0.36346844239E+02  0.00000000000E+00 0. -1.
</event>
<event>
 7    1  0.4630495E-010  0.4778727E+02  0.7816164E-02  0.1312668E+00
        -11   -1    0    0    0    0  0.00000000000E+00  0.00000000000E+00  0.45593999997E+02  0.45594000000E+02  0.51100000000E-03 0. -1.
         11   -1    0    0    0    0 -0.00000000000E+00 -0.00000000000E+00 -0.45593999997E+02  0.45594000000E+02  0.51100000000E-03 0.  1.
    9900012    2    1    2    0    0 -0.21580531488E+02  0.54196958517E+01  0.37262998446E+02  0.47787268490E+02  0.19999988351E+02 0.  0.
        -12    1    1    2    0    0  0.21580531488E+02 -0.54196958517E+01 -0.37262998446E+02  0.43400731510E+02  0.00000000000E+00 0.  1.
         11    1    3    3    0    0 -0.10612103715E+02  0.10584930224E+01  0.46413355644E+01  0.11630956487E+02  0.51100000000E-03 0. -1.
        -11    1    3    3    0    0 -0.66857306464E+01 -0.26471782338E+01  0.12462607700E+02  0.14388298642E+02  0.51100000000E-03 0.  1.
        -12    1    3    3    0    0 -0.42826971274E+01  0.70083810630E+01  0.20159055182E+02  0.21768013360E+02  0.00000000000E+00 0.  1.
</event>
<event>
 7    1  0.4630495E-010  0.4778721E+02  0.7816164E-02  0.1312668E+00
        -11   -1    0    0    0    0  0.00000000000E+00  0.00000000000E+00  0.45593999997E+02  0.45594000000E+02  0.51100000000E-03 0.  1.
         11   -1    0    0    0    0 -0.00000000000E+00 -0.00000000000E+00 -0.45593999997E+02  0.45594000000E+02  0.51100000000E-03 0. -1.
    9900012    2    1    2    0    0  0.49237539638E+01 -0.15414056898E+01 -0.43093032573E+02  0.47787208061E+02  0.19999712829E+02 0.  0.
        -12    1    1    2    0    0 -0.49237539638E+01  0.15414056898E+01  0.43093032573E+02  0.43400791939E+02  0.00000000000E+00 0.  1.
         11    1    3    3    0    0 -0.63817096768E-01  0.92109030969E-01  0.62961920961E+00  0.63951333502E+00  0.51100000000E-03 0. -1.
        -11    1    3    3    0    0  0.69091739001E+01  0.54578296495E+01 -0.14065749338E+02  0.16594272902E+02  0.51100000000E-03 0.  1.
         12    1    3    3    0    0 -0.19216028396E+01 -0.70913443703E+01 -0.29656902446E+02  0.30553421823E+02  0.00000000000E+00 0. -1.
</event>
<event>
 7    1  0.4630495E-010  0.4778730E+02  0.7816164E-02  0.1312668E+00
        -11   -1    0    0    0    0  0.00000000000E+00  0.00000000000E+00  0.45593999997E+02  0.45594000000E+02  0.51100000000E-03 0. -1.
         11   -1    0    0    0    0 -0.00000000000E+00 -0.00000000000E+00 -0.45593999997E+02  0.45594000000E+02  0.51100000000E-03 0.  1.
    9900012    2    1    2    0    0 -0.34352748221E+02 -0.21659531139E+02  0.15309296510E+02  0.47787295407E+02  0.20000111080E+02 0.  0.
        -12    1    1    2    0    0  0.34352748221E+02  0.21659531139E+02 -0.15309296510E+02  0.43400704593E+02  0.00000000000E+00 0.  1.
         11    1    3    3    0    0 -0.96897834543E+01 -0.49699888968E+01  0.21462998553E+01  0.11099517843E+02  0.51100000000E-03 0. -1.
        -11    1    3    3    0    0 -0.18475719909E+02 -0.50858024995E+01  0.16919753253E+01  0.19237473690E+02  0.51100000000E-03 0.  1.
         12    1    3    3    0    0 -0.61872448578E+01 -0.11603739743E+02  0.11471021329E+02  0.17450303874E+02  0.00000000000E+00 0. -1.
</event>
<event>
 7    1  0.4630495E-010  0.4778727E+02  0.7816164E-02  0.1312668E+00
        -11   -1    0    0    0    0  0.00000000000E+00  0.00000000000E+00  0.45593999997E+02  0.45594000000E+02  0.51100000000E-03 0.  1.
         11   -1    0    0    0    0 -0.00000000000E+00 -0.00000000000E+00 -0.45593999997E+02  0.45594000000E+02  0.51100000000E-03 0. -1.
    9900012    2    1    2    0    0  0.73932649414E+01  0.41326000017E+02  0.11005668608E+02  0.47787269760E+02  0.19999994142E+02 0.  0.
        -12    1    1    2    0    0 -0.73932649414E+01 -0.41326000017E+02 -0.11005668608E+02  0.43400730240E+02  0.00000000000E+00 0.  1.
         11    1    3    3    0    0  0.93662080766E+01  0.18549982057E+02  0.60599381583E+01  0.21646028245E+02  0.51100000000E-03 0. -1.
        -11    1    3    3    0    0 -0.34957599393E+01  0.10574794559E+02 -0.29585931455E+01  0.11523883512E+02  0.51100000000E-03 0.  1.
         12    1    3    3    0    0  0.15228168041E+01  0.12201223400E+02  0.79043235956E+01  0.14617358003E+02  0.00000000000E+00 0. -1.
</event>
<event>
 7    1  0.4630495E-010  0.4778727E+02  0.7816164E-02  0.1312668E+00
        -11   -1    0    0    0    0  0.00000000000E+00  0.00000000000E+00  0.45593999997E+02  0.45594000000E+02  0.51100000000E-03 0.  1.
         11   -1    0    0    0    0 -0.00000000000E+00 -0.00000000000E+00 -0.45593999997E+02  0.45594000000E+02  0.51100000000E-03 0. -1.
    9900012    2    1    2    0    0  0.21137633702E+02 -0.22467055712E+02 -0.30529574972E+02  0.47787273061E+02  0.20000009194E+02 0.  0.
        -12    1    1    2    0    0 -0.21137633702E+02  0.22467055712E+02  0.30529574972E+02  0.43400726939E+02  0.00000000000E+00 0.  1.
         11    1    3    3    0    0 -0.50380991093E+00 -0.91426750543E+01 -0.10428751740E+02  0.13878083250E+02  0.51100000000E-03 0. -1.
        -11    1    3    3    0    0  0.12008899517E+02 -0.12955359292E+02 -0.13296640678E+02  0.22110080406E+02  0.51100000000E-03 0.  1.
        -12    1    3    3    0    0  0.96325440957E+01 -0.36902136590E+00 -0.68041825534E+01  0.11799109405E+02  0.00000000000E+00 0.  1.
</event>
<event>
 7    1  0.4630495E-010  0.4778727E+02  0.7816164E-02  0.1312668E+00
        -11   -1    0    0    0    0  0.00000000000E+00  0.00000000000E+00  0.45593999997E+02  0.45594000000E+02  0.51100000000E-03 0. -1.
         11   -1    0    0    0    0 -0.00000000000E+00 -0.00000000000E+00 -0.45593999997E+02  0.45594000000E+02  0.51100000000E-03 0.  1.
    9900012    2    1    2    0    0  0.40786332671E+02 -0.12332805952E+02  0.82462183580E+01  0.47787272441E+02  0.20000006369E+02 0.  0.
        -12    1    1    2    0    0 -0.40786332671E+02  0.12332805952E+02 -0.82462183580E+01  0.43400727559E+02  0.00000000000E+00 0.  1.
         11    1    3    3    0    0  0.33237935939E+02 -0.11939273402E+02  0.61065116438E-01  0.35317281380E+02  0.51100000000E-03 0. -1.
        -11    1    3    3    0    0  0.53578805945E+01 -0.11129081534E+01  0.19286271357E+01  0.58021592457E+01  0.51100000000E-03 0.  1.
        -12    1    3    3    0    0  0.21905161378E+01  0.71937560359E+00  0.62565261059E+01  0.66678318157E+01  0.00000000000E+00 0.  1.
</event>
<event>
 7    1  0.4630495E-010  0.4778727E+02  0.7816164E-02  0.1312668E+00
        -11   -1    0    0    0    0  0.00000000000E+00  0.00000000000E+00  0.45593999997E+02  0.45594000000E+02  0.51100000000E-03 0. -1.
         11   -1    0    0    0    0 -0.00000000000E+00 -0.00000000000E+00 -0.45593999997E+02  0.45594000000E+02  0.51100000000E-03 0.  1.
    9900012    2    1    2    0    0  0.15379935339E+01 -0.12638974182E+02  0.41491136415E+02  0.47787268514E+02  0.19999988465E+02 0.  0.
        -12    1    1    2    0    0 -0.15379935339E+01  0.12638974182E+02 -0.41491136415E+02  0.43400731486E+02  0.00000000000E+00 0.  1.
         11    1    3    3    0    0 -0.20920630644E+01 -0.16684814573E+01  0.11848296152E+02  0.12146714791E+02  0.51100000000E-03 0. -1.
        -11    1    3    3    0    0 -0.46964362564E+01  0.93885836508E+00  0.43471631102E+01  0.64680596710E+01  0.51100000000E-03 0.  1.
         12    1    3    3    0    0  0.83264928548E+01 -0.11909351090E+02  0.25295677153E+02  0.29172494053E+02  0.00000000000E+00 0. -1.
</event>
<event>
 7    1  0.4630495E-010  0.4778728E+02  0.7816164E-02  0.1312668E+00
        -11   -1    0    0    0    0  0.00000000000E+00  0.00000000000E+00  0.45593999997E+02  0.45594000000E+02  0.51100000000E-03 0. -1.
         11   -1    0    0    0    0 -0.00000000000E+00 -0.00000000000E+00 -0.45593999997E+02  0.45594000000E+02  0.51100000000E-03 0.  1.
    9900012    2    1    2    0    0  0.31117877745E+02  0.28587317510E+02 -0.99027998656E+01  0.47787280156E+02  0.20000041544E+02 0.  0.
        -12    1    1    2    0    0 -0.31117877745E+02 -0.28587317510E+02  0.99027998656E+01  0.43400719844E+02  0.00000000000E+00 0.  1.
         11    1    3    3    0    0  0.19350722741E+02  0.16196255027E+02 -0.51618334382E+01  0.25756817975E+02  0.51100000000E-03 0. -1.
        -11    1    3    3    0    0  0.81499160400E+01  0.12017710479E+02  0.17142956797E+01  0.14621398926E+02  0.51100000000E-03 0.  1.
        -12    1    3    3    0    0  0.36172389642E+01  0.37335200417E+00 -0.64552621071E+01  0.74090632549E+01  0.00000000000E+00 0.  1.
</event>
<event>
 7    1  0.4630495E-010  0.4778727E+02  0.7816164E-02  0.1312668E+00
        -11   -1    0    0    0    0  0.00000000000E+00  0.00000000000E+00  0.45593999997E+02  0.45594000000E+02  0.51100000000E-03 0.  1.
         11   -1    0    0    0    0 -0.00000000000E+00 -0.00000000000E+00 -0.45593999997E+02  0.45594000000E+02  0.51100000000E-03 0. -1.
    9900012    2    1    2    0    0 -0.27988967621E+02 -0.29469470074E+02  0.15224705265E+02  0.47787266995E+02  0.19999981538E+02 0.  0.
        -12    1    1    2    0    0  0.27988967621E+02  0.29469470074E+02 -0.15224705265E+02  0.43400733005E+02  0.00000000000E+00 0.  1.
         11    1    3    3    0    0 -0.21968167289E+02 -0.18340763258E+02  0.77891567658E+01  0.29658977297E+02  0.51100000000E-03 0. -1.
        -11    1    3    3    0    0 -0.31954100722E+01  0.44729809503E+00 -0.11675927327E+01  0.34313254241E+01  0.51100000000E-03 0.  1.
         12    1    3    3    0    0 -0.28253902597E+01 -0.11576004911E+02  0.86031412314E+01  0.14696964274E+02  0.00000000000E+00 0. -1.
</event>
<event>
 7    1  0.4630495E-010  0.4778727E+02  0.7816164E-02  0.1312668E+00
        -11   -1    0    0    0    0  0.00000000000E+00  0.00000000000E+00  0.45593999997E+02  0.45594000000E+02  0.51100000000E-03 0.  1.
         11   -1    0    0    0    0 -0.00000000000E+00 -0.00000000000E+00 -0.45593999997E+02  0.45594000000E+02  0.51100000000E-03 0. -1.
    9900012    2    1    2    0    0 -0.11961983823E+02  0.19188183611E+02 -0.37045211001E+02  0.47787272986E+02  0.20000008852E+02 0.  0.
        -12    1    1    2    0    0  0.11961983823E+02 -0.19188183611E+02  0.37045211001E+02  0.43400727014E+02  0.00000000000E+00 0.  1.
         11    1    3    3    0    0 -0.96685207879E+01  0.69526832711E+01 -0.11803323660E+02  0.16767186662E+02  0.51100000000E-03 0. -1.
        -11    1    3    3    0    0 -0.43533933500E+01  0.11654461241E+02 -0.25939740013E+02  0.28768882715E+02  0.51100000000E-03 0.  1.
        -12    1    3    3    0    0  0.20599303148E+01  0.58103909836E+00  0.69785267180E+00  0.22512036085E+01  0.00000000000E+00 0.  1.
</event>
<event>
 7    1  0.4637362E-010  0.4778728E+02  0.7816164E-02  0.1312668E+00
        -11   -1    0    0    0    0  0.00000000000E+00  0.00000000000E+00  0.45593999997E+02  0.45594000000E+02  0.51100000000E-03 0. -1.
         11   -1    0    0    0    0 -0.00000000000E+00 -0.00000000000E+00 -0.45593999997E+02  0.45594000000E+02  0.51100000000E-03 0.  1.
    9900012    2    1    2    0    0 -0.27015043161E+02 -0.24945028745E+01  0.33876053491E+02  0.47787284548E+02  0.20000061570E+02 0.  0.
        -12    1    1    2    0    0  0.27015043161E+02  0.24945028745E+01 -0.33876053491E+02  0.43400715452E+02  0.00000000000E+00 0.  1.
         11    1    3    3    0    0  0.13421348251E+01 -0.85317307109E+00 -0.36783465217E+00  0.16323396614E+01  0.51100000000E-03 0. -1.
        -11    1    3    3    0    0 -0.77058888836E+01  0.38470524143E+01  0.15493573770E+02  0.17726572263E+02  0.51100000000E-03 0.  1.
         12    1    3    3    0    0 -0.20651289102E+02 -0.54883822177E+01  0.18750314374E+02  0.28428372624E+02  0.00000000000E+00 0. -1.
</event>
<event>
 7    1  0.4630495E-010  0.4778726E+02  0.7816164E-02  0.1312668E+00
        -11   -1    0    0    0    0  0.00000000000E+00  0.00000000000E+00  0.45593999997E+02  0.45594000000E+02  0.51100000000E-03 0.  1.
         11   -1    0    0    0    0 -0.00000000000E+00 -0.00000000000E+00 -0.45593999997E+02  0.45594000000E+02  0.51100000000E-03 0. -1.
    9900012    2    1    2    0    0  0.21708180199E+02 -0.21461165306E+02 -0.30851211863E+02  0.47787262941E+02  0.19999963053E+02 0.  0.
        -12    1    1    2    0    0 -0.21708180199E+02  0.21461165306E+02  0.30851211863E+02  0.43400737059E+02  0.00000000000E+00 0.  1.
         11    1    3    3    0    0  0.10048833676E+02 -0.24132151735E+01 -0.12371879604E+02  0.16120361997E+02  0.51100000000E-03 0. -1.
        -11    1    3    3    0    0  0.11685720851E+02 -0.17256412271E+02 -0.20313456540E+02  0.29102858162E+02  0.51100000000E-03 0.  1.
        -12    1    3    3    0    0 -0.26374328271E-01 -0.17915378610E+01  0.18341242809E+01  0.25640427825E+01  0.00000000000E+00 0.  1.
</event>
<event>
 7    1  0.4630495E-010  0.4778728E+02  0.7816164E-02  0.1312668E+00
        -11   -1    0    0    0    0  0.00000000000E+00  0.00000000000E+00  0.45593999997E+02  0.45594000000E+02  0.51100000000E-03 0. -1.
         11   -1    0    0    0    0 -0.00000000000E+00 -0.00000000000E+00 -0.45593999997E+02  0.45594000000E+02  0.51100000000E-03 0.  1.
    9900012    2    1    2    0    0 -0.32560161677E+02 -0.26520009109E+02 -0.10961200199E+02  0.47787275105E+02  0.20000018515E+02 0.  0.
        -12    1    1    2    0    0  0.32560161677E+02  0.26520009109E+02  0.10961200199E+02  0.43400724895E+02  0.00000000000E+00 0.  1.
         11    1    3    3    0    0 -0.13123812448E+02 -0.11938376530E+02 -0.20182804979E+01  0.17855888210E+02  0.51100000000E-03 0. -1.
        -11    1    3    3    0    0 -0.75674020364E+01 -0.14691704617E+02 -0.67981386198E+01  0.17869707526E+02  0.51100000000E-03 0.  1.
        -12    1    3    3    0    0 -0.11868947192E+02  0.11007203715E+00 -0.21447810815E+01  0.12061679369E+02  0.00000000000E+00 0.  1.
</event>
<event>
 7    1  0.4630495E-010  0.4778727E+02  0.7816164E-02  0.1312668E+00
        -11   -1    0    0    0    0  0.00000000000E+00  0.00000000000E+00  0.45593999997E+02  0.45594000000E+02  0.51100000000E-03 0.  1.
         11   -1    0    0    0    0 -0.00000000000E+00 -0.00000000000E+00 -0.45593999997E+02  0.45594000000E+02  0.51100000000E-03 0. -1.
    9900012    2    1    2    0    0  0.41330147155E+02 -0.10488764021E+02  0.80887589778E+01  0.47787271247E+02  0.20000000922E+02 0.  0.
        -12    1    1    2    0    0 -0.41330147155E+02  0.10488764021E+02 -0.80887589778E+01  0.43400728753E+02  0.00000000000E+00 0.  1.
         11    1    3    3    0    0  0.14328577243E+02 -0.34206376482E+01  0.46588769459E+01  0.15450372888E+02  0.51100000000E-03 0. -1.
        -11    1    3    3    0    0  0.58770512563E+01  0.50902105277E+01  0.10965796608E+01  0.78519081693E+01  0.51100000000E-03 0.  1.
        -12    1    3    3    0    0  0.21124518656E+02 -0.12158336901E+02  0.23333023711E+01  0.24484990190E+02  0.00000000000E+00 0.  1.
</event>
<event>
 7    1  0.4630495E-010  0.4778727E+02  0.7816164E-02  0.1312668E+00
        -11   -1    0    0    0    0  0.00000000000E+00  0.00000000000E+00  0.45593999997E+02  0.45594000000E+02  0.51100000000E-03 0.  1.
         11   -1    0    0    0    0 -0.00000000000E+00 -0.00000000000E+00 -0.45593999997E+02  0.45594000000E+02  0.51100000000E-03 0. -1.
    9900012    2    1    2    0    0  0.87670429093E+01  0.42045476341E+02 -0.62402177313E+01  0.47787269137E+02  0.19999991305E+02 0.  0.
        -12    1    1    2    0    0 -0.87670429093E+01 -0.42045476341E+02  0.62402177313E+01  0.43400730863E+02  0.00000000000E+00 0.  1.
         11    1    3    3    0    0  0.71921987818E+01  0.17723825861E+02 -0.22622190255E+01  0.19260824532E+02  0.51100000000E-03 0. -1.
        -11    1    3    3    0    0  0.64770000532E+01  0.61561914669E+01  0.11888162169E+01  0.90146274091E+01  0.51100000000E-03 0.  1.
         12    1    3    3    0    0 -0.49021559257E+01  0.18165459012E+02 -0.51668149227E+01  0.19511817196E+02  0.00000000000E+00 0. -1.
</event>
<event>
 7    1  0.4630495E-010  0.4778727E+02  0.7816164E-02  0.1312668E+00
        -11   -1    0    0    0    0  0.00000000000E+00  0.00000000000E+00  0.45593999997E+02  0.45594000000E+02  0.51100000000E-03 0.  1.
         11   -1    0    0    0    0 -0.00000000000E+00 -0.00000000000E+00 -0.45593999997E+02  0.45594000000E+02  0.51100000000E-03 0. -1.
    9900012    2    1    2    0    0  0.42587714849E+02  0.15256295256E+01 -0.82208607464E+01  0.47787267829E+02  0.19999985341E+02 0.  0.
        -12    1    1    2    0    0 -0.42587714849E+02 -0.15256295256E+01  0.82208607464E+01  0.43400732171E+02  0.00000000000E+00 0.  1.
         11    1    3    3    0    0  0.53031470065E+01  0.25442659074E+01 -0.28620152341E+00  0.58888512253E+01  0.51100000000E-03 0. -1.
        -11    1    3    3    0    0  0.15260536531E+02  0.38815272360E+01 -0.10886883800E+02  0.19143522874E+02  0.51100000000E-03 0.  1.
         12    1    3    3    0    0  0.22024031312E+02 -0.49001636178E+01  0.29522245771E+01  0.22754893730E+02  0.00000000000E+00 0. -1.
</event>
<event>
 7    1  0.4630495E-010  0.4778727E+02  0.7816164E-02  0.1312668E+00
        -11   -1    0    0    0    0  0.00000000000E+00  0.00000000000E+00  0.45593999997E+02  0.45594000000E+02  0.51100000000E-03 0.  1.
         11   -1    0    0    0    0 -0.00000000000E+00 -0.00000000000E+00 -0.45593999997E+02  0.45594000000E+02  0.51100000000E-03 0. -1.
    9900012    2    1    2    0    0 -0.16819120981E+02  0.38716155289E+02 -0.10089596241E+02  0.47787268863E+02  0.19999990054E+02 0.  0.
        -12    1    1    2    0    0  0.16819120981E+02 -0.38716155289E+02  0.10089596241E+02  0.43400731137E+02  0.00000000000E+00 0.  1.
         11    1    3    3    0    0 -0.75916937450E+00  0.85262191187E+01  0.11451830438E+01  0.86362141627E+01  0.51100000000E-03 0. -1.
        -11    1    3    3    0    0  0.12876914255E+01 -0.63938469212E+00  0.96497977071E+00  0.17315161596E+01  0.51100000000E-03 0.  1.
         12    1    3    3    0    0 -0.17347643032E+02  0.30829320862E+02 -0.12199759056E+02  0.37419538541E+02  0.00000000000E+00 0. -1.
</event>
<event>
 7    1  0.4630495E-010  0.4778727E+02  0.7816164E-02  0.1312668E+00
        -11   -1    0    0    0    0  0.00000000000E+00  0.00000000000E+00  0.45593999997E+02  0.45594000000E+02  0.51100000000E-03 0.  1.
         11   -1    0    0    0    0 -0.00000000000E+00 -0.00000000000E+00 -0.45593999997E+02  0.45594000000E+02  0.51100000000E-03 0. -1.
    9900012    2    1    2    0    0 -0.79441583842E+01 -0.22199231195E+02 -0.36437724093E+02  0.47787271259E+02  0.20000000981E+02 0.  0.
        -12    1    1    2    0    0  0.79441583842E+01  0.22199231195E+02  0.36437724093E+02  0.43400728741E+02  0.00000000000E+00 0.  1.
         11    1    3    3    0    0 -0.97751162315E+00 -0.92706101176E+01 -0.16138160552E+02  0.18637058974E+02  0.51100000000E-03 0. -1.
        -11    1    3    3    0    0 -0.77172344356E+01 -0.91597386017E+01 -0.21920624569E+02  0.24979397517E+02  0.51100000000E-03 0.  1.
        -12    1    3    3    0    0  0.75058767459E+00 -0.37688824762E+01  0.16210610275E+01  0.41708147683E+01  0.00000000000E+00 0.  1.
</event>
<event>
 7    1  0.4630495E-010  0.4778727E+02  0.7816164E-02  0.1312668E+00
        -11   -1    0    0    0    0  0.00000000000E+00  0.00000000000E+00  0.45593999997E+02  0.45594000000E+02  0.51100000000E-03 0.  1.
         11   -1    0    0    0    0 -0.00000000000E+00 -0.00000000000E+00 -0.45593999997E+02  0.45594000000E+02  0.51100000000E-03 0. -1.
    9900012    2    1    2    0    0  0.70733308968E+01 -0.26045901932E+02 -0.33988266548E+02  0.47787270970E+02  0.19999999660E+02 0.  0.
        -12    1    1    2    0    0 -0.70733308968E+01  0.26045901932E+02  0.33988266548E+02  0.43400729030E+02  0.00000000000E+00 0.  1.
         11    1    3    3    0    0  0.42593567770E+01 -0.11702547737E+02 -0.73617435672E+01  0.14466755417E+02  0.51100000000E-03 0. -1.
        -11    1    3    3    0    0 -0.27597490955E+01 -0.52348791842E+01 -0.16293451272E+01  0.61379916054E+01  0.51100000000E-03 0.  1.
        -12    1    3    3    0    0  0.55737232153E+01 -0.91084750109E+01 -0.24997177853E+02  0.27182523947E+02  0.00000000000E+00 0.  1.
</event>
<event>
 7    1  0.4630495E-010  0.4778727E+02  0.7816164E-02  0.1312668E+00
        -11   -1    0    0    0    0  0.00000000000E+00  0.00000000000E+00  0.45593999997E+02  0.45594000000E+02  0.51100000000E-03 0.  1.
         11   -1    0    0    0    0 -0.00000000000E+00 -0.00000000000E+00 -0.45593999997E+02  0.45594000000E+02  0.51100000000E-03 0. -1.
    9900012    2    1    2    0    0  0.28869912316E+02 -0.17160479946E+02 -0.27489446183E+02  0.47787267742E+02  0.19999984942E+02 0.  0.
        -12    1    1    2    0    0 -0.28869912316E+02  0.17160479946E+02  0.27489446183E+02  0.43400732258E+02  0.00000000000E+00 0.  1.
         11    1    3    3    0    0  0.24210496525E+01  0.10854868040E+01 -0.66007715040E+01  0.71140668911E+01  0.51100000000E-03 0. -1.
        -11    1    3    3    0    0 -0.10345287076E+01 -0.11614853208E+01 -0.37377714030E+01  0.40484852871E+01  0.51100000000E-03 0.  1.
        -12    1    3    3    0    0  0.27483391371E+02 -0.17084481429E+02 -0.17150903276E+02  0.36624715564E+02  0.00000000000E+00 0.  1.
</event>
<event>
 7    1  0.4630495E-010  0.4778725E+02  0.7816164E-02  0.1312668E+00
        -11   -1    0    0    0    0  0.00000000000E+00  0.00000000000E+00  0.45593999997E+02  0.45594000000E+02  0.51100000000E-03 0.  1.
         11   -1    0    0    0    0 -0.00000000000E+00 -0.00000000000E+00 -0.45593999997E+02  0.45594000000E+02  0.51100000000E-03 0. -1.
    9900012    2    1    2    0    0 -0.11035649742E+02  0.41814923118E+02 -0.36539668019E+01  0.47787253071E+02  0.19999918053E+02 0.  0.
        -12    1    1    2    0    0  0.11035649742E+02 -0.41814923118E+02  0.36539668019E+01  0.43400746929E+02  0.00000000000E+00 0.  1.
         11    1    3    3    0    0 -0.10043526293E+02  0.27929377790E+02 -0.30666978821E+01  0.29838351166E+02  0.51100000000E-03 0. -1.
        -11    1    3    3    0    0 -0.12595089204E+01  0.15457350849E+02  0.11986483302E+01  0.15554832563E+02  0.51100000000E-03 0.  1.
         12    1    3    3    0    0  0.26738547132E+00 -0.15718055217E+01 -0.17859172500E+01  0.23940693415E+01  0.00000000000E+00 0. -1.
</event>
<event>
 7    1  0.4630495E-010  0.4778727E+02  0.7816164E-02  0.1312668E+00
        -11   -1    0    0    0    0  0.00000000000E+00  0.00000000000E+00  0.45593999997E+02  0.45594000000E+02  0.51100000000E-03 0.  1.
         11   -1    0    0    0    0 -0.00000000000E+00 -0.00000000000E+00 -0.45593999997E+02  0.45594000000E+02  0.51100000000E-03 0. -1.
    9900012    2    1    2    0    0 -0.18027989872E+02 -0.17051780013E+02 -0.35606902800E+02  0.47787272501E+02  0.20000006640E+02 0.  0.
        -12    1    1    2    0    0  0.18027989872E+02  0.17051780013E+02  0.35606902800E+02  0.43400727499E+02  0.00000000000E+00 0.  1.
         11    1    3    3    0    0 -0.35216611684E+01  0.11598805047E+01 -0.52564602640E+01  0.64325574182E+01  0.51100000000E-03 0. -1.
        -11    1    3    3    0    0  0.25084401416E+01 -0.40954253485E+01 -0.10888994161E+02  0.11901049316E+02  0.51100000000E-03 0.  1.
         12    1    3    3    0    0 -0.17014768845E+02 -0.14116235169E+02 -0.19461448375E+02  0.29453665766E+02  0.00000000000E+00 0. -1.
</event>
<event>
 7    1  0.4630495E-010  0.4778727E+02  0.7816164E-02  0.1312668E+00
        -11   -1    0    0    0    0  0.00000000000E+00  0.00000000000E+00  0.45593999997E+02  0.45594000000E+02  0.51100000000E-03 0.  1.
         11   -1    0    0    0    0 -0.00000000000E+00 -0.00000000000E+00 -0.45593999997E+02  0.45594000000E+02  0.51100000000E-03 0. -1.
    9900012    2    1    2    0    0 -0.73081733851E+00  0.37268277982E+02 -0.22229811101E+02  0.47787272595E+02  0.20000007069E+02 0.  0.
        -12    1    1    2    0    0  0.73081733851E+00 -0.37268277982E+02  0.22229811101E+02  0.43400727405E+02  0.00000000000E+00 0.  1.
         11    1    3    3    0    0  0.96042950993E-01  0.81122181389E+01 -0.18594978284E+01  0.83231628493E+01  0.51100000000E-03 0. -1.
        -11    1    3    3    0    0  0.75988939287E-01  0.89548879689E+01  0.21375370314E+01  0.92067832426E+01  0.51100000000E-03 0.  1.
         12    1    3    3    0    0 -0.90284922879E+00  0.20201171874E+02 -0.22507850304E+02  0.30257326503E+02  0.00000000000E+00 0. -1.
</event>
<event>
 7    1  0.4630495E-010  0.4778727E+02  0.7816164E-02  0.1312668E+00
        -11   -1    0    0    0    0  0.00000000000E+00  0.00000000000E+00  0.45593999997E+02  0.45594000000E+02  0.51100000000E-03 0. -1.
         11   -1    0    0    0    0 -0.00000000000E+00 -0.00000000000E+00 -0.45593999997E+02  0.45594000000E+02  0.51100000000E-03 0.  1.
    9900012    2    1    2    0    0  0.27296559761E+02 -0.73817482930E+01  0.32924621719E+02  0.47787273071E+02  0.20000009239E+02 0.  0.
        -12    1    1    2    0    0 -0.27296559761E+02  0.73817482930E+01 -0.32924621719E+02  0.43400726929E+02  0.00000000000E+00 0.  1.
         11    1    3    3    0    0  0.14272161864E+02 -0.89717116451E+01  0.68717402816E+01  0.18204588127E+02  0.51100000000E-03 0. -1.
        -11    1    3    3    0    0  0.65794037330E+01 -0.15111650311E+01  0.10801609861E+02  0.12737619443E+02  0.51100000000E-03 0.  1.
         12    1    3    3    0    0  0.64449941635E+01  0.31011283831E+01  0.15251271577E+02  0.16845065501E+02  0.00000000000E+00 0. -1.
</event>
<event>
 7    1  0.4630495E-010  0.4778727E+02  0.7816164E-02  0.1312668E+00
        -11   -1    0    0    0    0  0.00000000000E+00  0.00000000000E+00  0.45593999997E+02  0.45594000000E+02  0.51100000000E-03 0.  1.
         11   -1    0    0    0    0 -0.00000000000E+00 -0.00000000000E+00 -0.45593999997E+02  0.45594000000E+02  0.51100000000E-03 0. -1.
    9900012    2    1    2    0    0  0.41974647394E+02 -0.74108147801E+01  0.81750935464E+01  0.47787270121E+02  0.19999995790E+02 0.  0.
        -12    1    1    2    0    0 -0.41974647394E+02  0.74108147801E+01 -0.81750935464E+01  0.43400729879E+02  0.00000000000E+00 0.  1.
         11    1    3    3    0    0  0.11808934658E+02  0.18095414402E+01  0.47055824279E+01  0.12840088949E+02  0.51100000000E-03 0. -1.
        -11    1    3    3    0    0  0.99562947853E+01  0.13748083056E+01  0.64389418624E+01  0.11936409690E+02  0.51100000000E-03 0.  1.
        -12    1    3    3    0    0  0.20209417951E+02 -0.10595164526E+02 -0.29694307440E+01  0.23010771482E+02  0.00000000000E+00 0.  1.
</event>
<event>
 7    1  0.5361405E-010  0.4778727E+02  0.7816164E-02  0.1312668E+00
        -11   -1    0    0    0    0  0.00000000000E+00  0.00000000000E+00  0.45593999997E+02  0.45594000000E+02  0.51100000000E-03 0.  1.
         11   -1    0    0    0    0 -0.00000000000E+00 -0.00000000000E+00 -0.45593999997E+02  0.45594000000E+02  0.51100000000E-03 0. -1.
    9900012    2    1    2    0    0 -0.79923921138E+01 -0.38382118818E+02 -0.18616065963E+02  0.47787270875E+02  0.19999999226E+02 0.  0.
        -12    1    1    2    0    0  0.79923921138E+01  0.38382118818E+02  0.18616065963E+02  0.43400729125E+02  0.00000000000E+00 0.  1.
         11    1    3    3    0    0 -0.50609476018E+01 -0.13219694180E+02 -0.30808548501E+01  0.14486723981E+02  0.51100000000E-03 0. -1.
        -11    1    3    3    0    0 -0.22652530071E+01 -0.21579902230E+01  0.25456263859E+01  0.40334237251E+01  0.51100000000E-03 0.  1.
         12    1    3    3    0    0 -0.66619150485E+00 -0.23004434415E+02 -0.18080837499E+02  0.29267123168E+02  0.00000000000E+00 0. -1.
</event>
<event>
 7    1  0.4990712E-010  0.4778727E+02  0.7816164E-02  0.1312668E+00
        -11   -1    0    0    0    0  0.00000000000E+00  0.00000000000E+00  0.45593999997E+02  0.45594000000E+02  0.51100000000E-03 0. -1.
         11   -1    0    0    0    0 -0.00000000000E+00 -0.00000000000E+00 -0.45593999997E+02  0.45594000000E+02  0.51100000000E-03 0.  1.
    9900012    2    1    2    0    0 -0.12603747260E+02  0.36396217502E+02  0.20002108642E+02  0.47787269089E+02  0.19999991086E+02 0.  0.
        -12    1    1    2    0    0  0.12603747260E+02 -0.36396217502E+02 -0.20002108642E+02  0.43400730911E+02  0.00000000000E+00 0.  1.
         11    1    3    3    0    0 -0.41378840350E+01  0.54555324723E+01 -0.11339239074E-01  0.68472657085E+01  0.51100000000E-03 0. -1.
        -11    1    3    3    0    0  0.79675465796E+00 -0.94226972383E+00 -0.10505988384E+01  0.16206320982E+01  0.51100000000E-03 0.  1.
         12    1    3    3    0    0 -0.92626178828E+01  0.31882954754E+02  0.21064046720E+02  0.39319371283E+02  0.00000000000E+00 0. -1.
</event>
<event>
 7    1  0.4630495E-010  0.4778726E+02  0.7816164E-02  0.1312668E+00
        -11   -1    0    0    0    0  0.00000000000E+00  0.00000000000E+00  0.45593999997E+02  0.45594000000E+02  0.51100000000E-03 0. -1.
         11   -1    0    0    0    0 -0.00000000000E+00 -0.00000000000E+00 -0.45593999997E+02  0.45594000000E+02  0.51100000000E-03 0.  1.
    9900012    2    1    2    0    0  0.83108354533E+00  0.34849369119E+02  0.25854499112E+02  0.47787258622E+02  0.19999943360E+02 0.  0.
        -12    1    1    2    0    0 -0.83108354533E+00 -0.34849369119E+02 -0.25854499112E+02  0.43400741378E+02  0.00000000000E+00 0.  1.
         11    1    3    3    0    0 -0.85798721517E+00  0.11259857262E+02  0.10729880563E+02  0.15577254726E+02  0.51100000000E-03 0. -1.
        -11    1    3    3    0    0 -0.55543124825E+01  0.11453138335E+02  0.19295035940E+01  0.12874305778E+02  0.51100000000E-03 0.  1.
        -12    1    3    3    0    0  0.72433832430E+01  0.12136373522E+02  0.13195114954E+02  0.19335698118E+02  0.00000000000E+00 0.  1.
</event>
<event>
 7    1  0.4630495E-010  0.4778727E+02  0.7816164E-02  0.1312668E+00
        -11   -1    0    0    0    0  0.00000000000E+00  0.00000000000E+00  0.45593999997E+02  0.45594000000E+02  0.51100000000E-03 0.  1.
         11   -1    0    0    0    0 -0.00000000000E+00 -0.00000000000E+00 -0.45593999997E+02  0.45594000000E+02  0.51100000000E-03 0. -1.
    9900012    2    1    2    0    0  0.28798338311E+02  0.13516362431E+02 -0.29522650394E+02  0.47787271560E+02  0.20000002352E+02 0.  0.
        -12    1    1    2    0    0 -0.28798338311E+02 -0.13516362431E+02  0.29522650394E+02  0.43400728440E+02  0.00000000000E+00 0.  1.
         11    1    3    3    0    0  0.10412743421E+02  0.45953798933E+01 -0.15133125195E+02  0.18935527992E+02  0.51100000000E-03 0. -1.
        -11    1    3    3    0    0  0.36290816770E+00  0.23267434989E+01 -0.84357113398E+01  0.87582340524E+01  0.51100000000E-03 0.  1.
         12    1    3    3    0    0  0.18022686722E+02  0.65942390391E+01 -0.59538138588E+01  0.20093509515E+02  0.00000000000E+00 0. -1.
</event>
<event>
 7    1  0.4630495E-010  0.4778727E+02  0.7816164E-02  0.1312668E+00
        -11   -1    0    0    0    0  0.00000000000E+00  0.00000000000E+00  0.45593999997E+02  0.45594000000E+02  0.51100000000E-03 0. -1.
         11   -1    0    0    0    0 -0.00000000000E+00 -0.00000000000E+00 -0.45593999997E+02  0.45594000000E+02  0.51100000000E-03 0.  1.
    9900012    2    1    2    0    0 -0.20223316624E+01 -0.34174759124E+02  0.26676194018E+02  0.47787270584E+02  0.19999997899E+02 0.  0.
        -12    1    1    2    0    0  0.20223316624E+01  0.34174759124E+02 -0.26676194018E+02  0.43400729416E+02  0.00000000000E+00 0.  1.
         11    1    3    3    0    0 -0.40735905499E+01 -0.49203645193E+01  0.62543507355E-01  0.63881170091E+01  0.51100000000E-03 0. -1.
        -11    1    3    3    0    0  0.26132889885E+00  0.32834815224E+00  0.42516816670E+01  0.42723415783E+01  0.51100000000E-03 0.  1.
         12    1    3    3    0    0  0.17899299886E+01 -0.29582742757E+02  0.22361968844E+02  0.37126811996E+02  0.00000000000E+00 0. -1.
</event>
<event>
 7    1  0.4630495E-010  0.4778727E+02  0.7816164E-02  0.1312668E+00
        -11   -1    0    0    0    0  0.00000000000E+00  0.00000000000E+00  0.45593999997E+02  0.45594000000E+02  0.51100000000E-03 0. -1.
         11   -1    0    0    0    0 -0.00000000000E+00 -0.00000000000E+00 -0.45593999997E+02  0.45594000000E+02  0.51100000000E-03 0.  1.
    9900012    2    1    2    0    0 -0.24723317760E+02 -0.17651304280E+02  0.30996975798E+02  0.47787268526E+02  0.19999988520E+02 0.  0.
        -12    1    1    2    0    0  0.24723317760E+02  0.17651304280E+02 -0.30996975798E+02  0.43400731474E+02  0.00000000000E+00 0.  1.
         11    1    3    3    0    0 -0.16744902246E+02 -0.14167376895E+01  0.20644087658E+02  0.26619114418E+02  0.51100000000E-03 0. -1.
        -11    1    3    3    0    0 -0.49327321104E+00 -0.17385433691E+01 -0.69852939888E-01  0.18085162983E+01  0.51100000000E-03 0.  1.
         12    1    3    3    0    0 -0.74851423025E+01 -0.14496023221E+02  0.10422741080E+02  0.19359637810E+02  0.00000000000E+00 0. -1.
</event>
<event>
 7    1  0.4630495E-010  0.4778728E+02  0.7816164E-02  0.1312668E+00
        -11   -1    0    0    0    0  0.00000000000E+00  0.00000000000E+00  0.45593999997E+02  0.45594000000E+02  0.51100000000E-03 0.  1.
         11   -1    0    0    0    0 -0.00000000000E+00 -0.00000000000E+00 -0.45593999997E+02  0.45594000000E+02  0.51100000000E-03 0. -1.
    9900012    2    1    2    0    0 -0.17733623243E+02 -0.29410081437E+01 -0.39503058538E+02  0.47787279313E+02  0.20000037701E+02 0.  0.
        -12    1    1    2    0    0  0.17733623243E+02  0.29410081437E+01  0.39503058538E+02  0.43400720687E+02  0.00000000000E+00 0.  1.
         11    1    3    3    0    0 -0.99608803579E+00  0.21922949337E+01 -0.74715146638E+00  0.25212266908E+01  0.51100000000E-03 0. -1.
        -11    1    3    3    0    0  0.77363789132E+00 -0.28378244099E+01 -0.16959317431E+02  0.17212501590E+02  0.51100000000E-03 0.  1.
         12    1    3    3    0    0 -0.17511173099E+02 -0.22954786675E+01 -0.21796589641E+02  0.28053551033E+02  0.00000000000E+00 0. -1.
</event>
<event>
 7    1  0.4630495E-010  0.4778729E+02  0.7816164E-02  0.1312668E+00
        -11   -1    0    0    0    0  0.00000000000E+00  0.00000000000E+00  0.45593999997E+02  0.45594000000E+02  0.51100000000E-03 0. -1.
         11   -1    0    0    0    0 -0.00000000000E+00 -0.00000000000E+00 -0.45593999997E+02  0.45594000000E+02  0.51100000000E-03 0.  1.
    9900012    2    1    2    0    0  0.64333565964E+01  0.42155339683E+02 -0.80722516320E+01  0.47787285866E+02  0.20000067579E+02 0.  0.
        -12    1    1    2    0    0 -0.64333565964E+01 -0.42155339683E+02  0.80722516320E+01  0.43400714134E+02  0.00000000000E+00 0.  1.
         11    1    3    3    0    0 -0.93840378483E+00  0.21026064921E+01  0.99294553824E+00  0.25074881509E+01  0.51100000000E-03 0. -1.
        -11    1    3    3    0    0  0.12869447036E+02  0.22355792827E+02 -0.61789989005E+01  0.26525161029E+02  0.51100000000E-03 0.  1.
        -12    1    3    3    0    0 -0.54976866547E+01  0.17696940364E+02 -0.28861982697E+01  0.18754636686E+02  0.00000000000E+00 0.  1.
</event>
<event>
 7    1  0.4630495E-010  0.4778727E+02  0.7816164E-02  0.1312668E+00
        -11   -1    0    0    0    0  0.00000000000E+00  0.00000000000E+00  0.45593999997E+02  0.45594000000E+02  0.51100000000E-03 0.  1.
         11   -1    0    0    0    0 -0.00000000000E+00 -0.00000000000E+00 -0.45593999997E+02  0.45594000000E+02  0.51100000000E-03 0. -1.
    9900012    2    1    2    0    0  0.34508888931E+02 -0.26320307690E+02 -0.36356513666E-01  0.47787270352E+02  0.19999996842E+02 0.  0.
        -12    1    1    2    0    0 -0.34508888931E+02  0.26320307690E+02  0.36356513666E-01  0.43400729648E+02  0.00000000000E+00 0.  1.
         11    1    3    3    0    0  0.58065339480E+01 -0.11460863587E+02  0.42659076430E+01  0.13537547744E+02  0.51100000000E-03 0. -1.
        -11    1    3    3    0    0  0.44173120705E+01  0.13756023833E+01  0.47050513182E+00  0.46504089267E+01  0.51100000000E-03 0.  1.
         12    1    3    3    0    0  0.24285042913E+02 -0.16235046487E+02 -0.47727692885E+01  0.29599313681E+02  0.00000000000E+00 0. -1.
</event>
<event>
 7    1  0.4630495E-010  0.4778727E+02  0.7816164E-02  0.1312668E+00
        -11   -1    0    0    0    0  0.00000000000E+00  0.00000000000E+00  0.45593999997E+02  0.45594000000E+02  0.51100000000E-03 0.  1.
         11   -1    0    0    0    0 -0.00000000000E+00 -0.00000000000E+00 -0.45593999997E+02  0.45594000000E+02  0.51100000000E-03 0. -1.
    9900012    2    1    2    0    0 -0.41169238538E+02  0.13534433237E+02  0.23529167652E+01  0.47787270719E+02  0.19999998516E+02 0.  0.
        -12    1    1    2    0    0  0.41169238538E+02 -0.13534433237E+02 -0.23529167652E+01  0.43400729281E+02  0.00000000000E+00 0.  1.
         11    1    3    3    0    0 -0.10550209336E+02 -0.26887878185E+01 -0.52316826818E+01  0.12079197031E+02  0.51100000000E-03 0. -1.
        -11    1    3    3    0    0 -0.52596932770E+01  0.45222515161E+01  0.94011024606E+00  0.69999242623E+01  0.51100000000E-03 0.  1.
        -12    1    3    3    0    0 -0.25359335925E+02  0.11700969539E+02  0.66444892010E+01  0.28708149426E+02  0.00000000000E+00 0.  1.
</event>
<event>
 7    1  0.4630495E-010  0.4778727E+02  0.7816164E-02  0.1312668E+00
        -11   -1    0    0    0    0  0.00000000000E+00  0.00000000000E+00  0.45593999997E+02  0.45594000000E+02  0.51100000000E-03 0.  1.
         11   -1    0    0    0    0 -0.00000000000E+00 -0.00000000000E+00 -0.45593999997E+02  0.45594000000E+02  0.51100000000E-03 0. -1.
    9900012    2    1    2    0    0 -0.22298960605E+02 -0.16661277542E+02 -0.33298374758E+02  0.47787267576E+02  0.19999984188E+02 0.  0.
        -12    1    1    2    0    0  0.22298960605E+02  0.16661277542E+02  0.33298374758E+02  0.43400732424E+02  0.00000000000E+00 0.  1.
         11    1    3    3    0    0 -0.65937031416E+01 -0.12430809120E+02 -0.19903887026E+02  0.24375533953E+02  0.51100000000E-03 0. -1.
        -11    1    3    3    0    0 -0.11780794903E+02 -0.70355553273E+01 -0.12382658889E+02  0.18482867979E+02  0.51100000000E-03 0.  1.
        -12    1    3    3    0    0 -0.39244625605E+01  0.28050869053E+01 -0.10118288431E+01  0.49288656447E+01  0.00000000000E+00 0.  1.
</event>
<event>
 7    1  0.4630495E-010  0.4778726E+02  0.7816164E-02  0.1312668E+00
        -11   -1    0    0    0    0  0.00000000000E+00  0.00000000000E+00  0.45593999997E+02  0.45594000000E+02  0.51100000000E-03 0.  1.
         11   -1    0    0    0    0 -0.00000000000E+00 -0.00000000000E+00 -0.45593999997E+02  0.45594000000E+02  0.51100000000E-03 0. -1.
    9900012    2    1    2    0    0  0.23131167053E+02  0.10568686434E+02 -0.35169246809E+02  0.47787263332E+02  0.19999964837E+02 0.  0.
        -12    1    1    2    0    0 -0.23131167053E+02 -0.10568686434E+02  0.35169246809E+02  0.43400736668E+02  0.00000000000E+00 0.  1.
         11    1    3    3    0    0  0.59892287634E+01  0.51248988691E+01 -0.37520332643E+01  0.87300173812E+01  0.51100000000E-03 0. -1.
        -11    1    3    3    0    0  0.79516994421E+01  0.10137423680E+02 -0.17302613889E+02  0.21572606021E+02  0.51100000000E-03 0.  1.
         12    1    3    3    0    0  0.91902388476E+01 -0.46936361144E+01 -0.14114599656E+02  0.17484639930E+02  0.00000000000E+00 0. -1.
</event>
<event>
 7    1  0.4630495E-010  0.4778727E+02  0.7816164E-02  0.1312668E+00
        -11   -1    0    0    0    0  0.00000000000E+00  0.00000000000E+00  0.45593999997E+02  0.45594000000E+02  0.51100000000E-03 0. -1.
         11   -1    0    0    0    0 -0.00000000000E+00 -0.00000000000E+00 -0.45593999997E+02  0.45594000000E+02  0.51100000000E-03 0.  1.
    9900012    2    1    2    0    0 -0.41594071979E+02 -0.74058215187E+01  0.99353171250E+01  0.47787267949E+02  0.19999985887E+02 0.  0.
        -12    1    1    2    0    0  0.41594071979E+02  0.74058215187E+01 -0.99353171250E+01  0.43400732051E+02  0.00000000000E+00 0.  1.
         11    1    3    3    0    0 -0.87919737944E+01 -0.36867802884E+01  0.24145808275E+01  0.98347014662E+01  0.51100000000E-03 0. -1.
        -11    1    3    3    0    0 -0.25748224030E+02 -0.25180954912E+00  0.12525707535E+02  0.28634381402E+02  0.51100000000E-03 0.  1.
         12    1    3    3    0    0 -0.70538741549E+01 -0.34672316812E+01 -0.50049712372E+01  0.93181850813E+01  0.00000000000E+00 0. -1.
</event>
<event>
 7    1  0.4630495E-010  0.4778727E+02  0.7816164E-02  0.1312668E+00
        -11   -1    0    0    0    0  0.00000000000E+00  0.00000000000E+00  0.45593999997E+02  0.45594000000E+02  0.51100000000E-03 0.  1.
         11   -1    0    0    0    0 -0.00000000000E+00 -0.00000000000E+00 -0.45593999997E+02  0.45594000000E+02  0.51100000000E-03 0. -1.
    9900012    2    1    2    0    0 -0.20042514366E+02  0.34297906176E+02 -0.17480696537E+02  0.47787268421E+02  0.19999988040E+02 0.  0.
        -12    1    1    2    0    0  0.20042514366E+02 -0.34297906176E+02  0.17480696537E+02  0.43400731579E+02  0.00000000000E+00 0.  1.
         11    1    3    3    0    0 -0.29290085903E+01  0.31625085831E+01 -0.30118280487E+00  0.43210257120E+01  0.51100000000E-03 0. -1.
        -11    1    3    3    0    0 -0.62544092967E+01  0.17963578634E+01  0.19546745606E+01  0.67945044059E+01  0.51100000000E-03 0.  1.
         12    1    3    3    0    0 -0.10859096479E+02  0.29339039729E+02 -0.19134188293E+02  0.36671738303E+02  0.00000000000E+00 0. -1.
</event>
<event>
 7    1  0.4630495E-010  0.4778727E+02  0.7816164E-02  0.1312668E+00
        -11   -1    0    0    0    0  0.00000000000E+00  0.00000000000E+00  0.45593999997E+02  0.45594000000E+02  0.51100000000E-03 0.  1.
         11   -1    0    0    0    0 -0.00000000000E+00 -0.00000000000E+00 -0.45593999997E+02  0.45594000000E+02  0.51100000000E-03 0. -1.
    9900012    2    1    2    0    0  0.19469265292E+02 -0.38703708347E+02 -0.25678546726E+01  0.47787271798E+02  0.20000003437E+02 0.  0.
        -12    1    1    2    0    0 -0.19469265292E+02  0.38703708347E+02  0.25678546726E+01  0.43400728202E+02  0.00000000000E+00 0.  1.
         11    1    3    3    0    0 -0.22317876037E+00 -0.27284596949E+01 -0.23943844764E+01  0.36369462943E+01  0.51100000000E-03 0. -1.
        -11    1    3    3    0    0  0.20601197007E+02 -0.22214127028E+02 -0.12073739306E+01  0.30320529511E+02  0.51100000000E-03 0.  1.
        -12    1    3    3    0    0 -0.90875295469E+00 -0.13761121624E+02  0.10339037344E+01  0.13829795993E+02  0.00000000000E+00 0.  1.
</event>
<event>
 7    1  0.4630495E-010  0.4778727E+02  0.7816164E-02  0.1312668E+00
        -11   -1    0    0    0    0  0.00000000000E+00  0.00000000000E+00  0.45593999997E+02  0.45594000000E+02  0.51100000000E-03 0.  1.
         11   -1    0    0    0    0 -0.00000000000E+00 -0.00000000000E+00 -0.45593999997E+02  0.45594000000E+02  0.51100000000E-03 0. -1.
    9900012    2    1    2    0    0 -0.48032328202E+00  0.35431390887E+02 -0.25060108608E+02  0.47787271733E+02  0.20000003141E+02 0.  0.
        -12    1    1    2    0    0  0.48032328202E+00 -0.35431390887E+02  0.25060108608E+02  0.43400728267E+02  0.00000000000E+00 0.  1.
         11    1    3    3    0    0 -0.21713829458E+01  0.10853119856E+01 -0.10841849801E+01  0.26586205701E+01  0.51100000000E-03 0. -1.
        -11    1    3    3    0    0  0.34839288829E+01  0.25913632601E+02 -0.25327484879E+02  0.36402412085E+02  0.51100000000E-03 0.  1.
        -12    1    3    3    0    0 -0.17928692191E+01  0.84324462998E+01  0.13515612507E+01  0.87262390783E+01  0.00000000000E+00 0.  1.
</event>
<event>
 7    1  0.4630495E-010  0.4778727E+02  0.7816164E-02  0.1312668E+00
        -11   -1    0    0    0    0  0.00000000000E+00  0.00000000000E+00  0.45593999997E+02  0.45594000000E+02  0.51100000000E-03 0. -1.
         11   -1    0    0    0    0 -0.00000000000E+00 -0.00000000000E+00 -0.45593999997E+02  0.45594000000E+02  0.51100000000E-03 0.  1.
    9900012    2    1    2    0    0 -0.38870430931E+02 -0.19289084812E+02  0.80252097153E+00  0.47787271509E+02  0.20000002118E+02 0.  0.
        -12    1    1    2    0    0  0.38870430931E+02  0.19289084812E+02 -0.80252097153E+00  0.43400728491E+02  0.00000000000E+00 0.  1.
         11    1    3    3    0    0 -0.79728360926E+00 -0.44824399488E+01  0.32123586492E+01  0.55719994078E+01  0.51100000000E-03 0. -1.
        -11    1    3    3    0    0 -0.14673862161E+02 -0.34714543175E+01  0.36582318901E+01  0.15516310342E+02  0.51100000000E-03 0.  1.
        -12    1    3    3    0    0 -0.23399285161E+02 -0.11335190545E+02 -0.60680695678E+01  0.26698961759E+02  0.00000000000E+00 0.  1.
</event>
<event>
 7    1  0.4630495E-010  0.4778727E+02  0.7816164E-02  0.1312668E+00
        -11   -1    0    0    0    0  0.00000000000E+00  0.00000000000E+00  0.45593999997E+02  0.45594000000E+02  0.51100000000E-03 0.  1.
         11   -1    0    0    0    0 -0.00000000000E+00 -0.00000000000E+00 -0.45593999997E+02  0.45594000000E+02  0.51100000000E-03 0. -1.
    9900012    2    1    2    0    0 -0.24689281618E+02 -0.36033172284E+01 -0.35511671496E+02  0.47787270348E+02  0.19999996824E+02 0.  0.
        -12    1    1    2    0    0  0.24689281618E+02  0.36033172284E+01  0.35511671496E+02  0.43400729652E+02  0.00000000000E+00 0.  1.
         11    1    3    3    0    0 -0.10404008558E+02 -0.76630160046E+01 -0.20885091389E+02  0.24559158189E+02  0.51100000000E-03 0. -1.
        -11    1    3    3    0    0 -0.10051963179E+01 -0.24235473004E+01 -0.29200552627E+00  0.26399372423E+01  0.51100000000E-03 0.  1.
         12    1    3    3    0    0 -0.13280076742E+02  0.64832460766E+01 -0.14334574582E+02  0.20588174917E+02  0.00000000000E+00 0. -1.
</event>
<event>
 7    1  0.4630495E-010  0.4778727E+02  0.7816164E-02  0.1312668E+00
        -11   -1    0    0    0    0  0.00000000000E+00  0.00000000000E+00  0.45593999997E+02  0.45594000000E+02  0.51100000000E-03 0.  1.
         11   -1    0    0    0    0 -0.00000000000E+00 -0.00000000000E+00 -0.45593999997E+02  0.45594000000E+02  0.51100000000E-03 0. -1.
    9900012    2    1    2    0    0  0.60749289550E+01  0.36281318411E+02 -0.23030073931E+02  0.47787272670E+02  0.20000007413E+02 0.  0.
        -12    1    1    2    0    0 -0.60749289550E+01 -0.36281318411E+02  0.23030073931E+02  0.43400727330E+02  0.00000000000E+00 0.  1.
         11    1    3    3    0    0 -0.58808061965E+01  0.71065328007E+01 -0.38131329639E+01  0.99813162073E+01  0.51100000000E-03 0. -1.
        -11    1    3    3    0    0  0.29071757621E+01  0.12107143985E+02 -0.35891982848E+01  0.12958277315E+02  0.51100000000E-03 0.  1.
        -12    1    3    3    0    0  0.90485593894E+01  0.17067641625E+02 -0.15627742683E+02  0.24847679148E+02  0.00000000000E+00 0.  1.
</event>
<event>
 7    1  0.4630495E-010  0.4778728E+02  0.7816164E-02  0.1312668E+00
        -11   -1    0    0    0    0  0.00000000000E+00  0.00000000000E+00  0.45593999997E+02  0.45594000000E+02  0.51100000000E-03 0.  1.
         11   -1    0    0    0    0 -0.00000000000E+00 -0.00000000000E+00 -0.45593999997E+02  0.45594000000E+02  0.51100000000E-03 0. -1.
    9900012    2    1    2    0    0 -0.31677150736E+02 -0.28638644597E+02 -0.77465387467E+01  0.47787277590E+02  0.20000029844E+02 0.  0.
        -12    1    1    2    0    0  0.31677150736E+02  0.28638644597E+02  0.77465387467E+01  0.43400722410E+02  0.00000000000E+00 0.  1.
         11    1    3    3    0    0 -0.19008073399E+02 -0.13099119003E+02 -0.16695384945E+01  0.23144786282E+02  0.51100000000E-03 0. -1.
        -11    1    3    3    0    0 -0.11173793245E+02 -0.36045900673E+01 -0.41958756075E+01  0.12468043046E+02  0.51100000000E-03 0.  1.
         12    1    3    3    0    0 -0.14952840934E+01 -0.11934935527E+02 -0.18811246447E+01  0.12174448262E+02  0.00000000000E+00 0. -1.
</event>
<event>
 7    1  0.5676767E-010  0.4778727E+02  0.7816164E-02  0.1312668E+00
        -11   -1    0    0    0    0  0.00000000000E+00  0.00000000000E+00  0.45593999997E+02  0.45594000000E+02  0.51100000000E-03 0.  1.
         11   -1    0    0    0    0 -0.00000000000E+00 -0.00000000000E+00 -0.45593999997E+02  0.45594000000E+02  0.51100000000E-03 0. -1.
    9900012    2    1    2    0    0 -0.41765870461E+02  0.97505937113E+01  0.66453727064E+01  0.47787274298E+02  0.20000014834E+02 0.  0.
        -12    1    1    2    0    0  0.41765870461E+02 -0.97505937113E+01 -0.66453727064E+01  0.43400725702E+02  0.00000000000E+00 0.  1.
         11    1    3    3    0    0 -0.30237076186E+02  0.95530810535E+01  0.12064013116E+02  0.33927607441E+02  0.51100000000E-03 0. -1.
        -11    1    3    3    0    0  0.40367365792E+00 -0.68109244683E+00 -0.33148139167E+00  0.85832366703E+00  0.51100000000E-03 0.  1.
         12    1    3    3    0    0 -0.11932467932E+02  0.87860510467E+00 -0.50871590179E+01  0.13001343190E+02  0.00000000000E+00 0. -1.
</event>
<event>
 7    1  0.4630495E-010  0.4778732E+02  0.7816164E-02  0.1312668E+00
        -11   -1    0    0    0    0  0.00000000000E+00  0.00000000000E+00  0.45593999997E+02  0.45594000000E+02  0.51100000000E-03 0.  1.
         11   -1    0    0    0    0 -0.00000000000E+00 -0.00000000000E+00 -0.45593999997E+02  0.45594000000E+02  0.51100000000E-03 0. -1.
    9900012    2    1    2    0    0 -0.43228216540E+02  0.38412506249E+01  0.43004295056E+00  0.47787322026E+02  0.20000232446E+02 0.  0.
        -12    1    1    2    0    0  0.43228216540E+02 -0.38412506249E+01 -0.43004295056E+00  0.43400677974E+02  0.00000000000E+00 0.  1.
         11    1    3    3    0    0  0.25118031545E+00  0.16513696850E+01  0.14044523707E+01  0.21823382208E+01  0.51100000000E-03 0. -1.
        -11    1    3    3    0    0 -0.14241899534E+02 -0.56536605225E+01 -0.39424496115E+00  0.15328111723E+02  0.51100000000E-03 0.  1.
         12    1    3    3    0    0 -0.29237497322E+02  0.78435414625E+01 -0.58016445894E+00  0.30276872082E+02  0.00000000000E+00 0. -1.
</event>
<event>
 7    1  0.4630495E-010  0.4778726E+02  0.7816164E-02  0.1312668E+00
        -11   -1    0    0    0    0  0.00000000000E+00  0.00000000000E+00  0.45593999997E+02  0.45594000000E+02  0.51100000000E-03 0.  1.
         11   -1    0    0    0    0 -0.00000000000E+00 -0.00000000000E+00 -0.45593999997E+02  0.45594000000E+02  0.51100000000E-03 0. -1.
    9900012    2    1    2    0    0 -0.11385706692E+02  0.81957483276E+01 -0.41070904566E+02  0.47787264875E+02  0.19999971869E+02 0.  0.
        -12    1    1    2    0    0  0.11385706692E+02 -0.81957483276E+01  0.41070904566E+02  0.43400735125E+02  0.00000000000E+00 0.  1.
         11    1    3    3    0    0 -0.16775081433E+01 -0.24698122766E+01 -0.17966461987E+02  0.18212846094E+02  0.51100000000E-03 0. -1.
        -11    1    3    3    0    0 -0.55759866659E+01 -0.82568879017E+00 -0.40430802236E+01  0.69368499502E+01  0.51100000000E-03 0.  1.
         12    1    3    3    0    0 -0.41322118825E+01  0.11491249394E+02 -0.19061362356E+02  0.22637568830E+02  0.00000000000E+00 0. -1.
</event>
<event>
 7    1  0.4630495E-010  0.4778727E+02  0.7816164E-02  0.1312668E+00
        -11   -1    0    0    0    0  0.00000000000E+00  0.00000000000E+00  0.45593999997E+02  0.45594000000E+02  0.51100000000E-03 0.  1.
         11   -1    0    0    0    0 -0.00000000000E+00 -0.00000000000E+00 -0.45593999997E+02  0.45594000000E+02  0.51100000000E-03 0. -1.
    9900012    2    1    2    0    0 -0.92119779106E+00  0.11906177343E+02 -0.41725503413E+02  0.47787270751E+02  0.19999998661E+02 0.  0.
        -12    1    1    2    0    0  0.92119779106E+00 -0.11906177343E+02  0.41725503413E+02  0.43400729249E+02  0.00000000000E+00 0.  1.
         11    1    3    3    0    0  0.46696137421E+00  0.41733354116E+01 -0.64504257801E+01  0.76969327910E+01  0.51100000000E-03 0. -1.
        -11    1    3    3    0    0 -0.59579938141E+01  0.43452633584E+01 -0.41745051760E+01  0.84738124637E+01  0.51100000000E-03 0.  1.
         12    1    3    3    0    0  0.45698346489E+01  0.33875785727E+01 -0.31100572457E+02  0.31616525496E+02  0.00000000000E+00 0. -1.
</event>
<event>
 7    1  0.4630495E-010  0.4778727E+02  0.7816164E-02  0.1312668E+00
        -11   -1    0    0    0    0  0.00000000000E+00  0.00000000000E+00  0.45593999997E+02  0.45594000000E+02  0.51100000000E-03 0.  1.
         11   -1    0    0    0    0 -0.00000000000E+00 -0.00000000000E+00 -0.45593999997E+02  0.45594000000E+02  0.51100000000E-03 0. -1.
    9900012    2    1    2    0    0  0.14388859912E+01 -0.29202681945E+02 -0.32074228759E+02  0.47787272170E+02  0.20000005133E+02 0.  0.
        -12    1    1    2    0    0 -0.14388859912E+01  0.29202681945E+02  0.32074228759E+02  0.43400727830E+02  0.00000000000E+00 0.  1.
         11    1    3    3    0    0  0.23834112982E+01 -0.62057863518E+01 -0.10695988515E+02  0.12593514372E+02  0.51100000000E-03 0. -1.
        -11    1    3    3    0    0 -0.35349674180E+01 -0.24637030964E+02 -0.19136643626E+02  0.31395707014E+02  0.51100000000E-03 0.  1.
        -12    1    3    3    0    0  0.25904421109E+01  0.16401353710E+01 -0.22415966184E+01  0.37980507849E+01  0.00000000000E+00 0.  1.
</event>
<event>
 7    1  0.4630495E-010  0.4778727E+02  0.7816164E-02  0.1312668E+00
        -11   -1    0    0    0    0  0.00000000000E+00  0.00000000000E+00  0.45593999997E+02  0.45594000000E+02  0.51100000000E-03 0.  1.
         11   -1    0    0    0    0 -0.00000000000E+00 -0.00000000000E+00 -0.45593999997E+02  0.45594000000E+02  0.51100000000E-03 0. -1.
    9900012    2    1    2    0    0 -0.19157629034E+02  0.21301388695E+02 -0.32601521365E+02  0.47787272980E+02  0.20000008826E+02 0.  0.
        -12    1    1    2    0    0  0.19157629034E+02 -0.21301388695E+02  0.32601521365E+02  0.43400727020E+02  0.00000000000E+00 0.  1.
         11    1    3    3    0    0 -0.29346517816E+01  0.48461941008E+01 -0.90722353214E+01  0.10695944667E+02  0.51100000000E-03 0. -1.
        -11    1    3    3    0    0 -0.12901757469E+02  0.12205565096E+02 -0.59928370725E+01  0.18744206080E+02  0.51100000000E-03 0.  1.
        -12    1    3    3    0    0 -0.33212197826E+01  0.42496294983E+01 -0.17536448971E+02  0.18347122233E+02  0.00000000000E+00 0.  1.
</event>
<event>
 7    1  0.4630495E-010  0.4778727E+02  0.7816164E-02  0.1312668E+00
        -11   -1    0    0    0    0  0.00000000000E+00  0.00000000000E+00  0.45593999997E+02  0.45594000000E+02  0.51100000000E-03 0. -1.
         11   -1    0    0    0    0 -0.00000000000E+00 -0.00000000000E+00 -0.45593999997E+02  0.45594000000E+02  0.51100000000E-03 0.  1.
    9900012    2    1    2    0    0  0.34793200429E+02 -0.92926169133E+01  0.24221964749E+02  0.47787273030E+02  0.20000009053E+02 0.  0.
        -12    1    1    2    0    0 -0.34793200429E+02  0.92926169133E+01 -0.24221964749E+02  0.43400726970E+02  0.00000000000E+00 0.  1.
         11    1    3    3    0    0  0.59193963188E+01  0.18071032879E+01  0.26606760807E+01  0.67367701861E+01  0.51100000000E-03 0. -1.
        -11    1    3    3    0    0  0.78766652867E+01  0.40559974139E+01  0.37479583726E+01  0.96197797939E+01  0.51100000000E-03 0.  1.
        -12    1    3    3    0    0  0.20997138824E+02 -0.15155717615E+02  0.17813330296E+02  0.31430723050E+02  0.00000000000E+00 0.  1.
</event>
<event>
 7    1  0.4630495E-010  0.4778727E+02  0.7816164E-02  0.1312668E+00
        -11   -1    0    0    0    0  0.00000000000E+00  0.00000000000E+00  0.45593999997E+02  0.45594000000E+02  0.51100000000E-03 0.  1.
         11   -1    0    0    0    0 -0.00000000000E+00 -0.00000000000E+00 -0.45593999997E+02  0.45594000000E+02  0.51100000000E-03 0. -1.
    9900012    2    1    2    0    0  0.36786901464E+01  0.47021279335E+01 -0.42988144068E+02  0.47787270759E+02  0.19999998697E+02 0.  0.
        -12    1    1    2    0    0 -0.36786901464E+01 -0.47021279335E+01  0.42988144068E+02  0.43400729241E+02  0.00000000000E+00 0.  1.
         11    1    3    3    0    0  0.34712503763E+01 -0.16656022588E+01 -0.58131586884E+01  0.69725622447E+01  0.51100000000E-03 0.  1.
        -11    1    3    3    0    0  0.72754387737E+01  0.92742749964E-01 -0.18621273797E+02  0.19992309738E+02  0.51100000000E-03 0. -1.
         12    1    3    3    0    0 -0.70679990036E+01  0.62749874423E+01 -0.18553711582E+02  0.20822398776E+02  0.00000000000E+00 0. -1.
</event>
<event>
 7    1  0.4630495E-010  0.4778727E+02  0.7816164E-02  0.1312668E+00
        -11   -1    0    0    0    0  0.00000000000E+00  0.00000000000E+00  0.45593999997E+02  0.45594000000E+02  0.51100000000E-03 0.  1.
         11   -1    0    0    0    0 -0.00000000000E+00 -0.00000000000E+00 -0.45593999997E+02  0.45594000000E+02  0.51100000000E-03 0. -1.
    9900012    2    1    2    0    0 -0.34327128504E+02  0.10567171272E+01 -0.26535918239E+02  0.47787270061E+02  0.19999995518E+02 0.  0.
        -12    1    1    2    0    0  0.34327128504E+02 -0.10567171272E+01  0.26535918239E+02  0.43400729939E+02  0.00000000000E+00 0.  1.
         11    1    3    3    0    0 -0.76320226565E+01  0.44213573714E+01 -0.42508151704E+01  0.97910980339E+01  0.51100000000E-03 0. -1.
        -11    1    3    3    0    0 -0.18797097429E+02  0.14361191476E+01 -0.69520997245E+01  0.20092909217E+02  0.51100000000E-03 0.  1.
        -12    1    3    3    0    0 -0.78980084187E+01 -0.48007593917E+01 -0.15333003344E+02  0.17903262811E+02  0.00000000000E+00 0.  1.
</event>
<event>
 7    1  0.4630495E-010  0.4778728E+02  0.7816164E-02  0.1312668E+00
        -11   -1    0    0    0    0  0.00000000000E+00  0.00000000000E+00  0.45593999997E+02  0.45594000000E+02  0.51100000000E-03 0. -1.
         11   -1    0    0    0    0 -0.00000000000E+00 -0.00000000000E+00 -0.45593999997E+02  0.45594000000E+02  0.51100000000E-03 0.  1.
    9900012    2    1    2    0    0 -0.35535630092E+02  0.18317573602E+02  0.16891062300E+02  0.47787280025E+02  0.20000040947E+02 0.  0.
        -12    1    1    2    0    0  0.35535630092E+02 -0.18317573602E+02 -0.16891062300E+02  0.43400719975E+02  0.00000000000E+00 0.  1.
         11    1    3    3    0    0 -0.12794954008E+01  0.26096357585E+01  0.76245227627E+00  0.30047697096E+01  0.51100000000E-03 0. -1.
        -11    1    3    3    0    0 -0.18444030660E+01 -0.35811277770E+01  0.10490688969E+01  0.41625526588E+01  0.51100000000E-03 0.  1.
         12    1    3    3    0    0 -0.32411731625E+02  0.19289065621E+02  0.15079541127E+02  0.40619957657E+02  0.00000000000E+00 0. -1.
</event>
<event>
 7    1  0.4630495E-010  0.4778727E+02  0.7816164E-02  0.1312668E+00
        -11   -1    0    0    0    0  0.00000000000E+00  0.00000000000E+00  0.45593999997E+02  0.45594000000E+02  0.51100000000E-03 0. -1.
         11   -1    0    0    0    0 -0.00000000000E+00 -0.00000000000E+00 -0.45593999997E+02  0.45594000000E+02  0.51100000000E-03 0.  1.
    9900012    2    1    2    0    0  0.72353983492E+01 -0.37359870015E+01  0.42629970927E+02  0.47787274092E+02  0.20000013894E+02 0.  0.
        -12    1    1    2    0    0 -0.72353983492E+01  0.37359870015E+01 -0.42629970927E+02  0.43400725908E+02  0.00000000000E+00 0.  1.
         11    1    3    3    0    0 -0.10857793123E+01 -0.34506371116E+00  0.14920714448E+01  0.18773020900E+01  0.51100000000E-03 0. -1.
        -11    1    3    3    0    0 -0.42015765653E+01 -0.52382675049E+01  0.80480657699E+01  0.10481605554E+02  0.51100000000E-03 0.  1.
         12    1    3    3    0    0  0.12522754227E+02  0.18473442145E+01  0.33089833712E+02  0.35428366448E+02  0.00000000000E+00 0. -1.
</event>
<event>
 7    1  0.4630495E-010  0.4778727E+02  0.7816164E-02  0.1312668E+00
        -11   -1    0    0    0    0  0.00000000000E+00  0.00000000000E+00  0.45593999997E+02  0.45594000000E+02  0.51100000000E-03 0. -1.
         11   -1    0    0    0    0 -0.00000000000E+00 -0.00000000000E+00 -0.45593999997E+02  0.45594000000E+02  0.51100000000E-03 0.  1.
    9900012    2    1    2    0    0 -0.39984151292E+02 -0.14434898502E+02 -0.87478479539E+01  0.47787268519E+02  0.19999988485E+02 0.  0.
        -12    1    1    2    0    0  0.39984151292E+02  0.14434898502E+02  0.87478479539E+01  0.43400731481E+02  0.00000000000E+00 0.  1.
         11    1    3    3    0    0 -0.21275064373E+02 -0.67331003313E+01  0.14283866939E+01  0.22360753407E+02  0.51100000000E-03 0. -1.
        -11    1    3    3    0    0 -0.79453603812E+01 -0.78955292623E+01 -0.93776457218E+00  0.11240442010E+02  0.51100000000E-03 0.  1.
         12    1    3    3    0    0 -0.10763726538E+02  0.19373109196E+00 -0.92384700755E+01  0.14186073102E+02  0.00000000000E+00 0. -1.
</event>
<event>
 7    1  0.4630495E-010  0.4778727E+02  0.7816164E-02  0.1312668E+00
        -11   -1    0    0    0    0  0.00000000000E+00  0.00000000000E+00  0.45593999997E+02  0.45594000000E+02  0.51100000000E-03 0.  1.
         11   -1    0    0    0    0 -0.00000000000E+00 -0.00000000000E+00 -0.45593999997E+02  0.45594000000E+02  0.51100000000E-03 0. -1.
    9900012    2    1    2    0    0 -0.40196265568E+02  0.81574922219E+01 -0.14189408418E+02  0.47787265488E+02  0.19999974665E+02 0.  0.
        -12    1    1    2    0    0  0.40196265568E+02 -0.81574922219E+01  0.14189408418E+02  0.43400734512E+02  0.00000000000E+00 0.  1.
         11    1    3    3    0    0 -0.11054921633E+02  0.23891292805E+01 -0.66179341398E+01  0.13104055997E+02  0.51100000000E-03 0. -1.
        -11    1    3    3    0    0 -0.34312882159E+01  0.71737518704E+01 -0.43469007663E+00  0.79640071850E+01  0.51100000000E-03 0.  1.
        -12    1    3    3    0    0 -0.25710055719E+02 -0.14053889290E+01 -0.71367842019E+01  0.26719202306E+02  0.00000000000E+00 0.  1.
</event>
<event>
 7    1  0.4630495E-010  0.4778727E+02  0.7816164E-02  0.1312668E+00
        -11   -1    0    0    0    0  0.00000000000E+00  0.00000000000E+00  0.45593999997E+02  0.45594000000E+02  0.51100000000E-03 0.  1.
         11   -1    0    0    0    0 -0.00000000000E+00 -0.00000000000E+00 -0.45593999997E+02  0.45594000000E+02  0.51100000000E-03 0. -1.
    9900012    2    1    2    0    0  0.97199557992E+01  0.39244829264E+02 -0.15779394189E+02  0.47787269065E+02  0.19999990974E+02 0.  0.
        -12    1    1    2    0    0 -0.97199557992E+01 -0.39244829264E+02  0.15779394189E+02  0.43400730935E+02  0.00000000000E+00 0.  1.
         11    1    3    3    0    0  0.27019731803E+01  0.22635051650E+01  0.14782422363E+01  0.38222133730E+01  0.51100000000E-03 0. -1.
        -11    1    3    3    0    0  0.67129690634E+01  0.10248647568E+02 -0.20134712629E+00  0.12253133132E+02  0.51100000000E-03 0.  1.
         12    1    3    3    0    0  0.30501355549E+00  0.26732676532E+02 -0.17056289299E+02  0.31711922560E+02  0.00000000000E+00 0. -1.
</event>
<event>
 7    1  0.4630495E-010  0.4778726E+02  0.7816164E-02  0.1312668E+00
        -11   -1    0    0    0    0  0.00000000000E+00  0.00000000000E+00  0.45593999997E+02  0.45594000000E+02  0.51100000000E-03 0.  1.
         11   -1    0    0    0    0 -0.00000000000E+00 -0.00000000000E+00 -0.45593999997E+02  0.45594000000E+02  0.51100000000E-03 0. -1.
    9900012    2    1    2    0    0 -0.28353973184E+02 -0.14638501162E+02 -0.29417526737E+02  0.47787258176E+02  0.19999941326E+02 0.  0.
        -12    1    1    2    0    0  0.28353973184E+02  0.14638501162E+02  0.29417526737E+02  0.43400741824E+02  0.00000000000E+00 0.  1.
         11    1    3    3    0    0 -0.81615882775E+00  0.13010457153E+01 -0.48868676048E+01  0.51225296908E+01  0.51100000000E-03 0.  1.
        -11    1    3    3    0    0 -0.19387512472E+02 -0.10088776956E+02 -0.24225500649E+02  0.32627196359E+02  0.51100000000E-03 0. -1.
        -12    1    3    3    0    0 -0.81503018842E+01 -0.58507699208E+01 -0.30515848318E+00  0.10037532125E+02  0.00000000000E+00 0.  1.
</event>
<event>
 7    1  0.4630495E-010  0.4778727E+02  0.7816164E-02  0.1312668E+00
        -11   -1    0    0    0    0  0.00000000000E+00  0.00000000000E+00  0.45593999997E+02  0.45594000000E+02  0.51100000000E-03 0. -1.
         11   -1    0    0    0    0 -0.00000000000E+00 -0.00000000000E+00 -0.45593999997E+02  0.45594000000E+02  0.51100000000E-03 0.  1.
    9900012    2    1    2    0    0  0.26933966759E+02  0.30866921680E+02  0.14332396469E+02  0.47787274108E+02  0.20000013968E+02 0.  0.
        -12    1    1    2    0    0 -0.26933966759E+02 -0.30866921680E+02 -0.14332396469E+02  0.43400725892E+02  0.00000000000E+00 0.  1.
         11    1    3    3    0    0  0.13812105167E+02  0.21480782283E+02  0.45941585780E+01  0.25948112647E+02  0.51100000000E-03 0. -1.
        -11    1    3    3    0    0  0.40375079461E+01  0.31257648820E+01 -0.22210931113E+01  0.55682251555E+01  0.51100000000E-03 0.  1.
        -12    1    3    3    0    0  0.90843536464E+01  0.62603745155E+01  0.11959331002E+02  0.16270936306E+02  0.00000000000E+00 0.  1.
</event>
<event>
 7    1  0.4630495E-010  0.4778728E+02  0.7816164E-02  0.1312668E+00
        -11   -1    0    0    0    0  0.00000000000E+00  0.00000000000E+00  0.45593999997E+02  0.45594000000E+02  0.51100000000E-03 0.  1.
         11   -1    0    0    0    0 -0.00000000000E+00 -0.00000000000E+00 -0.45593999997E+02  0.45594000000E+02  0.51100000000E-03 0. -1.
    9900012    2    1    2    0    0 -0.23117709742E+02 -0.15104170211E+02 -0.33482210199E+02  0.47787275798E+02  0.20000021671E+02 0.  0.
        -12    1    1    2    0    0  0.23117709742E+02  0.15104170211E+02  0.33482210199E+02  0.43400724202E+02  0.00000000000E+00 0.  1.
         11    1    3    3    0    0 -0.10366467929E+02 -0.21632927444E+01 -0.95302374977E+01  0.14246716107E+02  0.51100000000E-03 0. -1.
        -11    1    3    3    0    0 -0.13532392893E+02 -0.11691403255E+02 -0.12088198938E+02  0.21585623023E+02  0.51100000000E-03 0.  1.
        -12    1    3    3    0    0  0.78115107936E+00 -0.12494742122E+01 -0.11863773763E+02  0.11954936667E+02  0.00000000000E+00 0.  1.
</event>
<event>
 7    1  0.4630495E-010  0.4778727E+02  0.7816164E-02  0.1312668E+00
        -11   -1    0    0    0    0  0.00000000000E+00  0.00000000000E+00  0.45593999997E+02  0.45594000000E+02  0.51100000000E-03 0. -1.
         11   -1    0    0    0    0 -0.00000000000E+00 -0.00000000000E+00 -0.45593999997E+02  0.45594000000E+02  0.51100000000E-03 0.  1.
    9900012    2    1    2    0    0 -0.27793912369E+01  0.18841681992E+02  0.38998582694E+02  0.47787269038E+02  0.19999990850E+02 0.  0.
        -12    1    1    2    0    0  0.27793912369E+01 -0.18841681992E+02 -0.38998582694E+02  0.43400730962E+02  0.00000000000E+00 0.  1.
         11    1    3    3    0    0 -0.88066766204E+00  0.50488924433E+01  0.14548468827E+02  0.15424812346E+02  0.51100000000E-03 0. -1.
        -11    1    3    3    0    0  0.59143212509E+01  0.10931337147E+02  0.17805879821E+02  0.21714573083E+02  0.51100000000E-03 0.  1.
         12    1    3    3    0    0 -0.78130448258E+01  0.28614524018E+01  0.66442340452E+01  0.10647883609E+02  0.00000000000E+00 0. -1.
</event>
<event>
 7    1  0.4630495E-010  0.4778727E+02  0.7816164E-02  0.1312668E+00
        -11   -1    0    0    0    0  0.00000000000E+00  0.00000000000E+00  0.45593999997E+02  0.45594000000E+02  0.51100000000E-03 0. -1.
         11   -1    0    0    0    0 -0.00000000000E+00 -0.00000000000E+00 -0.45593999997E+02  0.45594000000E+02  0.51100000000E-03 0.  1.
    9900012    2    1    2    0    0  0.25312066723E+02 -0.33936921987E+02 -0.95502791997E+01  0.47787271567E+02  0.20000002383E+02 0.  0.
        -12    1    1    2    0    0 -0.25312066723E+02  0.33936921987E+02  0.95502791997E+01  0.43400728433E+02  0.00000000000E+00 0.  1.
         11    1    3    3    0    0  0.96337160285E+01 -0.13360520772E+02 -0.89285773299E+01  0.18735834468E+02  0.51100000000E-03 0. -1.
        -11    1    3    3    0    0  0.33834707042E+01 -0.27670092761E+01 -0.53412306989E+01  0.69016635662E+01  0.51100000000E-03 0.  1.
        -12    1    3    3    0    0  0.12294879990E+02 -0.17809391939E+02  0.47195288291E+01  0.22149773533E+02  0.00000000000E+00 0.  1.
</event>
<event>
 7    1  0.4630495E-010  0.4778727E+02  0.7816164E-02  0.1312668E+00
        -11   -1    0    0    0    0  0.00000000000E+00  0.00000000000E+00  0.45593999997E+02  0.45594000000E+02  0.51100000000E-03 0.  1.
         11   -1    0    0    0    0 -0.00000000000E+00 -0.00000000000E+00 -0.45593999997E+02  0.45594000000E+02  0.51100000000E-03 0. -1.
    9900012    2    1    2    0    0 -0.12902826834E+02  0.10096944055E+02 -0.40189450500E+02  0.47787272460E+02  0.20000006453E+02 0.  0.
        -12    1    1    2    0    0  0.12902826834E+02 -0.10096944055E+02  0.40189450500E+02  0.43400727540E+02  0.00000000000E+00 0.  1.
         11    1    3    3    0    0 -0.21563850324E+01 -0.78023458214E+00 -0.67773319681E+00  0.23912517556E+01  0.51100000000E-03 0. -1.
        -11    1    3    3    0    0  0.16907500068E+01  0.65352063510E+01 -0.48404033623E+01  0.83064470507E+01  0.51100000000E-03 0.  1.
         12    1    3    3    0    0 -0.12437191808E+02  0.43419722857E+01 -0.34671313941E+02  0.37089573653E+02  0.00000000000E+00 0. -1.
</event>
<event>
 7    1  0.4630495E-010  0.4778728E+02  0.7816164E-02  0.1312668E+00
        -11   -1    0    0    0    0  0.00000000000E+00  0.00000000000E+00  0.45593999997E+02  0.45594000000E+02  0.51100000000E-03 0.  1.
         11   -1    0    0    0    0 -0.00000000000E+00 -0.00000000000E+00 -0.45593999997E+02  0.45594000000E+02  0.51100000000E-03 0. -1.
    9900012    2    1    2    0    0 -0.30323963468E+02 -0.21138307239E+02 -0.22743176290E+02  0.47787275800E+02  0.20000021680E+02 0.  0.
        -12    1    1    2    0    0  0.30323963468E+02  0.21138307239E+02  0.22743176290E+02  0.43400724200E+02  0.00000000000E+00 0.  1.
         11    1    3    3    0    0 -0.17161155771E+00 -0.21919163422E+01 -0.13207174718E+01  0.25648085074E+01  0.51100000000E-03 0.  1.
        -11    1    3    3    0    0 -0.70543042893E+01 -0.43199599831E+01 -0.15013902233E+02  0.17141835485E+02  0.51100000000E-03 0. -1.
         12    1    3    3    0    0 -0.23098047621E+02 -0.14626430914E+02 -0.64085565851E+01  0.28080631807E+02  0.00000000000E+00 0. -1.
</event>
<event>
 7    1  0.4630495E-010  0.4778728E+02  0.7816164E-02  0.1312668E+00
        -11   -1    0    0    0    0  0.00000000000E+00  0.00000000000E+00  0.45593999997E+02  0.45594000000E+02  0.51100000000E-03 0.  1.
         11   -1    0    0    0    0 -0.00000000000E+00 -0.00000000000E+00 -0.45593999997E+02  0.45594000000E+02  0.51100000000E-03 0. -1.
    9900012    2    1    2    0    0  0.50402301156E+01 -0.27451999637E+02 -0.33235620030E+02  0.47787278319E+02  0.20000033168E+02 0.  0.
        -12    1    1    2    0    0 -0.50402301156E+01  0.27451999637E+02  0.33235620030E+02  0.43400721681E+02  0.00000000000E+00 0.  1.
         11    1    3    3    0    0  0.41045863235E+01 -0.20115773316E+02 -0.14963820952E+02  0.25404879506E+02  0.51100000000E-03 0. -1.
        -11    1    3    3    0    0 -0.19326299076E+00  0.12267501872E+01  0.77841123959E+00  0.14656708104E+01  0.51100000000E-03 0.  1.
        -12    1    3    3    0    0  0.11289067829E+01 -0.85629765084E+01 -0.19050210317E+02  0.20916728002E+02  0.00000000000E+00 0.  1.
</event>
<event>
 7    1  0.4630495E-010  0.4778727E+02  0.7816164E-02  0.1312668E+00
        -11   -1    0    0    0    0  0.00000000000E+00  0.00000000000E+00  0.45593999997E+02  0.45594000000E+02  0.51100000000E-03 0.  1.
         11   -1    0    0    0    0 -0.00000000000E+00 -0.00000000000E+00 -0.45593999997E+02  0.45594000000E+02  0.51100000000E-03 0. -1.
    9900012    2    1    2    0    0 -0.35658883100E+02  0.12541564818E+02 -0.21325493513E+02  0.47787268836E+02  0.19999989931E+02 0.  0.
        -12    1    1    2    0    0  0.35658883100E+02 -0.12541564818E+02  0.21325493513E+02  0.43400731164E+02  0.00000000000E+00 0.  1.
         11    1    3    3    0    0 -0.18636014707E+02  0.45898330841E+01 -0.82459167534E+01  0.20889297625E+02  0.51100000000E-03 0. -1.
        -11    1    3    3    0    0 -0.77892723828E+01 -0.37106743415E+01 -0.48929091883E+01  0.99187917061E+01  0.51100000000E-03 0.  1.
        -12    1    3    3    0    0 -0.92335960102E+01  0.11662406076E+02 -0.81866675709E+01  0.16979179505E+02  0.00000000000E+00 0.  1.
</event>
<event>
 7    1  0.4630495E-010  0.4778727E+02  0.7816164E-02  0.1312668E+00
        -11   -1    0    0    0    0  0.00000000000E+00  0.00000000000E+00  0.45593999997E+02  0.45594000000E+02  0.51100000000E-03 0.  1.
         11   -1    0    0    0    0 -0.00000000000E+00 -0.00000000000E+00 -0.45593999997E+02  0.45594000000E+02  0.51100000000E-03 0. -1.
    9900012    2    1    2    0    0 -0.61933914693E+01  0.14684689477E+02 -0.40368615990E+02  0.47787270054E+02  0.19999995482E+02 0.  0.
        -12    1    1    2    0    0  0.61933914693E+01 -0.14684689477E+02  0.40368615990E+02  0.43400729946E+02  0.00000000000E+00 0.  1.
         11    1    3    3    0    0  0.98599419570E+00  0.30324188568E+01 -0.26176134123E+01  0.41254877184E+01  0.51100000000E-03 0. -1.
        -11    1    3    3    0    0 -0.76471104549E+01  0.15838409028E+02 -0.28385813802E+02  0.33392932251E+02  0.51100000000E-03 0.  1.
        -12    1    3    3    0    0  0.46772478994E+00 -0.41861384077E+01 -0.93651887759E+01  0.10268850084E+02  0.00000000000E+00 0.  1.
</event>
<event>
 7    1  0.4630495E-010  0.4778727E+02  0.7816164E-02  0.1312668E+00
        -11   -1    0    0    0    0  0.00000000000E+00  0.00000000000E+00  0.45593999997E+02  0.45594000000E+02  0.51100000000E-03 0. -1.
         11   -1    0    0    0    0 -0.00000000000E+00 -0.00000000000E+00 -0.45593999997E+02  0.45594000000E+02  0.51100000000E-03 0.  1.
    9900012    2    1    2    0    0  0.23823845995E+02 -0.24571139096E+02 -0.26689077785E+02  0.47787269736E+02  0.19999994032E+02 0.  0.
        -12    1    1    2    0    0 -0.23823845995E+02  0.24571139096E+02  0.26689077785E+02  0.43400730264E+02  0.00000000000E+00 0.  1.
         11    1    3    3    0    0  0.20186485709E+02 -0.13404350083E+02 -0.89987488282E+01  0.25848564508E+02  0.51100000000E-03 0. -1.
        -11    1    3    3    0    0  0.20737097720E+01 -0.91953676819E+00 -0.54224409504E+01  0.58778130464E+01  0.51100000000E-03 0.  1.
         12    1    3    3    0    0  0.15636505143E+01 -0.10247252245E+02 -0.12267888006E+02  0.16060892181E+02  0.00000000000E+00 0. -1.
</event>
<event>
 7    1  0.4630495E-010  0.4778727E+02  0.7816164E-02  0.1312668E+00
        -11   -1    0    0    0    0  0.00000000000E+00  0.00000000000E+00  0.45593999997E+02  0.45594000000E+02  0.51100000000E-03 0.  1.
         11   -1    0    0    0    0 -0.00000000000E+00 -0.00000000000E+00 -0.45593999997E+02  0.45594000000E+02  0.51100000000E-03 0. -1.
    9900012    2    1    2    0    0 -0.38091434013E+02  0.21316868805E+01 -0.20691104517E+02  0.47787271431E+02  0.20000001765E+02 0.  0.
        -12    1    1    2    0    0  0.38091434013E+02 -0.21316868805E+01  0.20691104517E+02  0.43400728569E+02  0.00000000000E+00 0.  1.
         11    1    3    3    0    0 -0.22295529822E+02 -0.79894997845E+00 -0.46336155616E+01  0.22785946645E+02  0.51100000000E-03 0. -1.
        -11    1    3    3    0    0 -0.18217203978E+01 -0.26923043222E+01 -0.40112647054E+00  0.32753733341E+01  0.51100000000E-03 0.  1.
        -12    1    3    3    0    0 -0.13974183794E+02  0.56229411812E+01 -0.15656362485E+02  0.21725951452E+02  0.00000000000E+00 0.  1.
</event>
<event>
 7    1  0.4630495E-010  0.4778727E+02  0.7816164E-02  0.1312668E+00
        -11   -1    0    0    0    0  0.00000000000E+00  0.00000000000E+00  0.45593999997E+02  0.45594000000E+02  0.51100000000E-03 0.  1.
         11   -1    0    0    0    0 -0.00000000000E+00 -0.00000000000E+00 -0.45593999997E+02  0.45594000000E+02  0.51100000000E-03 0. -1.
    9900012    2    1    2    0    0  0.29575954937E+02  0.11581602273E+02 -0.29576215139E+02  0.47787272776E+02  0.20000007895E+02 0.  0.
        -12    1    1    2    0    0 -0.29575954937E+02 -0.11581602273E+02  0.29576215139E+02  0.43400727224E+02  0.00000000000E+00 0.  1.
         11    1    3    3    0    0  0.69110112376E+01 -0.46743466962E+01 -0.99377834590E+01  0.12975790292E+02  0.51100000000E-03 0. -1.
        -11    1    3    3    0    0  0.33237576052E+01  0.43366258930E-01 -0.36449841802E+01  0.49330675229E+01  0.51100000000E-03 0.  1.
        -12    1    3    3    0    0  0.19341186094E+02  0.16212582710E+02 -0.15993447500E+02  0.29878414961E+02  0.00000000000E+00 0.  1.
</event>
<event>
 7    1  0.4630495E-010  0.4778727E+02  0.7816164E-02  0.1312668E+00
        -11   -1    0    0    0    0  0.00000000000E+00  0.00000000000E+00  0.45593999997E+02  0.45594000000E+02  0.51100000000E-03 0. -1.
         11   -1    0    0    0    0 -0.00000000000E+00 -0.00000000000E+00 -0.45593999997E+02  0.45594000000E+02  0.51100000000E-03 0.  1.
    9900012    2    1    2    0    0  0.39490452371E+02  0.17737287664E+02 -0.30848292235E+01  0.47787269897E+02  0.19999994769E+02 0.  0.
        -12    1    1    2    0    0 -0.39490452371E+02 -0.17737287664E+02  0.30848292235E+01  0.43400730103E+02  0.00000000000E+00 0.  1.
         11    1    3    3    0    0  0.22014380187E+01 -0.38236348306E+00 -0.13556696083E+01  0.26134979494E+01  0.51100000000E-03 0. -1.
        -11    1    3    3    0    0  0.21305958914E+01 -0.13149718099E+01 -0.42388899045E+01  0.49230861862E+01  0.51100000000E-03 0.  1.
         12    1    3    3    0    0  0.35158418461E+02  0.19434622957E+02  0.25097302893E+01  0.40250685761E+02  0.00000000000E+00 0. -1.
</event>
<event>
 7    1  0.4630495E-010  0.4778726E+02  0.7816164E-02  0.1312668E+00
        -11   -1    0    0    0    0  0.00000000000E+00  0.00000000000E+00  0.45593999997E+02  0.45594000000E+02  0.51100000000E-03 0.  1.
         11   -1    0    0    0    0 -0.00000000000E+00 -0.00000000000E+00 -0.45593999997E+02  0.45594000000E+02  0.51100000000E-03 0. -1.
    9900012    2    1    2    0    0  0.40715001745E+01 -0.20518730599E+01 -0.43160596301E+02  0.47787258419E+02  0.19999942435E+02 0.  0.
        -12    1    1    2    0    0 -0.40715001745E+01  0.20518730599E+01  0.43160596301E+02  0.43400741581E+02  0.00000000000E+00 0.  1.
         11    1    3    3    0    0  0.33995311283E+01  0.58385785199E+01 -0.10748147992E+02  0.12695215498E+02  0.51100000000E-03 0. -1.
        -11    1    3    3    0    0 -0.14039248812E+01 -0.11134782604E+01  0.12052592073E+00  0.17959303069E+01  0.51100000000E-03 0.  1.
         12    1    3    3    0    0  0.20758939275E+01 -0.67769733195E+01 -0.32532974230E+02  0.33296112614E+02  0.00000000000E+00 0. -1.
</event>
<event>
 7    1  0.4630495E-010  0.4778726E+02  0.7816164E-02  0.1312668E+00
        -11   -1    0    0    0    0  0.00000000000E+00  0.00000000000E+00  0.45593999997E+02  0.45594000000E+02  0.51100000000E-03 0. -1.
         11   -1    0    0    0    0 -0.00000000000E+00 -0.00000000000E+00 -0.45593999997E+02  0.45594000000E+02  0.51100000000E-03 0.  1.
    9900012    2    1    2    0    0 -0.13426641128E+02  0.16754526564E+02  0.37717833673E+02  0.47787264645E+02  0.19999970822E+02 0.  0.
        -12    1    1    2    0    0  0.13426641128E+02 -0.16754526564E+02 -0.37717833673E+02  0.43400735355E+02  0.00000000000E+00 0.  1.
         11    1    3    3    0    0 -0.53545135007E+01  0.36150082489E+01  0.45322296382E+01  0.78917808651E+01  0.51100000000E-03 0. -1.
        -11    1    3    3    0    0  0.12335524247E+01 -0.30588571583E+01  0.68999200591E+01  0.76476895716E+01  0.51100000000E-03 0.  1.
        -12    1    3    3    0    0 -0.93056800525E+01  0.16198375474E+02  0.26285683976E+02  0.32247794208E+02  0.00000000000E+00 0.  1.
</event>
<event>
 7    1  0.4630495E-010  0.4778726E+02  0.7816164E-02  0.1312668E+00
        -11   -1    0    0    0    0  0.00000000000E+00  0.00000000000E+00  0.45593999997E+02  0.45594000000E+02  0.51100000000E-03 0. -1.
         11   -1    0    0    0    0 -0.00000000000E+00 -0.00000000000E+00 -0.45593999997E+02  0.45594000000E+02  0.51100000000E-03 0.  1.
    9900012    2    1    2    0    0 -0.28407675323E+02  0.32480703535E+02  0.46509915316E+01  0.47787264504E+02  0.19999970181E+02 0.  0.
        -12    1    1    2    0    0  0.28407675323E+02 -0.32480703535E+02 -0.46509915316E+01  0.43400735496E+02  0.00000000000E+00 0.  1.
         11    1    3    3    0    0 -0.10137010872E+02  0.19792238878E+02  0.69459277264E+01  0.23296729845E+02  0.51100000000E-03 0. -1.
        -11    1    3    3    0    0 -0.35866025215E+01  0.73323696216E+01 -0.33529259219E+01  0.88243682161E+01  0.51100000000E-03 0.  1.
         12    1    3    3    0    0 -0.14684061929E+02  0.53560950352E+01  0.10579897271E+01  0.15666166443E+02  0.00000000000E+00 0. -1.
</event>
<event>
 7    1  0.4630495E-010  0.4778727E+02  0.7816164E-02  0.1312668E+00
        -11   -1    0    0    0    0  0.00000000000E+00  0.00000000000E+00  0.45593999997E+02  0.45594000000E+02  0.51100000000E-03 0.  1.
         11   -1    0    0    0    0 -0.00000000000E+00 -0.00000000000E+00 -0.45593999997E+02  0.45594000000E+02  0.51100000000E-03 0. -1.
    9900012    2    1    2    0    0  0.38658947834E+02 -0.45786585471E+01 -0.19187098811E+02  0.47787272789E+02  0.20000007953E+02 0.  0.
        -12    1    1    2    0    0 -0.38658947834E+02  0.45786585471E+01  0.19187098811E+02  0.43400727211E+02  0.00000000000E+00 0.  1.
         11    1    3    3    0    0  0.22645746761E+02 -0.48936329850E+01 -0.35942651176E+01  0.23445601552E+02  0.51100000000E-03 0. -1.
        -11    1    3    3    0    0  0.15471238577E+02 -0.49929123174E+00 -0.94810309596E+01  0.18152092529E+02  0.51100000000E-03 0.  1.
        -12    1    3    3    0    0  0.54196249542E+00  0.81426566962E+00 -0.61118027335E+01  0.61895787078E+01  0.00000000000E+00 0.  1.
</event>
<event>
 7    1  0.4630495E-010  0.4778726E+02  0.7816164E-02  0.1312668E+00
        -11   -1    0    0    0    0  0.00000000000E+00  0.00000000000E+00  0.45593999997E+02  0.45594000000E+02  0.51100000000E-03 0.  1.
         11   -1    0    0    0    0 -0.00000000000E+00 -0.00000000000E+00 -0.45593999997E+02  0.45594000000E+02  0.51100000000E-03 0. -1.
    9900012    2    1    2    0    0  0.83898718309E+01 -0.27494252043E+02 -0.32516150214E+02  0.47787264183E+02  0.19999968715E+02 0.  0.
        -12    1    1    2    0    0 -0.83898718309E+01  0.27494252043E+02  0.32516150214E+02  0.43400735817E+02  0.00000000000E+00 0.  1.
         11    1    3    3    0    0  0.46848189797E+01 -0.22776605216E+02 -0.20904795162E+02  0.31268702164E+02  0.51100000000E-03 0. -1.
        -11    1    3    3    0    0 -0.26357187533E+01 -0.37984792848E+01 -0.21669753548E+01  0.51060004576E+01  0.51100000000E-03 0.  1.
        -12    1    3    3    0    0  0.63407716045E+01 -0.91916754219E+00 -0.94443796976E+01  0.11412561561E+02  0.00000000000E+00 0.  1.
</event>
<event>
 7    1  0.4630495E-010  0.4778728E+02  0.7816164E-02  0.1312668E+00
        -11   -1    0    0    0    0  0.00000000000E+00  0.00000000000E+00  0.45593999997E+02  0.45594000000E+02  0.51100000000E-03 0. -1.
         11   -1    0    0    0    0 -0.00000000000E+00 -0.00000000000E+00 -0.45593999997E+02  0.45594000000E+02  0.51100000000E-03 0.  1.
    9900012    2    1    2    0    0 -0.28414558195E+02  0.53432816030E+01  0.32367956047E+02  0.47787281638E+02  0.20000048298E+02 0.  0.
        -12    1    1    2    0    0  0.28414558195E+02 -0.53432816030E+01 -0.32367956047E+02  0.43400718362E+02  0.00000000000E+00 0.  1.
         11    1    3    3    0    0 -0.19601264690E+02  0.98097849190E+01  0.12692815774E+02  0.25328818175E+02  0.51100000000E-03 0. -1.
        -11    1    3    3    0    0 -0.20333645509E+01 -0.13067156094E+01  0.16051931410E+01  0.29015034658E+01  0.51100000000E-03 0.  1.
         12    1    3    3    0    0 -0.67799289544E+01 -0.31597877066E+01  0.18069947132E+02  0.19556959997E+02  0.00000000000E+00 0. -1.
</event>
<event>
 7    1  0.4630495E-010  0.4778726E+02  0.7816164E-02  0.1312668E+00
        -11   -1    0    0    0    0  0.00000000000E+00  0.00000000000E+00  0.45593999997E+02  0.45594000000E+02  0.51100000000E-03 0. -1.
         11   -1    0    0    0    0 -0.00000000000E+00 -0.00000000000E+00 -0.45593999997E+02  0.45594000000E+02  0.51100000000E-03 0.  1.
    9900012    2    1    2    0    0  0.96891814407E+01  0.35571158536E+02  0.22900573368E+02  0.47787264785E+02  0.19999971462E+02 0.  0.
        -12    1    1    2    0    0 -0.96891814407E+01 -0.35571158536E+02 -0.22900573368E+02  0.43400735215E+02  0.00000000000E+00 0.  1.
         11    1    3    3    0    0  0.96921197042E+01  0.70557488019E+01  0.50283286415E+01  0.13000187103E+02  0.51100000000E-03 0. -1.
        -11    1    3    3    0    0 -0.12188991654E+01  0.31704296395E+00 -0.19593810755E+00  0.12746071628E+01  0.51100000000E-03 0.  1.
        -12    1    3    3    0    0  0.12159609019E+01  0.28198366770E+02  0.18068182834E+02  0.33512470520E+02  0.00000000000E+00 0.  1.
</event>
<event>
 7    1  0.4630495E-010  0.4778727E+02  0.7816164E-02  0.1312668E+00
        -11   -1    0    0    0    0  0.00000000000E+00  0.00000000000E+00  0.45593999997E+02  0.45594000000E+02  0.51100000000E-03 0.  1.
         11   -1    0    0    0    0 -0.00000000000E+00 -0.00000000000E+00 -0.45593999997E+02  0.45594000000E+02  0.51100000000E-03 0. -1.
    9900012    2    1    2    0    0 -0.38276761355E+01  0.31721261931E+02 -0.29372326397E+02  0.47787272805E+02  0.20000008026E+02 0.  0.
        -12    1    1    2    0    0  0.38276761355E+01 -0.31721261931E+02  0.29372326397E+02  0.43400727195E+02  0.00000000000E+00 0.  1.
         11    1    3    3    0    0 -0.20513573859E+01  0.20058113890E+02 -0.20648944161E+02  0.28860264988E+02  0.51100000000E-03 0. -1.
        -11    1    3    3    0    0 -0.59224150083E+01  0.11136129109E+02 -0.67377796415E+01  0.14299861741E+02  0.51100000000E-03 0.  1.
        -12    1    3    3    0    0  0.41460962587E+01  0.52701893238E+00 -0.19856025945E+01  0.46271460756E+01  0.00000000000E+00 0.  1.
</event>
<event>
 7    1  0.4630495E-010  0.4778727E+02  0.7816164E-02  0.1312668E+00
        -11   -1    0    0    0    0  0.00000000000E+00  0.00000000000E+00  0.45593999997E+02  0.45594000000E+02  0.51100000000E-03 0. -1.
         11   -1    0    0    0    0 -0.00000000000E+00 -0.00000000000E+00 -0.45593999997E+02  0.45594000000E+02  0.51100000000E-03 0.  1.
    9900012    2    1    2    0    0  0.62056583756E+01 -0.42394910937E+01  0.42745057541E+02  0.47787269305E+02  0.19999992071E+02 0.  0.
        -12    1    1    2    0    0 -0.62056583756E+01  0.42394910937E+01 -0.42745057541E+02  0.43400730695E+02  0.00000000000E+00 0.  1.
         11    1    3    3    0    0 -0.21527795149E+01  0.39766817728E+00  0.12969048432E+02  0.13152521321E+02  0.51100000000E-03 0. -1.
        -11    1    3    3    0    0 -0.34941367109E+01  0.19832903418E+01  0.84080183761E+01  0.93186482500E+01  0.51100000000E-03 0.  1.
        -12    1    3    3    0    0  0.11852574601E+02 -0.66204496128E+01  0.21367990733E+02  0.25316099734E+02  0.00000000000E+00 0.  1.
</event>
<event>
 7    1  0.4630495E-010  0.4778727E+02  0.7816164E-02  0.1312668E+00
        -11   -1    0    0    0    0  0.00000000000E+00  0.00000000000E+00  0.45593999997E+02  0.45594000000E+02  0.51100000000E-03 0.  1.
         11   -1    0    0    0    0 -0.00000000000E+00 -0.00000000000E+00 -0.45593999997E+02  0.45594000000E+02  0.51100000000E-03 0. -1.
    9900012    2    1    2    0    0  0.23379827719E+01  0.34543701285E+02 -0.26170399025E+02  0.47787271353E+02  0.20000001407E+02 0.  0.
        -12    1    1    2    0    0 -0.23379827719E+01 -0.34543701285E+02  0.26170399025E+02  0.43400728647E+02  0.00000000000E+00 0.  1.
         11    1    3    3    0    0  0.31109972950E+01  0.58415474540E+01 -0.87965453982E+01  0.11008232920E+02  0.51100000000E-03 0. -1.
        -11    1    3    3    0    0  0.59834257972E+01  0.58534156324E+01 -0.26947261578E+01  0.87934866898E+01  0.51100000000E-03 0.  1.
        -12    1    3    3    0    0 -0.67564403203E+01  0.22848738199E+02 -0.14679127469E+02  0.27985551743E+02  0.00000000000E+00 0.  1.
</event>
<event>
 7    1  0.4630495E-010  0.4778727E+02  0.7816164E-02  0.1312668E+00
        -11   -1    0    0    0    0  0.00000000000E+00  0.00000000000E+00  0.45593999997E+02  0.45594000000E+02  0.51100000000E-03 0.  1.
         11   -1    0    0    0    0 -0.00000000000E+00 -0.00000000000E+00 -0.45593999997E+02  0.45594000000E+02  0.51100000000E-03 0. -1.
    9900012    2    1    2    0    0  0.20473487670E+02  0.22381610971E+02  0.31040667980E+02  0.47787271024E+02  0.19999999907E+02 0.  0.
        -12    1    1    2    0    0 -0.20473487670E+02 -0.22381610971E+02 -0.31040667980E+02  0.43400728976E+02  0.00000000000E+00 0.  1.
         11    1    3    3    0    0  0.22125013864E+02  0.11465228193E+02  0.19945840904E+02  0.31918713408E+02  0.51100000000E-03 0. -1.
        -11    1    3    3    0    0 -0.25116533932E+00  0.84716606665E+00  0.21613679862E+01  0.23350131060E+01  0.51100000000E-03 0.  1.
         12    1    3    3    0    0 -0.14003608543E+01  0.10069216712E+02  0.89334590893E+01  0.13533544510E+02  0.00000000000E+00 0. -1.
</event>
<event>
 7    1  0.4630495E-010  0.4778726E+02  0.7816164E-02  0.1312668E+00
        -11   -1    0    0    0    0  0.00000000000E+00  0.00000000000E+00  0.45593999997E+02  0.45594000000E+02  0.51100000000E-03 0. -1.
         11   -1    0    0    0    0 -0.00000000000E+00 -0.00000000000E+00 -0.45593999997E+02  0.45594000000E+02  0.51100000000E-03 0.  1.
    9900012    2    1    2    0    0 -0.85049151731E+01 -0.41121029551E+02  0.10970492773E+02  0.47787258472E+02  0.19999942678E+02 0.  0.
        -12    1    1    2    0    0  0.85049151731E+01  0.41121029551E+02 -0.10970492773E+02  0.43400741528E+02  0.00000000000E+00 0.  1.
         11    1    3    3    0    0  0.25577136180E+01 -0.10136948604E+02 -0.15750379531E+01  0.10572623646E+02  0.51100000000E-03 0.  1.
        -11    1    3    3    0    0  0.17116326244E+01 -0.12069712611E+02  0.49951033735E+01  0.13174168161E+02  0.51100000000E-03 0. -1.
        -12    1    3    3    0    0 -0.12774261415E+02 -0.18914368336E+02  0.75504273525E+01  0.24040466665E+02  0.00000000000E+00 0.  1.
</event>
<event>
 7    1  0.4630495E-010  0.4778727E+02  0.7816164E-02  0.1312668E+00
        -11   -1    0    0    0    0  0.00000000000E+00  0.00000000000E+00  0.45593999997E+02  0.45594000000E+02  0.51100000000E-03 0.  1.
         11   -1    0    0    0    0 -0.00000000000E+00 -0.00000000000E+00 -0.45593999997E+02  0.45594000000E+02  0.51100000000E-03 0. -1.
    9900012    2    1    2    0    0  0.83265470741E+01  0.74098317635E+00 -0.42588059627E+02  0.47787271146E+02  0.20000000465E+02 0.  0.
        -12    1    1    2    0    0 -0.83265470741E+01 -0.74098317635E+00  0.42588059627E+02  0.43400728854E+02  0.00000000000E+00 0.  1.
         11    1    3    3    0    0  0.73521160416E+01 -0.42633827111E+01 -0.55950078687E+01  0.10175173499E+02  0.51100000000E-03 0. -1.
        -11    1    3    3    0    0  0.15273046673E+01  0.21650366556E+01 -0.70803121910E+01  0.75598190620E+01  0.51100000000E-03 0.  1.
        -12    1    3    3    0    0 -0.55287363468E+00  0.28393292319E+01 -0.29912739567E+02  0.30052278585E+02  0.00000000000E+00 0.  1.
</event>
<event>
 7    1  0.4630495E-010  0.4778728E+02  0.7816164E-02  0.1312668E+00
        -11   -1    0    0    0    0  0.00000000000E+00  0.00000000000E+00  0.45593999997E+02  0.45594000000E+02  0.51100000000E-03 0.  1.
         11   -1    0    0    0    0 -0.00000000000E+00 -0.00000000000E+00 -0.45593999997E+02  0.45594000000E+02  0.51100000000E-03 0. -1.
    9900012    2    1    2    0    0  0.95313358382E+01 -0.41228899750E+02 -0.96412745345E+01  0.47787277516E+02  0.20000029506E+02 0.  0.
        -12    1    1    2    0    0 -0.95313358382E+01  0.41228899750E+02  0.96412745345E+01  0.43400722484E+02  0.00000000000E+00 0.  1.
         11    1    3    3    0    0  0.63947054608E+01 -0.10623105801E+02 -0.68633192162E+01  0.14172077678E+02  0.51100000000E-03 0. -1.
        -11    1    3    3    0    0  0.33125550756E+01 -0.22465510776E+02 -0.78447320260E+01  0.24025237072E+02  0.51100000000E-03 0.  1.
         12    1    3    3    0    0 -0.17592469819E+00 -0.81402831735E+01  0.50667767077E+01  0.95899627658E+01  0.00000000000E+00 0. -1.
</event>
<event>
 7    1  0.4636810E-010  0.4778727E+02  0.7816164E-02  0.1312668E+00
        -11   -1    0    0    0    0  0.00000000000E+00  0.00000000000E+00  0.45593999997E+02  0.45594000000E+02  0.51100000000E-03 0.  1.
         11   -1    0    0    0    0 -0.00000000000E+00 -0.00000000000E+00 -0.45593999997E+02  0.45594000000E+02  0.51100000000E-03 0. -1.
    9900012    2    1    2    0    0 -0.30116751209E+02 -0.28610041891E+02 -0.12572600262E+02  0.47787268696E+02  0.19999989294E+02 0.  0.
        -12    1    1    2    0    0  0.30116751209E+02  0.28610041891E+02  0.12572600262E+02  0.43400731304E+02  0.00000000000E+00 0.  1.
         11    1    3    3    0    0 -0.16934294779E+02 -0.86960652695E+01 -0.48372161264E+01  0.19641551643E+02  0.51100000000E-03 0. -1.
        -11    1    3    3    0    0 -0.55630157903E+01 -0.50253083022E+01 -0.85869485814E+01  0.11398971639E+02  0.51100000000E-03 0.  1.
         12    1    3    3    0    0 -0.76194406390E+01 -0.14888668319E+02  0.85156444606E+00  0.16746745414E+02  0.00000000000E+00 0. -1.
</event>
<event>
 7    1  0.4630495E-010  0.4778725E+02  0.7816164E-02  0.1312668E+00
        -11   -1    0    0    0    0  0.00000000000E+00  0.00000000000E+00  0.45593999997E+02  0.45594000000E+02  0.51100000000E-03 0.  1.
         11   -1    0    0    0    0 -0.00000000000E+00 -0.00000000000E+00 -0.45593999997E+02  0.45594000000E+02  0.51100000000E-03 0. -1.
    9900012    2    1    2    0    0 -0.30137980722E+02 -0.23093244043E+02 -0.21024489495E+02  0.47787251609E+02  0.19999911386E+02 0.  0.
        -12    1    1    2    0    0  0.30137980722E+02  0.23093244043E+02  0.21024489495E+02  0.43400748391E+02  0.00000000000E+00 0.  1.
         11    1    3    3    0    0 -0.74683554516E+01 -0.13514427338E+02 -0.15632173304E+02  0.21972276212E+02  0.51100000000E-03 0. -1.
        -11    1    3    3    0    0 -0.31103288544E+01 -0.96426569812E+00 -0.27837013677E+01  0.42840340201E+01  0.51100000000E-03 0.  1.
         12    1    3    3    0    0 -0.19559296415E+02 -0.86145510063E+01 -0.26086148224E+01  0.21530941377E+02  0.00000000000E+00 0. -1.
</event>
<event>
 7    1  0.4630495E-010  0.4778728E+02  0.7816164E-02  0.1312668E+00
        -11   -1    0    0    0    0  0.00000000000E+00  0.00000000000E+00  0.45593999997E+02  0.45594000000E+02  0.51100000000E-03 0.  1.
         11   -1    0    0    0    0 -0.00000000000E+00 -0.00000000000E+00 -0.45593999997E+02  0.45594000000E+02  0.51100000000E-03 0. -1.
    9900012    2    1    2    0    0 -0.29141413682E+00 -0.73900175733E+01 -0.42765939879E+02  0.47787275402E+02  0.20000019868E+02 0.  0.
        -12    1    1    2    0    0  0.29141413682E+00  0.73900175733E+01  0.42765939879E+02  0.43400724598E+02  0.00000000000E+00 0.  1.
         11    1    3    3    0    0 -0.11058624588E+01  0.22419976326E+01 -0.14472237139E+02  0.14686563016E+02  0.51100000000E-03 0. -1.
        -11    1    3    3    0    0  0.23596967847E+01  0.12325505584E+01  0.95922452821E-01  0.26639352794E+01  0.51100000000E-03 0.  1.
        -12    1    3    3    0    0 -0.15452484627E+01 -0.10864565764E+02 -0.28389625193E+02  0.30436777106E+02  0.00000000000E+00 0.  1.
</event>
<event>
 7    1  0.4630495E-010  0.4778725E+02  0.7816164E-02  0.1312668E+00
        -11   -1    0    0    0    0  0.00000000000E+00  0.00000000000E+00  0.45593999997E+02  0.45594000000E+02  0.51100000000E-03 0. -1.
         11   -1    0    0    0    0 -0.00000000000E+00 -0.00000000000E+00 -0.45593999997E+02  0.45594000000E+02  0.51100000000E-03 0.  1.
    9900012    2    1    2    0    0 -0.12981447554E+02  0.30356546429E+02 -0.28170677517E+02  0.47787251580E+02  0.19999911252E+02 0.  0.
        -12    1    1    2    0    0  0.12981447554E+02 -0.30356546429E+02  0.28170677517E+02  0.43400748420E+02  0.00000000000E+00 0.  1.
         11    1    3    3    0    0 -0.98452284778E-01  0.97667418337E+01 -0.38029169353E+01  0.10481465374E+02  0.51100000000E-03 0. -1.
        -11    1    3    3    0    0  0.85517248515E+00 -0.15295148778E+01 -0.17171973274E+00  0.17607452026E+01  0.51100000000E-03 0.  1.
        -12    1    3    3    0    0 -0.13738167754E+02  0.22119319473E+02 -0.24196040849E+02  0.35545041004E+02  0.00000000000E+00 0.  1.
</event>
<event>
 7    1  0.6247444E-010  0.4778727E+02  0.7816164E-02  0.1312668E+00
        -11   -1    0    0    0    0  0.00000000000E+00  0.00000000000E+00  0.45593999997E+02  0.45594000000E+02  0.51100000000E-03 0. -1.
         11   -1    0    0    0    0 -0.00000000000E+00 -0.00000000000E+00 -0.45593999997E+02  0.45594000000E+02  0.51100000000E-03 0.  1.
    9900012    2    1    2    0    0  0.12965966741E+02 -0.41275671957E+02 -0.34388427747E+01  0.47787273870E+02  0.20000012883E+02 0.  0.
        -12    1    1    2    0    0 -0.12965966741E+02  0.41275671957E+02  0.34388427747E+01  0.43400726130E+02  0.00000000000E+00 0.  1.
         11    1    3    3    0    0  0.11253536202E+02 -0.19635070329E+02  0.16913862555E+00  0.22631983387E+02  0.51100000000E-03 0. -1.
        -11    1    3    3    0    0  0.94638941974E+00  0.16028649069E-02  0.24846635697E+01  0.26587983787E+01  0.51100000000E-03 0.  1.
         12    1    3    3    0    0  0.76604111912E+00 -0.21642204492E+02 -0.60926449699E+01  0.22496492104E+02  0.00000000000E+00 0. -1.
</event>
<event>
 7    1  0.4630495E-010  0.4778727E+02  0.7816164E-02  0.1312668E+00
        -11   -1    0    0    0    0  0.00000000000E+00  0.00000000000E+00  0.45593999997E+02  0.45594000000E+02  0.51100000000E-03 0.  1.
         11   -1    0    0    0    0 -0.00000000000E+00 -0.00000000000E+00 -0.45593999997E+02  0.45594000000E+02  0.51100000000E-03 0. -1.
    9900012    2    1    2    0    0  0.67460395663E+01 -0.37872152271E+02 -0.20095127039E+02  0.47787273069E+02  0.20000009230E+02 0.  0.
        -12    1    1    2    0    0 -0.67460395663E+01  0.37872152271E+02  0.20095127039E+02  0.43400726931E+02  0.00000000000E+00 0.  1.
         11    1    3    3    0    0  0.22915110581E+01 -0.70303452828E+01 -0.14156143020E+01  0.75286613576E+01  0.51100000000E-03 0.  1.
        -11    1    3    3    0    0  0.14592745201E+01 -0.31894710080E+02 -0.18853261128E+02  0.37078935646E+02  0.51100000000E-03 0. -1.
        -12    1    3    3    0    0  0.29952539881E+01  0.10529030920E+01  0.17374839160E+00  0.31796760650E+01  0.00000000000E+00 0.  1.
</event>
<event>
 7    1  0.5194605E-010  0.4778727E+02  0.7816164E-02  0.1312668E+00
        -11   -1    0    0    0    0  0.00000000000E+00  0.00000000000E+00  0.45593999997E+02  0.45594000000E+02  0.51100000000E-03 0.  1.
         11   -1    0    0    0    0 -0.00000000000E+00 -0.00000000000E+00 -0.45593999997E+02  0.45594000000E+02  0.51100000000E-03 0. -1.
    9900012    2    1    2    0    0 -0.32789505765E+02 -0.18624619691E+02 -0.21484763193E+02  0.47787271937E+02  0.20000004068E+02 0.  0.
        -12    1    1    2    0    0  0.32789505765E+02  0.18624619691E+02  0.21484763193E+02  0.43400728063E+02  0.00000000000E+00 0.  1.
         11    1    3    3    0    0 -0.78545811460E+01  0.99070634479E+00 -0.29219912956E+01  0.84388374455E+01  0.51100000000E-03 0. -1.
        -11    1    3    3    0    0  0.14137176717E+01 -0.12573513560E+01 -0.32741541935E+01  0.37814833111E+01  0.51100000000E-03 0.  1.
         12    1    3    3    0    0 -0.26348642291E+02 -0.18357974680E+02 -0.15288617704E+02  0.35566951180E+02  0.00000000000E+00 0. -1.
</event>
<event>
 7    1  0.4630495E-010  0.4778727E+02  0.7816164E-02  0.1312668E+00
        -11   -1    0    0    0    0  0.00000000000E+00  0.00000000000E+00  0.45593999997E+02  0.45594000000E+02  0.51100000000E-03 0. -1.
         11   -1    0    0    0    0 -0.00000000000E+00 -0.00000000000E+00 -0.45593999997E+02  0.45594000000E+02  0.51100000000E-03 0.  1.
    9900012    2    1    2    0    0  0.40303307608E+02 -0.15896671487E+02 -0.25617690442E+01  0.47787269256E+02  0.19999991845E+02 0.  0.
        -12    1    1    2    0    0 -0.40303307608E+02  0.15896671487E+02  0.25617690442E+01  0.43400730744E+02  0.00000000000E+00 0.  1.
         11    1    3    3    0    0  0.55076889793E+01 -0.36971621713E+01 -0.56448293256E+00  0.66574985735E+01  0.51100000000E-03 0. -1.
        -11    1    3    3    0    0  0.10008614134E+02  0.42014644872E+01 -0.34003321050E+01  0.11374837116E+02  0.51100000000E-03 0.  1.
        -12    1    3    3    0    0  0.24787004494E+02 -0.16400973803E+02  0.14030459934E+01  0.29754933566E+02  0.00000000000E+00 0.  1.
</event>
<event>
 7    1  0.4630495E-010  0.4778728E+02  0.7816164E-02  0.1312668E+00
        -11   -1    0    0    0    0  0.00000000000E+00  0.00000000000E+00  0.45593999997E+02  0.45594000000E+02  0.51100000000E-03 0.  1.
         11   -1    0    0    0    0 -0.00000000000E+00 -0.00000000000E+00 -0.45593999997E+02  0.45594000000E+02  0.51100000000E-03 0. -1.
    9900012    2    1    2    0    0 -0.31425344240E+02 -0.27398136258E+02 -0.12058718399E+02  0.47787276268E+02  0.20000023816E+02 0.  0.
        -12    1    1    2    0    0  0.31425344240E+02  0.27398136258E+02  0.12058718399E+02  0.43400723732E+02  0.00000000000E+00 0.  1.
         11    1    3    3    0    0 -0.10624747628E+02 -0.10212259135E+02 -0.70328674697E+01  0.16329014786E+02  0.51100000000E-03 0. -1.
        -11    1    3    3    0    0 -0.11531447051E+02 -0.12185255046E+02 -0.10293109019E+02  0.19682550779E+02  0.51100000000E-03 0.  1.
        -12    1    3    3    0    0 -0.92691495619E+01 -0.50006220778E+01  0.52672580900E+01  0.11775710703E+02  0.00000000000E+00 0.  1.
</event>
<event>
 7    1  0.4630495E-010  0.4778727E+02  0.7816164E-02  0.1312668E+00
        -11   -1    0    0    0    0  0.00000000000E+00  0.00000000000E+00  0.45593999997E+02  0.45594000000E+02  0.51100000000E-03 0.  1.
         11   -1    0    0    0    0 -0.00000000000E+00 -0.00000000000E+00 -0.45593999997E+02  0.45594000000E+02  0.51100000000E-03 0. -1.
    9900012    2    1    2    0    0 -0.33088040053E+02 -0.13207112565E+02 -0.24786631121E+02  0.47787270753E+02  0.19999998670E+02 0.  0.
        -12    1    1    2    0    0  0.33088040053E+02  0.13207112565E+02  0.24786631121E+02  0.43400729247E+02  0.00000000000E+00 0.  1.
         11    1    3    3    0    0 -0.11976628754E+02 -0.65160401410E+01 -0.81317004637E+01  0.15875231278E+02  0.51100000000E-03 0. -1.
        -11    1    3    3    0    0 -0.12265875742E+02 -0.11700375968E+02 -0.90441947297E+01  0.19213223678E+02  0.51100000000E-03 0.  1.
        -12    1    3    3    0    0 -0.88455355570E+01  0.50093035443E+01 -0.76107359279E+01  0.12698815797E+02  0.00000000000E+00 0.  1.
</event>
<event>
 7    1  0.4630495E-010  0.4778727E+02  0.7816164E-02  0.1312668E+00
        -11   -1    0    0    0    0  0.00000000000E+00  0.00000000000E+00  0.45593999997E+02  0.45594000000E+02  0.51100000000E-03 0.  1.
         11   -1    0    0    0    0 -0.00000000000E+00 -0.00000000000E+00 -0.45593999997E+02  0.45594000000E+02  0.51100000000E-03 0. -1.
    9900012    2    1    2    0    0 -0.26896552744E+02  0.29410486389E+01 -0.33934484773E+02  0.47787267594E+02  0.19999984267E+02 0.  0.
        -12    1    1    2    0    0  0.26896552744E+02 -0.29410486389E+01  0.33934484773E+02  0.43400732406E+02  0.00000000000E+00 0.  1.
         11    1    3    3    0    0 -0.87849719022E+01  0.16197718261E+01 -0.13977052057E+02  0.16587868355E+02  0.51100000000E-03 0. -1.
        -11    1    3    3    0    0 -0.10873989590E+02 -0.95998580085E+00 -0.20873563325E+02  0.23555697156E+02  0.51100000000E-03 0.  1.
        -12    1    3    3    0    0 -0.72375912517E+01  0.22812626137E+01  0.91613060985E+00  0.76437020830E+01  0.00000000000E+00 0.  1.
</event>
<event>
 7    1  0.4630495E-010  0.4778726E+02  0.7816164E-02  0.1312668E+00
        -11   -1    0    0    0    0  0.00000000000E+00  0.00000000000E+00  0.45593999997E+02  0.45594000000E+02  0.51100000000E-03 0. -1.
         11   -1    0    0    0    0 -0.00000000000E+00 -0.00000000000E+00 -0.45593999997E+02  0.45594000000E+02  0.51100000000E-03 0.  1.
    9900012    2    1    2    0    0 -0.36219243742E+02  0.21420982056E+02  0.10626958893E+02  0.47787258707E+02  0.19999943749E+02 0.  0.
        -12    1    1    2    0    0  0.36219243742E+02 -0.21420982056E+02 -0.10626958893E+02  0.43400741293E+02  0.00000000000E+00 0.  1.
         11    1    3    3    0    0 -0.11280717255E+02  0.11030755764E+02  0.70411702249E+01  0.17277448681E+02  0.51100000000E-03 0. -1.
        -11    1    3    3    0    0 -0.17480447138E+02  0.13576700070E+02  0.34324004850E+01  0.22398084523E+02  0.51100000000E-03 0.  1.
        -12    1    3    3    0    0 -0.74580793484E+01 -0.31864737784E+01  0.15338818324E+00  0.81117255033E+01  0.00000000000E+00 0.  1.
</event>
<event>
 7    1  0.4630495E-010  0.4778727E+02  0.7816164E-02  0.1312668E+00
        -11   -1    0    0    0    0  0.00000000000E+00  0.00000000000E+00  0.45593999997E+02  0.45594000000E+02  0.51100000000E-03 0. -1.
         11   -1    0    0    0    0 -0.00000000000E+00 -0.00000000000E+00 -0.45593999997E+02  0.45594000000E+02  0.51100000000E-03 0.  1.
    9900012    2    1    2    0    0  0.29853060303E+02  0.14466351927E+02 -0.27984684220E+02  0.47787273065E+02  0.20000009214E+02 0.  0.
        -12    1    1    2    0    0 -0.29853060303E+02 -0.14466351927E+02  0.27984684220E+02  0.43400726935E+02  0.00000000000E+00 0.  1.
         11    1    3    3    0    0 -0.17214341927E+00  0.21318145774E+01  0.14797558680E+01  0.26007584354E+01  0.51100000000E-03 0. -1.
        -11    1    3    3    0    0  0.26754751671E+01  0.17326106207E+01 -0.86515995331E+01  0.92201020425E+01  0.51100000000E-03 0.  1.
         12    1    3    3    0    0  0.27349728555E+02  0.10601926729E+02 -0.20812840555E+02  0.35966412587E+02  0.00000000000E+00 0. -1.
</event>
<event>
 7    1  0.4630495E-010  0.4778727E+02  0.7816164E-02  0.1312668E+00
        -11   -1    0    0    0    0  0.00000000000E+00  0.00000000000E+00  0.45593999997E+02  0.45594000000E+02  0.51100000000E-03 0.  1.
         11   -1    0    0    0    0 -0.00000000000E+00 -0.00000000000E+00 -0.45593999997E+02  0.45594000000E+02  0.51100000000E-03 0. -1.
    9900012    2    1    2    0    0 -0.34892257210E+02 -0.24119240312E+02  0.91878072937E+01  0.47787272249E+02  0.20000005492E+02 0.  0.
        -12    1    1    2    0    0  0.34892257210E+02  0.24119240312E+02 -0.91878072937E+01  0.43400727751E+02  0.00000000000E+00 0.  1.
         11    1    3    3    0    0 -0.23321025697E+02 -0.16889927548E+02  0.44620772135E+01  0.29138462990E+02  0.51100000000E-03 0. -1.
        -11    1    3    3    0    0 -0.39514093851E+01 -0.93104025341E+01  0.31586908166E+01  0.10595969017E+02  0.51100000000E-03 0.  1.
         12    1    3    3    0    0 -0.76198221285E+01  0.20810897700E+01  0.15670392636E+01  0.80528402414E+01  0.00000000000E+00 0. -1.
</event>
<event>
 7    1  0.4630495E-010  0.4778727E+02  0.7816164E-02  0.1312668E+00
        -11   -1    0    0    0    0  0.00000000000E+00  0.00000000000E+00  0.45593999997E+02  0.45594000000E+02  0.51100000000E-03 0.  1.
         11   -1    0    0    0    0 -0.00000000000E+00 -0.00000000000E+00 -0.45593999997E+02  0.45594000000E+02  0.51100000000E-03 0. -1.
    9900012    2    1    2    0    0 -0.19225292338E+02  0.98857663640E+01 -0.37633537480E+02  0.47787269760E+02  0.19999994143E+02 0.  0.
        -12    1    1    2    0    0  0.19225292338E+02 -0.98857663640E+01  0.37633537480E+02  0.43400730240E+02  0.00000000000E+00 0.  1.
         11    1    3    3    0    0 -0.67985264730E+01 -0.38355771288E+00 -0.51171206384E+01  0.85177463341E+01  0.51100000000E-03 0. -1.
        -11    1    3    3    0    0 -0.57711835906E+01 -0.17897088351E+01 -0.31067720732E+01  0.67942365816E+01  0.51100000000E-03 0.  1.
         12    1    3    3    0    0 -0.66555822747E+01  0.12059032912E+02 -0.29409644769E+02  0.32475286844E+02  0.00000000000E+00 0. -1.
</event>
<event>
 7    1  0.4630495E-010  0.4778727E+02  0.7816164E-02  0.1312668E+00
        -11   -1    0    0    0    0  0.00000000000E+00  0.00000000000E+00  0.45593999997E+02  0.45594000000E+02  0.51100000000E-03 0. -1.
         11   -1    0    0    0    0 -0.00000000000E+00 -0.00000000000E+00 -0.45593999997E+02  0.45594000000E+02  0.51100000000E-03 0.  1.
    9900012    2    1    2    0    0 -0.36901415427E+02 -0.16543739160E+02  0.15754794209E+02  0.47787270669E+02  0.19999998288E+02 0.  0.
        -12    1    1    2    0    0  0.36901415427E+02  0.16543739160E+02 -0.15754794209E+02  0.43400729331E+02  0.00000000000E+00 0.  1.
         11    1    3    3    0    0 -0.23410245016E+02 -0.79860150707E+01  0.10425664088E+02  0.26842326284E+02  0.51100000000E-03 0. -1.
        -11    1    3    3    0    0 -0.90144752408E+01 -0.47173704064E+00 -0.18834857994E+01  0.92212156856E+01  0.51100000000E-03 0.  1.
        -12    1    3    3    0    0 -0.44766951704E+01 -0.80859870485E+01  0.72126159200E+01  0.11723728699E+02  0.00000000000E+00 0.  1.
</event>
<event>
 7    1  0.4630495E-010  0.4778726E+02  0.7816164E-02  0.1312668E+00
        -11   -1    0    0    0    0  0.00000000000E+00  0.00000000000E+00  0.45593999997E+02  0.45594000000E+02  0.51100000000E-03 0.  1.
         11   -1    0    0    0    0 -0.00000000000E+00 -0.00000000000E+00 -0.45593999997E+02  0.45594000000E+02  0.51100000000E-03 0. -1.
    9900012    2    1    2    0    0  0.14937935374E+02  0.29347276711E+02  0.28270469868E+02  0.47787262332E+02  0.19999960277E+02 0.  0.
        -12    1    1    2    0    0 -0.14937935374E+02 -0.29347276711E+02 -0.28270469868E+02  0.43400737668E+02  0.00000000000E+00 0.  1.
         11    1    3    3    0    0 -0.12574740007E+01  0.77244437560E+01  0.64462754010E+01  0.10139168556E+02  0.51100000000E-03 0. -1.
        -11    1    3    3    0    0  0.52994186087E+01  0.53745523702E+01  0.15239454550E+02  0.17006193755E+02  0.51100000000E-03 0.  1.
        -12    1    3    3    0    0  0.10895990766E+02  0.16248280585E+02  0.65847399166E+01  0.20641900021E+02  0.00000000000E+00 0.  1.
</event>
<event>
 7    1  0.4630495E-010  0.4778727E+02  0.7816164E-02  0.1312668E+00
        -11   -1    0    0    0    0  0.00000000000E+00  0.00000000000E+00  0.45593999997E+02  0.45594000000E+02  0.51100000000E-03 0.  1.
         11   -1    0    0    0    0 -0.00000000000E+00 -0.00000000000E+00 -0.45593999997E+02  0.45594000000E+02  0.51100000000E-03 0. -1.
    9900012    2    1    2    0    0  0.31584396202E+02  0.26450062709E+02 -0.13654429184E+02  0.47787270316E+02  0.19999996680E+02 0.  0.
        -12    1    1    2    0    0 -0.31584396202E+02 -0.26450062709E+02  0.13654429184E+02  0.43400729684E+02  0.00000000000E+00 0.  1.
         11    1    3    3    0    0  0.14659359589E+02  0.16489318342E+02 -0.15853730178E+02  0.27168643759E+02  0.51100000000E-03 0. -1.
        -11    1    3    3    0    0  0.78015974625E+01  0.37336083191E+01 -0.18665448609E+01  0.88480926773E+01  0.51100000000E-03 0.  1.
        -12    1    3    3    0    0  0.91234391506E+01  0.62271360482E+01  0.40658458544E+01  0.11770533880E+02  0.00000000000E+00 0.  1.
</event>
<event>
 7    1  0.4630495E-010  0.4778725E+02  0.7816164E-02  0.1312668E+00
        -11   -1    0    0    0    0  0.00000000000E+00  0.00000000000E+00  0.45593999997E+02  0.45594000000E+02  0.51100000000E-03 0. -1.
         11   -1    0    0    0    0 -0.00000000000E+00 -0.00000000000E+00 -0.45593999997E+02  0.45594000000E+02  0.51100000000E-03 0.  1.
    9900012    2    1    2    0    0  0.23058751972E+02 -0.36696702218E+02 -0.22958001048E+01  0.47787254680E+02  0.19999925389E+02 0.  0.
        -12    1    1    2    0    0 -0.23058751972E+02  0.36696702218E+02  0.22958001048E+01  0.43400745320E+02  0.00000000000E+00 0.  1.
         11    1    3    3    0    0  0.11299181663E+02 -0.25860919307E+02  0.62258456855E+01  0.28900169695E+02  0.51100000000E-03 0. -1.
        -11    1    3    3    0    0  0.38413666540E+01 -0.68456765460E+01 -0.27984788986E+01  0.83337188308E+01  0.51100000000E-03 0.  1.
         12    1    3    3    0    0  0.79182036544E+01 -0.39901063658E+01 -0.57231668917E+01  0.10553366155E+02  0.00000000000E+00 0. -1.
</event>
<event>
 7    1  0.4630495E-010  0.4778727E+02  0.7816164E-02  0.1312668E+00
        -11   -1    0    0    0    0  0.00000000000E+00  0.00000000000E+00  0.45593999997E+02  0.45594000000E+02  0.51100000000E-03 0. -1.
         11   -1    0    0    0    0 -0.00000000000E+00 -0.00000000000E+00 -0.45593999997E+02  0.45594000000E+02  0.51100000000E-03 0.  1.
    9900012    2    1    2    0    0  0.17968024561E+01  0.10637725287E+02  0.42038481812E+02  0.47787266695E+02  0.19999980169E+02 0.  0.
        -12    1    1    2    0    0 -0.17968024561E+01 -0.10637725287E+02 -0.42038481812E+02  0.43400733305E+02  0.00000000000E+00 0.  1.
         11    1    3    3    0    0  0.36627735948E+01  0.13996948033E+01  0.81464005315E+01  0.90409566878E+01  0.51100000000E-03 0. -1.
        -11    1    3    3    0    0  0.66808816176E+01  0.35723798017E+01  0.86368636797E+01  0.11488754986E+02  0.51100000000E-03 0.  1.
        -12    1    3    3    0    0 -0.85468527562E+01  0.56656506816E+01  0.25255217601E+02  0.27257555022E+02  0.00000000000E+00 0.  1.
</event>
<event>
 7    1  0.4630495E-010  0.4778727E+02  0.7816164E-02  0.1312668E+00
        -11   -1    0    0    0    0  0.00000000000E+00  0.00000000000E+00  0.45593999997E+02  0.45594000000E+02  0.51100000000E-03 0.  1.
         11   -1    0    0    0    0 -0.00000000000E+00 -0.00000000000E+00 -0.45593999997E+02  0.45594000000E+02  0.51100000000E-03 0. -1.
    9900012    2    1    2    0    0  0.32389366057E+02 -0.12707253433E+02 -0.25943744092E+02  0.47787272116E+02  0.20000004885E+02 0.  0.
        -12    1    1    2    0    0 -0.32389366057E+02  0.12707253433E+02  0.25943744092E+02  0.43400727884E+02  0.00000000000E+00 0.  1.
         11    1    3    3    0    0  0.18359778699E+02 -0.11554358221E+02 -0.16875465464E+02  0.27483922621E+02  0.51100000000E-03 0. -1.
        -11    1    3    3    0    0 -0.51215061010E+00 -0.29872951169E+01 -0.34858984572E+01  0.46192768566E+01  0.51100000000E-03 0.  1.
        -12    1    3    3    0    0  0.14541737968E+02  0.18343999054E+01 -0.55823801711E+01  0.15684072638E+02  0.00000000000E+00 0.  1.
</event>
<event>
 7    1  0.4630495E-010  0.4778728E+02  0.7816164E-02  0.1312668E+00
        -11   -1    0    0    0    0  0.00000000000E+00  0.00000000000E+00  0.45593999997E+02  0.45594000000E+02  0.51100000000E-03 0.  1.
         11   -1    0    0    0    0 -0.00000000000E+00 -0.00000000000E+00 -0.45593999997E+02  0.45594000000E+02  0.51100000000E-03 0. -1.
    9900012    2    1    2    0    0 -0.22958931364E+02 -0.25961522277E+02 -0.26124886539E+02  0.47787275755E+02  0.20000021476E+02 0.  0.
        -12    1    1    2    0    0  0.22958931364E+02  0.25961522277E+02  0.26124886539E+02  0.43400724245E+02  0.00000000000E+00 0.  1.
         11    1    3    3    0    0 -0.21703978996E+02 -0.19123906983E+02 -0.26304575750E+02  0.39098813642E+02  0.51100000000E-03 0. -1.
        -11    1    3    3    0    0 -0.16827082489E+01  0.85531564737E-01 -0.38781267407E+00  0.17289365606E+01  0.51100000000E-03 0.  1.
         12    1    3    3    0    0  0.42775588061E+00 -0.69231468591E+01  0.56750188489E+00  0.69595255525E+01  0.00000000000E+00 0. -1.
</event>
<event>
 7    1  0.4630495E-010  0.4778727E+02  0.7816164E-02  0.1312668E+00
        -11   -1    0    0    0    0  0.00000000000E+00  0.00000000000E+00  0.45593999997E+02  0.45594000000E+02  0.51100000000E-03 0. -1.
         11   -1    0    0    0    0 -0.00000000000E+00 -0.00000000000E+00 -0.45593999997E+02  0.45594000000E+02  0.51100000000E-03 0.  1.
    9900012    2    1    2    0    0 -0.12173135895E+02 -0.21464669132E+02  0.35703031356E+02  0.47787266061E+02  0.19999977279E+02 0.  0.
        -12    1    1    2    0    0  0.12173135895E+02  0.21464669132E+02 -0.35703031356E+02  0.43400733939E+02  0.00000000000E+00 0.  1.
         11    1    3    3    0    0 -0.34871723340E+01 -0.16013688520E+02  0.19654280002E+02  0.25590805254E+02  0.51100000000E-03 0.  1.
        -11    1    3    3    0    0 -0.77760555967E+01 -0.59546251998E+01  0.17709259277E+02  0.20237155589E+02  0.51100000000E-03 0. -1.
        -12    1    3    3    0    0 -0.90990796391E+00  0.50364458820E+00 -0.16605079234E+01  0.19593052181E+01  0.00000000000E+00 0.  1.
</event>
<event>
 7    1  0.4630495E-010  0.4778727E+02  0.7816164E-02  0.1312668E+00
        -11   -1    0    0    0    0  0.00000000000E+00  0.00000000000E+00  0.45593999997E+02  0.45594000000E+02  0.51100000000E-03 0.  1.
         11   -1    0    0    0    0 -0.00000000000E+00 -0.00000000000E+00 -0.45593999997E+02  0.45594000000E+02  0.51100000000E-03 0. -1.
    9900012    2    1    2    0    0  0.83656537661E+01 -0.41282026605E+02 -0.10461041988E+02  0.47787270939E+02  0.19999999518E+02 0.  0.
        -12    1    1    2    0    0 -0.83656537661E+01  0.41282026605E+02  0.10461041988E+02  0.43400729061E+02  0.00000000000E+00 0.  1.
         11    1    3    3    0    0  0.61797206258E+01 -0.25497856140E+02 -0.13918948946E+02  0.29699608664E+02  0.51100000000E-03 0. -1.
        -11    1    3    3    0    0 -0.17049371718E+01 -0.12638756194E+01 -0.10851111701E+01  0.23836230519E+01  0.51100000000E-03 0.  1.
         12    1    3    3    0    0  0.38908703121E+01 -0.14520294846E+02  0.45430181283E+01  0.15704039223E+02  0.00000000000E+00 0. -1.
</event>
<event>
 7    1  0.4630495E-010  0.4778727E+02  0.7816164E-02  0.1312668E+00
        -11   -1    0    0    0    0  0.00000000000E+00  0.00000000000E+00  0.45593999997E+02  0.45594000000E+02  0.51100000000E-03 0. -1.
         11   -1    0    0    0    0 -0.00000000000E+00 -0.00000000000E+00 -0.45593999997E+02  0.45594000000E+02  0.51100000000E-03 0.  1.
    9900012    2    1    2    0    0  0.22298931238E+02  0.34522695285E+02  0.13948642097E+02  0.47787269126E+02  0.19999991252E+02 0.  0.
        -12    1    1    2    0    0 -0.22298931238E+02 -0.34522695285E+02 -0.13948642097E+02  0.43400730874E+02  0.00000000000E+00 0.  1.
         11    1    3    3    0    0  0.13457664120E+01  0.35744881674E+01 -0.67705802041E+00  0.38789767618E+01  0.51100000000E-03 0. -1.
        -11    1    3    3    0    0  0.89530241191E+00  0.99156016037E+00 -0.33624996406E+01  0.36181710925E+01  0.51100000000E-03 0.  1.
         12    1    3    3    0    0  0.20057862414E+02  0.29956646957E+02  0.17988199758E+02  0.40290121271E+02  0.00000000000E+00 0. -1.
</event>
<event>
 7    1  0.4630495E-010  0.4778721E+02  0.7816164E-02  0.1312668E+00
        -11   -1    0    0    0    0  0.00000000000E+00  0.00000000000E+00  0.45593999997E+02  0.45594000000E+02  0.51100000000E-03 0.  1.
         11   -1    0    0    0    0 -0.00000000000E+00 -0.00000000000E+00 -0.45593999997E+02  0.45594000000E+02  0.51100000000E-03 0. -1.
    9900012    2    1    2    0    0 -0.11465497519E+01 -0.36801788919E+02 -0.22976994260E+02  0.47787210731E+02  0.19999725003E+02 0.  0.
        -12    1    1    2    0    0  0.11465497519E+01  0.36801788919E+02  0.22976994260E+02  0.43400789269E+02  0.00000000000E+00 0.  1.
         11    1    3    3    0    0  0.33824767003E+01  0.48041001486E+00 -0.24954577143E+01  0.42307507460E+01  0.51100000000E-03 0. -1.
        -11    1    3    3    0    0 -0.76122197229E-01 -0.13183690826E+02 -0.31918094672E+01  0.13564775940E+02  0.51100000000E-03 0.  1.
         12    1    3    3    0    0 -0.44529042549E+01 -0.24098508108E+02 -0.17289727079E+02  0.29991684044E+02  0.00000000000E+00 0. -1.
</event>
<event>
 7    1  0.4630495E-010  0.4778727E+02  0.7816164E-02  0.1312668E+00
        -11   -1    0    0    0    0  0.00000000000E+00  0.00000000000E+00  0.45593999997E+02  0.45594000000E+02  0.51100000000E-03 0.  1.
         11   -1    0    0    0    0 -0.00000000000E+00 -0.00000000000E+00 -0.45593999997E+02  0.45594000000E+02  0.51100000000E-03 0. -1.
    9900012    2    1    2    0    0  0.23472003892E+02 -0.34577875339E+02  0.11707229704E+02  0.47787266631E+02  0.19999979877E+02 0.  0.
        -12    1    1    2    0    0 -0.23472003892E+02  0.34577875339E+02 -0.11707229704E+02  0.43400733369E+02  0.00000000000E+00 0.  1.
         11    1    3    3    0    0  0.52784584638E+01 -0.16326041908E+02 -0.27031617071E+01  0.17369768323E+02  0.51100000000E-03 0. -1.
        -11    1    3    3    0    0  0.10051048692E+02 -0.13318992111E+02  0.60542882322E+01  0.17750310896E+02  0.51100000000E-03 0.  1.
         12    1    3    3    0    0  0.81424967362E+01 -0.49328413204E+01  0.83561031787E+01  0.12667187412E+02  0.00000000000E+00 0. -1.
</event>
<event>
 7    1  0.4630495E-010  0.4778727E+02  0.7816164E-02  0.1312668E+00
        -11   -1    0    0    0    0  0.00000000000E+00  0.00000000000E+00  0.45593999997E+02  0.45594000000E+02  0.51100000000E-03 0.  1.
         11   -1    0    0    0    0 -0.00000000000E+00 -0.00000000000E+00 -0.45593999997E+02  0.45594000000E+02  0.51100000000E-03 0. -1.
    9900012    2    1    2    0    0  0.10878211914E+02  0.70563364371E+01 -0.41418547813E+02  0.47787268655E+02  0.19999989106E+02 0.  0.
        -12    1    1    2    0    0 -0.10878211914E+02 -0.70563364371E+01  0.41418547813E+02  0.43400731345E+02  0.00000000000E+00 0.  1.
         11    1    3    3    0    0  0.10667996431E+01  0.24245958986E+01 -0.70511815975E+01  0.75323229440E+01  0.51100000000E-03 0. -1.
        -11    1    3    3    0    0  0.37353444890E+01 -0.25949525098E+01  0.67909740532E-01  0.45487568602E+01  0.51100000000E-03 0.  1.
        -12    1    3    3    0    0  0.60760677820E+01  0.72266930483E+01 -0.34435275956E+02  0.35706188851E+02  0.00000000000E+00 0.  1.
</event>
<event>
 7    1  0.4630495E-010  0.4778727E+02  0.7816164E-02  0.1312668E+00
        -11   -1    0    0    0    0  0.00000000000E+00  0.00000000000E+00  0.45593999997E+02  0.45594000000E+02  0.51100000000E-03 0.  1.
         11   -1    0    0    0    0 -0.00000000000E+00 -0.00000000000E+00 -0.45593999997E+02  0.45594000000E+02  0.51100000000E-03 0. -1.
    9900012    2    1    2    0    0  0.34445462326E+02 -0.19998193589E+02 -0.17239665491E+02  0.47787266275E+02  0.19999978253E+02 0.  0.
        -12    1    1    2    0    0 -0.34445462326E+02  0.19998193589E+02  0.17239665491E+02  0.43400733725E+02  0.00000000000E+00 0.  1.
         11    1    3    3    0    0  0.16518953471E+02 -0.11707555700E+02 -0.11395412760E+02  0.23233555830E+02  0.51100000000E-03 0. -1.
        -11    1    3    3    0    0  0.89125618126E+01 -0.11021541574E+02 -0.17430373675E+01  0.14280977427E+02  0.51100000000E-03 0.  1.
         12    1    3    3    0    0  0.90139470421E+01  0.27309036854E+01 -0.41012153632E+01  0.10272733019E+02  0.00000000000E+00 0. -1.
</event>
<event>
 7    1  0.4630495E-010  0.4778727E+02  0.7816164E-02  0.1312668E+00
        -11   -1    0    0    0    0  0.00000000000E+00  0.00000000000E+00  0.45593999997E+02  0.45594000000E+02  0.51100000000E-03 0. -1.
         11   -1    0    0    0    0 -0.00000000000E+00 -0.00000000000E+00 -0.45593999997E+02  0.45594000000E+02  0.51100000000E-03 0.  1.
    9900012    2    1    2    0    0 -0.42850203530E+02  0.40329252363E+01  0.55874014124E+01  0.47787268634E+02  0.19999989010E+02 0.  0.
        -12    1    1    2    0    0  0.42850203530E+02 -0.40329252363E+01 -0.55874014124E+01  0.43400731366E+02  0.00000000000E+00 0.  1.
         11    1    3    3    0    0 -0.13766934923E+02  0.29943286836E+01 -0.42601887867E+01  0.14718821631E+02  0.51100000000E-03 0. -1.
        -11    1    3    3    0    0 -0.29179633563E+01  0.41259841868E+01  0.28770497744E+01  0.58151243601E+01  0.51100000000E-03 0.  1.
         12    1    3    3    0    0 -0.26165305251E+02 -0.30873876341E+01  0.69705404247E+01  0.27253322643E+02  0.00000000000E+00 0. -1.
</event>
<event>
 7    1  0.4630495E-010  0.4778727E+02  0.7816164E-02  0.1312668E+00
        -11   -1    0    0    0    0  0.00000000000E+00  0.00000000000E+00  0.45593999997E+02  0.45594000000E+02  0.51100000000E-03 0.  1.
         11   -1    0    0    0    0 -0.00000000000E+00 -0.00000000000E+00 -0.45593999997E+02  0.45594000000E+02  0.51100000000E-03 0. -1.
    9900012    2    1    2    0    0  0.86390680691E+01 -0.64060868072E-01 -0.42532171488E+02  0.47787271753E+02  0.20000003229E+02 0.  0.
        -12    1    1    2    0    0 -0.86390680691E+01  0.64060868072E-01  0.42532171488E+02  0.43400728247E+02  0.00000000000E+00 0.  1.
         11    1    3    3    0    0  0.12982319612E+01  0.24265371119E+01 -0.22454407487E+01  0.35518295282E+01  0.51100000000E-03 0. -1.
        -11    1    3    3    0    0  0.98749877782E+01 -0.27390203465E+01 -0.40407055681E+02  0.41686301889E+02  0.51100000000E-03 0.  1.
        -12    1    3    3    0    0 -0.25341516702E+01  0.24842236655E+00  0.12032494152E+00  0.25491403358E+01  0.00000000000E+00 0.  1.
</event>
<event>
 7    1  0.4630495E-010  0.4778727E+02  0.7816164E-02  0.1312668E+00
        -11   -1    0    0    0    0  0.00000000000E+00  0.00000000000E+00  0.45593999997E+02  0.45594000000E+02  0.51100000000E-03 0. -1.
         11   -1    0    0    0    0 -0.00000000000E+00 -0.00000000000E+00 -0.45593999997E+02  0.45594000000E+02  0.51100000000E-03 0.  1.
    9900012    2    1    2    0    0 -0.40413742636E+02  0.97668755228E+01 -0.12448315460E+02  0.47787274095E+02  0.20000013907E+02 0.  0.
        -12    1    1    2    0    0  0.40413742636E+02 -0.97668755228E+01  0.12448315460E+02  0.43400725905E+02  0.00000000000E+00 0.  1.
         11    1    3    3    0    0 -0.25768553169E+02  0.18815193614E+01  0.11407925963E+00  0.25837404318E+02  0.51100000000E-03 0. -1.
        -11    1    3    3    0    0 -0.44171742037E+01 -0.82172171079E+00 -0.40393020266E+01  0.60417394548E+01  0.51100000000E-03 0.  1.
         12    1    3    3    0    0 -0.10228015263E+02  0.87070778722E+01 -0.85230926929E+01  0.15908130322E+02  0.00000000000E+00 0. -1.
</event>
<event>
 7    1  0.4630495E-010  0.4778727E+02  0.7816164E-02  0.1312668E+00
        -11   -1    0    0    0    0  0.00000000000E+00  0.00000000000E+00  0.45593999997E+02  0.45594000000E+02  0.51100000000E-03 0.  1.
         11   -1    0    0    0    0 -0.00000000000E+00 -0.00000000000E+00 -0.45593999997E+02  0.45594000000E+02  0.51100000000E-03 0. -1.
    9900012    2    1    2    0    0 -0.97364019069E+01 -0.24451911129E+02 -0.34509846127E+02  0.47787274664E+02  0.20000016505E+02 0.  0.
        -12    1    1    2    0    0  0.97364019069E+01  0.24451911129E+02  0.34509846127E+02  0.43400725336E+02  0.00000000000E+00 0.  1.
         11    1    3    3    0    0 -0.19904912804E+01 -0.66313888612E+01 -0.17145864006E+02  0.18491025567E+02  0.51100000000E-03 0. -1.
        -11    1    3    3    0    0 -0.60224672364E+01 -0.14788518795E+02 -0.54342398919E+01  0.16867168204E+02  0.51100000000E-03 0.  1.
        -12    1    3    3    0    0 -0.17234433902E+01 -0.30320034719E+01 -0.11929742229E+02  0.12429080893E+02  0.00000000000E+00 0.  1.
</event>
<event>
 7    1  0.4630495E-010  0.4778727E+02  0.7816164E-02  0.1312668E+00
        -11   -1    0    0    0    0  0.00000000000E+00  0.00000000000E+00  0.45593999997E+02  0.45594000000E+02  0.51100000000E-03 0.  1.
         11   -1    0    0    0    0 -0.00000000000E+00 -0.00000000000E+00 -0.45593999997E+02  0.45594000000E+02  0.51100000000E-03 0. -1.
    9900012    2    1    2    0    0 -0.28143504269E+02  0.83484799141E+01 -0.31966697269E+02  0.47787266323E+02  0.19999978471E+02 0.  0.
        -12    1    1    2    0    0  0.28143504269E+02 -0.83484799141E+01  0.31966697269E+02  0.43400733677E+02  0.00000000000E+00 0.  1.
         11    1    3    3    0    0 -0.49383726114E+01  0.68565782107E+01 -0.12492603250E+02  0.15081953621E+02  0.51100000000E-03 0. -1.
        -11    1    3    3    0    0 -0.14281706870E+01 -0.34724137114E+01 -0.42700071133E+01  0.56859730481E+01  0.51100000000E-03 0.  1.
         12    1    3    3    0    0 -0.21776960971E+02  0.49643154149E+01 -0.15204086906E+02  0.27019339654E+02  0.00000000000E+00 0. -1.
</event>
<event>
 7    1  0.4630495E-010  0.4778727E+02  0.7816164E-02  0.1312668E+00
        -11   -1    0    0    0    0  0.00000000000E+00  0.00000000000E+00  0.45593999997E+02  0.45594000000E+02  0.51100000000E-03 0.  1.
         11   -1    0    0    0    0 -0.00000000000E+00 -0.00000000000E+00 -0.45593999997E+02  0.45594000000E+02  0.51100000000E-03 0. -1.
    9900012    2    1    2    0    0 -0.61246679347E+00 -0.33484107531E+02 -0.27605484701E+02  0.47787270072E+02  0.19999995566E+02 0.  0.
        -12    1    1    2    0    0  0.61246679347E+00  0.33484107531E+02  0.27605484701E+02  0.43400729928E+02  0.00000000000E+00 0.  1.
         11    1    3    3    0    0  0.50023761308E+01 -0.14394662320E+02 -0.17131335394E+02  0.22928426088E+02  0.51100000000E-03 0. -1.
        -11    1    3    3    0    0  0.23153597833E+01 -0.86577787403E+01 -0.67998787083E+01  0.11249727746E+02  0.51100000000E-03 0.  1.
        -12    1    3    3    0    0 -0.79302027076E+01 -0.10431666471E+02 -0.36742705989E+01  0.13609116238E+02  0.00000000000E+00 0.  1.
</event>
<event>
 7    1  0.4630495E-010  0.4778726E+02  0.7816164E-02  0.1312668E+00
        -11   -1    0    0    0    0  0.00000000000E+00  0.00000000000E+00  0.45593999997E+02  0.45594000000E+02  0.51100000000E-03 0.  1.
         11   -1    0    0    0    0 -0.00000000000E+00 -0.00000000000E+00 -0.45593999997E+02  0.45594000000E+02  0.51100000000E-03 0. -1.
    9900012    2    1    2    0    0  0.23659712427E+02  0.34524454161E+02 -0.11484962047E+02  0.47787259448E+02  0.19999947127E+02 0.  0.
        -12    1    1    2    0    0 -0.23659712427E+02 -0.34524454161E+02  0.11484962047E+02  0.43400740552E+02  0.00000000000E+00 0.  1.
         11    1    3    3    0    0  0.23162305419E+01  0.48598651499E+01 -0.64266066716E+01  0.83835843630E+01  0.51100000000E-03 0.  1.
        -11    1    3    3    0    0  0.22235377289E+02  0.21786929191E+02 -0.45318173101E+01  0.31458220788E+02  0.51100000000E-03 0. -1.
         12    1    3    3    0    0 -0.89189540383E+00  0.78776598198E+01 -0.52653806522E+00  0.79454542968E+01  0.00000000000E+00 0. -1.
</event>
<event>
 7    1  0.4630495E-010  0.4778727E+02  0.7816164E-02  0.1312668E+00
        -11   -1    0    0    0    0  0.00000000000E+00  0.00000000000E+00  0.45593999997E+02  0.45594000000E+02  0.51100000000E-03 0.  1.
         11   -1    0    0    0    0 -0.00000000000E+00 -0.00000000000E+00 -0.45593999997E+02  0.45594000000E+02  0.51100000000E-03 0. -1.
    9900012    2    1    2    0    0  0.71137752076E+01  0.41902023485E+02  0.87884998726E+01  0.47787273049E+02  0.20000009141E+02 0.  0.
        -12    1    1    2    0    0 -0.71137752076E+01 -0.41902023485E+02 -0.87884998726E+01  0.43400726951E+02  0.00000000000E+00 0.  1.
         11    1    3    3    0    0 -0.34358444895E+01  0.60037580090E+01  0.45975827489E+01  0.83058957965E+01  0.51100000000E-03 0.  1.
        -11    1    3    3    0    0 -0.92049162774E+00  0.15646895481E+02 -0.73729861210E+00  0.15691279506E+02  0.51100000000E-03 0. -1.
        -12    1    3    3    0    0  0.11470111325E+02  0.20251369995E+02  0.49282157357E+01  0.23790097747E+02  0.00000000000E+00 0.  1.
</event>
<event>
 7    1  0.4630495E-010  0.4778727E+02  0.7816164E-02  0.1312668E+00
        -11   -1    0    0    0    0  0.00000000000E+00  0.00000000000E+00  0.45593999997E+02  0.45594000000E+02  0.51100000000E-03 0.  1.
         11   -1    0    0    0    0 -0.00000000000E+00 -0.00000000000E+00 -0.45593999997E+02  0.45594000000E+02  0.51100000000E-03 0. -1.
    9900012    2    1    2    0    0 -0.29644672477E+02  0.20236392352E+02 -0.24398877026E+02  0.47787269801E+02  0.19999994329E+02 0.  0.
        -12    1    1    2    0    0  0.29644672477E+02 -0.20236392352E+02  0.24398877026E+02  0.43400730199E+02  0.00000000000E+00 0.  1.
         11    1    3    3    0    0 -0.83265584483E+01  0.42667027664E+00 -0.26469094607E+01  0.87475569773E+01  0.51100000000E-03 0. -1.
        -11    1    3    3    0    0 -0.15989758990E+02  0.87289663651E+01 -0.19229154830E+02  0.26488254796E+02  0.51100000000E-03 0.  1.
         12    1    3    3    0    0 -0.53283550388E+01  0.11080755710E+02 -0.25228127353E+01  0.12551458028E+02  0.00000000000E+00 0. -1.
</event>
<event>
 7    1  0.4630495E-010  0.4778729E+02  0.7816164E-02  0.1312668E+00
        -11   -1    0    0    0    0  0.00000000000E+00  0.00000000000E+00  0.45593999997E+02  0.45594000000E+02  0.51100000000E-03 0.  1.
         11   -1    0    0    0    0 -0.00000000000E+00 -0.00000000000E+00 -0.45593999997E+02  0.45594000000E+02  0.51100000000E-03 0. -1.
    9900012    2    1    2    0    0  0.18994750834E+02  0.39002967111E+02 -0.12609500670E+01  0.47787285745E+02  0.20000067028E+02 0.  0.
        -12    1    1    2    0    0 -0.18994750834E+02 -0.39002967111E+02  0.12609500670E+01  0.43400714255E+02  0.00000000000E+00 0.  1.
         11    1    3    3    0    0  0.83782121425E+00  0.11258808290E+01 -0.53368934916E+00  0.15014581615E+01  0.51100000000E-03 0. -1.
        -11    1    3    3    0    0  0.80355973255E+01  0.34770604031E+02 -0.25488787496E+00  0.35687962917E+02  0.51100000000E-03 0.  1.
         12    1    3    3    0    0  0.10121332295E+02  0.31064822507E+01 -0.47237284292E+00  0.10597864667E+02  0.00000000000E+00 0. -1.
</event>
<event>
 7    1  0.4630495E-010  0.4778728E+02  0.7816164E-02  0.1312668E+00
        -11   -1    0    0    0    0  0.00000000000E+00  0.00000000000E+00  0.45593999997E+02  0.45594000000E+02  0.51100000000E-03 0. -1.
         11   -1    0    0    0    0 -0.00000000000E+00 -0.00000000000E+00 -0.45593999997E+02  0.45594000000E+02  0.51100000000E-03 0.  1.
    9900012    2    1    2    0    0 -0.26302859770E+02  0.34521150759E+02 -0.26949844422E+00  0.47787275223E+02  0.20000019051E+02 0.  0.
        -12    1    1    2    0    0  0.26302859770E+02 -0.34521150759E+02  0.26949844422E+00  0.43400724777E+02  0.00000000000E+00 0.  1.
         11    1    3    3    0    0  0.40035415050E+00 -0.73316757728E+00 -0.95752479176E+00  0.12706974975E+01  0.51100000000E-03 0. -1.
        -11    1    3    3    0    0  0.12339866547E+01  0.19073970355E+00 -0.10777567789E+01  0.16494437348E+01  0.51100000000E-03 0.  1.
         12    1    3    3    0    0 -0.27937200575E+02  0.35063578633E+02  0.17657831265E+01  0.44867133991E+02  0.00000000000E+00 0. -1.
</event>
<event>
 7    1  0.4630495E-010  0.4778727E+02  0.7816164E-02  0.1312668E+00
        -11   -1    0    0    0    0  0.00000000000E+00  0.00000000000E+00  0.45593999997E+02  0.45594000000E+02  0.51100000000E-03 0.  1.
         11   -1    0    0    0    0 -0.00000000000E+00 -0.00000000000E+00 -0.45593999997E+02  0.45594000000E+02  0.51100000000E-03 0. -1.
    9900012    2    1    2    0    0  0.37767678775E+02 -0.20248870540E+02 -0.68708772603E+01  0.47787271060E+02  0.20000000071E+02 0.  0.
        -12    1    1    2    0    0 -0.37767678775E+02  0.20248870540E+02  0.68708772603E+01  0.43400728940E+02  0.00000000000E+00 0.  1.
         11    1    3    3    0    0  0.12187212482E+01 -0.53444673562E+00 -0.25628709400E+01  0.28877712011E+01  0.51100000000E-03 0. -1.
        -11    1    3    3    0    0  0.18137358103E+02 -0.60082734245E+01  0.55835136788E+01  0.19905746250E+02  0.51100000000E-03 0.  1.
         12    1    3    3    0    0  0.18411599424E+02 -0.13706150380E+02 -0.98915199992E+01  0.24993753609E+02  0.00000000000E+00 0. -1.
</event>
<event>
 7    1  0.4630495E-010  0.4778727E+02  0.7816164E-02  0.1312668E+00
        -11   -1    0    0    0    0  0.00000000000E+00  0.00000000000E+00  0.45593999997E+02  0.45594000000E+02  0.51100000000E-03 0. -1.
         11   -1    0    0    0    0 -0.00000000000E+00 -0.00000000000E+00 -0.45593999997E+02  0.45594000000E+02  0.51100000000E-03 0.  1.
    9900012    2    1    2    0    0  0.11387209667E+02 -0.38630267523E+02  0.16175822415E+02  0.47787270240E+02  0.19999996333E+02 0.  0.
        -12    1    1    2    0    0 -0.11387209667E+02  0.38630267523E+02 -0.16175822415E+02  0.43400729760E+02  0.00000000000E+00 0.  1.
         11    1    3    3    0    0  0.45601176298E+01 -0.17625259480E+02  0.63858991210E+00  0.18216812067E+02  0.51100000000E-03 0. -1.
        -11    1    3    3    0    0  0.90066797718E+01 -0.96008134766E+01  0.56698617695E+01  0.14333291062E+02  0.51100000000E-03 0.  1.
        -12    1    3    3    0    0 -0.21795877342E+01 -0.11404194566E+02  0.98673707332E+01  0.15237167111E+02  0.00000000000E+00 0.  1.
</event>
<event>
 7    1  0.4630495E-010  0.4778727E+02  0.7816164E-02  0.1312668E+00
        -11   -1    0    0    0    0  0.00000000000E+00  0.00000000000E+00  0.45593999997E+02  0.45594000000E+02  0.51100000000E-03 0. -1.
         11   -1    0    0    0    0 -0.00000000000E+00 -0.00000000000E+00 -0.45593999997E+02  0.45594000000E+02  0.51100000000E-03 0.  1.
    9900012    2    1    2    0    0  0.37314098225E+02 -0.16893541487E+02  0.14348847550E+02  0.47787273090E+02  0.20000009326E+02 0.  0.
        -12    1    1    2    0    0 -0.37314098225E+02  0.16893541487E+02 -0.14348847550E+02  0.43400726910E+02  0.00000000000E+00 0.  1.
         11    1    3    3    0    0  0.32114712219E+02 -0.14671629995E+02  0.57712363513E+01  0.35775950538E+02  0.51100000000E-03 0. -1.
        -11    1    3    3    0    0 -0.64557461114E+00 -0.83781038727E+00 -0.46512036203E+00  0.11554349985E+01  0.51100000000E-03 0.  1.
        -12    1    3    3    0    0  0.58449606165E+01 -0.13841011046E+01  0.90427315611E+01  0.10855887553E+02  0.00000000000E+00 0.  1.
</event>
<event>
 7    1  0.4630495E-010  0.4778725E+02  0.7816164E-02  0.1312668E+00
        -11   -1    0    0    0    0  0.00000000000E+00  0.00000000000E+00  0.45593999997E+02  0.45594000000E+02  0.51100000000E-03 0. -1.
         11   -1    0    0    0    0 -0.00000000000E+00 -0.00000000000E+00 -0.45593999997E+02  0.45594000000E+02  0.51100000000E-03 0.  1.
    9900012    2    1    2    0    0  0.11229340612E+02  0.41247322489E+02 -0.74956974433E+01  0.47787249047E+02  0.19999899705E+02 0.  0.
        -12    1    1    2    0    0 -0.11229340612E+02 -0.41247322489E+02  0.74956974433E+01  0.43400750953E+02  0.00000000000E+00 0.  1.
         11    1    3    3    0    0  0.64440594137E+00 -0.46204941230E+00 -0.16576389839E+01  0.18375298470E+01  0.51100000000E-03 0.  1.
        -11    1    3    3    0    0 -0.15359422875E+00  0.61295652427E+01  0.42252782531E+01  0.74463506383E+01  0.51100000000E-03 0. -1.
         12    1    3    3    0    0  0.10738528900E+02  0.35579806659E+02 -0.10063336713E+02  0.38503368562E+02  0.00000000000E+00 0. -1.
</event>
<event>
 7    1  0.4630495E-010  0.4778727E+02  0.7816164E-02  0.1312668E+00
        -11   -1    0    0    0    0  0.00000000000E+00  0.00000000000E+00  0.45593999997E+02  0.45594000000E+02  0.51100000000E-03 0.  1.
         11   -1    0    0    0    0 -0.00000000000E+00 -0.00000000000E+00 -0.45593999997E+02  0.45594000000E+02  0.51100000000E-03 0. -1.
    9900012    2    1    2    0    0 -0.41768990414E+01 -0.34448814783E+02 -0.26066379300E+02  0.47787268953E+02  0.19999990466E+02 0.  0.
        -12    1    1    2    0    0  0.41768990414E+01  0.34448814783E+02  0.26066379300E+02  0.43400731047E+02  0.00000000000E+00 0.  1.
         11    1    3    3    0    0 -0.23595321637E+01 -0.24516863834E+00 -0.44923633589E+01  0.50802390202E+01  0.51100000000E-03 0.  1.
        -11    1    3    3    0    0 -0.55666965224E+01 -0.53948903243E+01 -0.55009808775E+01  0.95054585717E+01  0.51100000000E-03 0. -1.
         12    1    3    3    0    0  0.37493296447E+01 -0.28808755820E+02 -0.16073035064E+02  0.33201571361E+02  0.00000000000E+00 0. -1.
</event>
<event>
 7    1  0.4630495E-010  0.4778727E+02  0.7816164E-02  0.1312668E+00
        -11   -1    0    0    0    0  0.00000000000E+00  0.00000000000E+00  0.45593999997E+02  0.45594000000E+02  0.51100000000E-03 0.  1.
         11   -1    0    0    0    0 -0.00000000000E+00 -0.00000000000E+00 -0.45593999997E+02  0.45594000000E+02  0.51100000000E-03 0. -1.
    9900012    2    1    2    0    0 -0.28722584955E+02 -0.19101961302E+02 -0.26339167945E+02  0.47787267516E+02  0.19999983912E+02 0.  0.
        -12    1    1    2    0    0  0.28722584955E+02  0.19101961302E+02  0.26339167945E+02  0.43400732484E+02  0.00000000000E+00 0.  1.
         11    1    3    3    0    0 -0.13873418089E+02 -0.14594188819E+02 -0.66125140603E+01  0.21194042069E+02  0.51100000000E-03 0. -1.
        -11    1    3    3    0    0 -0.52645978712E+01 -0.61085884802E+01 -0.99687597084E+01  0.12822129868E+02  0.51100000000E-03 0.  1.
        -12    1    3    3    0    0 -0.95845689955E+01  0.16008159976E+01 -0.97578941768E+01  0.13771095579E+02  0.00000000000E+00 0.  1.
</event>
<event>
 7    1  0.4630495E-010  0.4778727E+02  0.7816164E-02  0.1312668E+00
        -11   -1    0    0    0    0  0.00000000000E+00  0.00000000000E+00  0.45593999997E+02  0.45594000000E+02  0.51100000000E-03 0.  1.
         11   -1    0    0    0    0 -0.00000000000E+00 -0.00000000000E+00 -0.45593999997E+02  0.45594000000E+02  0.51100000000E-03 0. -1.
    9900012    2    1    2    0    0 -0.34769514905E+02  0.21747561746E+02 -0.14203797678E+02  0.47787268703E+02  0.19999989327E+02 0.  0.
        -12    1    1    2    0    0  0.34769514905E+02 -0.21747561746E+02  0.14203797678E+02  0.43400731297E+02  0.00000000000E+00 0.  1.
         11    1    3    3    0    0 -0.74272328379E+01  0.72703774769E+01 -0.94964082052E+01  0.14078492297E+02  0.51100000000E-03 0. -1.
        -11    1    3    3    0    0 -0.31217359955E+00 -0.12846392580E+01 -0.18704236168E+01  0.22904661419E+01  0.51100000000E-03 0.  1.
         12    1    3    3    0    0 -0.27030108467E+02  0.15761823527E+02 -0.28369658563E+01  0.31418310265E+02  0.00000000000E+00 0. -1.
</event>
<event>
 7    1  0.4630495E-010  0.4778723E+02  0.7816164E-02  0.1312668E+00
        -11   -1    0    0    0    0  0.00000000000E+00  0.00000000000E+00  0.45593999997E+02  0.45594000000E+02  0.51100000000E-03 0.  1.
         11   -1    0    0    0    0 -0.00000000000E+00 -0.00000000000E+00 -0.45593999997E+02  0.45594000000E+02  0.51100000000E-03 0. -1.
    9900012    2    1    2    0    0  0.18645383357E+02 -0.78323205478E+01 -0.38400930968E+02  0.47787227370E+02  0.19999800869E+02 0.  0.
        -12    1    1    2    0    0 -0.18645383357E+02  0.78323205478E+01  0.38400930968E+02  0.43400772630E+02  0.00000000000E+00 0.  1.
         11    1    3    3    0    0  0.66730045741E+01  0.63741482103E+00 -0.32666183516E+01  0.74569486666E+01  0.51100000000E-03 0. -1.
        -11    1    3    3    0    0  0.33589500978E+01 -0.10283988880E+02 -0.22043691144E+02  0.24555392331E+02  0.51100000000E-03 0.  1.
         12    1    3    3    0    0  0.86134286851E+01  0.18142535107E+01 -0.13090621473E+02  0.15774886372E+02  0.00000000000E+00 0. -1.
</event>
<event>
 7    1  0.4630495E-010  0.4778727E+02  0.7816164E-02  0.1312668E+00
        -11   -1    0    0    0    0  0.00000000000E+00  0.00000000000E+00  0.45593999997E+02  0.45594000000E+02  0.51100000000E-03 0.  1.
         11   -1    0    0    0    0 -0.00000000000E+00 -0.00000000000E+00 -0.45593999997E+02  0.45594000000E+02  0.51100000000E-03 0. -1.
    9900012    2    1    2    0    0 -0.29553261221E+02  0.11425929634E+02 -0.29659334088E+02  0.47787271719E+02  0.20000003075E+02 0.  0.
        -12    1    1    2    0    0  0.29553261221E+02 -0.11425929634E+02  0.29659334088E+02  0.43400728281E+02  0.00000000000E+00 0.  1.
         11    1    3    3    0    0 -0.95270424092E+01  0.96362804458E+01 -0.14442781532E+02  0.19804453452E+02  0.51100000000E-03 0. -1.
        -11    1    3    3    0    0  0.14431239644E+01 -0.61390304728E+00 -0.23897700213E+01  0.28584059796E+01  0.51100000000E-03 0.  1.
         12    1    3    3    0    0 -0.21469342776E+02  0.24035522355E+01 -0.12826782536E+02  0.25124412287E+02  0.00000000000E+00 0. -1.
</event>
<event>
 7    1  0.4630495E-010  0.4778727E+02  0.7816164E-02  0.1312668E+00
        -11   -1    0    0    0    0  0.00000000000E+00  0.00000000000E+00  0.45593999997E+02  0.45594000000E+02  0.51100000000E-03 0. -1.
         11   -1    0    0    0    0 -0.00000000000E+00 -0.00000000000E+00 -0.45593999997E+02  0.45594000000E+02  0.51100000000E-03 0.  1.
    9900012    2    1    2    0    0  0.26125802947E+01 -0.42362435480E+02  0.90676325151E+01  0.47787268727E+02  0.19999989434E+02 0.  0.
        -12    1    1    2    0    0 -0.26125802947E+01  0.42362435480E+02 -0.90676325151E+01  0.43400731273E+02  0.00000000000E+00 0.  1.
         11    1    3    3    0    0 -0.22914182604E+01 -0.15871163984E+02  0.88658524735E+01  0.18323421738E+02  0.51100000000E-03 0.  1.
        -11    1    3    3    0    0  0.38087593109E+01 -0.25052557949E+02  0.36191802762E+01  0.25597573585E+02  0.51100000000E-03 0. -1.
        -12    1    3    3    0    0  0.10952392441E+01 -0.14387135462E+01 -0.34174002345E+01  0.38662734038E+01  0.00000000000E+00 0.  1.
</event>
<event>
 7    1  0.4630495E-010  0.4778727E+02  0.7816164E-02  0.1312668E+00
        -11   -1    0    0    0    0  0.00000000000E+00  0.00000000000E+00  0.45593999997E+02  0.45594000000E+02  0.51100000000E-03 0.  1.
         11   -1    0    0    0    0 -0.00000000000E+00 -0.00000000000E+00 -0.45593999997E+02  0.45594000000E+02  0.51100000000E-03 0. -1.
    9900012    2    1    2    0    0 -0.66462799589E+00 -0.30807482778E+02 -0.30562730991E+02  0.47787271307E+02  0.20000001195E+02 0.  0.
        -12    1    1    2    0    0  0.66462799589E+00  0.30807482778E+02  0.30562730991E+02  0.43400728693E+02  0.00000000000E+00 0.  1.
         11    1    3    3    0    0 -0.62353023001E+01 -0.15729667914E+02 -0.16838413006E+02  0.23871187660E+02  0.51100000000E-03 0. -1.
        -11    1    3    3    0    0 -0.29942732207E+01 -0.48748251222E+01 -0.68524765928E+01  0.89267030761E+01  0.51100000000E-03 0.  1.
        -12    1    3    3    0    0  0.85649475249E+01 -0.10202989742E+02 -0.68718413920E+01  0.14989380571E+02  0.00000000000E+00 0.  1.
</event>
<event>
 7    1  0.4630495E-010  0.4778727E+02  0.7816164E-02  0.1312668E+00
        -11   -1    0    0    0    0  0.00000000000E+00  0.00000000000E+00  0.45593999997E+02  0.45594000000E+02  0.51100000000E-03 0.  1.
         11   -1    0    0    0    0 -0.00000000000E+00 -0.00000000000E+00 -0.45593999997E+02  0.45594000000E+02  0.51100000000E-03 0. -1.
    9900012    2    1    2    0    0 -0.35312080526E+02 -0.24975907635E+02 -0.35894685843E+01  0.47787270997E+02  0.19999999784E+02 0.  0.
        -12    1    1    2    0    0  0.35312080526E+02  0.24975907635E+02  0.35894685843E+01  0.43400729003E+02  0.00000000000E+00 0.  1.
         11    1    3    3    0    0 -0.20422067596E+02 -0.70914669732E+01 -0.18262373286E+00  0.21619044854E+02  0.51100000000E-03 0. -1.
        -11    1    3    3    0    0 -0.89140507942E+01 -0.22824874223E+01 -0.18763736475E+01  0.93909972165E+01  0.51100000000E-03 0.  1.
         12    1    3    3    0    0 -0.59759621357E+01 -0.15601953240E+02 -0.15304712040E+01  0.16777228926E+02  0.00000000000E+00 0. -1.
</event>
<event>
 7    1  0.4630495E-010  0.4778730E+02  0.7816164E-02  0.1312668E+00
        -11   -1    0    0    0    0  0.00000000000E+00  0.00000000000E+00  0.45593999997E+02  0.45594000000E+02  0.51100000000E-03 0.  1.
         11   -1    0    0    0    0 -0.00000000000E+00 -0.00000000000E+00 -0.45593999997E+02  0.45594000000E+02  0.51100000000E-03 0. -1.
    9900012    2    1    2    0    0 -0.93215342671E+01 -0.42227319488E+02 -0.36855933942E+01  0.47787295963E+02  0.20000113613E+02 0.  0.
        -12    1    1    2    0    0  0.93215342671E+01  0.42227319488E+02  0.36855933942E+01  0.43400704037E+02  0.00000000000E+00 0.  1.
         11    1    3    3    0    0 -0.42764279205E+00 -0.11585159988E+02 -0.23829996728E+01  0.11835434002E+02  0.51100000000E-03 0. -1.
        -11    1    3    3    0    0 -0.54248627060E+01 -0.14344644954E+02  0.75387088696E+01  0.17088888376E+02  0.51100000000E-03 0.  1.
        -12    1    3    3    0    0 -0.34690287691E+01 -0.16297514546E+02 -0.88413025910E+01  0.18862973585E+02  0.00000000000E+00 0.  1.
</event>
<event>
 7    1  0.4630495E-010  0.4778724E+02  0.7816164E-02  0.1312668E+00
        -11   -1    0    0    0    0  0.00000000000E+00  0.00000000000E+00  0.45593999997E+02  0.45594000000E+02  0.51100000000E-03 0.  1.
         11   -1    0    0    0    0 -0.00000000000E+00 -0.00000000000E+00 -0.45593999997E+02  0.45594000000E+02  0.51100000000E-03 0. -1.
    9900012    2    1    2    0    0  0.10231566947E+02  0.28305224639E+02 -0.31269073619E+02  0.47787243451E+02  0.19999874189E+02 0.  0.
        -12    1    1    2    0    0 -0.10231566947E+02 -0.28305224639E+02  0.31269073619E+02  0.43400756549E+02  0.00000000000E+00 0.  1.
         11    1    3    3    0    0  0.92720222954E+00  0.19644254345E+02 -0.12893220476E+02  0.23515772734E+02  0.51100000000E-03 0. -1.
        -11    1    3    3    0    0  0.75021804641E+01  0.10074794989E+02 -0.11522981769E+02  0.17045917837E+02  0.51100000000E-03 0.  1.
        -12    1    3    3    0    0  0.18021842536E+01 -0.14138246954E+01 -0.68528713744E+01  0.72255528804E+01  0.00000000000E+00 0.  1.
</event>
<event>
 7    1  0.4630495E-010  0.4778727E+02  0.7816164E-02  0.1312668E+00
        -11   -1    0    0    0    0  0.00000000000E+00  0.00000000000E+00  0.45593999997E+02  0.45594000000E+02  0.51100000000E-03 0. -1.
         11   -1    0    0    0    0 -0.00000000000E+00 -0.00000000000E+00 -0.45593999997E+02  0.45594000000E+02  0.51100000000E-03 0.  1.
    9900012    2    1    2    0    0  0.25162983050E+02  0.10118463676E+02  0.33883101387E+02  0.47787267486E+02  0.19999983775E+02 0.  0.
        -12    1    1    2    0    0 -0.25162983050E+02 -0.10118463676E+02 -0.33883101387E+02  0.43400732514E+02  0.00000000000E+00 0.  1.
         11    1    3    3    0    0  0.84026304391E+01 -0.25752776450E+01  0.12930536180E+02  0.15634417783E+02  0.51100000000E-03 0. -1.
        -11    1    3    3    0    0  0.55762974426E+01 -0.60146834820E+00  0.10426297424E+02  0.11839110421E+02  0.51100000000E-03 0.  1.
         12    1    3    3    0    0  0.11184055169E+02  0.13295209669E+02  0.10526267784E+02  0.20313739282E+02  0.00000000000E+00 0. -1.
</event>
<event>
 7    1  0.4630495E-010  0.4778727E+02  0.7816164E-02  0.1312668E+00
        -11   -1    0    0    0    0  0.00000000000E+00  0.00000000000E+00  0.45593999997E+02  0.45594000000E+02  0.51100000000E-03 0.  1.
         11   -1    0    0    0    0 -0.00000000000E+00 -0.00000000000E+00 -0.45593999997E+02  0.45594000000E+02  0.51100000000E-03 0. -1.
    9900012    2    1    2    0    0 -0.36820063087E+01  0.42488095645E+02 -0.80515834263E+01  0.47787269157E+02  0.19999991397E+02 0.  0.
        -12    1    1    2    0    0  0.36820063087E+01 -0.42488095645E+02  0.80515834263E+01  0.43400730843E+02  0.00000000000E+00 0.  1.
         11    1    3    3    0    0 -0.45729736788E+00 -0.63071779272E+00 -0.20003188853E+01  0.21466722434E+01  0.51100000000E-03 0. -1.
        -11    1    3    3    0    0 -0.15807395943E+01  0.55067384427E+00  0.16497466252E+01  0.23502432930E+01  0.51100000000E-03 0.  1.
        -12    1    3    3    0    0 -0.16439693465E+01  0.42568139593E+02 -0.77010111663E+01  0.43290353621E+02  0.00000000000E+00 0.  1.
</event>
<event>
 7    1  0.4630495E-010  0.4778727E+02  0.7816164E-02  0.1312668E+00
        -11   -1    0    0    0    0  0.00000000000E+00  0.00000000000E+00  0.45593999997E+02  0.45594000000E+02  0.51100000000E-03 0.  1.
         11   -1    0    0    0    0 -0.00000000000E+00 -0.00000000000E+00 -0.45593999997E+02  0.45594000000E+02  0.51100000000E-03 0. -1.
    9900012    2    1    2    0    0  0.23789264383E+02 -0.32520923537E+02 -0.16127109157E+02  0.47787271695E+02  0.20000002968E+02 0.  0.
        -12    1    1    2    0    0 -0.23789264383E+02  0.32520923537E+02  0.16127109157E+02  0.43400728305E+02  0.00000000000E+00 0.  1.
         11    1    3    3    0    0  0.17207766086E+01 -0.34843196149E+00 -0.12377685927E+00  0.17600562322E+01  0.51100000000E-03 0. -1.
        -11    1    3    3    0    0  0.33615367089E+01 -0.21205608303E+02 -0.80727973585E+01  0.22937912067E+02  0.51100000000E-03 0.  1.
         12    1    3    3    0    0  0.18706951066E+02 -0.10966883272E+02 -0.79305349397E+01  0.23089303396E+02  0.00000000000E+00 0. -1.
</event>
<event>
 7    1  0.4630495E-010  0.4778725E+02  0.7816164E-02  0.1312668E+00
        -11   -1    0    0    0    0  0.00000000000E+00  0.00000000000E+00  0.45593999997E+02  0.45594000000E+02  0.51100000000E-03 0. -1.
         11   -1    0    0    0    0 -0.00000000000E+00 -0.00000000000E+00 -0.45593999997E+02  0.45594000000E+02  0.51100000000E-03 0.  1.
    9900012    2    1    2    0    0 -0.13808752934E+02  0.28278019189E+02  0.29888072921E+02  0.47787251968E+02  0.19999913021E+02 0.  0.
        -12    1    1    2    0    0  0.13808752934E+02 -0.28278019189E+02 -0.29888072921E+02  0.43400748032E+02  0.00000000000E+00 0.  1.
         11    1    3    3    0    0 -0.38623079676E+01  0.74815258191E+01  0.10469172553E+02  0.13434813941E+02  0.51100000000E-03 0. -1.
        -11    1    3    3    0    0  0.45927741065E+00 -0.72174240828E+00 -0.20517633310E+01  0.22229666825E+01  0.51100000000E-03 0.  1.
        -12    1    3    3    0    0 -0.10405722377E+02  0.21518235778E+02  0.21470663699E+02  0.32129471344E+02  0.00000000000E+00 0.  1.
</event>
<event>
 7    1  0.4630495E-010  0.4778727E+02  0.7816164E-02  0.1312668E+00
        -11   -1    0    0    0    0  0.00000000000E+00  0.00000000000E+00  0.45593999997E+02  0.45594000000E+02  0.51100000000E-03 0.  1.
         11   -1    0    0    0    0 -0.00000000000E+00 -0.00000000000E+00 -0.45593999997E+02  0.45594000000E+02  0.51100000000E-03 0. -1.
    9900012    2    1    2    0    0  0.23629056188E+02  0.36397449776E+02 -0.71882826931E+00  0.47787270046E+02  0.19999995446E+02 0.  0.
        -12    1    1    2    0    0 -0.23629056188E+02 -0.36397449776E+02  0.71882826931E+00  0.43400729954E+02  0.00000000000E+00 0.  1.
         11    1    3    3    0    0  0.14656075371E+02  0.24360036785E+02 -0.46128776662E+00  0.28432810697E+02  0.51100000000E-03 0. -1.
        -11    1    3    3    0    0  0.45939664829E+01  0.10228532620E+02 -0.53285189936E+01  0.12414528688E+02  0.51100000000E-03 0.  1.
        -12    1    3    3    0    0  0.43790143340E+01  0.18088803705E+01  0.50709784909E+01  0.69399306615E+01  0.00000000000E+00 0.  1.
</event>
<event>
 7    1  0.4630495E-010  0.4778727E+02  0.7816164E-02  0.1312668E+00
        -11   -1    0    0    0    0  0.00000000000E+00  0.00000000000E+00  0.45593999997E+02  0.45594000000E+02  0.51100000000E-03 0. -1.
         11   -1    0    0    0    0 -0.00000000000E+00 -0.00000000000E+00 -0.45593999997E+02  0.45594000000E+02  0.51100000000E-03 0.  1.
    9900012    2    1    2    0    0  0.17650552305E+02  0.15916617611E+02  0.36314497583E+02  0.47787269043E+02  0.19999990876E+02 0.  0.
        -12    1    1    2    0    0 -0.17650552305E+02 -0.15916617611E+02 -0.36314497583E+02  0.43400730957E+02  0.00000000000E+00 0.  1.
         11    1    3    3    0    0  0.10468285641E+02  0.13750515970E+02  0.19261381678E+02  0.25877838359E+02  0.51100000000E-03 0. -1.
        -11    1    3    3    0    0  0.10134480557E+02  0.29325133346E+01  0.11747525647E+02  0.15789607016E+02  0.51100000000E-03 0.  1.
        -12    1    3    3    0    0 -0.29522138932E+01 -0.76641169343E+00  0.53055902577E+01  0.61198236689E+01  0.00000000000E+00 0.  1.
</event>
<event>
 7    1  0.4630495E-010  0.4778727E+02  0.7816164E-02  0.1312668E+00
        -11   -1    0    0    0    0  0.00000000000E+00  0.00000000000E+00  0.45593999997E+02  0.45594000000E+02  0.51100000000E-03 0.  1.
         11   -1    0    0    0    0 -0.00000000000E+00 -0.00000000000E+00 -0.45593999997E+02  0.45594000000E+02  0.51100000000E-03 0. -1.
    9900012    2    1    2    0    0  0.16368232349E+02 -0.17335918916E+02 -0.36265275686E+02  0.47787270335E+02  0.19999996764E+02 0.  0.
        -12    1    1    2    0    0 -0.16368232349E+02  0.17335918916E+02  0.36265275686E+02  0.43400729665E+02  0.00000000000E+00 0.  1.
         11    1    3    3    0    0  0.94894243435E+01 -0.11798356423E+02 -0.30898029807E+02  0.34408409363E+02  0.51100000000E-03 0. -1.
        -11    1    3    3    0    0  0.48694970314E-01  0.32762196603E+00 -0.43002974239E+01  0.43130343782E+01  0.51100000000E-03 0.  1.
        -12    1    3    3    0    0  0.68301130353E+01 -0.58651844599E+01 -0.10669484545E+01  0.90658265938E+01  0.00000000000E+00 0.  1.
</event>
<event>
 7    1  0.4630495E-010  0.4778728E+02  0.7816164E-02  0.1312668E+00
        -11   -1    0    0    0    0  0.00000000000E+00  0.00000000000E+00  0.45593999997E+02  0.45594000000E+02  0.51100000000E-03 0. -1.
         11   -1    0    0    0    0 -0.00000000000E+00 -0.00000000000E+00 -0.45593999997E+02  0.45594000000E+02  0.51100000000E-03 0.  1.
    9900012    2    1    2    0    0 -0.20388793476E+02 -0.38264737692E+02 -0.19312878825E+01  0.47787275087E+02  0.20000018433E+02 0.  0.
        -12    1    1    2    0    0  0.20388793476E+02  0.38264737692E+02  0.19312878825E+01  0.43400724913E+02  0.00000000000E+00 0.  1.
         11    1    3    3    0    0  0.17949093361E+01 -0.64373915694E+01  0.21566990814E+01  0.70223258918E+01  0.51100000000E-03 0. -1.
        -11    1    3    3    0    0 -0.11359155034E+01  0.44873081468E+00  0.13840006594E+01  0.18458389587E+01  0.51100000000E-03 0.  1.
         12    1    3    3    0    0 -0.21047787309E+02 -0.32276076938E+02 -0.54719876232E+01  0.38919110237E+02  0.00000000000E+00 0. -1.
</event>
<event>
 7    1  0.4630495E-010  0.4778727E+02  0.7816164E-02  0.1312668E+00
        -11   -1    0    0    0    0  0.00000000000E+00  0.00000000000E+00  0.45593999997E+02  0.45594000000E+02  0.51100000000E-03 0.  1.
         11   -1    0    0    0    0 -0.00000000000E+00 -0.00000000000E+00 -0.45593999997E+02  0.45594000000E+02  0.51100000000E-03 0. -1.
    9900012    2    1    2    0    0  0.19398402042E+02  0.67174847160E+01 -0.38238731089E+02  0.47787272379E+02  0.20000006086E+02 0.  0.
        -12    1    1    2    0    0 -0.19398402042E+02 -0.67174847160E+01  0.38238731089E+02  0.43400727621E+02  0.00000000000E+00 0.  1.
         11    1    3    3    0    0  0.61678774370E+01  0.72845370445E+01 -0.22009938635E+02  0.23990510436E+02  0.51100000000E-03 0. -1.
        -11    1    3    3    0    0  0.87797176743E+01  0.26447590404E+01 -0.15829649830E+02  0.18293605627E+02  0.51100000000E-03 0.  1.
        -12    1    3    3    0    0  0.44508069307E+01 -0.32118113689E+01 -0.39914262431E+00  0.55031563160E+01  0.00000000000E+00 0.  1.
</event>
<event>
 7    1  0.4630495E-010  0.4778727E+02  0.7816164E-02  0.1312668E+00
        -11   -1    0    0    0    0  0.00000000000E+00  0.00000000000E+00  0.45593999997E+02  0.45594000000E+02  0.51100000000E-03 0.  1.
         11   -1    0    0    0    0 -0.00000000000E+00 -0.00000000000E+00 -0.45593999997E+02  0.45594000000E+02  0.51100000000E-03 0. -1.
    9900012    2    1    2    0    0  0.10677563827E+02  0.61227461752E+01 -0.41618807599E+02  0.47787268025E+02  0.19999986231E+02 0.  0.
        -12    1    1    2    0    0 -0.10677563827E+02 -0.61227461752E+01  0.41618807599E+02  0.43400731975E+02  0.00000000000E+00 0.  1.
         11    1    3    3    0    0  0.72583657244E+01 -0.44374776362E+01 -0.16937050916E+02  0.18953595299E+02  0.51100000000E-03 0.  1.
        -11    1    3    3    0    0  0.40572052824E+00  0.26358674152E+00 -0.12861443535E+02  0.12870540672E+02  0.51100000000E-03 0. -1.
        -12    1    3    3    0    0  0.30134775746E+01  0.10296637070E+02 -0.11820313148E+02  0.15963132054E+02  0.00000000000E+00 0.  1.
</event>
<event>
 7    1  0.4630495E-010  0.4778728E+02  0.7816164E-02  0.1312668E+00
        -11   -1    0    0    0    0  0.00000000000E+00  0.00000000000E+00  0.45593999997E+02  0.45594000000E+02  0.51100000000E-03 0. -1.
         11   -1    0    0    0    0 -0.00000000000E+00 -0.00000000000E+00 -0.45593999997E+02  0.45594000000E+02  0.51100000000E-03 0.  1.
    9900012    2    1    2    0    0  0.42680329846E+02  0.20212709424E+01  0.76109668421E+01  0.47787275257E+02  0.20000019206E+02 0.  0.
        -12    1    1    2    0    0 -0.42680329846E+02 -0.20212709424E+01 -0.76109668421E+01  0.43400724743E+02  0.00000000000E+00 0.  1.
         11    1    3    3    0    0  0.42037052244E+01 -0.32930536902E+01  0.12074298901E+01  0.54747810386E+01  0.51100000000E-03 0. -1.
        -11    1    3    3    0    0  0.13791792464E+02 -0.48306903559E+01  0.54839264071E+01  0.15608413045E+02  0.51100000000E-03 0.  1.
         12    1    3    3    0    0  0.24684832158E+02  0.10145014989E+02  0.91961054487E+00  0.26704081173E+02  0.00000000000E+00 0. -1.
</event>
<event>
 7    1  0.4630495E-010  0.4778727E+02  0.7816164E-02  0.1312668E+00
        -11   -1    0    0    0    0  0.00000000000E+00  0.00000000000E+00  0.45593999997E+02  0.45594000000E+02  0.51100000000E-03 0. -1.
         11   -1    0    0    0    0 -0.00000000000E+00 -0.00000000000E+00 -0.45593999997E+02  0.45594000000E+02  0.51100000000E-03 0.  1.
    9900012    2    1    2    0    0  0.39577304977E+02 -0.11579846192E+02  0.13533934197E+02  0.47787270952E+02  0.19999999578E+02 0.  0.
        -12    1    1    2    0    0 -0.39577304977E+02  0.11579846192E+02 -0.13533934197E+02  0.43400729048E+02  0.00000000000E+00 0.  1.
         11    1    3    3    0    0  0.16765299580E+02 -0.25681493552E+00  0.45089849854E+01  0.17362953948E+02  0.51100000000E-03 0. -1.
        -11    1    3    3    0    0  0.51426486764E+01 -0.23357897428E+01 -0.38056817754E+01  0.68107241295E+01  0.51100000000E-03 0.  1.
        -12    1    3    3    0    0  0.17669356720E+02 -0.89872415139E+01  0.12830630987E+02  0.23613592875E+02  0.00000000000E+00 0.  1.
</event>
<event>
 7    1  0.4630495E-010  0.4778721E+02  0.7816164E-02  0.1312668E+00
        -11   -1    0    0    0    0  0.00000000000E+00  0.00000000000E+00  0.45593999997E+02  0.45594000000E+02  0.51100000000E-03 0.  1.
         11   -1    0    0    0    0 -0.00000000000E+00 -0.00000000000E+00 -0.45593999997E+02  0.45594000000E+02  0.51100000000E-03 0. -1.
    9900012    2    1    2    0    0  0.28358652685E+02  0.32842420186E+02  0.88914072057E+00  0.47787212945E+02  0.19999735098E+02 0.  0.
        -12    1    1    2    0    0 -0.28358652685E+02 -0.32842420186E+02 -0.88914072057E+00  0.43400787055E+02  0.00000000000E+00 0.  1.
         11    1    3    3    0    0  0.23017726697E+00 -0.19923281528E+01 -0.63415848860E+00  0.21034519944E+01  0.51100000000E-03 0.  1.
        -11    1    3    3    0    0  0.11357888068E+02  0.10525313039E+02  0.41577906295E+01  0.16033435662E+02  0.51100000000E-03 0. -1.
        -12    1    3    3    0    0  0.16770587350E+02  0.24309435300E+02 -0.26344914203E+01  0.29650325289E+02  0.00000000000E+00 0.  1.
</event>
<event>
 7    1  0.4630495E-010  0.4778727E+02  0.7816164E-02  0.1312668E+00
        -11   -1    0    0    0    0  0.00000000000E+00  0.00000000000E+00  0.45593999997E+02  0.45594000000E+02  0.51100000000E-03 0.  1.
         11   -1    0    0    0    0 -0.00000000000E+00 -0.00000000000E+00 -0.45593999997E+02  0.45594000000E+02  0.51100000000E-03 0. -1.
    9900012    2    1    2    0    0  0.21563046615E+01 -0.12705716009E+02 -0.41443194502E+02  0.47787271439E+02  0.20000001800E+02 0.  0.
        -12    1    1    2    0    0 -0.21563046615E+01  0.12705716009E+02  0.41443194502E+02  0.43400728561E+02  0.00000000000E+00 0.  1.
         11    1    3    3    0    0  0.49319382363E+01 -0.70778146135E+01 -0.28004991086E+02  0.29303566343E+02  0.51100000000E-03 0. -1.
        -11    1    3    3    0    0  0.32985040283E+01 -0.57209731598E+01 -0.65905971477E+01  0.93298249579E+01  0.51100000000E-03 0.  1.
        -12    1    3    3    0    0 -0.60741376031E+01  0.93071764287E-01 -0.68476062685E+01  0.91538801381E+01  0.00000000000E+00 0.  1.
</event>
<event>
 7    1  0.4630495E-010  0.4778727E+02  0.7816164E-02  0.1312668E+00
        -11   -1    0    0    0    0  0.00000000000E+00  0.00000000000E+00  0.45593999997E+02  0.45594000000E+02  0.51100000000E-03 0. -1.
         11   -1    0    0    0    0 -0.00000000000E+00 -0.00000000000E+00 -0.45593999997E+02  0.45594000000E+02  0.51100000000E-03 0.  1.
    9900012    2    1    2    0    0 -0.27754738651E+02  0.12271904853E+02  0.31027383275E+02  0.47787266375E+02  0.19999978711E+02 0.  0.
        -12    1    1    2    0    0  0.27754738651E+02 -0.12271904853E+02 -0.31027383275E+02  0.43400733625E+02  0.00000000000E+00 0.  1.
         11    1    3    3    0    0 -0.27179899887E+01  0.64515817980E+01  0.20390525739E+01  0.72916467917E+01  0.51100000000E-03 0. -1.
        -11    1    3    3    0    0  0.11178818939E+01  0.25314733068E+00  0.29803933443E+01  0.31931940511E+01  0.51100000000E-03 0.  1.
        -12    1    3    3    0    0 -0.26154630556E+02  0.55671757248E+01  0.26007937357E+02  0.37302425532E+02  0.00000000000E+00 0.  1.
</event>
<event>
 7    1  0.4630495E-010  0.4778727E+02  0.7816164E-02  0.1312668E+00
        -11   -1    0    0    0    0  0.00000000000E+00  0.00000000000E+00  0.45593999997E+02  0.45594000000E+02  0.51100000000E-03 0.  1.
         11   -1    0    0    0    0 -0.00000000000E+00 -0.00000000000E+00 -0.45593999997E+02  0.45594000000E+02  0.51100000000E-03 0. -1.
    9900012    2    1    2    0    0 -0.37021070633E+02 -0.14825120021E+02 -0.17125398316E+02  0.47787272795E+02  0.20000007981E+02 0.  0.
        -12    1    1    2    0    0  0.37021070633E+02  0.14825120021E+02  0.17125398316E+02  0.43400727205E+02  0.00000000000E+00 0.  1.
         11    1    3    3    0    0  0.14938710734E+01  0.38605948624E+00 -0.36690325776E+01  0.39802629344E+01  0.51100000000E-03 0.  1.
        -11    1    3    3    0    0 -0.48977698559E+01 -0.50497423812E+00 -0.77538082791E+00  0.49844121250E+01  0.51100000000E-03 0. -1.
        -12    1    3    3    0    0 -0.33617171851E+02 -0.14706205269E+02 -0.12680984910E+02  0.38822597736E+02  0.00000000000E+00 0.  1.
</event>
<event>
 7    1  0.4630495E-010  0.4778727E+02  0.7816164E-02  0.1312668E+00
        -11   -1    0    0    0    0  0.00000000000E+00  0.00000000000E+00  0.45593999997E+02  0.45594000000E+02  0.51100000000E-03 0.  1.
         11   -1    0    0    0    0 -0.00000000000E+00 -0.00000000000E+00 -0.45593999997E+02  0.45594000000E+02  0.51100000000E-03 0. -1.
    9900012    2    1    2    0    0  0.23427884378E+02  0.70843089776E+01 -0.35840899681E+02  0.47787270858E+02  0.19999999148E+02 0.  0.
        -12    1    1    2    0    0 -0.23427884378E+02 -0.70843089776E+01  0.35840899681E+02  0.43400729142E+02  0.00000000000E+00 0.  1.
         11    1    3    3    0    0  0.45994739129E+01  0.79958680877E+01 -0.15842707060E+02  0.18332496666E+02  0.51100000000E-03 0. -1.
        -11    1    3    3    0    0  0.11532909464E+02  0.46128225769E-01 -0.18718568693E+02  0.21986244398E+02  0.51100000000E-03 0.  1.
        -12    1    3    3    0    0  0.72955010007E+01 -0.95768733591E+00 -0.12796239278E+01  0.74685297938E+01  0.00000000000E+00 0.  1.
</event>
<event>
 7    1  0.4630495E-010  0.4778727E+02  0.7816164E-02  0.1312668E+00
        -11   -1    0    0    0    0  0.00000000000E+00  0.00000000000E+00  0.45593999997E+02  0.45594000000E+02  0.51100000000E-03 0.  1.
         11   -1    0    0    0    0 -0.00000000000E+00 -0.00000000000E+00 -0.45593999997E+02  0.45594000000E+02  0.51100000000E-03 0. -1.
    9900012    2    1    2    0    0  0.34095123372E+02  0.28784755462E+01 -0.26699445581E+02  0.47787268974E+02  0.19999990562E+02 0.  0.
        -12    1    1    2    0    0 -0.34095123372E+02 -0.28784755462E+01  0.26699445581E+02  0.43400731026E+02  0.00000000000E+00 0.  1.
         11    1    3    3    0    0  0.53862133303E+01  0.24505719410E+01 -0.11611524604E+02  0.13032424977E+02  0.51100000000E-03 0. -1.
        -11    1    3    3    0    0  0.87180420498E+01  0.54556138587E+01 -0.24377578351E+01  0.10569325583E+02  0.51100000000E-03 0.  1.
        -12    1    3    3    0    0  0.19990867992E+02 -0.50277102536E+01 -0.12650163141E+02  0.24185518414E+02  0.00000000000E+00 0.  1.
</event>
<event>
 7    1  0.4630495E-010  0.4778728E+02  0.7816164E-02  0.1312668E+00
        -11   -1    0    0    0    0  0.00000000000E+00  0.00000000000E+00  0.45593999997E+02  0.45594000000E+02  0.51100000000E-03 0.  1.
         11   -1    0    0    0    0 -0.00000000000E+00 -0.00000000000E+00 -0.45593999997E+02  0.45594000000E+02  0.51100000000E-03 0. -1.
    9900012    2    1    2    0    0  0.53300595555E+01 -0.34374043476E+02 -0.25954546335E+02  0.47787275638E+02  0.20000020942E+02 0.  0.
        -12    1    1    2    0    0 -0.53300595555E+01  0.34374043476E+02  0.25954546335E+02  0.43400724362E+02  0.00000000000E+00 0.  1.
         11    1    3    3    0    0  0.68618534691E+01 -0.11440700304E+02 -0.10045807731E+02  0.16700087117E+02  0.51100000000E-03 0. -1.
        -11    1    3    3    0    0  0.12783538854E+01 -0.23738972882E+02 -0.14445591924E+02  0.27818126256E+02  0.51100000000E-03 0.  1.
         12    1    3    3    0    0 -0.28101477989E+01  0.80562970979E+00 -0.14631466797E+01  0.32690622642E+01  0.00000000000E+00 0. -1.
</event>
<event>
 7    1  0.4630495E-010  0.4778727E+02  0.7816164E-02  0.1312668E+00
        -11   -1    0    0    0    0  0.00000000000E+00  0.00000000000E+00  0.45593999997E+02  0.45594000000E+02  0.51100000000E-03 0.  1.
         11   -1    0    0    0    0 -0.00000000000E+00 -0.00000000000E+00 -0.45593999997E+02  0.45594000000E+02  0.51100000000E-03 0. -1.
    9900012    2    1    2    0    0  0.29056139175E+02 -0.21533329614E+02 -0.23993320913E+02  0.47787274701E+02  0.20000016674E+02 0.  0.
        -12    1    1    2    0    0 -0.29056139175E+02  0.21533329614E+02  0.23993320913E+02  0.43400725299E+02  0.00000000000E+00 0.  1.
         11    1    3    3    0    0  0.82469921608E+01 -0.69069473501E+01 -0.20580043283E+01  0.10952359722E+02  0.51100000000E-03 0. -1.
        -11    1    3    3    0    0  0.21318684875E+02 -0.16414950691E+02 -0.17691070158E+02  0.32201100829E+02  0.51100000000E-03 0.  1.
        -12    1    3    3    0    0 -0.50953786126E+00  0.17885684277E+01 -0.42442464265E+01  0.46338141505E+01  0.00000000000E+00 0.  1.
</event>
<event>
 7    1  0.4630495E-010  0.4778728E+02  0.7816164E-02  0.1312668E+00
        -11   -1    0    0    0    0  0.00000000000E+00  0.00000000000E+00  0.45593999997E+02  0.45594000000E+02  0.51100000000E-03 0. -1.
         11   -1    0    0    0    0 -0.00000000000E+00 -0.00000000000E+00 -0.45593999997E+02  0.45594000000E+02  0.51100000000E-03 0.  1.
    9900012    2    1    2    0    0 -0.14230075489E+02  0.17455298967E+02  0.37100408540E+02  0.47787276224E+02  0.20000023614E+02 0.  0.
        -12    1    1    2    0    0  0.14230075489E+02 -0.17455298967E+02 -0.37100408540E+02  0.43400723776E+02  0.00000000000E+00 0.  1.
         11    1    3    3    0    0 -0.42684562303E+01  0.18135407877E+01  0.34004365791E+01  0.57507928121E+01  0.51100000000E-03 0. -1.
        -11    1    3    3    0    0 -0.83520514966E+01  0.13326260974E+02  0.35405136219E+02  0.38741059184E+02  0.51100000000E-03 0.  1.
         12    1    3    3    0    0 -0.16095677625E+01  0.23154972051E+01 -0.17051642584E+01  0.32954242272E+01  0.00000000000E+00 0. -1.
</event>
<event>
 7    1  0.4630495E-010  0.4778724E+02  0.7816164E-02  0.1312668E+00
        -11   -1    0    0    0    0  0.00000000000E+00  0.00000000000E+00  0.45593999997E+02  0.45594000000E+02  0.51100000000E-03 0. -1.
         11   -1    0    0    0    0 -0.00000000000E+00 -0.00000000000E+00 -0.45593999997E+02  0.45594000000E+02  0.51100000000E-03 0.  1.
    9900012    2    1    2    0    0 -0.14312929754E+02  0.26907674890E+02  0.30898920996E+02  0.47787236817E+02  0.19999843941E+02 0.  0.
        -12    1    1    2    0    0  0.14312929754E+02 -0.26907674890E+02 -0.30898920996E+02  0.43400763183E+02  0.00000000000E+00 0.  1.
         11    1    3    3    0    0 -0.54072421597E+01  0.79257552945E+01  0.14462722467E+02  0.17355869502E+02  0.51100000000E-03 0.  1.
        -11    1    3    3    0    0 -0.75466098101E+01  0.21239740355E+02  0.16254029205E+02  0.27789770701E+02  0.51100000000E-03 0. -1.
        -12    1    3    3    0    0 -0.13590777847E+01 -0.22578207589E+01  0.18216932423E+00  0.26415966132E+01  0.00000000000E+00 0.  1.
</event>
<event>
 7    1  0.4630495E-010  0.4778727E+02  0.7816164E-02  0.1312668E+00
        -11   -1    0    0    0    0  0.00000000000E+00  0.00000000000E+00  0.45593999997E+02  0.45594000000E+02  0.51100000000E-03 0. -1.
         11   -1    0    0    0    0 -0.00000000000E+00 -0.00000000000E+00 -0.45593999997E+02  0.45594000000E+02  0.51100000000E-03 0.  1.
    9900012    2    1    2    0    0 -0.24807318095E+02 -0.11857092715E+02  0.33580195223E+02  0.47787272011E+02  0.20000004407E+02 0.  0.
        -12    1    1    2    0    0  0.24807318095E+02  0.11857092715E+02 -0.33580195223E+02  0.43400727989E+02  0.00000000000E+00 0.  1.
         11    1    3    3    0    0 -0.14301546421E+02 -0.86458420770E+01  0.18788062244E+02  0.25145100883E+02  0.51100000000E-03 0. -1.
        -11    1    3    3    0    0 -0.11854889546E+02  0.16783393927E+01  0.11457264791E+02  0.16571787653E+02  0.51100000000E-03 0.  1.
        -12    1    3    3    0    0  0.13491178719E+01 -0.48895900310E+01  0.33348681885E+01  0.60703834753E+01  0.00000000000E+00 0.  1.
</event>
<event>
 7    1  0.4630495E-010  0.4778727E+02  0.7816164E-02  0.1312668E+00
        -11   -1    0    0    0    0  0.00000000000E+00  0.00000000000E+00  0.45593999997E+02  0.45594000000E+02  0.51100000000E-03 0.  1.
         11   -1    0    0    0    0 -0.00000000000E+00 -0.00000000000E+00 -0.45593999997E+02  0.45594000000E+02  0.51100000000E-03 0. -1.
    9900012    2    1    2    0    0 -0.17926873756E+02  0.23302952697E+02 -0.31925272187E+02  0.47787269462E+02  0.19999992784E+02 0.  0.
        -12    1    1    2    0    0  0.17926873756E+02 -0.23302952697E+02  0.31925272187E+02  0.43400730538E+02  0.00000000000E+00 0.  1.
         11    1    3    3    0    0 -0.39090934680E+01  0.10141447254E+02 -0.15643224106E+02  0.19048370661E+02  0.51100000000E-03 0. -1.
        -11    1    3    3    0    0 -0.85964944590E+01  0.12552974640E+02 -0.17459038969E+02  0.23158042475E+02  0.51100000000E-03 0.  1.
        -12    1    3    3    0    0 -0.54212858287E+01  0.60853080251E+00  0.11769908883E+01  0.55808563254E+01  0.00000000000E+00 0.  1.
</event>
<event>
 7    1  0.4630495E-010  0.4778727E+02  0.7816164E-02  0.1312668E+00
        -11   -1    0    0    0    0  0.00000000000E+00  0.00000000000E+00  0.45593999997E+02  0.45594000000E+02  0.51100000000E-03 0.  1.
         11   -1    0    0    0    0 -0.00000000000E+00 -0.00000000000E+00 -0.45593999997E+02  0.45594000000E+02  0.51100000000E-03 0. -1.
    9900012    2    1    2    0    0  0.15616905448E+02  0.10602859295E+02 -0.39080877296E+02  0.47787270384E+02  0.19999996988E+02 0.  0.
        -12    1    1    2    0    0 -0.15616905448E+02 -0.10602859295E+02  0.39080877296E+02  0.43400729616E+02  0.00000000000E+00 0.  1.
         11    1    3    3    0    0  0.27076449734E+01  0.64637509107E+00 -0.28795042221E+01  0.40050826317E+01  0.51100000000E-03 0. -1.
        -11    1    3    3    0    0  0.11647999184E+02 -0.23957553473E+01 -0.14226642948E+02  0.18542192386E+02  0.51100000000E-03 0.  1.
         12    1    3    3    0    0  0.12612612913E+01  0.12352239551E+02 -0.21974730126E+02  0.25239995366E+02  0.00000000000E+00 0. -1.
</event>
<event>
 7    1  0.4630495E-010  0.4778727E+02  0.7816164E-02  0.1312668E+00
        -11   -1    0    0    0    0  0.00000000000E+00  0.00000000000E+00  0.45593999997E+02  0.45594000000E+02  0.51100000000E-03 0.  1.
         11   -1    0    0    0    0 -0.00000000000E+00 -0.00000000000E+00 -0.45593999997E+02  0.45594000000E+02  0.51100000000E-03 0. -1.
    9900012    2    1    2    0    0 -0.44819508354E+01  0.17668532172E+02 -0.39387289733E+02  0.47787268382E+02  0.19999987862E+02 0.  0.
        -12    1    1    2    0    0  0.44819508354E+01 -0.17668532172E+02  0.39387289733E+02  0.43400731618E+02  0.00000000000E+00 0.  1.
         11    1    3    3    0    0  0.50208997086E+00 -0.82535483352E+00 -0.22781042738E+01  0.24744826294E+01  0.51100000000E-03 0. -1.
        -11    1    3    3    0    0  0.34181422531E+01 -0.15566593671E+01 -0.27559253912E+01  0.46585416034E+01  0.51100000000E-03 0.  1.
         12    1    3    3    0    0 -0.84021830593E+01  0.20050546373E+02 -0.34353260068E+02  0.40654244149E+02  0.00000000000E+00 0. -1.
</event>
<event>
 7    1  0.4630495E-010  0.4778727E+02  0.7816164E-02  0.1312668E+00
        -11   -1    0    0    0    0  0.00000000000E+00  0.00000000000E+00  0.45593999997E+02  0.45594000000E+02  0.51100000000E-03 0.  1.
         11   -1    0    0    0    0 -0.00000000000E+00 -0.00000000000E+00 -0.45593999997E+02  0.45594000000E+02  0.51100000000E-03 0. -1.
    9900012    2    1    2    0    0 -0.83154591034E+01 -0.86858610322E+01 -0.41701706676E+02  0.47787269803E+02  0.19999994339E+02 0.  0.
        -12    1    1    2    0    0  0.83154591034E+01  0.86858610322E+01  0.41701706676E+02  0.43400730197E+02  0.00000000000E+00 0.  1.
         11    1    3    3    0    0  0.46805355042E+01 -0.39763039096E+01 -0.24846436641E+02  0.25594214569E+02  0.51100000000E-03 0. -1.
        -11    1    3    3    0    0 -0.66899033162E+01 -0.46113950824E+01 -0.97798562260E+01  0.12714769327E+02  0.51100000000E-03 0.  1.
         12    1    3    3    0    0 -0.63060912914E+01 -0.98162040180E-01 -0.70754138089E+01  0.94782859067E+01  0.00000000000E+00 0. -1.
</event>
<event>
 7    1  0.4630495E-010  0.4778727E+02  0.7816164E-02  0.1312668E+00
        -11   -1    0    0    0    0  0.00000000000E+00  0.00000000000E+00  0.45593999997E+02  0.45594000000E+02  0.51100000000E-03 0.  1.
         11   -1    0    0    0    0 -0.00000000000E+00 -0.00000000000E+00 -0.45593999997E+02  0.45594000000E+02  0.51100000000E-03 0. -1.
    9900012    2    1    2    0    0 -0.96459462872E+01 -0.63008649321E+01 -0.41843495369E+02  0.47787270936E+02  0.19999999503E+02 0.  0.
        -12    1    1    2    0    0  0.96459462872E+01  0.63008649321E+01  0.41843495369E+02  0.43400729064E+02  0.00000000000E+00 0.  1.
         11    1    3    3    0    0 -0.37771542628E+01 -0.36203573627E+01 -0.12693554108E+02  0.13729537425E+02  0.51100000000E-03 0. -1.
        -11    1    3    3    0    0 -0.66687103765E+01  0.55526399840E+01 -0.19525570221E+02  0.21367063476E+02  0.51100000000E-03 0.  1.
        -12    1    3    3    0    0  0.79991835210E+00 -0.82331475535E+01 -0.96243710397E+01  0.12690670034E+02  0.00000000000E+00 0.  1.
</event>
<event>
 7    1  0.4630495E-010  0.4778727E+02  0.7816164E-02  0.1312668E+00
        -11   -1    0    0    0    0  0.00000000000E+00  0.00000000000E+00  0.45593999997E+02  0.45594000000E+02  0.51100000000E-03 0.  1.
         11   -1    0    0    0    0 -0.00000000000E+00 -0.00000000000E+00 -0.45593999997E+02  0.45594000000E+02  0.51100000000E-03 0. -1.
    9900012    2    1    2    0    0  0.66421180335E+00  0.87627146507E+01 -0.42501728701E+02  0.47787270882E+02  0.19999999260E+02 0.  0.
        -12    1    1    2    0    0 -0.66421180335E+00 -0.87627146507E+01  0.42501728701E+02  0.43400729118E+02  0.00000000000E+00 0.  1.
         11    1    3    3    0    0 -0.61344134050E+01  0.28324006033E+01 -0.96688467357E+01  0.11795766972E+02  0.51100000000E-03 0. -1.
        -11    1    3    3    0    0 -0.27906309325E+01  0.13257731674E+01 -0.14234461710E+02  0.14565891526E+02  0.51100000000E-03 0.  1.
         12    1    3    3    0    0  0.95892561408E+01  0.46045408800E+01 -0.18598420255E+02  0.21425612384E+02  0.00000000000E+00 0. -1.
</event>
<event>
 7    1  0.4630495E-010  0.4778727E+02  0.7816164E-02  0.1312668E+00
        -11   -1    0    0    0    0  0.00000000000E+00  0.00000000000E+00  0.45593999997E+02  0.45594000000E+02  0.51100000000E-03 0.  1.
         11   -1    0    0    0    0 -0.00000000000E+00 -0.00000000000E+00 -0.45593999997E+02  0.45594000000E+02  0.51100000000E-03 0. -1.
    9900012    2    1    2    0    0 -0.10075022032E+02  0.12904315873E+02 -0.40194472697E+02  0.47787273364E+02  0.20000010578E+02 0.  0.
        -12    1    1    2    0    0  0.10075022032E+02 -0.12904315873E+02  0.40194472697E+02  0.43400726636E+02  0.00000000000E+00 0.  1.
         11    1    3    3    0    0  0.23530263082E+01  0.68544527341E+01 -0.12893614011E+02  0.14790724716E+02  0.51100000000E-03 0. -1.
        -11    1    3    3    0    0 -0.52261741681E+01  0.80349288900E+01 -0.86727071578E+01  0.12926284401E+02  0.51100000000E-03 0.  1.
        -12    1    3    3    0    0 -0.72018741720E+01 -0.19850657507E+01 -0.18628151528E+02  0.20070264248E+02  0.00000000000E+00 0.  1.
</event>
<event>
 7    1  0.4630495E-010  0.4778727E+02  0.7816164E-02  0.1312668E+00
        -11   -1    0    0    0    0  0.00000000000E+00  0.00000000000E+00  0.45593999997E+02  0.45594000000E+02  0.51100000000E-03 0.  1.
         11   -1    0    0    0    0 -0.00000000000E+00 -0.00000000000E+00 -0.45593999997E+02  0.45594000000E+02  0.51100000000E-03 0. -1.
    9900012    2    1    2    0    0 -0.33098736276E+02  0.27426150098E+02 -0.59919518331E+01  0.47787267990E+02  0.19999986073E+02 0.  0.
        -12    1    1    2    0    0  0.33098736276E+02 -0.27426150098E+02  0.59919518331E+01  0.43400732010E+02  0.00000000000E+00 0.  1.
         11    1    3    3    0    0 -0.13815445339E+02  0.21426712930E+01 -0.77050566483E+00  0.14001830217E+02  0.51100000000E-03 0. -1.
        -11    1    3    3    0    0 -0.42637857756E+01  0.41620618601E+01  0.28985380384E+01  0.66260207583E+01  0.51100000000E-03 0.  1.
         12    1    3    3    0    0 -0.15019505161E+02  0.21121416945E+02 -0.81199842067E+01  0.27159417014E+02  0.00000000000E+00 0. -1.
</event>
<event>
 7    1  0.4630495E-010  0.4778727E+02  0.7816164E-02  0.1312668E+00
        -11   -1    0    0    0    0  0.00000000000E+00  0.00000000000E+00  0.45593999997E+02  0.45594000000E+02  0.51100000000E-03 0.  1.
         11   -1    0    0    0    0 -0.00000000000E+00 -0.00000000000E+00 -0.45593999997E+02  0.45594000000E+02  0.51100000000E-03 0. -1.
    9900012    2    1    2    0    0  0.41163095365E+01 -0.11141657456E+02 -0.41743776734E+02  0.47787269233E+02  0.19999991741E+02 0.  0.
        -12    1    1    2    0    0 -0.41163095365E+01  0.11141657456E+02  0.41743776734E+02  0.43400730767E+02  0.00000000000E+00 0.  1.
         11    1    3    3    0    0  0.44482254045E+01 -0.28878176523E+01 -0.74863712022E+01  0.91745274582E+01  0.51100000000E-03 0. -1.
        -11    1    3    3    0    0  0.52028353352E+01 -0.26976297321E+01 -0.34023921916E+01  0.67766492150E+01  0.51100000000E-03 0.  1.
        -12    1    3    3    0    0 -0.55347512033E+01 -0.55562100718E+01 -0.30855013340E+02  0.31836092560E+02  0.00000000000E+00 0.  1.
</event>
<event>
 7    1  0.4630495E-010  0.4778727E+02  0.7816164E-02  0.1312668E+00
        -11   -1    0    0    0    0  0.00000000000E+00  0.00000000000E+00  0.45593999997E+02  0.45594000000E+02  0.51100000000E-03 0.  1.
         11   -1    0    0    0    0 -0.00000000000E+00 -0.00000000000E+00 -0.45593999997E+02  0.45594000000E+02  0.51100000000E-03 0. -1.
    9900012    2    1    2    0    0  0.35898736142E+01 -0.29301770285E+02 -0.31814182912E+02  0.47787272255E+02  0.20000005521E+02 0.  0.
        -12    1    1    2    0    0 -0.35898736142E+01  0.29301770285E+02  0.31814182912E+02  0.43400727745E+02  0.00000000000E+00 0.  1.
         11    1    3    3    0    0  0.13829121812E+01  0.88579818967E+00  0.29942150726E+00  0.16693525792E+01  0.51100000000E-03 0. -1.
        -11    1    3    3    0    0 -0.22965255874E+01 -0.18227398169E+01  0.13413996576E+00  0.29350304947E+01  0.51100000000E-03 0.  1.
         12    1    3    3    0    0  0.45034870204E+01 -0.28364828657E+02 -0.32247744385E+02  0.43182889181E+02  0.00000000000E+00 0. -1.
</event>
<event>
 7    1  0.4630495E-010  0.4778728E+02  0.7816164E-02  0.1312668E+00
        -11   -1    0    0    0    0  0.00000000000E+00  0.00000000000E+00  0.45593999997E+02  0.45594000000E+02  0.51100000000E-03 0. -1.
         11   -1    0    0    0    0 -0.00000000000E+00 -0.00000000000E+00 -0.45593999997E+02  0.45594000000E+02  0.51100000000E-03 0.  1.
    9900012    2    1    2    0    0  0.18733154101E+02  0.94740582662E+01  0.37985968111E+02  0.47787278624E+02  0.20000034560E+02 0.  0.
        -12    1    1    2    0    0 -0.18733154101E+02 -0.94740582662E+01 -0.37985968111E+02  0.43400721376E+02  0.00000000000E+00 0.  1.
         11    1    3    3    0    0  0.13219553666E+02  0.63089037192E+01  0.20605768033E+02  0.25281545478E+02  0.51100000000E-03 0. -1.
        -11    1    3    3    0    0  0.70797988727E+01  0.52019209020E+01  0.55317284974E+01  0.10381885839E+02  0.51100000000E-03 0.  1.
         12    1    3    3    0    0 -0.15661984374E+01 -0.20367663550E+01  0.11848471581E+02  0.12123847308E+02  0.00000000000E+00 0. -1.
</event>
<event>
 7    1  0.4630495E-010  0.4778727E+02  0.7816164E-02  0.1312668E+00
        -11   -1    0    0    0    0  0.00000000000E+00  0.00000000000E+00  0.45593999997E+02  0.45594000000E+02  0.51100000000E-03 0.  1.
         11   -1    0    0    0    0 -0.00000000000E+00 -0.00000000000E+00 -0.45593999997E+02  0.45594000000E+02  0.51100000000E-03 0. -1.
    9900012    2    1    2    0    0  0.52920622220E+01  0.10991626874E+02 -0.41650945821E+02  0.47787273374E+02  0.20000010621E+02 0.  0.
        -12    1    1    2    0    0 -0.52920622220E+01 -0.10991626874E+02  0.41650945821E+02  0.43400726626E+02  0.00000000000E+00 0.  1.
         11    1    3    3    0    0  0.63774456454E+01 -0.19908399185E+01 -0.78892929414E+01  0.10338094598E+02  0.51100000000E-03 0.  1.
        -11    1    3    3    0    0 -0.28505610873E+01  0.18212282635E+01 -0.24951369557E+01  0.42033652696E+01  0.51100000000E-03 0. -1.
         12    1    3    3    0    0  0.17651776639E+01  0.11161238529E+02 -0.31266515924E+02  0.33245813506E+02  0.00000000000E+00 0. -1.
</event>
<event>
 7    1  0.4630495E-010  0.4778727E+02  0.7816164E-02  0.1312668E+00
        -11   -1    0    0    0    0  0.00000000000E+00  0.00000000000E+00  0.45593999997E+02  0.45594000000E+02  0.51100000000E-03 0. -1.
         11   -1    0    0    0    0 -0.00000000000E+00 -0.00000000000E+00 -0.45593999997E+02  0.45594000000E+02  0.51100000000E-03 0.  1.
    9900012    2    1    2    0    0  0.58984555122E+01 -0.10164021555E+02  0.41779471457E+02  0.47787270204E+02  0.19999996167E+02 0.  0.
        -12    1    1    2    0    0 -0.58984555122E+01  0.10164021555E+02 -0.41779471457E+02  0.43400729796E+02  0.00000000000E+00 0.  1.
         11    1    3    3    0    0  0.25330413208E+01 -0.49603219110E+01  0.25303449542E+02  0.25909180820E+02  0.51100000000E-03 0. -1.
        -11    1    3    3    0    0 -0.20903810881E+01 -0.32748698318E+01  0.15537352966E+02  0.16015736104E+02  0.51100000000E-03 0.  1.
        -12    1    3    3    0    0  0.54557952794E+01 -0.19288298117E+01  0.93866894933E+00  0.58623532792E+01  0.00000000000E+00 0.  1.
</event>
<event>
 7    1  0.4630495E-010  0.4778727E+02  0.7816164E-02  0.1312668E+00
        -11   -1    0    0    0    0  0.00000000000E+00  0.00000000000E+00  0.45593999997E+02  0.45594000000E+02  0.51100000000E-03 0.  1.
         11   -1    0    0    0    0 -0.00000000000E+00 -0.00000000000E+00 -0.45593999997E+02  0.45594000000E+02  0.51100000000E-03 0. -1.
    9900012    2    1    2    0    0  0.39948248716E+02  0.25849194613E+01  0.16765405095E+02  0.47787271986E+02  0.20000004295E+02 0.  0.
        -12    1    1    2    0    0 -0.39948248716E+02 -0.25849194613E+01 -0.16765405095E+02  0.43400728014E+02  0.00000000000E+00 0.  1.
         11    1    3    3    0    0  0.49051122418E+01  0.63115039121E+01  0.40890602069E+01  0.89786202377E+01  0.51100000000E-03 0. -1.
        -11    1    3    3    0    0  0.94493814299E+01 -0.93151995953E+00  0.84648509411E+01  0.12720544035E+02  0.51100000000E-03 0.  1.
         12    1    3    3    0    0  0.25593755044E+02 -0.27950644912E+01  0.42114939471E+01  0.26088107713E+02  0.00000000000E+00 0. -1.
</event>
<event>
 7    1  0.4630495E-010  0.4778727E+02  0.7816164E-02  0.1312668E+00
        -11   -1    0    0    0    0  0.00000000000E+00  0.00000000000E+00  0.45593999997E+02  0.45594000000E+02  0.51100000000E-03 0. -1.
         11   -1    0    0    0    0 -0.00000000000E+00 -0.00000000000E+00 -0.45593999997E+02  0.45594000000E+02  0.51100000000E-03 0.  1.
    9900012    2    1    2    0    0  0.16794559196E+02  0.22504992156E+02  0.33092165835E+02  0.47787270396E+02  0.19999997045E+02 0.  0.
        -12    1    1    2    0    0 -0.16794559196E+02 -0.22504992156E+02 -0.33092165835E+02  0.43400729604E+02  0.00000000000E+00 0.  1.
         11    1    3    3    0    0 -0.25146897215E+01  0.17738889135E+01  0.62657367019E+01  0.69806735313E+01  0.51100000000E-03 0. -1.
        -11    1    3    3    0    0  0.99380458479E+00  0.19499176430E+01 -0.11352158049E+01  0.24654698441E+01  0.51100000000E-03 0.  1.
         12    1    3    3    0    0  0.18315444332E+02  0.18781185599E+02  0.27961644938E+02  0.38341127021E+02  0.00000000000E+00 0. -1.
</event>
<event>
 7    1  0.4630495E-010  0.4778727E+02  0.7816164E-02  0.1312668E+00
        -11   -1    0    0    0    0  0.00000000000E+00  0.00000000000E+00  0.45593999997E+02  0.45594000000E+02  0.51100000000E-03 0.  1.
         11   -1    0    0    0    0 -0.00000000000E+00 -0.00000000000E+00 -0.45593999997E+02  0.45594000000E+02  0.51100000000E-03 0. -1.
    9900012    2    1    2    0    0 -0.17246908260E+02 -0.23230901621E+02 -0.32349534878E+02  0.47787273722E+02  0.20000012207E+02 0.  0.
        -12    1    1    2    0    0  0.17246908260E+02  0.23230901621E+02  0.32349534878E+02  0.43400726278E+02  0.00000000000E+00 0.  1.
         11    1    3    3    0    0 -0.74209577149E+01 -0.64939225088E+01 -0.66117702982E+01  0.11872537627E+02  0.51100000000E-03 0. -1.
        -11    1    3    3    0    0 -0.13286157108E+02 -0.85218631577E+01 -0.13471329997E+02  0.20751406086E+02  0.51100000000E-03 0.  1.
        -12    1    3    3    0    0  0.34602065627E+01 -0.82151159542E+01 -0.12266434583E+02  0.15163330010E+02  0.00000000000E+00 0.  1.
</event>
<event>
 7    1  0.4965117E-010  0.4778727E+02  0.7816164E-02  0.1312668E+00
        -11   -1    0    0    0    0  0.00000000000E+00  0.00000000000E+00  0.45593999997E+02  0.45594000000E+02  0.51100000000E-03 0. -1.
         11   -1    0    0    0    0 -0.00000000000E+00 -0.00000000000E+00 -0.45593999997E+02  0.45594000000E+02  0.51100000000E-03 0.  1.
    9900012    2    1    2    0    0 -0.10999149552E+02  0.16995055059E+02  0.38390236672E+02  0.47787268911E+02  0.19999990273E+02 0.  0.
        -12    1    1    2    0    0  0.10999149552E+02 -0.16995055059E+02 -0.38390236672E+02  0.43400731089E+02  0.00000000000E+00 0.  1.
         11    1    3    3    0    0 -0.13021801825E+01  0.51705329605E+01  0.24354176944E+01  0.58618549906E+01  0.51100000000E-03 0. -1.
        -11    1    3    3    0    0 -0.22948844005E+01  0.14094298495E+01 -0.96205991793E+00  0.28598158086E+01  0.51100000000E-03 0.  1.
         12    1    3    3    0    0 -0.74020849693E+01  0.10415092249E+02  0.36916878895E+02  0.39065598112E+02  0.00000000000E+00 0. -1.
</event>
<event>
 7    1  0.4630495E-010  0.4778727E+02  0.7816164E-02  0.1312668E+00
        -11   -1    0    0    0    0  0.00000000000E+00  0.00000000000E+00  0.45593999997E+02  0.45594000000E+02  0.51100000000E-03 0. -1.
         11   -1    0    0    0    0 -0.00000000000E+00 -0.00000000000E+00 -0.45593999997E+02  0.45594000000E+02  0.51100000000E-03 0.  1.
    9900012    2    1    2    0    0 -0.30650707063E+02  0.28588295635E+02  0.11263517778E+02  0.47787270473E+02  0.19999997394E+02 0.  0.
        -12    1    1    2    0    0  0.30650707063E+02 -0.28588295635E+02 -0.11263517778E+02  0.43400729527E+02  0.00000000000E+00 0.  1.
         11    1    3    3    0    0 -0.53727393746E+01  0.69723375071E+01  0.15999798292E+01  0.89464939734E+01  0.51100000000E-03 0. -1.
        -11    1    3    3    0    0 -0.83998792509E+01  0.16181486949E+02 -0.80519678674E+00  0.18249570774E+02  0.51100000000E-03 0.  1.
         12    1    3    3    0    0 -0.16878088437E+02  0.54344711792E+01  0.10468734735E+02  0.20591205726E+02  0.00000000000E+00 0. -1.
</event>
<event>
 7    1  0.4630495E-010  0.4778727E+02  0.7816164E-02  0.1312668E+00
        -11   -1    0    0    0    0  0.00000000000E+00  0.00000000000E+00  0.45593999997E+02  0.45594000000E+02  0.51100000000E-03 0.  1.
         11   -1    0    0    0    0 -0.00000000000E+00 -0.00000000000E+00 -0.45593999997E+02  0.45594000000E+02  0.51100000000E-03 0. -1.
    9900012    2    1    2    0    0 -0.27189054887E+02  0.23722756858E+02 -0.24116588304E+02  0.47787265789E+02  0.19999976040E+02 0.  0.
        -12    1    1    2    0    0  0.27189054887E+02 -0.23722756858E+02  0.24116588304E+02  0.43400734211E+02  0.00000000000E+00 0.  1.
         11    1    3    3    0    0 -0.12004919063E+02  0.16513820328E+02 -0.12490496536E+02  0.23934010268E+02  0.51100000000E-03 0. -1.
        -11    1    3    3    0    0 -0.13225923207E+02  0.85408486344E+01 -0.45452916589E+01  0.16386909916E+02  0.51100000000E-03 0.  1.
        -12    1    3    3    0    0 -0.19582126172E+01 -0.13319121045E+01 -0.70808001092E+01  0.74663456051E+01  0.00000000000E+00 0.  1.
</event>
<event>
 7    1  0.4630495E-010  0.4778727E+02  0.7816164E-02  0.1312668E+00
        -11   -1    0    0    0    0  0.00000000000E+00  0.00000000000E+00  0.45593999997E+02  0.45594000000E+02  0.51100000000E-03 0.  1.
         11   -1    0    0    0    0 -0.00000000000E+00 -0.00000000000E+00 -0.45593999997E+02  0.45594000000E+02  0.51100000000E-03 0. -1.
    9900012    2    1    2    0    0 -0.24390084123E+02  0.18873188944E+02 -0.30537678541E+02  0.47787271030E+02  0.19999999935E+02 0.  0.
        -12    1    1    2    0    0  0.24390084123E+02 -0.18873188944E+02  0.30537678541E+02  0.43400728970E+02  0.00000000000E+00 0.  1.
         11    1    3    3    0    0 -0.25160785887E+01  0.10344774594E+02 -0.58841152013E+01  0.12164202597E+02  0.51100000000E-03 0. -1.
        -11    1    3    3    0    0  0.11804163542E+01  0.66366621962E+00 -0.12396002111E+01  0.18358770560E+01  0.51100000000E-03 0.  1.
         12    1    3    3    0    0 -0.23054421888E+02  0.78647481308E+01 -0.23413963129E+02  0.33787191377E+02  0.00000000000E+00 0. -1.
</event>
<event>
 7    1  0.4630495E-010  0.4778727E+02  0.7816164E-02  0.1312668E+00
        -11   -1    0    0    0    0  0.00000000000E+00  0.00000000000E+00  0.45593999997E+02  0.45594000000E+02  0.51100000000E-03 0.  1.
         11   -1    0    0    0    0 -0.00000000000E+00 -0.00000000000E+00 -0.45593999997E+02  0.45594000000E+02  0.51100000000E-03 0. -1.
    9900012    2    1    2    0    0  0.92336748668E+01 -0.27051538822E+02 -0.32658487808E+02  0.47787270397E+02  0.19999997046E+02 0.  0.
        -12    1    1    2    0    0 -0.92336748668E+01  0.27051538822E+02  0.32658487808E+02  0.43400729603E+02  0.00000000000E+00 0.  1.
         11    1    3    3    0    0  0.54597090065E+01 -0.40208787997E+01 -0.10217077224E+01  0.68570967391E+01  0.51100000000E-03 0. -1.
        -11    1    3    3    0    0 -0.31554387031E+01 -0.27456272407E+01 -0.29466253450E+01  0.51164307421E+01  0.51100000000E-03 0.  1.
         12    1    3    3    0    0  0.69294045634E+01 -0.20285032781E+02 -0.28690154741E+02  0.35813742915E+02  0.00000000000E+00 0. -1.
</event>
<event>
 7    1  0.4630495E-010  0.4778727E+02  0.7816164E-02  0.1312668E+00
        -11   -1    0    0    0    0  0.00000000000E+00  0.00000000000E+00  0.45593999997E+02  0.45594000000E+02  0.51100000000E-03 0.  1.
         11   -1    0    0    0    0 -0.00000000000E+00 -0.00000000000E+00 -0.45593999997E+02  0.45594000000E+02  0.51100000000E-03 0. -1.
    9900012    2    1    2    0    0 -0.35733956799E+02 -0.22695496238E+02 -0.95719415368E+01  0.47787270942E+02  0.19999999533E+02 0.  0.
        -12    1    1    2    0    0  0.35733956799E+02  0.22695496238E+02  0.95719415368E+01  0.43400729058E+02  0.00000000000E+00 0.  1.
         11    1    3    3    0    0 -0.25173356286E+02 -0.20341682049E+02 -0.38473597413E+01  0.32592699682E+02  0.51100000000E-03 0. -1.
        -11    1    3    3    0    0  0.43170196921E+00 -0.16068564745E+01  0.13143541284E+01  0.21203493476E+01  0.51100000000E-03 0.  1.
        -12    1    3    3    0    0 -0.10992302482E+02 -0.74695771371E+00 -0.70389359240E+01  0.13074221912E+02  0.00000000000E+00 0.  1.
</event>
<event>
 7    1  0.4630495E-010  0.4778727E+02  0.7816164E-02  0.1312668E+00
        -11   -1    0    0    0    0  0.00000000000E+00  0.00000000000E+00  0.45593999997E+02  0.45594000000E+02  0.51100000000E-03 0. -1.
         11   -1    0    0    0    0 -0.00000000000E+00 -0.00000000000E+00 -0.45593999997E+02  0.45594000000E+02  0.51100000000E-03 0.  1.
    9900012    2    1    2    0    0  0.77840089039E+01 -0.40078800139E+02  0.14721491320E+02  0.47787270491E+02  0.19999997479E+02 0.  0.
        -12    1    1    2    0    0 -0.77840089039E+01  0.40078800139E+02 -0.14721491320E+02  0.43400729509E+02  0.00000000000E+00 0.  1.
         11    1    3    3    0    0 -0.94326353788E+00 -0.77827674675E+00  0.75098329827E+00  0.14350738559E+01  0.51100000000E-03 0. -1.
        -11    1    3    3    0    0 -0.51244182487E+01 -0.95368089827E+01  0.41420765015E+00  0.10834295372E+02  0.51100000000E-03 0.  1.
         12    1    3    3    0    0  0.13851690690E+02 -0.29763714409E+02  0.13556300372E+02  0.35517901264E+02  0.00000000000E+00 0. -1.
</event>
<event>
 7    1  0.4630495E-010  0.4778727E+02  0.7816164E-02  0.1312668E+00
        -11   -1    0    0    0    0  0.00000000000E+00  0.00000000000E+00  0.45593999997E+02  0.45594000000E+02  0.51100000000E-03 0.  1.
         11   -1    0    0    0    0 -0.00000000000E+00 -0.00000000000E+00 -0.45593999997E+02  0.45594000000E+02  0.51100000000E-03 0. -1.
    9900012    2    1    2    0    0 -0.32219457631E+02 -0.21950868938E+02 -0.19070636271E+02  0.47787271147E+02  0.20000000468E+02 0.  0.
        -12    1    1    2    0    0  0.32219457631E+02  0.21950868938E+02  0.19070636271E+02  0.43400728853E+02  0.00000000000E+00 0.  1.
         11    1    3    3    0    0 -0.25738411298E+01  0.94773659673E+00 -0.22863527316E+00  0.27522967077E+01  0.51100000000E-03 0. -1.
        -11    1    3    3    0    0 -0.42614851310E+01  0.20851255053E+01 -0.58541887757E-02  0.47442637392E+01  0.51100000000E-03 0.  1.
        -12    1    3    3    0    0 -0.25384131370E+02 -0.24983731040E+02 -0.18836146809E+02  0.40290710700E+02  0.00000000000E+00 0.  1.
</event>
<event>
 7    1  0.4630495E-010  0.4778727E+02  0.7816164E-02  0.1312668E+00
        -11   -1    0    0    0    0  0.00000000000E+00  0.00000000000E+00  0.45593999997E+02  0.45594000000E+02  0.51100000000E-03 0.  1.
         11   -1    0    0    0    0 -0.00000000000E+00 -0.00000000000E+00 -0.45593999997E+02  0.45594000000E+02  0.51100000000E-03 0. -1.
    9900012    2    1    2    0    0 -0.22315275772E+02  0.27293716644E+02 -0.25312148465E+02  0.47787270041E+02  0.19999995427E+02 0.  0.
        -12    1    1    2    0    0  0.22315275772E+02 -0.27293716644E+02  0.25312148465E+02  0.43400729959E+02  0.00000000000E+00 0.  1.
         11    1    3    3    0    0 -0.93402224576E+01  0.90120930424E+01 -0.97376076039E+01  0.16225861415E+02  0.51100000000E-03 0. -1.
        -11    1    3    3    0    0 -0.69430676316E+01  0.49794653783E+01  0.19342773492E+01  0.87602906753E+01  0.51100000000E-03 0.  1.
        -12    1    3    3    0    0 -0.60319856823E+01  0.13302158224E+02 -0.17508818210E+02  0.22801117951E+02  0.00000000000E+00 0.  1.
</event>
<event>
 7    1  0.4630495E-010  0.4778727E+02  0.7816164E-02  0.1312668E+00
        -11   -1    0    0    0    0  0.00000000000E+00  0.00000000000E+00  0.45593999997E+02  0.45594000000E+02  0.51100000000E-03 0. -1.
         11   -1    0    0    0    0 -0.00000000000E+00 -0.00000000000E+00 -0.45593999997E+02  0.45594000000E+02  0.51100000000E-03 0.  1.
    9900012    2    1    2    0    0  0.24172433804E+02  0.27952630204E+02 -0.22758890294E+02  0.47787272140E+02  0.20000004995E+02 0.  0.
        -12    1    1    2    0    0 -0.24172433804E+02 -0.27952630204E+02  0.22758890294E+02  0.43400727860E+02  0.00000000000E+00 0.  1.
         11    1    3    3    0    0  0.14126183827E+02  0.18525402557E+02 -0.89210925019E+01  0.24946452676E+02  0.51100000000E-03 0. -1.
        -11    1    3    3    0    0  0.12533377047E+02  0.79016213747E+01 -0.94564806540E+01  0.17576865112E+02  0.51100000000E-03 0.  1.
        -12    1    3    3    0    0 -0.24871270694E+01  0.15256062725E+01 -0.43813171385E+01  0.52639543525E+01  0.00000000000E+00 0.  1.
</event>
<event>
 7    1  0.6572771E-010  0.4778727E+02  0.7816164E-02  0.1312668E+00
        -11   -1    0    0    0    0  0.00000000000E+00  0.00000000000E+00  0.45593999997E+02  0.45594000000E+02  0.51100000000E-03 0. -1.
         11   -1    0    0    0    0 -0.00000000000E+00 -0.00000000000E+00 -0.45593999997E+02  0.45594000000E+02  0.51100000000E-03 0.  1.
    9900012    2    1    2    0    0  0.10217883012E+02  0.31877747064E+02  0.27622953058E+02  0.47787269283E+02  0.19999991969E+02 0.  0.
        -12    1    1    2    0    0 -0.10217883012E+02 -0.31877747064E+02 -0.27622953058E+02  0.43400730717E+02  0.00000000000E+00 0.  1.
         11    1    3    3    0    0  0.12717875904E+01 -0.86464212679E+00  0.30610710075E+01  0.34256686437E+01  0.51100000000E-03 0. -1.
        -11    1    3    3    0    0  0.36087040103E+01  0.51282783254E+01 -0.10070979447E+01  0.63510809905E+01  0.51100000000E-03 0.  1.
         12    1    3    3    0    0  0.53373914117E+01  0.27614110865E+02  0.25568979996E+02  0.38010519649E+02  0.00000000000E+00 0. -1.
</event>
<event>
 7    1  0.4630495E-010  0.4778727E+02  0.7816164E-02  0.1312668E+00
        -11   -1    0    0    0    0  0.00000000000E+00  0.00000000000E+00  0.45593999997E+02  0.45594000000E+02  0.51100000000E-03 0.  1.
         11   -1    0    0    0    0 -0.00000000000E+00 -0.00000000000E+00 -0.45593999997E+02  0.45594000000E+02  0.51100000000E-03 0. -1.
    9900012    2    1    2    0    0 -0.95603577039E+01 -0.20406987650E+02 -0.37091478929E+02  0.47787269666E+02  0.19999993717E+02 0.  0.
        -12    1    1    2    0    0  0.95603577039E+01  0.20406987650E+02  0.37091478929E+02  0.43400730334E+02  0.00000000000E+00 0.  1.
         11    1    3    3    0    0  0.39478338111E+00 -0.96595199890E+01 -0.12718509017E+02  0.15975689413E+02  0.51100000000E-03 0. -1.
        -11    1    3    3    0    0  0.13045505174E+01 -0.44750089680E+01 -0.50848896047E+00  0.46889357641E+01  0.51100000000E-03 0.  1.
        -12    1    3    3    0    0 -0.11259691602E+02 -0.62724586933E+01 -0.23864480951E+02  0.27122644489E+02  0.00000000000E+00 0.  1.
</event>
<event>
 7    1  0.4630495E-010  0.4778727E+02  0.7816164E-02  0.1312668E+00
        -11   -1    0    0    0    0  0.00000000000E+00  0.00000000000E+00  0.45593999997E+02  0.45594000000E+02  0.51100000000E-03 0.  1.
         11   -1    0    0    0    0 -0.00000000000E+00 -0.00000000000E+00 -0.45593999997E+02  0.45594000000E+02  0.51100000000E-03 0. -1.
    9900012    2    1    2    0    0 -0.22360080703E+02 -0.12754850429E+02 -0.34942298900E+02  0.47787266470E+02  0.19999979143E+02 0.  0.
        -12    1    1    2    0    0  0.22360080703E+02  0.12754850429E+02  0.34942298900E+02  0.43400733530E+02  0.00000000000E+00 0.  1.
         11    1    3    3    0    0 -0.92131830344E+01 -0.12787869012E+02 -0.20501291268E+02  0.25859529760E+02  0.51100000000E-03 0. -1.
        -11    1    3    3    0    0  0.15794727948E+01  0.19626241025E+00 -0.55293442687E+00  0.16849302611E+01  0.51100000000E-03 0.  1.
        -12    1    3    3    0    0 -0.14726370463E+02 -0.16324382735E+00 -0.13888073206E+02  0.20242806449E+02  0.00000000000E+00 0.  1.
</event>
<event>
 7    1  0.4630495E-010  0.4778727E+02  0.7816164E-02  0.1312668E+00
        -11   -1    0    0    0    0  0.00000000000E+00  0.00000000000E+00  0.45593999997E+02  0.45594000000E+02  0.51100000000E-03 0.  1.
         11   -1    0    0    0    0 -0.00000000000E+00 -0.00000000000E+00 -0.45593999997E+02  0.45594000000E+02  0.51100000000E-03 0. -1.
    9900012    2    1    2    0    0  0.29544722241E+02  0.14106466555E+02 -0.28491057053E+02  0.47787270248E+02  0.19999996371E+02 0.  0.
        -12    1    1    2    0    0 -0.29544722241E+02 -0.14106466555E+02  0.28491057053E+02  0.43400729752E+02  0.00000000000E+00 0.  1.
         11    1    3    3    0    0  0.12799278637E+01  0.21782562477E+01 -0.24965893559E+01  0.35518972803E+01  0.51100000000E-03 0. -1.
        -11    1    3    3    0    0  0.84366195586E+01  0.70076228661E+01  0.25794477997E+00  0.10970408542E+02  0.51100000000E-03 0.  1.
         12    1    3    3    0    0  0.19828174819E+02  0.49205874417E+01 -0.26252412477E+02  0.33264964426E+02  0.00000000000E+00 0. -1.
</event>
<event>
 7    1  0.4630495E-010  0.4778727E+02  0.7816164E-02  0.1312668E+00
        -11   -1    0    0    0    0  0.00000000000E+00  0.00000000000E+00  0.45593999997E+02  0.45594000000E+02  0.51100000000E-03 0.  1.
         11   -1    0    0    0    0 -0.00000000000E+00 -0.00000000000E+00 -0.45593999997E+02  0.45594000000E+02  0.51100000000E-03 0. -1.
    9900012    2    1    2    0    0 -0.65222508521E+01 -0.57595016384E+00 -0.42903983946E+02  0.47787270591E+02  0.19999997935E+02 0.  0.
        -12    1    1    2    0    0  0.65222508521E+01  0.57595016384E+00  0.42903983946E+02  0.43400729409E+02  0.00000000000E+00 0.  1.
         11    1    3    3    0    0  0.38921066448E+01  0.85599285693E+00 -0.63781306898E+01  0.75207558970E+01  0.51100000000E-03 0. -1.
        -11    1    3    3    0    0  0.24249579831E+01  0.21239747926E+01 -0.11141108410E+02  0.11598102733E+02  0.51100000000E-03 0.  1.
         12    1    3    3    0    0 -0.12839315480E+02 -0.35559178133E+01 -0.25384744846E+02  0.28668411961E+02  0.00000000000E+00 0. -1.
</event>
<event>
 7    1  0.4630495E-010  0.4778727E+02  0.7816164E-02  0.1312668E+00
        -11   -1    0    0    0    0  0.00000000000E+00  0.00000000000E+00  0.45593999997E+02  0.45594000000E+02  0.51100000000E-03 0.  1.
         11   -1    0    0    0    0 -0.00000000000E+00 -0.00000000000E+00 -0.45593999997E+02  0.45594000000E+02  0.51100000000E-03 0. -1.
    9900012    2    1    2    0    0 -0.21745923210E+02 -0.37551305717E+02  0.79826847747E+00  0.47787274547E+02  0.20000015968E+02 0.  0.
        -12    1    1    2    0    0  0.21745923210E+02  0.37551305717E+02 -0.79826847747E+00  0.43400725453E+02  0.00000000000E+00 0.  1.
         11    1    3    3    0    0 -0.92103034184E+01 -0.12213593828E+02  0.17062576842E+01  0.15391974493E+02  0.51100000000E-03 0. -1.
        -11    1    3    3    0    0 -0.24003746187E+01 -0.19483070859E+02 -0.45236766313E+01  0.20144862843E+02  0.51100000000E-03 0.  1.
        -12    1    3    3    0    0 -0.10135245173E+02 -0.58546410297E+01  0.36156874245E+01  0.12250437211E+02  0.00000000000E+00 0.  1.
</event>
<event>
 7    1  0.4630495E-010  0.4778727E+02  0.7816164E-02  0.1312668E+00
        -11   -1    0    0    0    0  0.00000000000E+00  0.00000000000E+00  0.45593999997E+02  0.45594000000E+02  0.51100000000E-03 0. -1.
         11   -1    0    0    0    0 -0.00000000000E+00 -0.00000000000E+00 -0.45593999997E+02  0.45594000000E+02  0.51100000000E-03 0.  1.
    9900012    2    1    2    0    0 -0.16006017108E+02  0.28625538642E+02  0.28425502764E+02  0.47787271278E+02  0.20000001065E+02 0.  0.
        -12    1    1    2    0    0  0.16006017108E+02 -0.28625538642E+02 -0.28425502764E+02  0.43400728722E+02  0.00000000000E+00 0.  1.
         11    1    3    3    0    0 -0.59826703828E+01  0.10052010561E+02  0.17145114587E+02  0.20755486400E+02  0.51100000000E-03 0. -1.
        -11    1    3    3    0    0 -0.73964151821E+01  0.92230056610E+01  0.12544190318E+02  0.17237386750E+02  0.51100000000E-03 0.  1.
        -12    1    3    3    0    0 -0.26269315435E+01  0.93505224197E+01 -0.12638021401E+01  0.97943981287E+01  0.00000000000E+00 0.  1.
</event>
<event>
 7    1  0.4630495E-010  0.4778727E+02  0.7816164E-02  0.1312668E+00
        -11   -1    0    0    0    0  0.00000000000E+00  0.00000000000E+00  0.45593999997E+02  0.45594000000E+02  0.51100000000E-03 0. -1.
         11   -1    0    0    0    0 -0.00000000000E+00 -0.00000000000E+00 -0.45593999997E+02  0.45594000000E+02  0.51100000000E-03 0.  1.
    9900012    2    1    2    0    0  0.69608294929E+01  0.28576096711E+02  0.31915152717E+02  0.47787269321E+02  0.19999992143E+02 0.  0.
        -12    1    1    2    0    0 -0.69608294929E+01 -0.28576096711E+02 -0.31915152717E+02  0.43400730679E+02  0.00000000000E+00 0.  1.
         11    1    3    3    0    0  0.34575598946E+01  0.15897088745E+02  0.16958560314E+02  0.23500317427E+02  0.51100000000E-03 0. -1.
        -11    1    3    3    0    0 -0.64493839732E-01  0.13732799030E+02  0.15290081384E+02  0.20551898152E+02  0.51100000000E-03 0.  1.
        -12    1    3    3    0    0  0.35677634381E+01 -0.10537910641E+01 -0.33348898018E+00  0.37350537422E+01  0.00000000000E+00 0.  1.
</event>
<event>
 7    1  0.4630495E-010  0.4778727E+02  0.7816164E-02  0.1312668E+00
        -11   -1    0    0    0    0  0.00000000000E+00  0.00000000000E+00  0.45593999997E+02  0.45594000000E+02  0.51100000000E-03 0.  1.
         11   -1    0    0    0    0 -0.00000000000E+00 -0.00000000000E+00 -0.45593999997E+02  0.45594000000E+02  0.51100000000E-03 0. -1.
    9900012    2    1    2    0    0 -0.16468294356E+02 -0.43963220313E+01 -0.39913544014E+02  0.47787270027E+02  0.19999995362E+02 0.  0.
        -12    1    1    2    0    0  0.16468294356E+02  0.43963220313E+01  0.39913544014E+02  0.43400729973E+02  0.00000000000E+00 0.  1.
         11    1    3    3    0    0 -0.78712311887E+01 -0.20421014169E+01 -0.20180025760E+02  0.21756835674E+02  0.51100000000E-03 0. -1.
        -11    1    3    3    0    0 -0.75765268547E+01 -0.52829459782E+01 -0.20793673305E+02  0.22752804820E+02  0.51100000000E-03 0.  1.
        -12    1    3    3    0    0 -0.10205363128E+01  0.29287253639E+01  0.10601550512E+01  0.32776295329E+01  0.00000000000E+00 0.  1.
</event>
<event>
 7    1  0.4630495E-010  0.4778727E+02  0.7816164E-02  0.1312668E+00
        -11   -1    0    0    0    0  0.00000000000E+00  0.00000000000E+00  0.45593999997E+02  0.45594000000E+02  0.51100000000E-03 0. -1.
         11   -1    0    0    0    0 -0.00000000000E+00 -0.00000000000E+00 -0.45593999997E+02  0.45594000000E+02  0.51100000000E-03 0.  1.
    9900012    2    1    2    0    0  0.10538104673E+02 -0.30389484859E+02  0.29138475485E+02  0.47787271968E+02  0.20000004210E+02 0.  0.
        -12    1    1    2    0    0 -0.10538104673E+02  0.30389484859E+02 -0.29138475485E+02  0.43400728032E+02  0.00000000000E+00 0.  1.
         11    1    3    3    0    0  0.69278590342E+01 -0.14214298565E+02  0.25088686125E+02  0.29656090205E+02  0.51100000000E-03 0. -1.
        -11    1    3    3    0    0  0.51991502289E+00 -0.58963148777E-01  0.14182326736E+01  0.15116786899E+01  0.51100000000E-03 0.  1.
         12    1    3    3    0    0  0.30903306164E+01 -0.16116223145E+02  0.26315566862E+01  0.16619503073E+02  0.00000000000E+00 0. -1.
</event>
<event>
 7    1  0.4630495E-010  0.4778727E+02  0.7816164E-02  0.1312668E+00
        -11   -1    0    0    0    0  0.00000000000E+00  0.00000000000E+00  0.45593999997E+02  0.45594000000E+02  0.51100000000E-03 0. -1.
         11   -1    0    0    0    0 -0.00000000000E+00 -0.00000000000E+00 -0.45593999997E+02  0.45594000000E+02  0.51100000000E-03 0.  1.
    9900012    2    1    2    0    0 -0.17572248549E+01  0.40509288294E+02  0.15476861405E+02  0.47787268252E+02  0.19999987270E+02 0.  0.
        -12    1    1    2    0    0  0.17572248549E+01 -0.40509288294E+02 -0.15476861405E+02  0.43400731748E+02  0.00000000000E+00 0.  1.
         11    1    3    3    0    0 -0.71342992650E+01  0.15090989000E+02  0.80166087048E+01  0.18517618378E+02  0.51100000000E-03 0. -1.
        -11    1    3    3    0    0  0.17856179608E+01  0.21829097166E+02  0.94003811349E+01  0.23834115891E+02  0.51100000000E-03 0.  1.
        -12    1    3    3    0    0  0.35914564493E+01  0.35892021280E+01 -0.19401284343E+01  0.54355339834E+01  0.00000000000E+00 0.  1.
</event>
<event>
 7    1  0.4630495E-010  0.4778727E+02  0.7816164E-02  0.1312668E+00
        -11   -1    0    0    0    0  0.00000000000E+00  0.00000000000E+00  0.45593999997E+02  0.45594000000E+02  0.51100000000E-03 0.  1.
         11   -1    0    0    0    0 -0.00000000000E+00 -0.00000000000E+00 -0.45593999997E+02  0.45594000000E+02  0.51100000000E-03 0. -1.
    9900012    2    1    2    0    0  0.10397967567E+02  0.37123031501E+02 -0.19934550102E+02  0.47787268611E+02  0.19999988906E+02 0.  0.
        -12    1    1    2    0    0 -0.10397967567E+02 -0.37123031501E+02  0.19934550102E+02  0.43400731389E+02  0.00000000000E+00 0.  1.
         11    1    3    3    0    0 -0.27723205143E+01  0.17945246336E+02 -0.91627785375E+01  0.20338980748E+02  0.51100000000E-03 0. -1.
        -11    1    3    3    0    0  0.20383876257E+00 -0.94174169364E+00 -0.14929549082E+01  0.17768911834E+01  0.51100000000E-03 0.  1.
         12    1    3    3    0    0  0.12966449318E+02  0.20119526859E+02 -0.92788166563E+01  0.25671396680E+02  0.00000000000E+00 0. -1.
</event>
<event>
 7    1  0.4630495E-010  0.4778728E+02  0.7816164E-02  0.1312668E+00
        -11   -1    0    0    0    0  0.00000000000E+00  0.00000000000E+00  0.45593999997E+02  0.45594000000E+02  0.51100000000E-03 0.  1.
         11   -1    0    0    0    0 -0.00000000000E+00 -0.00000000000E+00 -0.45593999997E+02  0.45594000000E+02  0.51100000000E-03 0. -1.
    9900012    2    1    2    0    0 -0.18500221304E+02  0.17164076062E+02 -0.35309477659E+02  0.47787275260E+02  0.20000019221E+02 0.  0.
        -12    1    1    2    0    0  0.18500221304E+02 -0.17164076062E+02  0.35309477659E+02  0.43400724740E+02  0.00000000000E+00 0.  1.
         11    1    3    3    0    0 -0.10531347946E+01  0.41375156904E+01 -0.66691531380E+01  0.79186951465E+01  0.51100000000E-03 0. -1.
        -11    1    3    3    0    0 -0.11849033272E+02 -0.33046460203E+00 -0.68086585900E+01  0.13669916912E+02  0.51100000000E-03 0.  1.
        -12    1    3    3    0    0 -0.55980532375E+01  0.13357024974E+02 -0.21831665931E+02  0.26198663201E+02  0.00000000000E+00 0.  1.
</event>
<event>
 7    1  0.4630495E-010  0.4778727E+02  0.7816164E-02  0.1312668E+00
        -11   -1    0    0    0    0  0.00000000000E+00  0.00000000000E+00  0.45593999997E+02  0.45594000000E+02  0.51100000000E-03 0. -1.
         11   -1    0    0    0    0 -0.00000000000E+00 -0.00000000000E+00 -0.45593999997E+02  0.45594000000E+02  0.51100000000E-03 0.  1.
    9900012    2    1    2    0    0  0.28766004533E+02 -0.30556078811E+02  0.11066444047E+02  0.47787272438E+02  0.20000006354E+02 0.  0.
        -12    1    1    2    0    0 -0.28766004533E+02  0.30556078811E+02 -0.11066444047E+02  0.43400727562E+02  0.00000000000E+00 0.  1.
         11    1    3    3    0    0  0.17471678060E+02 -0.12065872382E+02  0.31772521183E+01  0.21469507257E+02  0.51100000000E-03 0. -1.
        -11    1    3    3    0    0  0.12771888258E+02 -0.18370941580E+02  0.93381514248E+01  0.24244869488E+02  0.51100000000E-03 0.  1.
        -12    1    3    3    0    0 -0.14775617848E+01 -0.11926484887E+00 -0.14489594963E+01  0.20728956930E+01  0.00000000000E+00 0.  1.
</event>
<event>
 7    1  0.4630495E-010  0.4778727E+02  0.7816164E-02  0.1312668E+00
        -11   -1    0    0    0    0  0.00000000000E+00  0.00000000000E+00  0.45593999997E+02  0.45594000000E+02  0.51100000000E-03 0.  1.
         11   -1    0    0    0    0 -0.00000000000E+00 -0.00000000000E+00 -0.45593999997E+02  0.45594000000E+02  0.51100000000E-03 0. -1.
    9900012    2    1    2    0    0 -0.30837719464E+02 -0.65388533799E+01 -0.29831224210E+02  0.47787268633E+02  0.19999989007E+02 0.  0.
        -12    1    1    2    0    0  0.30837719464E+02  0.65388533799E+01  0.29831224210E+02  0.43400731367E+02  0.00000000000E+00 0.  1.
         11    1    3    3    0    0 -0.17048050125E+02 -0.47670868692E+01 -0.14995856903E+02  0.23199932215E+02  0.51100000000E-03 0. -1.
        -11    1    3    3    0    0 -0.59160488252E+01 -0.73554880530E+01 -0.45392012017E+01  0.10474119820E+02  0.51100000000E-03 0.  1.
        -12    1    3    3    0    0 -0.78736205134E+01  0.55837215423E+01 -0.10296166106E+02  0.14113216598E+02  0.00000000000E+00 0.  1.
</event>
<event>
 7    1  0.4630495E-010  0.4778727E+02  0.7816164E-02  0.1312668E+00
        -11   -1    0    0    0    0  0.00000000000E+00  0.00000000000E+00  0.45593999997E+02  0.45594000000E+02  0.51100000000E-03 0. -1.
         11   -1    0    0    0    0 -0.00000000000E+00 -0.00000000000E+00 -0.45593999997E+02  0.45594000000E+02  0.51100000000E-03 0.  1.
    9900012    2    1    2    0    0  0.37058183490E+02 -0.72678774789E+01  0.21389062512E+02  0.47787274179E+02  0.20000014293E+02 0.  0.
        -12    1    1    2    0    0 -0.37058183490E+02  0.72678774789E+01 -0.21389062512E+02  0.43400725821E+02  0.00000000000E+00 0.  1.
         11    1    3    3    0    0  0.25183117377E+02 -0.71128553143E+01  0.19444588720E+02  0.32601750602E+02  0.51100000000E-03 0. -1.
        -11    1    3    3    0    0  0.39085565776E+01  0.35911182141E+01  0.33414633741E+01  0.62720269682E+01  0.51100000000E-03 0.  1.
         12    1    3    3    0    0  0.79665095351E+01 -0.37461403787E+01 -0.13969895822E+01  0.89134966092E+01  0.00000000000E+00 0. -1.
</event>
<event>
 7    1  0.4630495E-010  0.4778727E+02  0.7816164E-02  0.1312668E+00
        -11   -1    0    0    0    0  0.00000000000E+00  0.00000000000E+00  0.45593999997E+02  0.45594000000E+02  0.51100000000E-03 0.  1.
         11   -1    0    0    0    0 -0.00000000000E+00 -0.00000000000E+00 -0.45593999997E+02  0.45594000000E+02  0.51100000000E-03 0. -1.
    9900012    2    1    2    0    0  0.21836674584E+02  0.23330485368E+02 -0.29367869163E+02  0.47787266785E+02  0.19999980581E+02 0.  0.
        -12    1    1    2    0    0 -0.21836674584E+02 -0.23330485368E+02  0.29367869163E+02  0.43400733215E+02  0.00000000000E+00 0.  1.
         11    1    3    3    0    0  0.48613043314E+01 -0.25510070821E+00 -0.47304374550E+01  0.67878122359E+01  0.51100000000E-03 0. -1.
        -11    1    3    3    0    0 -0.11435503377E+01 -0.11590149550E+01 -0.31697841613E+01  0.35635031824E+01  0.51100000000E-03 0.  1.
         12    1    3    3    0    0  0.18118920590E+02  0.24744601031E+02 -0.21467647547E+02  0.37435951367E+02  0.00000000000E+00 0. -1.
</event>
<event>
 7    1  0.4630495E-010  0.4778727E+02  0.7816164E-02  0.1312668E+00
        -11   -1    0    0    0    0  0.00000000000E+00  0.00000000000E+00  0.45593999997E+02  0.45594000000E+02  0.51100000000E-03 0. -1.
         11   -1    0    0    0    0 -0.00000000000E+00 -0.00000000000E+00 -0.45593999997E+02  0.45594000000E+02  0.51100000000E-03 0.  1.
    9900012    2    1    2    0    0  0.34602086595E+02  0.16317431010E+02  0.20495377838E+02  0.47787268852E+02  0.19999990004E+02 0.  0.
        -12    1    1    2    0    0 -0.34602086595E+02 -0.16317431010E+02 -0.20495377838E+02  0.43400731148E+02  0.00000000000E+00 0.  1.
         11    1    3    3    0    0  0.76818866105E+00  0.24045406334E+01  0.19760947089E+00  0.25319911613E+01  0.51100000000E-03 0.  1.
        -11    1    3    3    0    0  0.29644799369E+02  0.12876663788E+02  0.95942287569E+01  0.33714563999E+02  0.51100000000E-03 0. -1.
        -12    1    3    3    0    0  0.41890985647E+01  0.10362265877E+01  0.10703539610E+02  0.11540713692E+02  0.00000000000E+00 0.  1.
</event>
<event>
 7    1  0.4630495E-010  0.4778725E+02  0.7816164E-02  0.1312668E+00
        -11   -1    0    0    0    0  0.00000000000E+00  0.00000000000E+00  0.45593999997E+02  0.45594000000E+02  0.51100000000E-03 0. -1.
         11   -1    0    0    0    0 -0.00000000000E+00 -0.00000000000E+00 -0.45593999997E+02  0.45594000000E+02  0.51100000000E-03 0.  1.
    9900012    2    1    2    0    0 -0.27638028217E+02 -0.23709434439E+01  0.33378787185E+02  0.47787246430E+02  0.19999887771E+02 0.  0.
        -12    1    1    2    0    0  0.27638028217E+02  0.23709434439E+01 -0.33378787185E+02  0.43400753570E+02  0.00000000000E+00 0.  1.
         11    1    3    3    0    0 -0.19178601710E+02 -0.50720805004E+01  0.12713508370E+02  0.23562216777E+02  0.51100000000E-03 0. -1.
        -11    1    3    3    0    0 -0.68885571054E+01 -0.20823464275E+01  0.90277677549E+01  0.11545084518E+02  0.51100000000E-03 0.  1.
        -12    1    3    3    0    0 -0.15708694018E+01  0.47834834840E+01  0.11637511060E+02  0.12679945134E+02  0.00000000000E+00 0.  1.
</event>
<event>
 7    1  0.4630495E-010  0.4778727E+02  0.7816164E-02  0.1312668E+00
        -11   -1    0    0    0    0  0.00000000000E+00  0.00000000000E+00  0.45593999997E+02  0.45594000000E+02  0.51100000000E-03 0.  1.
         11   -1    0    0    0    0 -0.00000000000E+00 -0.00000000000E+00 -0.45593999997E+02  0.45594000000E+02  0.51100000000E-03 0. -1.
    9900012    2    1    2    0    0 -0.44078085941E+01  0.40558595900E+02 -0.14805226473E+02  0.47787271793E+02  0.20000003413E+02 0.  0.
        -12    1    1    2    0    0  0.44078085941E+01 -0.40558595900E+02  0.14805226473E+02  0.43400728207E+02  0.00000000000E+00 0.  1.
         11    1    3    3    0    0 -0.23610274425E+01  0.25616020201E+02 -0.12196119952E+02  0.28469286673E+02  0.51100000000E-03 0. -1.
        -11    1    3    3    0    0 -0.70515933340E+00  0.15697851013E+02  0.63560523352E+00  0.15726530781E+02  0.51100000000E-03 0.  1.
         12    1    3    3    0    0 -0.13416218181E+01 -0.75527531401E+00 -0.32447117546E+01  0.35914543396E+01  0.00000000000E+00 0. -1.
</event>
<event>
 7    1  0.6889777E-010  0.4778725E+02  0.7816164E-02  0.1312668E+00
        -11   -1    0    0    0    0  0.00000000000E+00  0.00000000000E+00  0.45593999997E+02  0.45594000000E+02  0.51100000000E-03 0. -1.
         11   -1    0    0    0    0 -0.00000000000E+00 -0.00000000000E+00 -0.45593999997E+02  0.45594000000E+02  0.51100000000E-03 0.  1.
    9900012    2    1    2    0    0 -0.67142002628E+01  0.20916653192E+02  0.37430446878E+02  0.47787248631E+02  0.19999897806E+02 0.  0.
        -12    1    1    2    0    0  0.67142002628E+01 -0.20916653192E+02 -0.37430446878E+02  0.43400751369E+02  0.00000000000E+00 0.  1.
         11    1    3    3    0    0  0.38658969659E+01  0.37676622395E+01  0.10194503371E+02  0.11535525014E+02  0.51100000000E-03 0. -1.
        -11    1    3    3    0    0 -0.40275627031E+01 -0.13543372725E+01  0.57432133430E+01  0.71442277777E+01  0.51100000000E-03 0.  1.
         12    1    3    3    0    0 -0.65525345256E+01  0.18503328225E+02  0.21492730164E+02  0.29107495839E+02  0.00000000000E+00 0. -1.
</event>
<event>
 7    1  0.4630495E-010  0.4778727E+02  0.7816164E-02  0.1312668E+00
        -11   -1    0    0    0    0  0.00000000000E+00  0.00000000000E+00  0.45593999997E+02  0.45594000000E+02  0.51100000000E-03 0.  1.
         11   -1    0    0    0    0 -0.00000000000E+00 -0.00000000000E+00 -0.45593999997E+02  0.45594000000E+02  0.51100000000E-03 0. -1.
    9900012    2    1    2    0    0  0.14676086874E+02  0.55790014971E+01 -0.40461221771E+02  0.47787271310E+02  0.20000001209E+02 0.  0.
        -12    1    1    2    0    0 -0.14676086874E+02 -0.55790014971E+01  0.40461221771E+02  0.43400728690E+02  0.00000000000E+00 0.  1.
         11    1    3    3    0    0  0.57232409382E+01 -0.33120176619E+01 -0.18864302924E+02  0.19989669154E+02  0.51100000000E-03 0. -1.
        -11    1    3    3    0    0  0.10678271982E+02  0.30396920315E+01 -0.11385124400E+02  0.15902398499E+02  0.51100000000E-03 0.  1.
        -12    1    3    3    0    0 -0.17254260458E+01  0.58513271276E+01 -0.10211794447E+02  0.11895203656E+02  0.00000000000E+00 0.  1.
</event>
<event>
 7    1  0.4630495E-010  0.4778727E+02  0.7816164E-02  0.1312668E+00
        -11   -1    0    0    0    0  0.00000000000E+00  0.00000000000E+00  0.45593999997E+02  0.45594000000E+02  0.51100000000E-03 0.  1.
         11   -1    0    0    0    0 -0.00000000000E+00 -0.00000000000E+00 -0.45593999997E+02  0.45594000000E+02  0.51100000000E-03 0. -1.
    9900012    2    1    2    0    0 -0.42476674010E+02 -0.52782203851E+01 -0.71760658342E+01  0.47787269980E+02  0.19999995146E+02 0.  0.
        -12    1    1    2    0    0  0.42476674010E+02  0.52782203851E+01  0.71760658342E+01  0.43400730020E+02  0.00000000000E+00 0.  1.
         11    1    3    3    0    0 -0.37654961223E+02 -0.62278121231E+01 -0.75488641444E+01  0.38905874861E+02  0.51100000000E-03 0. -1.
        -11    1    3    3    0    0 -0.52585266631E+01 -0.42852831502E+00 -0.23677525546E+01  0.57829051180E+01  0.51100000000E-03 0.  1.
        -12    1    3    3    0    0  0.43681387617E+00  0.13781200529E+01  0.27405508647E+01  0.30984900008E+01  0.00000000000E+00 0.  1.
</event>
<event>
 7    1  0.4630495E-010  0.4778727E+02  0.7816164E-02  0.1312668E+00
        -11   -1    0    0    0    0  0.00000000000E+00  0.00000000000E+00  0.45593999997E+02  0.45594000000E+02  0.51100000000E-03 0.  1.
         11   -1    0    0    0    0 -0.00000000000E+00 -0.00000000000E+00 -0.45593999997E+02  0.45594000000E+02  0.51100000000E-03 0. -1.
    9900012    2    1    2    0    0  0.17379353604E+02  0.38950818438E+02 -0.80258976179E+01  0.47787271650E+02  0.20000002763E+02 0.  0.
        -12    1    1    2    0    0 -0.17379353604E+02 -0.38950818438E+02  0.80258976179E+01  0.43400728350E+02  0.00000000000E+00 0.  1.
         11    1    3    3    0    0  0.66669759280E+01  0.13983101540E+02 -0.60182818229E+01  0.16619127927E+02  0.51100000000E-03 0. -1.
        -11    1    3    3    0    0  0.94892074261E+01  0.49455761860E+01 -0.29071349167E+01  0.11088517262E+02  0.51100000000E-03 0.  1.
        -12    1    3    3    0    0  0.12231702497E+01  0.20022140712E+02  0.89951912168E+00  0.20079626461E+02  0.00000000000E+00 0.  1.
</event>
<event>
 7    1  0.4630495E-010  0.4778727E+02  0.7816164E-02  0.1312668E+00
        -11   -1    0    0    0    0  0.00000000000E+00  0.00000000000E+00  0.45593999997E+02  0.45594000000E+02  0.51100000000E-03 0.  1.
         11   -1    0    0    0    0 -0.00000000000E+00 -0.00000000000E+00 -0.45593999997E+02  0.45594000000E+02  0.51100000000E-03 0. -1.
    9900012    2    1    2    0    0 -0.64280459433E+01  0.25141661744E+02 -0.34787930594E+02  0.47787273683E+02  0.20000012028E+02 0.  0.
        -12    1    1    2    0    0  0.64280459433E+01 -0.25141661744E+02  0.34787930594E+02  0.43400726317E+02  0.00000000000E+00 0.  1.
         11    1    3    3    0    0  0.10650233595E+00  0.11675846208E+02 -0.11394784652E+02  0.16314957706E+02  0.51100000000E-03 0. -1.
        -11    1    3    3    0    0  0.36017052293E+01  0.60563967238E+01 -0.14389320131E+02  0.16022008486E+02  0.51100000000E-03 0.  1.
         12    1    3    3    0    0 -0.10136253509E+02  0.74094188126E+01 -0.90038258106E+01  0.15450307491E+02  0.00000000000E+00 0. -1.
</event>
<event>
 7    1  0.4630495E-010  0.4778727E+02  0.7816164E-02  0.1312668E+00
        -11   -1    0    0    0    0  0.00000000000E+00  0.00000000000E+00  0.45593999997E+02  0.45594000000E+02  0.51100000000E-03 0.  1.
         11   -1    0    0    0    0 -0.00000000000E+00 -0.00000000000E+00 -0.45593999997E+02  0.45594000000E+02  0.51100000000E-03 0. -1.
    9900012    2    1    2    0    0  0.31683119738E+02  0.28853088812E+02 -0.68776886802E+01  0.47787269454E+02  0.19999992751E+02 0.  0.
        -12    1    1    2    0    0 -0.31683119738E+02 -0.28853088812E+02  0.68776886802E+01  0.43400730546E+02  0.00000000000E+00 0.  1.
         11    1    3    3    0    0  0.40138106797E+01  0.84291804204E+01  0.24463575144E+00  0.93392508074E+01  0.51100000000E-03 0. -1.
        -11    1    3    3    0    0 -0.70307201182E+00  0.30782563609E+01  0.22743818885E+01  0.38913732426E+01  0.51100000000E-03 0.  1.
        -12    1    3    3    0    0  0.28372381070E+02  0.17345652031E+02 -0.93967063201E+01  0.34556645404E+02  0.00000000000E+00 0.  1.
</event>
<event>
 7    1  0.4630495E-010  0.4778727E+02  0.7816164E-02  0.1312668E+00
        -11   -1    0    0    0    0  0.00000000000E+00  0.00000000000E+00  0.45593999997E+02  0.45594000000E+02  0.51100000000E-03 0.  1.
         11   -1    0    0    0    0 -0.00000000000E+00 -0.00000000000E+00 -0.45593999997E+02  0.45594000000E+02  0.51100000000E-03 0. -1.
    9900012    2    1    2    0    0 -0.40297501485E+02  0.10804100011E+02  0.11958521109E+02  0.47787269245E+02  0.19999991796E+02 0.  0.
        -12    1    1    2    0    0  0.40297501485E+02 -0.10804100011E+02 -0.11958521109E+02  0.43400730755E+02  0.00000000000E+00 0.  1.
         11    1    3    3    0    0 -0.27551876569E+01  0.98817335499E+00  0.60501948284E+01  0.67210418335E+01  0.51100000000E-03 0.  1.
        -11    1    3    3    0    0 -0.18721747369E+02  0.88418979016E+01  0.78013367865E+01  0.22125637594E+02  0.51100000000E-03 0. -1.
         12    1    3    3    0    0 -0.18820566459E+02  0.97402875421E+00 -0.18930105063E+01  0.18940589817E+02  0.00000000000E+00 0. -1.
</event>
<event>
 7    1  0.4630495E-010  0.4778727E+02  0.7816164E-02  0.1312668E+00
        -11   -1    0    0    0    0  0.00000000000E+00  0.00000000000E+00  0.45593999997E+02  0.45594000000E+02  0.51100000000E-03 0.  1.
         11   -1    0    0    0    0 -0.00000000000E+00 -0.00000000000E+00 -0.45593999997E+02  0.45594000000E+02  0.51100000000E-03 0. -1.
    9900012    2    1    2    0    0 -0.15054689812E+02 -0.12384985004E+02 -0.38776177374E+02  0.47787268777E+02  0.19999989663E+02 0.  0.
        -12    1    1    2    0    0  0.15054689812E+02  0.12384985004E+02  0.38776177374E+02  0.43400731223E+02  0.00000000000E+00 0.  1.
         11    1    3    3    0    0 -0.47438702740E+01  0.69298373251E+00 -0.15981958021E+01  0.50535889933E+01  0.51100000000E-03 0. -1.
        -11    1    3    3    0    0 -0.61272734791E+01 -0.10538901528E+02 -0.12076681678E+02  0.17159783399E+02  0.51100000000E-03 0.  1.
         12    1    3    3    0    0 -0.41835460592E+01 -0.25390672094E+01 -0.25101299894E+02  0.25573896385E+02  0.00000000000E+00 0. -1.
</event>
<event>
 7    1  0.4630495E-010  0.4778726E+02  0.7816164E-02  0.1312668E+00
        -11   -1    0    0    0    0  0.00000000000E+00  0.00000000000E+00  0.45593999997E+02  0.45594000000E+02  0.51100000000E-03 0.  1.
         11   -1    0    0    0    0 -0.00000000000E+00 -0.00000000000E+00 -0.45593999997E+02  0.45594000000E+02  0.51100000000E-03 0. -1.
    9900012    2    1    2    0    0  0.34911350036E+02  0.19103670235E+02 -0.17316795051E+02  0.47787263041E+02  0.19999963508E+02 0.  0.
        -12    1    1    2    0    0 -0.34911350036E+02 -0.19103670235E+02  0.17316795051E+02  0.43400736959E+02  0.00000000000E+00 0.  1.
         11    1    3    3    0    0  0.51795242437E+01 -0.22390369024E+01 -0.54591031591E+01  0.78512779345E+01  0.51100000000E-03 0. -1.
        -11    1    3    3    0    0  0.16047930321E+01  0.34651308174E+01 -0.43212293800E+01  0.57667595644E+01  0.51100000000E-03 0.  1.
         12    1    3    3    0    0  0.28127032760E+02  0.17877576320E+02 -0.75364625120E+01  0.34169225542E+02  0.00000000000E+00 0. -1.
</event>
<event>
 7    1  0.4630495E-010  0.4778727E+02  0.7816164E-02  0.1312668E+00
        -11   -1    0    0    0    0  0.00000000000E+00  0.00000000000E+00  0.45593999997E+02  0.45594000000E+02  0.51100000000E-03 0. -1.
         11   -1    0    0    0    0 -0.00000000000E+00 -0.00000000000E+00 -0.45593999997E+02  0.45594000000E+02  0.51100000000E-03 0.  1.
    9900012    2    1    2    0    0 -0.15802515396E+02  0.38779792548E+02 -0.11403121372E+02  0.47787274431E+02  0.20000015440E+02 0.  0.
        -12    1    1    2    0    0  0.15802515396E+02 -0.38779792548E+02  0.11403121372E+02  0.43400725569E+02  0.00000000000E+00 0.  1.
         11    1    3    3    0    0  0.33617862817E+01  0.12881152555E+02 -0.31049749920E+00  0.13316234719E+02  0.51100000000E-03 0. -1.
        -11    1    3    3    0    0 -0.28525477933E+01  0.13656363146E+01 -0.13787479726E+01  0.34500634327E+01  0.51100000000E-03 0.  1.
         12    1    3    3    0    0 -0.16311753884E+02  0.24533003679E+02 -0.97138758999E+01  0.31020976279E+02  0.00000000000E+00 0. -1.
</event>
<event>
 7    1  0.4630495E-010  0.4778727E+02  0.7816164E-02  0.1312668E+00
        -11   -1    0    0    0    0  0.00000000000E+00  0.00000000000E+00  0.45593999997E+02  0.45594000000E+02  0.51100000000E-03 0.  1.
         11   -1    0    0    0    0 -0.00000000000E+00 -0.00000000000E+00 -0.45593999997E+02  0.45594000000E+02  0.51100000000E-03 0. -1.
    9900012    2    1    2    0    0 -0.25591121431E+02  0.15902546366E+02 -0.31238227161E+02  0.47787270591E+02  0.19999997935E+02 0.  0.
        -12    1    1    2    0    0  0.25591121431E+02 -0.15902546366E+02  0.31238227161E+02  0.43400729409E+02  0.00000000000E+00 0.  1.
         11    1    3    3    0    0 -0.17226114511E+02  0.36651919241E+01 -0.10071544138E+02  0.20288140737E+02  0.51100000000E-03 0. -1.
        -11    1    3    3    0    0 -0.95405773527E+01  0.72936499500E+01 -0.11763409865E+02  0.16810644180E+02  0.51100000000E-03 0.  1.
        -12    1    3    3    0    0  0.11755704323E+01  0.49437044917E+01 -0.94032731574E+01  0.10688485675E+02  0.00000000000E+00 0.  1.
</event>
<event>
 7    1  0.4630495E-010  0.4778727E+02  0.7816164E-02  0.1312668E+00
        -11   -1    0    0    0    0  0.00000000000E+00  0.00000000000E+00  0.45593999997E+02  0.45594000000E+02  0.51100000000E-03 0.  1.
         11   -1    0    0    0    0 -0.00000000000E+00 -0.00000000000E+00 -0.45593999997E+02  0.45594000000E+02  0.51100000000E-03 0. -1.
    9900012    2    1    2    0    0  0.13932453983E+02  0.36089922803E+02 -0.19673013190E+02  0.47787271321E+02  0.20000001261E+02 0.  0.
        -12    1    1    2    0    0 -0.13932453983E+02 -0.36089922803E+02  0.19673013190E+02  0.43400728679E+02  0.00000000000E+00 0.  1.
         11    1    3    3    0    0  0.93322246250E+01  0.24910193373E+02 -0.10528255296E+02  0.28608605526E+02  0.51100000000E-03 0. -1.
        -11    1    3    3    0    0  0.42985149206E+01  0.10992500684E+02 -0.11687920585E+02  0.16610833503E+02  0.51100000000E-03 0.  1.
        -12    1    3    3    0    0  0.30171443749E+00  0.18722874607E+00  0.25431626909E+01  0.25678322916E+01  0.00000000000E+00 0.  1.
</event>
<event>
 7    1  0.4630495E-010  0.4778727E+02  0.7816164E-02  0.1312668E+00
        -11   -1    0    0    0    0  0.00000000000E+00  0.00000000000E+00  0.45593999997E+02  0.45594000000E+02  0.51100000000E-03 0.  1.
         11   -1    0    0    0    0 -0.00000000000E+00 -0.00000000000E+00 -0.45593999997E+02  0.45594000000E+02  0.51100000000E-03 0. -1.
    9900012    2    1    2    0    0 -0.39930287254E+02  0.43247848684E+00 -0.17000249456E+02  0.47787270059E+02  0.19999995506E+02 0.  0.
        -12    1    1    2    0    0  0.39930287254E+02 -0.43247848684E+00  0.17000249456E+02  0.43400729941E+02  0.00000000000E+00 0.  1.
         11    1    3    3    0    0 -0.33643503601E+02  0.22329896960E+01 -0.18905154073E+02  0.38655871847E+02  0.51100000000E-03 0. -1.
        -11    1    3    3    0    0  0.24175751738E-01 -0.99475457389E+00 -0.15875869748E+01  0.18736471900E+01  0.51100000000E-03 0.  1.
         12    1    3    3    0    0 -0.63109594056E+01 -0.80575663524E+00  0.34924915910E+01  0.72577510213E+01  0.00000000000E+00 0. -1.
</event>
<event>
 7    1  0.4630495E-010  0.4778725E+02  0.7816164E-02  0.1312668E+00
        -11   -1    0    0    0    0  0.00000000000E+00  0.00000000000E+00  0.45593999997E+02  0.45594000000E+02  0.51100000000E-03 0. -1.
         11   -1    0    0    0    0 -0.00000000000E+00 -0.00000000000E+00 -0.45593999997E+02  0.45594000000E+02  0.51100000000E-03 0.  1.
    9900012    2    1    2    0    0 -0.18723157848E+02 -0.39152458816E+02  0.39116294374E+00  0.47787254849E+02  0.19999926160E+02 0.  0.
        -12    1    1    2    0    0  0.18723157848E+02  0.39152458816E+02 -0.39116294374E+00  0.43400745151E+02  0.00000000000E+00 0.  1.
         11    1    3    3    0    0 -0.25867922917E+01 -0.10478830327E+02 -0.13048679381E+01  0.10871985099E+02  0.51100000000E-03 0. -1.
        -11    1    3    3    0    0 -0.31190490903E+01 -0.20260149941E+02 -0.30062288581E+01  0.20718097284E+02  0.51100000000E-03 0.  1.
         12    1    3    3    0    0 -0.13017316466E+02 -0.84134785482E+01  0.47022597399E+01  0.16197172467E+02  0.00000000000E+00 0. -1.
</event>
<event>
 7    1  0.4630495E-010  0.4778727E+02  0.7816164E-02  0.1312668E+00
        -11   -1    0    0    0    0  0.00000000000E+00  0.00000000000E+00  0.45593999997E+02  0.45594000000E+02  0.51100000000E-03 0.  1.
         11   -1    0    0    0    0 -0.00000000000E+00 -0.00000000000E+00 -0.45593999997E+02  0.45594000000E+02  0.51100000000E-03 0. -1.
    9900012    2    1    2    0    0  0.24045723331E+02  0.34833349746E+02  0.95950180608E+01  0.47787269170E+02  0.19999991452E+02 0.  0.
        -12    1    1    2    0    0 -0.24045723331E+02 -0.34833349746E+02 -0.95950180608E+01  0.43400730830E+02  0.00000000000E+00 0.  1.
         11    1    3    3    0    0  0.14078897637E+02  0.15474135582E+02  0.34597557739E+01  0.21204578302E+02  0.51100000000E-03 0. -1.
        -11    1    3    3    0    0  0.10710634352E+02  0.56155973339E+01  0.25444882209E+01  0.12358278286E+02  0.51100000000E-03 0.  1.
        -12    1    3    3    0    0 -0.74380865834E+00  0.13743616830E+02  0.35907740660E+01  0.14224412582E+02  0.00000000000E+00 0.  1.
</event>
<event>
 7    1  0.4630495E-010  0.4778727E+02  0.7816164E-02  0.1312668E+00
        -11   -1    0    0    0    0  0.00000000000E+00  0.00000000000E+00  0.45593999997E+02  0.45594000000E+02  0.51100000000E-03 0.  1.
         11   -1    0    0    0    0 -0.00000000000E+00 -0.00000000000E+00 -0.45593999997E+02  0.45594000000E+02  0.51100000000E-03 0. -1.
    9900012    2    1    2    0    0 -0.93210923509E+00  0.23053070393E+02 -0.36760169671E+02  0.47787274702E+02  0.20000016675E+02 0.  0.
        -12    1    1    2    0    0  0.93210923509E+00 -0.23053070393E+02  0.36760169671E+02  0.43400725298E+02  0.00000000000E+00 0.  1.
         11    1    3    3    0    0  0.26067945674E+01  0.17893644341E+00  0.61221489796E+00  0.26836921414E+01  0.51100000000E-03 0. -1.
        -11    1    3    3    0    0 -0.31542443425E+01  0.14409086043E+01 -0.81897536720E+01  0.88936798035E+01  0.51100000000E-03 0.  1.
         12    1    3    3    0    0 -0.38465945999E+00  0.21433225345E+02 -0.29182630897E+02  0.36209902757E+02  0.00000000000E+00 0. -1.
</event>
<event>
 7    1  0.4630495E-010  0.4778727E+02  0.7816164E-02  0.1312668E+00
        -11   -1    0    0    0    0  0.00000000000E+00  0.00000000000E+00  0.45593999997E+02  0.45594000000E+02  0.51100000000E-03 0.  1.
         11   -1    0    0    0    0 -0.00000000000E+00 -0.00000000000E+00 -0.45593999997E+02  0.45594000000E+02  0.51100000000E-03 0. -1.
    9900012    2    1    2    0    0  0.77806715613E+01  0.45076615017E+01 -0.42458989947E+02  0.47787266257E+02  0.19999978171E+02 0.  0.
        -12    1    1    2    0    0 -0.77806715613E+01 -0.45076615017E+01  0.42458989947E+02  0.43400733743E+02  0.00000000000E+00 0.  1.
         11    1    3    3    0    0  0.25033370340E+01 -0.38659131316E+01 -0.13713242976E+02  0.14465995086E+02  0.51100000000E-03 0.  1.
        -11    1    3    3    0    0 -0.34533923857E+01  0.31269109370E+00 -0.13791181678E+02  0.14220421479E+02  0.51100000000E-03 0. -1.
        -12    1    3    3    0    0  0.87307269130E+01  0.80608835396E+01 -0.14954565292E+02  0.19100849692E+02  0.00000000000E+00 0.  1.
</event>
<event>
 7    1  0.4630495E-010  0.4778723E+02  0.7816164E-02  0.1312668E+00
        -11   -1    0    0    0    0  0.00000000000E+00  0.00000000000E+00  0.45593999997E+02  0.45594000000E+02  0.51100000000E-03 0.  1.
         11   -1    0    0    0    0 -0.00000000000E+00 -0.00000000000E+00 -0.45593999997E+02  0.45594000000E+02  0.51100000000E-03 0. -1.
    9900012    2    1    2    0    0  0.33867408037E+02  0.14530772301E+02 -0.22923399119E+02  0.47787229293E+02  0.19999809637E+02 0.  0.
        -12    1    1    2    0    0 -0.33867408037E+02 -0.14530772301E+02  0.22923399119E+02  0.43400770707E+02  0.00000000000E+00 0.  1.
         11    1    3    3    0    0  0.12536456915E+02  0.80731824823E+01 -0.79283435131E+01  0.16887796141E+02  0.51100000000E-03 0. -1.
        -11    1    3    3    0    0  0.19962417747E+02 -0.44933238655E+00 -0.11422288406E+02  0.23003666981E+02  0.51100000000E-03 0.  1.
         12    1    3    3    0    0  0.13685333740E+01  0.69069222054E+01 -0.35727672006E+01  0.78957661704E+01  0.00000000000E+00 0. -1.
</event>
<event>
 7    1  0.4630495E-010  0.4778727E+02  0.7816164E-02  0.1312668E+00
        -11   -1    0    0    0    0  0.00000000000E+00  0.00000000000E+00  0.45593999997E+02  0.45594000000E+02  0.51100000000E-03 0.  1.
         11   -1    0    0    0    0 -0.00000000000E+00 -0.00000000000E+00 -0.45593999997E+02  0.45594000000E+02  0.51100000000E-03 0. -1.
    9900012    2    1    2    0    0 -0.24364630911E+02 -0.16235833538E+02 -0.32037251916E+02  0.47787273734E+02  0.20000012264E+02 0.  0.
        -12    1    1    2    0    0  0.24364630911E+02  0.16235833538E+02  0.32037251916E+02  0.43400726266E+02  0.00000000000E+00 0.  1.
         11    1    3    3    0    0 -0.14383698601E+02 -0.74151058166E+01 -0.55724951146E+01  0.17115118515E+02  0.51100000000E-03 0. -1.
        -11    1    3    3    0    0 -0.12976226501E+01 -0.37968871526E+01 -0.25911039729E+01  0.47763999676E+01  0.51100000000E-03 0.  1.
        -12    1    3    3    0    0 -0.86833096598E+01 -0.50238405685E+01 -0.23873652828E+02  0.25895755252E+02  0.00000000000E+00 0.  1.
</event>
<event>
 7    1  0.4630495E-010  0.4778726E+02  0.7816164E-02  0.1312668E+00
        -11   -1    0    0    0    0  0.00000000000E+00  0.00000000000E+00  0.45593999997E+02  0.45594000000E+02  0.51100000000E-03 0.  1.
         11   -1    0    0    0    0 -0.00000000000E+00 -0.00000000000E+00 -0.45593999997E+02  0.45594000000E+02  0.51100000000E-03 0. -1.
    9900012    2    1    2    0    0  0.30778555480E+02 -0.18510903043E+02 -0.24364950953E+02  0.47787264478E+02  0.19999970063E+02 0.  0.
        -12    1    1    2    0    0 -0.30778555480E+02  0.18510903043E+02  0.24364950953E+02  0.43400735522E+02  0.00000000000E+00 0.  1.
         11    1    3    3    0    0 -0.10809717912E+01 -0.18994338290E+01  0.19709402826E+00  0.21943553043E+01  0.51100000000E-03 0. -1.
        -11    1    3    3    0    0  0.14066021590E+02 -0.14757359764E+02 -0.14977062438E+02  0.25297134820E+02  0.51100000000E-03 0.  1.
         12    1    3    3    0    0  0.17793505681E+02 -0.18541094494E+01 -0.95849825436E+01  0.20295774354E+02  0.00000000000E+00 0. -1.
</event>
<event>
 7    1  0.4630495E-010  0.4778727E+02  0.7816164E-02  0.1312668E+00
        -11   -1    0    0    0    0  0.00000000000E+00  0.00000000000E+00  0.45593999997E+02  0.45594000000E+02  0.51100000000E-03 0.  1.
         11   -1    0    0    0    0 -0.00000000000E+00 -0.00000000000E+00 -0.45593999997E+02  0.45594000000E+02  0.51100000000E-03 0. -1.
    9900012    2    1    2    0    0  0.10505401356E+02 -0.37445753497E+02 -0.19263312335E+02  0.47787272878E+02  0.20000008360E+02 0.  0.
        -12    1    1    2    0    0 -0.10505401356E+02  0.37445753497E+02  0.19263312335E+02  0.43400727122E+02  0.00000000000E+00 0.  1.
         11    1    3    3    0    0  0.26899461845E+00 -0.77685348656E+01  0.19930400529E+01  0.80246308935E+01  0.51100000000E-03 0.  1.
        -11    1    3    3    0    0 -0.17867980284E+01 -0.22163662638E+01 -0.47586737214E+01  0.55452594581E+01  0.51100000000E-03 0. -1.
        -12    1    3    3    0    0  0.12023204766E+02 -0.27460852367E+02 -0.16497678667E+02  0.34217382527E+02  0.00000000000E+00 0.  1.
</event>
<event>
 7    1  0.4630495E-010  0.4778728E+02  0.7816164E-02  0.1312668E+00
        -11   -1    0    0    0    0  0.00000000000E+00  0.00000000000E+00  0.45593999997E+02  0.45594000000E+02  0.51100000000E-03 0.  1.
         11   -1    0    0    0    0 -0.00000000000E+00 -0.00000000000E+00 -0.45593999997E+02  0.45594000000E+02  0.51100000000E-03 0. -1.
    9900012    2    1    2    0    0  0.41325046400E+02  0.11411132693E+02 -0.67563882949E+01  0.47787283507E+02  0.20000056822E+02 0.  0.
        -12    1    1    2    0    0 -0.41325046400E+02 -0.11411132693E+02  0.67563882949E+01  0.43400716493E+02  0.00000000000E+00 0.  1.
         11    1    3    3    0    0  0.25499223351E+01 -0.30074720753E+01 -0.18663633178E+01  0.43623737223E+01  0.51100000000E-03 0. -1.
        -11    1    3    3    0    0  0.58921138619E+01  0.41077350942E+01 -0.53565527250E+01  0.89600865354E+01  0.51100000000E-03 0.  1.
         12    1    3    3    0    0  0.32883010203E+02  0.10310869674E+02  0.46652774786E+00  0.34464823249E+02  0.00000000000E+00 0. -1.
</event>
<event>
 7    1  0.4630495E-010  0.4778722E+02  0.7816164E-02  0.1312668E+00
        -11   -1    0    0    0    0  0.00000000000E+00  0.00000000000E+00  0.45593999997E+02  0.45594000000E+02  0.51100000000E-03 0.  1.
         11   -1    0    0    0    0 -0.00000000000E+00 -0.00000000000E+00 -0.45593999997E+02  0.45594000000E+02  0.51100000000E-03 0. -1.
    9900012    2    1    2    0    0  0.19907635523E+02 -0.10394450655E+01 -0.38551699423E+02  0.47787217444E+02  0.19999755611E+02 0.  0.
        -12    1    1    2    0    0 -0.19907635523E+02  0.10394450655E+01  0.38551699423E+02  0.43400782556E+02  0.00000000000E+00 0.  1.
         11    1    3    3    0    0 -0.97822196408E-01 -0.41327229250E+01 -0.77744803003E+01  0.88051980192E+01  0.51100000000E-03 0. -1.
        -11    1    3    3    0    0 -0.18277238697E-01 -0.28310935586E+01 -0.21846750296E+01  0.35760634840E+01  0.51100000000E-03 0.  1.
         12    1    3    3    0    0  0.20023734958E+02  0.59243714182E+01 -0.28592544093E+02  0.35405955940E+02  0.00000000000E+00 0. -1.
</event>
<event>
 7    1  0.4630495E-010  0.4778727E+02  0.7816164E-02  0.1312668E+00
        -11   -1    0    0    0    0  0.00000000000E+00  0.00000000000E+00  0.45593999997E+02  0.45594000000E+02  0.51100000000E-03 0. -1.
         11   -1    0    0    0    0 -0.00000000000E+00 -0.00000000000E+00 -0.45593999997E+02  0.45594000000E+02  0.51100000000E-03 0.  1.
    9900012    2    1    2    0    0  0.38798113704E+02  0.11346983780E+02  0.15797958393E+02  0.47787272388E+02  0.20000006125E+02 0.  0.
        -12    1    1    2    0    0 -0.38798113704E+02 -0.11346983780E+02 -0.15797958393E+02  0.43400727612E+02  0.00000000000E+00 0.  1.
         11    1    3    3    0    0  0.22782298178E+02  0.74037507649E+01  0.13687968925E+02  0.27590018651E+02  0.51100000000E-03 0. -1.
        -11    1    3    3    0    0  0.34177915529E+01  0.24874156728E+01  0.56259424909E+01  0.70370281370E+01  0.51100000000E-03 0.  1.
        -12    1    3    3    0    0  0.12598023973E+02  0.14558173419E+01 -0.35159530224E+01  0.13160225599E+02  0.00000000000E+00 0.  1.
</event>
<event>
 7    1  0.4630495E-010  0.4778727E+02  0.7816164E-02  0.1312668E+00
        -11   -1    0    0    0    0  0.00000000000E+00  0.00000000000E+00  0.45593999997E+02  0.45594000000E+02  0.51100000000E-03 0. -1.
         11   -1    0    0    0    0 -0.00000000000E+00 -0.00000000000E+00 -0.45593999997E+02  0.45594000000E+02  0.51100000000E-03 0.  1.
    9900012    2    1    2    0    0 -0.37051785058E+02 -0.66989408165E+01  0.21585007108E+02  0.47787272864E+02  0.20000008297E+02 0.  0.
        -12    1    1    2    0    0  0.37051785058E+02  0.66989408165E+01 -0.21585007108E+02  0.43400727136E+02  0.00000000000E+00 0.  1.
         11    1    3    3    0    0  0.15050977592E+00 -0.26569578056E+01  0.12535165473E+01  0.29416631297E+01  0.51100000000E-03 0.  1.
        -11    1    3    3    0    0 -0.68605983908E+01  0.41877003376E+01  0.71442291677E+01  0.10753820487E+02  0.51100000000E-03 0. -1.
         12    1    3    3    0    0 -0.30341696443E+02 -0.82296833485E+01  0.13187261393E+02  0.34091789248E+02  0.00000000000E+00 0. -1.
</event>
<event>
 7    1  0.4630495E-010  0.4778727E+02  0.7816164E-02  0.1312668E+00
        -11   -1    0    0    0    0  0.00000000000E+00  0.00000000000E+00  0.45593999997E+02  0.45594000000E+02  0.51100000000E-03 0. -1.
         11   -1    0    0    0    0 -0.00000000000E+00 -0.00000000000E+00 -0.45593999997E+02  0.45594000000E+02  0.51100000000E-03 0.  1.
    9900012    2    1    2    0    0 -0.42398986676E+02  0.28523744301E+01  0.88211777066E+01  0.47787270891E+02  0.19999999301E+02 0.  0.
        -12    1    1    2    0    0  0.42398986676E+02 -0.28523744301E+01 -0.88211777066E+01  0.43400729109E+02  0.00000000000E+00 0.  1.
         11    1    3    3    0    0 -0.25167287591E+00 -0.17075085009E+01 -0.18332496245E+01  0.25178818408E+01  0.51100000000E-03 0. -1.
        -11    1    3    3    0    0 -0.87769269257E+01  0.24638151455E+01  0.72743900665E+01  0.11662829092E+02  0.51100000000E-03 0.  1.
        -12    1    3    3    0    0 -0.33370386875E+02  0.20960677855E+01  0.33800372646E+01  0.33606559958E+02  0.00000000000E+00 0.  1.
</event>
<event>
 7    1  0.4630495E-010  0.4778727E+02  0.7816164E-02  0.1312668E+00
        -11   -1    0    0    0    0  0.00000000000E+00  0.00000000000E+00  0.45593999997E+02  0.45594000000E+02  0.51100000000E-03 0. -1.
         11   -1    0    0    0    0 -0.00000000000E+00 -0.00000000000E+00 -0.45593999997E+02  0.45594000000E+02  0.51100000000E-03 0.  1.
    9900012    2    1    2    0    0 -0.19915003486E+02  0.26837519439E+02  0.27690498594E+02  0.47787268141E+02  0.19999986762E+02 0.  0.
        -12    1    1    2    0    0  0.19915003486E+02 -0.26837519439E+02 -0.27690498594E+02  0.43400731859E+02  0.00000000000E+00 0.  1.
         11    1    3    3    0    0 -0.10713211751E+01  0.16635539916E+01  0.70029463876E+01  0.72771147656E+01  0.51100000000E-03 0. -1.
        -11    1    3    3    0    0  0.21838441636E+01  0.52498828147E+01  0.19523177845E+01  0.60118208466E+01  0.51100000000E-03 0.  1.
        -12    1    3    3    0    0 -0.21027526475E+02  0.19924082633E+02  0.18735234422E+02  0.34498332529E+02  0.00000000000E+00 0.  1.
</event>
<event>
 7    1  0.4630495E-010  0.4778727E+02  0.7816164E-02  0.1312668E+00
        -11   -1    0    0    0    0  0.00000000000E+00  0.00000000000E+00  0.45593999997E+02  0.45594000000E+02  0.51100000000E-03 0. -1.
         11   -1    0    0    0    0 -0.00000000000E+00 -0.00000000000E+00 -0.45593999997E+02  0.45594000000E+02  0.51100000000E-03 0.  1.
    9900012    2    1    2    0    0  0.15681539677E+02  0.13713589098E+02  0.38074272387E+02  0.47787269241E+02  0.19999991779E+02 0.  0.
        -12    1    1    2    0    0 -0.15681539677E+02 -0.13713589098E+02 -0.38074272387E+02  0.43400730759E+02  0.00000000000E+00 0.  1.
         11    1    3    3    0    0  0.12635271068E+02  0.83821569530E+01  0.28245821820E+02  0.32058338707E+02  0.51100000000E-03 0. -1.
        -11    1    3    3    0    0  0.25337244594E+01  0.95764081611E-02  0.10063223487E+02  0.10377298230E+02  0.51100000000E-03 0.  1.
        -12    1    3    3    0    0  0.51254414985E+00  0.53218557366E+01 -0.23477292028E+00  0.53516323034E+01  0.00000000000E+00 0.  1.
</event>
<event>
 7    1  0.4630495E-010  0.4778727E+02  0.7816164E-02  0.1312668E+00
        -11   -1    0    0    0    0  0.00000000000E+00  0.00000000000E+00  0.45593999997E+02  0.45594000000E+02  0.51100000000E-03 0.  1.
         11   -1    0    0    0    0 -0.00000000000E+00 -0.00000000000E+00 -0.45593999997E+02  0.45594000000E+02  0.51100000000E-03 0. -1.
    9900012    2    1    2    0    0 -0.25282741861E+02  0.71737396745E+01 -0.34539013518E+02  0.47787273834E+02  0.20000012720E+02 0.  0.
        -12    1    1    2    0    0  0.25282741861E+02 -0.71737396745E+01  0.34539013518E+02  0.43400726166E+02  0.00000000000E+00 0.  1.
         11    1    3    3    0    0 -0.53871428089E+01 -0.47159383459E+01 -0.33904588240E+01  0.79219059212E+01  0.51100000000E-03 0. -1.
        -11    1    3    3    0    0 -0.56033737142E+01 -0.38622800560E+00 -0.10536622844E+02  0.11940158721E+02  0.51100000000E-03 0.  1.
        -12    1    3    3    0    0 -0.14292225338E+02  0.12275906026E+02 -0.20611931849E+02  0.27925209192E+02  0.00000000000E+00 0.  1.
</event>
<event>
 7    1  0.4630495E-010  0.4778727E+02  0.7816164E-02  0.1312668E+00
        -11   -1    0    0    0    0  0.00000000000E+00  0.00000000000E+00  0.45593999997E+02  0.45594000000E+02  0.51100000000E-03 0.  1.
         11   -1    0    0    0    0 -0.00000000000E+00 -0.00000000000E+00 -0.45593999997E+02  0.45594000000E+02  0.51100000000E-03 0. -1.
    9900012    2    1    2    0    0  0.31760526901E+01  0.84967105380E+01 -0.42442220036E+02  0.47787269104E+02  0.19999991155E+02 0.  0.
        -12    1    1    2    0    0 -0.31760526901E+01 -0.84967105380E+01  0.42442220036E+02  0.43400730896E+02  0.00000000000E+00 0.  1.
         11    1    3    3    0    0 -0.80031097377E+00  0.45452421654E+00  0.61720656491E+00  0.11081670104E+01  0.51100000000E-03 0. -1.
        -11    1    3    3    0    0 -0.16643945112E+00 -0.41219931990E+01 -0.18572794496E+02  0.19025436281E+02  0.51100000000E-03 0.  1.
         12    1    3    3    0    0  0.41428031150E+01  0.12164179520E+02 -0.24486632105E+02  0.27653665813E+02  0.00000000000E+00 0. -1.
</event>
<event>
 7    1  0.5472343E-010  0.4778729E+02  0.7816164E-02  0.1312668E+00
        -11   -1    0    0    0    0  0.00000000000E+00  0.00000000000E+00  0.45593999997E+02  0.45594000000E+02  0.51100000000E-03 0.  1.
         11   -1    0    0    0    0 -0.00000000000E+00 -0.00000000000E+00 -0.45593999997E+02  0.45594000000E+02  0.51100000000E-03 0. -1.
    9900012    2    1    2    0    0 -0.13185395084E+02 -0.40049246861E+02 -0.10287101230E+02  0.47787294137E+02  0.20000105288E+02 0.  0.
        -12    1    1    2    0    0  0.13185395084E+02  0.40049246861E+02  0.10287101230E+02  0.43400705863E+02  0.00000000000E+00 0.  1.
         11    1    3    3    0    0 -0.11311489964E+02 -0.22385742629E+02 -0.18026976229E+01  0.25145993662E+02  0.51100000000E-03 0. -1.
        -11    1    3    3    0    0 -0.21618478733E+01 -0.14008077967E+01  0.20246371363E+01  0.32764316726E+01  0.51100000000E-03 0.  1.
         12    1    3    3    0    0  0.28794275325E+00 -0.16262696436E+02 -0.10509040743E+02  0.19364868802E+02  0.00000000000E+00 0. -1.
</event>
<event>
 7    1  0.4630495E-010  0.4778727E+02  0.7816164E-02  0.1312668E+00
        -11   -1    0    0    0    0  0.00000000000E+00  0.00000000000E+00  0.45593999997E+02  0.45594000000E+02  0.51100000000E-03 0. -1.
         11   -1    0    0    0    0 -0.00000000000E+00 -0.00000000000E+00 -0.45593999997E+02  0.45594000000E+02  0.51100000000E-03 0.  1.
    9900012    2    1    2    0    0  0.16069923483E+02 -0.10344065034E+02  0.38966409632E+02  0.47787271874E+02  0.20000003784E+02 0.  0.
        -12    1    1    2    0    0 -0.16069923483E+02  0.10344065034E+02 -0.38966409632E+02  0.43400728126E+02  0.00000000000E+00 0.  1.
         11    1    3    3    0    0  0.66558330580E+01  0.10475758856E+01  0.27874022914E+02  0.28676796937E+02  0.51100000000E-03 0. -1.
        -11    1    3    3    0    0  0.53367503510E+01 -0.40594561725E+01  0.26543968120E+01  0.72115124227E+01  0.51100000000E-03 0.  1.
         12    1    3    3    0    0  0.40773400740E+01 -0.73321847475E+01  0.84379899068E+01  0.11898962514E+02  0.00000000000E+00 0. -1.
</event>
<event>
 7    1  0.4630495E-010  0.4778727E+02  0.7816164E-02  0.1312668E+00
        -11   -1    0    0    0    0  0.00000000000E+00  0.00000000000E+00  0.45593999997E+02  0.45594000000E+02  0.51100000000E-03 0.  1.
         11   -1    0    0    0    0 -0.00000000000E+00 -0.00000000000E+00 -0.45593999997E+02  0.45594000000E+02  0.51100000000E-03 0. -1.
    9900012    2    1    2    0    0  0.39817448685E+02 -0.16188540920E+02  0.60104347061E+01  0.47787269565E+02  0.19999993254E+02 0.  0.
        -12    1    1    2    0    0 -0.39817448685E+02  0.16188540920E+02 -0.60104347061E+01  0.43400730435E+02  0.00000000000E+00 0.  1.
         11    1    3    3    0    0  0.18516695993E+02 -0.56770237996E+01  0.49289612553E+01  0.19984776432E+02  0.51100000000E-03 0. -1.
        -11    1    3    3    0    0  0.20746790167E+02 -0.13259617575E+02  0.23331511338E+01  0.24732374632E+02  0.51100000000E-03 0.  1.
        -12    1    3    3    0    0  0.55396252542E+00  0.27481004543E+01 -0.12516776830E+01  0.30701185008E+01  0.00000000000E+00 0.  1.
</event>
<event>
 7    1  0.4630495E-010  0.4778726E+02  0.7816164E-02  0.1312668E+00
        -11   -1    0    0    0    0  0.00000000000E+00  0.00000000000E+00  0.45593999997E+02  0.45594000000E+02  0.51100000000E-03 0.  1.
         11   -1    0    0    0    0 -0.00000000000E+00 -0.00000000000E+00 -0.45593999997E+02  0.45594000000E+02  0.51100000000E-03 0. -1.
    9900012    2    1    2    0    0  0.37683759536E+02  0.59286268086E+01 -0.20698074911E+02  0.47787255149E+02  0.19999927527E+02 0.  0.
        -12    1    1    2    0    0 -0.37683759536E+02 -0.59286268086E+01  0.20698074911E+02  0.43400744851E+02  0.00000000000E+00 0.  1.
         11    1    3    3    0    0  0.35278342677E+01 -0.23333493281E-01  0.24313241959E+01  0.42845649346E+01  0.51100000000E-03 0. -1.
        -11    1    3    3    0    0  0.20524625973E+02  0.58074924654E+00 -0.69544779694E+01  0.21678614003E+02  0.51100000000E-03 0.  1.
        -12    1    3    3    0    0  0.13631299295E+02  0.53712110553E+01 -0.16174921138E+02  0.21824076212E+02  0.00000000000E+00 0.  1.
</event>
<event>
 7    1  0.4630495E-010  0.4778727E+02  0.7816164E-02  0.1312668E+00
        -11   -1    0    0    0    0  0.00000000000E+00  0.00000000000E+00  0.45593999997E+02  0.45594000000E+02  0.51100000000E-03 0. -1.
         11   -1    0    0    0    0 -0.00000000000E+00 -0.00000000000E+00 -0.45593999997E+02  0.45594000000E+02  0.51100000000E-03 0.  1.
    9900012    2    1    2    0    0  0.33701760396E+02  0.27043778226E+02  0.40557200760E+01  0.47787268902E+02  0.19999990230E+02 0.  0.
        -12    1    1    2    0    0 -0.33701760396E+02 -0.27043778226E+02 -0.40557200760E+01  0.43400731098E+02  0.00000000000E+00 0.  1.
         11    1    3    3    0    0  0.15163665807E+02  0.13055333612E+02  0.90512812127E+01  0.21961425006E+02  0.51100000000E-03 0. -1.
        -11    1    3    3    0    0  0.34180985736E+01 -0.62597883961E+00  0.15461028131E+01  0.38033776484E+01  0.51100000000E-03 0.  1.
         12    1    3    3    0    0  0.15119996016E+02  0.14614423453E+02 -0.65416639498E+01  0.22022466247E+02  0.00000000000E+00 0. -1.
</event>
<event>
 7    1  0.4630495E-010  0.4778727E+02  0.7816164E-02  0.1312668E+00
        -11   -1    0    0    0    0  0.00000000000E+00  0.00000000000E+00  0.45593999997E+02  0.45594000000E+02  0.51100000000E-03 0.  1.
         11   -1    0    0    0    0 -0.00000000000E+00 -0.00000000000E+00 -0.45593999997E+02  0.45594000000E+02  0.51100000000E-03 0. -1.
    9900012    2    1    2    0    0  0.19226625164E+02 -0.10654714612E+02 -0.37422418291E+02  0.47787269022E+02  0.19999990781E+02 0.  0.
        -12    1    1    2    0    0 -0.19226625164E+02  0.10654714612E+02  0.37422418291E+02  0.43400730978E+02  0.00000000000E+00 0.  1.
         11    1    3    3    0    0  0.33355161668E+01 -0.50871305066E+01 -0.79563510142E+01  0.10015392484E+02  0.51100000000E-03 0. -1.
        -11    1    3    3    0    0 -0.19088187367E+01  0.26648918767E+01 -0.14757871572E+01  0.35948832636E+01  0.51100000000E-03 0.  1.
        -12    1    3    3    0    0  0.17799927734E+02 -0.82324759823E+01 -0.27990280119E+02  0.34176993275E+02  0.00000000000E+00 0.  1.
</event>
<event>
 7    1  0.4687264E-010  0.4778728E+02  0.7816164E-02  0.1312668E+00
        -11   -1    0    0    0    0  0.00000000000E+00  0.00000000000E+00  0.45593999997E+02  0.45594000000E+02  0.51100000000E-03 0.  1.
         11   -1    0    0    0    0 -0.00000000000E+00 -0.00000000000E+00 -0.45593999997E+02  0.45594000000E+02  0.51100000000E-03 0. -1.
    9900012    2    1    2    0    0 -0.10480687116E+02  0.16336044019E+02 -0.38818960859E+02  0.47787275827E+02  0.20000021805E+02 0.  0.
        -12    1    1    2    0    0  0.10480687116E+02 -0.16336044019E+02  0.38818960859E+02  0.43400724173E+02  0.00000000000E+00 0.  1.
         11    1    3    3    0    0 -0.47212746149E+01  0.26883320778E+01 -0.21705765020E+02  0.22375383767E+02  0.51100000000E-03 0. -1.
        -11    1    3    3    0    0 -0.30781739443E+00 -0.15807379317E+01  0.30793968468E+00  0.16396069857E+01  0.51100000000E-03 0.  1.
         12    1    3    3    0    0 -0.54515951065E+01  0.15228449873E+02 -0.17421135524E+02  0.23772285074E+02  0.00000000000E+00 0. -1.
</event>
<event>
 7    1  0.6471571E-010  0.4778727E+02  0.7816164E-02  0.1312668E+00
        -11   -1    0    0    0    0  0.00000000000E+00  0.00000000000E+00  0.45593999997E+02  0.45594000000E+02  0.51100000000E-03 0.  1.
         11   -1    0    0    0    0 -0.00000000000E+00 -0.00000000000E+00 -0.45593999997E+02  0.45594000000E+02  0.51100000000E-03 0. -1.
    9900012    2    1    2    0    0 -0.18734163283E+02  0.29767187876E+02 -0.25427718778E+02  0.47787271547E+02  0.20000002293E+02 0.  0.
        -12    1    1    2    0    0  0.18734163283E+02 -0.29767187876E+02  0.25427718778E+02  0.43400728453E+02  0.00000000000E+00 0.  1.
         11    1    3    3    0    0 -0.31652776506E+01  0.26334717579E+01  0.18051147874E+01  0.44958420526E+01  0.51100000000E-03 0. -1.
        -11    1    3    3    0    0  0.11080629987E+01 -0.58018556030E+00 -0.57328977410E+00  0.13758925538E+01  0.51100000000E-03 0.  1.
         12    1    3    3    0    0 -0.16676948631E+02  0.27713901678E+02 -0.26659543792E+02  0.41915536941E+02  0.00000000000E+00 0. -1.
</event>
<event>
 7    1  0.4630495E-010  0.4778727E+02  0.7816164E-02  0.1312668E+00
        -11   -1    0    0    0    0  0.00000000000E+00  0.00000000000E+00  0.45593999997E+02  0.45594000000E+02  0.51100000000E-03 0.  1.
         11   -1    0    0    0    0 -0.00000000000E+00 -0.00000000000E+00 -0.45593999997E+02  0.45594000000E+02  0.51100000000E-03 0. -1.
    9900012    2    1    2    0    0  0.30797331735E+02  0.30483403069E+02  0.24309804702E+01  0.47787272233E+02  0.20000005419E+02 0.  0.
        -12    1    1    2    0    0 -0.30797331735E+02 -0.30483403069E+02 -0.24309804702E+01  0.43400727767E+02  0.00000000000E+00 0.  1.
         11    1    3    3    0    0  0.23547417718E+02  0.18284919020E+02  0.34648965565E+01  0.30013741072E+02  0.51100000000E-03 0. -1.
        -11    1    3    3    0    0  0.96476594619E+01  0.11868545818E+02 -0.54803228252E+00  0.15304902893E+02  0.51100000000E-03 0.  1.
        -12    1    3    3    0    0 -0.23977454447E+01  0.32993823160E+00 -0.48588380382E+00  0.24686282679E+01  0.00000000000E+00 0.  1.
</event>
<event>
 7    1  0.4630495E-010  0.4778721E+02  0.7816164E-02  0.1312668E+00
        -11   -1    0    0    0    0  0.00000000000E+00  0.00000000000E+00  0.45593999997E+02  0.45594000000E+02  0.51100000000E-03 0.  1.
         11   -1    0    0    0    0 -0.00000000000E+00 -0.00000000000E+00 -0.45593999997E+02  0.45594000000E+02  0.51100000000E-03 0. -1.
    9900012    2    1    2    0    0  0.29066208340E+02 -0.21765370960E+02 -0.23770831122E+02  0.47787213687E+02  0.19999738485E+02 0.  0.
        -12    1    1    2    0    0 -0.29066208340E+02  0.21765370960E+02  0.23770831122E+02  0.43400786313E+02  0.00000000000E+00 0.  1.
         11    1    3    3    0    0  0.16654422670E+02 -0.13622185822E+02 -0.10589416623E+02  0.23980606450E+02  0.51100000000E-03 0. -1.
        -11    1    3    3    0    0  0.10598227899E+02 -0.10484630984E+02 -0.14283774395E+02  0.20646455693E+02  0.51100000000E-03 0.  1.
        -12    1    3    3    0    0  0.18135577716E+01  0.23414458459E+01  0.11023598960E+01  0.31601515440E+01  0.00000000000E+00 0.  1.
</event>
<event>
 7    1  0.4630495E-010  0.4778726E+02  0.7816164E-02  0.1312668E+00
        -11   -1    0    0    0    0  0.00000000000E+00  0.00000000000E+00  0.45593999997E+02  0.45594000000E+02  0.51100000000E-03 0.  1.
         11   -1    0    0    0    0 -0.00000000000E+00 -0.00000000000E+00 -0.45593999997E+02  0.45594000000E+02  0.51100000000E-03 0. -1.
    9900012    2    1    2    0    0 -0.26242000125E+01  0.29279234689E+02 -0.31929049501E+02  0.47787260240E+02  0.19999950738E+02 0.  0.
        -12    1    1    2    0    0  0.26242000125E+01 -0.29279234689E+02  0.31929049501E+02  0.43400739760E+02  0.00000000000E+00 0.  1.
         11    1    3    3    0    0 -0.25097573193E+01  0.14354959377E+01  0.72868420976E+00  0.29816960488E+01  0.51100000000E-03 0. -1.
        -11    1    3    3    0    0 -0.13202993169E+01  0.54934957920E+01 -0.15814308394E+02  0.16793273550E+02  0.51100000000E-03 0.  1.
         12    1    3    3    0    0  0.12058566237E+01  0.22350242959E+02 -0.16843425317E+02  0.28012290641E+02  0.00000000000E+00 0. -1.
</event>
<event>
 7    1  0.4630495E-010  0.4778727E+02  0.7816164E-02  0.1312668E+00
        -11   -1    0    0    0    0  0.00000000000E+00  0.00000000000E+00  0.45593999997E+02  0.45594000000E+02  0.51100000000E-03 0.  1.
         11   -1    0    0    0    0 -0.00000000000E+00 -0.00000000000E+00 -0.45593999997E+02  0.45594000000E+02  0.51100000000E-03 0. -1.
    9900012    2    1    2    0    0  0.16329579750E+02 -0.40028581201E+02 -0.38315411964E+01  0.47787271945E+02  0.20000004107E+02 0.  0.
        -12    1    1    2    0    0 -0.16329579750E+02  0.40028581201E+02  0.38315411964E+01  0.43400728055E+02  0.00000000000E+00 0.  1.
         11    1    3    3    0    0  0.15968776066E+02 -0.28911125507E+02 -0.17445792529E+01  0.33074137088E+02  0.51100000000E-03 0. -1.
        -11    1    3    3    0    0  0.17216913879E+01 -0.11067751880E+02  0.10927885794E+01  0.11254045497E+02  0.51100000000E-03 0.  1.
         12    1    3    3    0    0 -0.13608877036E+01 -0.49703813901E-01 -0.31797505229E+01  0.34590893598E+01  0.00000000000E+00 0. -1.
</event>
<event>
 7    1  0.4630495E-010  0.4778727E+02  0.7816164E-02  0.1312668E+00
        -11   -1    0    0    0    0  0.00000000000E+00  0.00000000000E+00  0.45593999997E+02  0.45594000000E+02  0.51100000000E-03 0.  1.
         11   -1    0    0    0    0 -0.00000000000E+00 -0.00000000000E+00 -0.45593999997E+02  0.45594000000E+02  0.51100000000E-03 0. -1.
    9900012    2    1    2    0    0 -0.92958791153E+01  0.38219356326E+02 -0.18343675723E+02  0.47787274136E+02  0.20000014095E+02 0.  0.
        -12    1    1    2    0    0  0.92958791153E+01 -0.38219356326E+02  0.18343675723E+02  0.43400725864E+02  0.00000000000E+00 0.  1.
         11    1    3    3    0    0  0.32080175215E+01  0.48002583033E+01 -0.51617720942E+01  0.77445301737E+01  0.51100000000E-03 0. -1.
        -11    1    3    3    0    0  0.32964626109E+00  0.14542902033E+02 -0.81312246706E+01  0.16664977681E+02  0.51100000000E-03 0.  1.
         12    1    3    3    0    0 -0.12833542898E+02  0.18876195990E+02 -0.50506789576E+01  0.23377766281E+02  0.00000000000E+00 0. -1.
</event>
<event>
 7    1  0.4630495E-010  0.4778727E+02  0.7816164E-02  0.1312668E+00
        -11   -1    0    0    0    0  0.00000000000E+00  0.00000000000E+00  0.45593999997E+02  0.45594000000E+02  0.51100000000E-03 0.  1.
         11   -1    0    0    0    0 -0.00000000000E+00 -0.00000000000E+00 -0.45593999997E+02  0.45594000000E+02  0.51100000000E-03 0. -1.
    9900012    2    1    2    0    0 -0.26520924038E+02  0.19483743712E+02 -0.28295713750E+02  0.47787273076E+02  0.20000009264E+02 0.  0.
        -12    1    1    2    0    0  0.26520924038E+02 -0.19483743712E+02  0.28295713750E+02  0.43400726924E+02  0.00000000000E+00 0.  1.
         11    1    3    3    0    0 -0.88139316112E+00  0.35219872797E+01  0.22266971964E+01  0.42590408508E+01  0.51100000000E-03 0. -1.
        -11    1    3    3    0    0 -0.50994706598E+01  0.61808848663E+01 -0.10601963740E+02  0.13289453493E+02  0.51100000000E-03 0.  1.
         12    1    3    3    0    0 -0.20540060217E+02  0.97808715662E+01 -0.19920447207E+02  0.30238778733E+02  0.00000000000E+00 0. -1.
</event>
<event>
 7    1  0.4630495E-010  0.4778727E+02  0.7816164E-02  0.1312668E+00
        -11   -1    0    0    0    0  0.00000000000E+00  0.00000000000E+00  0.45593999997E+02  0.45594000000E+02  0.51100000000E-03 0.  1.
         11   -1    0    0    0    0 -0.00000000000E+00 -0.00000000000E+00 -0.45593999997E+02  0.45594000000E+02  0.51100000000E-03 0. -1.
    9900012    2    1    2    0    0 -0.58621796294E+01 -0.34504642524E+02  0.25664914662E+02  0.47787270164E+02  0.19999995985E+02 0.  0.
        -12    1    1    2    0    0  0.58621796294E+01  0.34504642524E+02 -0.25664914662E+02  0.43400729836E+02  0.00000000000E+00 0.  1.
         11    1    3    3    0    0 -0.38673785118E+01 -0.14357276838E+02  0.79796266224E+01  0.16874906105E+02  0.51100000000E-03 0. -1.
        -11    1    3    3    0    0 -0.51950362335E+01 -0.20228399199E+02  0.11243629315E+02  0.23719100659E+02  0.51100000000E-03 0.  1.
        -12    1    3    3    0    0  0.32002351159E+01  0.81033512980E-01  0.64416587244E+01  0.71932634005E+01  0.00000000000E+00 0.  1.
</event>
<event>
 7    1  0.4630495E-010  0.4778727E+02  0.7816164E-02  0.1312668E+00
        -11   -1    0    0    0    0  0.00000000000E+00  0.00000000000E+00  0.45593999997E+02  0.45594000000E+02  0.51100000000E-03 0.  1.
         11   -1    0    0    0    0 -0.00000000000E+00 -0.00000000000E+00 -0.45593999997E+02  0.45594000000E+02  0.51100000000E-03 0. -1.
    9900012    2    1    2    0    0 -0.18302887062E+01 -0.12882942930E+02 -0.41404143737E+02  0.47787270814E+02  0.19999998951E+02 0.  0.
        -12    1    1    2    0    0  0.18302887062E+01  0.12882942930E+02  0.41404143737E+02  0.43400729186E+02  0.00000000000E+00 0.  1.
         11    1    3    3    0    0  0.45118294697E+01 -0.72647616441E+01 -0.49453063013E+01  0.98787358292E+01  0.51100000000E-03 0. -1.
        -11    1    3    3    0    0  0.92181428108E+00  0.20537897897E+00 -0.19622618875E+01  0.21777038527E+01  0.51100000000E-03 0.  1.
        -12    1    3    3    0    0 -0.72639324570E+01 -0.58235602646E+01 -0.34496575548E+02  0.35730831133E+02  0.00000000000E+00 0.  1.
</event>
<event>
 7    1  0.4630495E-010  0.4778727E+02  0.7816164E-02  0.1312668E+00
        -11   -1    0    0    0    0  0.00000000000E+00  0.00000000000E+00  0.45593999997E+02  0.45594000000E+02  0.51100000000E-03 0. -1.
         11   -1    0    0    0    0 -0.00000000000E+00 -0.00000000000E+00 -0.45593999997E+02  0.45594000000E+02  0.51100000000E-03 0.  1.
    9900012    2    1    2    0    0 -0.33965932455E+02 -0.26378503641E+02  0.58406469984E+01  0.47787272134E+02  0.20000004970E+02 0.  0.
        -12    1    1    2    0    0  0.33965932455E+02  0.26378503641E+02 -0.58406469984E+01  0.43400727866E+02  0.00000000000E+00 0.  1.
         11    1    3    3    0    0 -0.20461322572E+02 -0.14611131071E+02  0.43443026620E+01  0.25515168791E+02  0.51100000000E-03 0. -1.
        -11    1    3    3    0    0 -0.75580860657E+01 -0.13038162089E+02 -0.20866322820E+01  0.15214216056E+02  0.51100000000E-03 0.  1.
         12    1    3    3    0    0 -0.59465238175E+01  0.12707895192E+01  0.35829766183E+01  0.70578872874E+01  0.00000000000E+00 0. -1.
</event>
<event>
 7    1  0.5051979E-010  0.4778724E+02  0.7816164E-02  0.1312668E+00
        -11   -1    0    0    0    0  0.00000000000E+00  0.00000000000E+00  0.45593999997E+02  0.45594000000E+02  0.51100000000E-03 0. -1.
         11   -1    0    0    0    0 -0.00000000000E+00 -0.00000000000E+00 -0.45593999997E+02  0.45594000000E+02  0.51100000000E-03 0.  1.
    9900012    2    1    2    0    0  0.18295392420E+02 -0.37663045019E+02  0.11419246861E+02  0.47787244906E+02  0.19999880823E+02 0.  0.
        -12    1    1    2    0    0 -0.18295392420E+02  0.37663045019E+02 -0.11419246861E+02  0.43400755094E+02  0.00000000000E+00 0.  1.
         11    1    3    3    0    0  0.11200702876E+02 -0.99471429368E+01  0.79587133017E+01  0.16962974833E+02  0.51100000000E-03 0. -1.
        -11    1    3    3    0    0 -0.65544658276E+00  0.11006853524E+00 -0.13843893882E+01  0.15356625751E+01  0.51100000000E-03 0.  1.
         12    1    3    3    0    0  0.77501361268E+01 -0.27825970617E+02  0.48449229474E+01  0.29288607498E+02  0.00000000000E+00 0. -1.
</event>
<event>
 7    1  0.4630495E-010  0.4778728E+02  0.7816164E-02  0.1312668E+00
        -11   -1    0    0    0    0  0.00000000000E+00  0.00000000000E+00  0.45593999997E+02  0.45594000000E+02  0.51100000000E-03 0. -1.
         11   -1    0    0    0    0 -0.00000000000E+00 -0.00000000000E+00 -0.45593999997E+02  0.45594000000E+02  0.51100000000E-03 0.  1.
    9900012    2    1    2    0    0 -0.33265084384E+02  0.27012992456E+02  0.68815108354E+01  0.47787276598E+02  0.20000025320E+02 0.  0.
        -12    1    1    2    0    0  0.33265084384E+02 -0.27012992456E+02 -0.68815108354E+01  0.43400723402E+02  0.00000000000E+00 0.  1.
         11    1    3    3    0    0 -0.41207348820E+01  0.40142613843E+01  0.60638082382E+01  0.83584999276E+01  0.51100000000E-03 0. -1.
        -11    1    3    3    0    0 -0.70815594015E+01 -0.52385453723E+00 -0.75024247038E+00  0.71404321409E+01  0.51100000000E-03 0.  1.
        -12    1    3    3    0    0 -0.22062790100E+02  0.23522585608E+02  0.15679450676E+01  0.32288344529E+02  0.00000000000E+00 0.  1.
</event>
<event>
 7    1  0.4630495E-010  0.4778726E+02  0.7816164E-02  0.1312668E+00
        -11   -1    0    0    0    0  0.00000000000E+00  0.00000000000E+00  0.45593999997E+02  0.45594000000E+02  0.51100000000E-03 0.  1.
         11   -1    0    0    0    0 -0.00000000000E+00 -0.00000000000E+00 -0.45593999997E+02  0.45594000000E+02  0.51100000000E-03 0. -1.
    9900012    2    1    2    0    0  0.36214462687E+02 -0.10480298473E+02 -0.21501159045E+02  0.47787264937E+02  0.19999972152E+02 0.  0.
        -12    1    1    2    0    0 -0.36214462687E+02  0.10480298473E+02  0.21501159045E+02  0.43400735063E+02  0.00000000000E+00 0.  1.
         11    1    3    3    0    0  0.17939934039E+01 -0.28149724019E+01 -0.57244760885E+00  0.33867651945E+01  0.51100000000E-03 0. -1.
        -11    1    3    3    0    0  0.20670131946E+02 -0.20014631333E+01 -0.28032222979E+01  0.20955148887E+02  0.51100000000E-03 0.  1.
         12    1    3    3    0    0  0.13750337337E+02 -0.56638629376E+01 -0.18125489138E+02  0.23445350855E+02  0.00000000000E+00 0. -1.
</event>
<event>
 7    1  0.5735105E-010  0.4778727E+02  0.7816164E-02  0.1312668E+00
        -11   -1    0    0    0    0  0.00000000000E+00  0.00000000000E+00  0.45593999997E+02  0.45594000000E+02  0.51100000000E-03 0. -1.
         11   -1    0    0    0    0 -0.00000000000E+00 -0.00000000000E+00 -0.45593999997E+02  0.45594000000E+02  0.51100000000E-03 0.  1.
    9900012    2    1    2    0    0 -0.25727830982E+02 -0.31106544167E+02  0.15940051402E+02  0.47787267106E+02  0.19999982044E+02 0.  0.
        -12    1    1    2    0    0  0.25727830982E+02  0.31106544167E+02 -0.15940051402E+02  0.43400732894E+02  0.00000000000E+00 0.  1.
         11    1    3    3    0    0 -0.42678366477E-01 -0.10149813066E+02  0.45118386543E+01  0.11107529654E+02  0.51100000000E-03 0. -1.
        -11    1    3    3    0    0 -0.19930656623E+01  0.12730657084E+01  0.71014779954E+00  0.24692746283E+01  0.51100000000E-03 0.  1.
         12    1    3    3    0    0 -0.23692086953E+02 -0.22229796809E+02  0.10718064949E+02  0.34210462823E+02  0.00000000000E+00 0. -1.
</event>
<event>
 7    1  0.4630495E-010  0.4778727E+02  0.7816164E-02  0.1312668E+00
        -11   -1    0    0    0    0  0.00000000000E+00  0.00000000000E+00  0.45593999997E+02  0.45594000000E+02  0.51100000000E-03 0.  1.
         11   -1    0    0    0    0 -0.00000000000E+00 -0.00000000000E+00 -0.45593999997E+02  0.45594000000E+02  0.51100000000E-03 0. -1.
    9900012    2    1    2    0    0  0.11714298692E+02  0.12455618764E+02 -0.39890550995E+02  0.47787270843E+02  0.19999999083E+02 0.  0.
        -12    1    1    2    0    0 -0.11714298692E+02 -0.12455618764E+02  0.39890550995E+02  0.43400729157E+02  0.00000000000E+00 0.  1.
         11    1    3    3    0    0  0.65029357121E+01  0.26284271420E+01 -0.57385625662E+01  0.90624446318E+01  0.51100000000E-03 0. -1.
        -11    1    3    3    0    0  0.16393478378E+01 -0.26724944302E+01 -0.16540209763E+02  0.16834732760E+02  0.51100000000E-03 0.  1.
         12    1    3    3    0    0  0.35720151425E+01  0.12499686052E+02 -0.17611778666E+02  0.21890093452E+02  0.00000000000E+00 0. -1.
</event>
<event>
 7    1  0.4630495E-010  0.4778728E+02  0.7816164E-02  0.1312668E+00
        -11   -1    0    0    0    0  0.00000000000E+00  0.00000000000E+00  0.45593999997E+02  0.45594000000E+02  0.51100000000E-03 0. -1.
         11   -1    0    0    0    0 -0.00000000000E+00 -0.00000000000E+00 -0.45593999997E+02  0.45594000000E+02  0.51100000000E-03 0.  1.
    9900012    2    1    2    0    0 -0.39232268962E+02  0.14047531384E+02  0.12129232925E+02  0.47787281604E+02  0.20000048147E+02 0.  0.
        -12    1    1    2    0    0  0.39232268962E+02 -0.14047531384E+02 -0.12129232925E+02  0.43400718396E+02  0.00000000000E+00 0.  1.
         11    1    3    3    0    0 -0.13101257836E+02  0.91320151929E+01  0.74235150731E+01  0.17610940766E+02  0.51100000000E-03 0. -1.
        -11    1    3    3    0    0 -0.18924636239E+01  0.51157729522E+01 -0.14435921347E+00  0.54564999138E+01  0.51100000000E-03 0.  1.
         12    1    3    3    0    0 -0.24238547502E+02 -0.20025676096E+00  0.48500770657E+01  0.24719840924E+02  0.00000000000E+00 0. -1.
</event>
<event>
 7    1  0.4630495E-010  0.4778729E+02  0.7816164E-02  0.1312668E+00
        -11   -1    0    0    0    0  0.00000000000E+00  0.00000000000E+00  0.45593999997E+02  0.45594000000E+02  0.51100000000E-03 0.  1.
         11   -1    0    0    0    0 -0.00000000000E+00 -0.00000000000E+00 -0.45593999997E+02  0.45594000000E+02  0.51100000000E-03 0. -1.
    9900012    2    1    2    0    0  0.30797742883E+02  0.12513402150E+02 -0.27902246140E+02  0.47787291023E+02  0.20000091091E+02 0.  0.
        -12    1    1    2    0    0 -0.30797742883E+02 -0.12513402150E+02  0.27902246140E+02  0.43400708977E+02  0.00000000000E+00 0.  1.
         11    1    3    3    0    0  0.52599926155E+01 -0.14864122574E+01 -0.74979447918E+01  0.92787994954E+01  0.51100000000E-03 0. -1.
        -11    1    3    3    0    0  0.24207410095E+02  0.10628337590E+02 -0.11379102074E+02  0.28782707095E+02  0.51100000000E-03 0.  1.
         12    1    3    3    0    0  0.13303401722E+01  0.33714768183E+01 -0.90251992737E+01  0.97257844332E+01  0.00000000000E+00 0. -1.
</event>
<event>
 7    1  0.4630495E-010  0.4778727E+02  0.7816164E-02  0.1312668E+00
        -11   -1    0    0    0    0  0.00000000000E+00  0.00000000000E+00  0.45593999997E+02  0.45594000000E+02  0.51100000000E-03 0. -1.
         11   -1    0    0    0    0 -0.00000000000E+00 -0.00000000000E+00 -0.45593999997E+02  0.45594000000E+02  0.51100000000E-03 0.  1.
    9900012    2    1    2    0    0  0.19317298647E+02 -0.33458329596E+02  0.19773868499E+02  0.47787265884E+02  0.19999976473E+02 0.  0.
        -12    1    1    2    0    0 -0.19317298647E+02  0.33458329596E+02 -0.19773868499E+02  0.43400734116E+02  0.00000000000E+00 0.  1.
         11    1    3    3    0    0  0.67420239727E+01 -0.25862698575E+02  0.15362553254E+02  0.30827619233E+02  0.51100000000E-03 0. -1.
        -11    1    3    3    0    0  0.48625212032E+01 -0.61388147556E+01 -0.24163257141E+00  0.78350204605E+01  0.51100000000E-03 0.  1.
         12    1    3    3    0    0  0.77127534711E+01 -0.14568162649E+01  0.46529478161E+01  0.91246261904E+01  0.00000000000E+00 0. -1.
</event>
<event>
 7    1  0.5408819E-010  0.4778730E+02  0.7816164E-02  0.1312668E+00
        -11   -1    0    0    0    0  0.00000000000E+00  0.00000000000E+00  0.45593999997E+02  0.45594000000E+02  0.51100000000E-03 0. -1.
         11   -1    0    0    0    0 -0.00000000000E+00 -0.00000000000E+00 -0.45593999997E+02  0.45594000000E+02  0.51100000000E-03 0.  1.
    9900012    2    1    2    0    0  0.11540104105E+02 -0.29478564008E+02  0.29689404806E+02  0.47787303042E+02  0.20000145888E+02 0.  0.
        -12    1    1    2    0    0 -0.11540104105E+02  0.29478564008E+02 -0.29689404806E+02  0.43400696958E+02  0.00000000000E+00 0.  1.
         11    1    3    3    0    0  0.61927561626E+01 -0.74652817994E+01  0.13739186237E+02  0.16818023069E+02  0.51100000000E-03 0. -1.
        -11    1    3    3    0    0  0.26430117173E+01  0.94775428041E+00  0.41543572865E+01  0.50142231541E+01  0.51100000000E-03 0.  1.
         12    1    3    3    0    0  0.27043362254E+01 -0.22961036489E+02  0.11795861282E+02  0.25955056819E+02  0.00000000000E+00 0. -1.
</event>
<event>
 7    1  0.4630495E-010  0.4778727E+02  0.7816164E-02  0.1312668E+00
        -11   -1    0    0    0    0  0.00000000000E+00  0.00000000000E+00  0.45593999997E+02  0.45594000000E+02  0.51100000000E-03 0. -1.
         11   -1    0    0    0    0 -0.00000000000E+00 -0.00000000000E+00 -0.45593999997E+02  0.45594000000E+02  0.51100000000E-03 0.  1.
    9900012    2    1    2    0    0  0.32097097649E+02 -0.10270196036E+02  0.27348171115E+02  0.47787273423E+02  0.20000010845E+02 0.  0.
        -12    1    1    2    0    0 -0.32097097649E+02  0.10270196036E+02 -0.27348171115E+02  0.43400726577E+02  0.00000000000E+00 0.  1.
         11    1    3    3    0    0  0.10436992331E+02 -0.89631084437E+00  0.14653619075E+02  0.18012849145E+02  0.51100000000E-03 0. -1.
        -11    1    3    3    0    0  0.14627609867E+02  0.53743522531E+00  0.54077963161E+01  0.15604488723E+02  0.51100000000E-03 0.  1.
         12    1    3    3    0    0  0.70324954503E+01 -0.99113204170E+01  0.72867557234E+01  0.14169935555E+02  0.00000000000E+00 0. -1.
</event>
<event>
 7    1  0.4630495E-010  0.4778727E+02  0.7816164E-02  0.1312668E+00
        -11   -1    0    0    0    0  0.00000000000E+00  0.00000000000E+00  0.45593999997E+02  0.45594000000E+02  0.51100000000E-03 0.  1.
         11   -1    0    0    0    0 -0.00000000000E+00 -0.00000000000E+00 -0.45593999997E+02  0.45594000000E+02  0.51100000000E-03 0. -1.
    9900012    2    1    2    0    0 -0.10978188019E+01  0.29310089369E+02 -0.31989635318E+02  0.47787270597E+02  0.19999997960E+02 0.  0.
        -12    1    1    2    0    0  0.10978188019E+01 -0.29310089369E+02  0.31989635318E+02  0.43400729403E+02  0.00000000000E+00 0.  1.
         11    1    3    3    0    0 -0.34292571843E+01  0.17055553452E+02 -0.26953796455E+02  0.32080505794E+02  0.51100000000E-03 0. -1.
        -11    1    3    3    0    0 -0.30055318843E+01  0.54699809348E+01 -0.22969124073E+01  0.66505428502E+01  0.51100000000E-03 0.  1.
         12    1    3    3    0    0  0.53369702666E+01  0.67845549825E+01 -0.27389264558E+01  0.90562219533E+01  0.00000000000E+00 0. -1.
</event>
<event>
 7    1  0.4630495E-010  0.4778727E+02  0.7816164E-02  0.1312668E+00
        -11   -1    0    0    0    0  0.00000000000E+00  0.00000000000E+00  0.45593999997E+02  0.45594000000E+02  0.51100000000E-03 0. -1.
         11   -1    0    0    0    0 -0.00000000000E+00 -0.00000000000E+00 -0.45593999997E+02  0.45594000000E+02  0.51100000000E-03 0.  1.
    9900012    2    1    2    0    0  0.17205597809E+02  0.38797607662E+02  0.90739407655E+01  0.47787270084E+02  0.19999995620E+02 0.  0.
        -12    1    1    2    0    0 -0.17205597809E+02 -0.38797607662E+02 -0.90739407655E+01  0.43400729916E+02  0.00000000000E+00 0.  1.
         11    1    3    3    0    0  0.80205320227E+00  0.31351320733E+01  0.35232551940E+01  0.47838969345E+01  0.51100000000E-03 0. -1.
        -11    1    3    3    0    0  0.77500191060E+01  0.25279017179E+02 -0.35946074560E+01  0.26683566267E+02  0.51100000000E-03 0.  1.
        -12    1    3    3    0    0  0.86535255005E+01  0.10383458409E+02  0.91452930275E+01  0.16319806883E+02  0.00000000000E+00 0.  1.
</event>
<event>
 7    1  0.4630495E-010  0.4778731E+02  0.7816164E-02  0.1312668E+00
        -11   -1    0    0    0    0  0.00000000000E+00  0.00000000000E+00  0.45593999997E+02  0.45594000000E+02  0.51100000000E-03 0. -1.
         11   -1    0    0    0    0 -0.00000000000E+00 -0.00000000000E+00 -0.45593999997E+02  0.45594000000E+02  0.51100000000E-03 0.  1.
    9900012    2    1    2    0    0  0.30344681475E+01  0.41266256494E+02  0.13096112539E+02  0.47787307775E+02  0.20000167468E+02 0.  0.
        -12    1    1    2    0    0 -0.30344681475E+01 -0.41266256494E+02 -0.13096112539E+02  0.43400692225E+02  0.00000000000E+00 0.  1.
         11    1    3    3    0    0  0.85968397844E+00  0.57202478180E+01 -0.43095894924E+01  0.72133801713E+01  0.51100000000E-03 0. -1.
        -11    1    3    3    0    0  0.16420149833E+00  0.33698691598E+01  0.49971840368E+01  0.60294965664E+01  0.51100000000E-03 0.  1.
         12    1    3    3    0    0  0.20105826708E+01  0.32176139517E+02  0.12408517994E+02  0.34544431037E+02  0.00000000000E+00 0. -1.
</event>
<event>
 7    1  0.4630495E-010  0.4778727E+02  0.7816164E-02  0.1312668E+00
        -11   -1    0    0    0    0  0.00000000000E+00  0.00000000000E+00  0.45593999997E+02  0.45594000000E+02  0.51100000000E-03 0.  1.
         11   -1    0    0    0    0 -0.00000000000E+00 -0.00000000000E+00 -0.45593999997E+02  0.45594000000E+02  0.51100000000E-03 0. -1.
    9900012    2    1    2    0    0  0.55569464487E+01  0.18546173584E+02 -0.38843057772E+02  0.47787270219E+02  0.19999996238E+02 0.  0.
        -12    1    1    2    0    0 -0.55569464487E+01 -0.18546173584E+02  0.38843057772E+02  0.43400729781E+02  0.00000000000E+00 0.  1.
         11    1    3    3    0    0 -0.37801003860E+01  0.74250357676E+01 -0.16800356042E+02  0.18752927197E+02  0.51100000000E-03 0. -1.
        -11    1    3    3    0    0 -0.10541323848E+01  0.11370280920E+00  0.10045178602E+01  0.14605409293E+01  0.51100000000E-03 0.  1.
         12    1    3    3    0    0  0.10391179220E+02  0.11007435007E+02 -0.23047219590E+02  0.27573802093E+02  0.00000000000E+00 0. -1.
</event>
<event>
 7    1  0.4630495E-010  0.4778727E+02  0.7816164E-02  0.1312668E+00
        -11   -1    0    0    0    0  0.00000000000E+00  0.00000000000E+00  0.45593999997E+02  0.45594000000E+02  0.51100000000E-03 0.  1.
         11   -1    0    0    0    0 -0.00000000000E+00 -0.00000000000E+00 -0.45593999997E+02  0.45594000000E+02  0.51100000000E-03 0. -1.
    9900012    2    1    2    0    0  0.29774859483E+02 -0.22398663825E+02 -0.22257154488E+02  0.47787270463E+02  0.19999997351E+02 0.  0.
        -12    1    1    2    0    0 -0.29774859483E+02  0.22398663825E+02  0.22257154488E+02  0.43400729537E+02  0.00000000000E+00 0.  1.
         11    1    3    3    0    0  0.75277928534E+01 -0.76332502464E+01 -0.76849608219E+01  0.13190632952E+02  0.51100000000E-03 0. -1.
        -11    1    3    3    0    0 -0.24694581682E+01 -0.25619114627E+01 -0.31730425539E+01  0.47675793960E+01  0.51100000000E-03 0.  1.
        -12    1    3    3    0    0  0.24716524798E+02 -0.12203502116E+02 -0.11399151113E+02  0.29829058116E+02  0.00000000000E+00 0.  1.
</event>
<event>
 7    1  0.4630495E-010  0.4778727E+02  0.7816164E-02  0.1312668E+00
        -11   -1    0    0    0    0  0.00000000000E+00  0.00000000000E+00  0.45593999997E+02  0.45594000000E+02  0.51100000000E-03 0.  1.
         11   -1    0    0    0    0 -0.00000000000E+00 -0.00000000000E+00 -0.45593999997E+02  0.45594000000E+02  0.51100000000E-03 0. -1.
    9900012    2    1    2    0    0  0.34235100372E+02  0.22960231152E+02 -0.13579719255E+02  0.47787273196E+02  0.20000009811E+02 0.  0.
        -12    1    1    2    0    0 -0.34235100372E+02 -0.22960231152E+02  0.13579719255E+02  0.43400726804E+02  0.00000000000E+00 0.  1.
         11    1    3    3    0    0  0.62843685743E+01  0.76584863452E+01  0.19041923651E+00  0.99086811042E+01  0.51100000000E-03 0. -1.
        -11    1    3    3    0    0 -0.89237732643E+00  0.43151722802E+01 -0.20999417499E+01  0.48812708093E+01  0.51100000000E-03 0.  1.
         12    1    3    3    0    0  0.28843109124E+02  0.10986572527E+02 -0.11670196742E+02  0.32997321283E+02  0.00000000000E+00 0. -1.
</event>
<event>
 7    1  0.4630495E-010  0.4778727E+02  0.7816164E-02  0.1312668E+00
        -11   -1    0    0    0    0  0.00000000000E+00  0.00000000000E+00  0.45593999997E+02  0.45594000000E+02  0.51100000000E-03 0.  1.
         11   -1    0    0    0    0 -0.00000000000E+00 -0.00000000000E+00 -0.45593999997E+02  0.45594000000E+02  0.51100000000E-03 0. -1.
    9900012    2    1    2    0    0  0.40531735215E+01  0.15633316782E+02 -0.40283922716E+02  0.47787271451E+02  0.20000001855E+02 0.  0.
        -12    1    1    2    0    0 -0.40531735215E+01 -0.15633316782E+02  0.40283922716E+02  0.43400728549E+02  0.00000000000E+00 0.  1.
         11    1    3    3    0    0  0.69571179050E+00 -0.15112602855E+01 -0.12016697566E+01  0.20522994447E+01  0.51100000000E-03 0. -1.
        -11    1    3    3    0    0  0.43765553933E+01  0.36457237845E+01 -0.16503116699E+01  0.59303514140E+01  0.51100000000E-03 0.  1.
         12    1    3    3    0    0 -0.10190936624E+01  0.13498853283E+02 -0.37431941289E+02  0.39804620593E+02  0.00000000000E+00 0. -1.
</event>
<event>
 7    1  0.4630495E-010  0.4778727E+02  0.7816164E-02  0.1312668E+00
        -11   -1    0    0    0    0  0.00000000000E+00  0.00000000000E+00  0.45593999997E+02  0.45594000000E+02  0.51100000000E-03 0. -1.
         11   -1    0    0    0    0 -0.00000000000E+00 -0.00000000000E+00 -0.45593999997E+02  0.45594000000E+02  0.51100000000E-03 0.  1.
    9900012    2    1    2    0    0  0.31608241409E+02 -0.37302317763E+01  0.29506401077E+02  0.47787271220E+02  0.20000000801E+02 0.  0.
        -12    1    1    2    0    0 -0.31608241409E+02  0.37302317763E+01 -0.29506401077E+02  0.43400728780E+02  0.00000000000E+00 0.  1.
         11    1    3    3    0    0  0.69133174912E+01 -0.56712924816E+01  0.11766551297E+02  0.14778675409E+02  0.51100000000E-03 0. -1.
        -11    1    3    3    0    0  0.40919666238E+01  0.46943837088E+01  0.77629256647E+01  0.99521075352E+01  0.51100000000E-03 0.  1.
        -12    1    3    3    0    0  0.20602957294E+02 -0.27533230035E+01  0.99769241154E+01  0.23056488276E+02  0.00000000000E+00 0.  1.
</event>
<event>
 7    1  0.4630495E-010  0.4778727E+02  0.7816164E-02  0.1312668E+00
        -11   -1    0    0    0    0  0.00000000000E+00  0.00000000000E+00  0.45593999997E+02  0.45594000000E+02  0.51100000000E-03 0. -1.
         11   -1    0    0    0    0 -0.00000000000E+00 -0.00000000000E+00 -0.45593999997E+02  0.45594000000E+02  0.51100000000E-03 0.  1.
    9900012    2    1    2    0    0 -0.12725309310E+02 -0.39848411054E+02  0.11566926417E+02  0.47787272502E+02  0.20000006647E+02 0.  0.
        -12    1    1    2    0    0  0.12725309310E+02  0.39848411054E+02 -0.11566926417E+02  0.43400727498E+02  0.00000000000E+00 0.  1.
         11    1    3    3    0    0 -0.32269048806E+01 -0.61494925136E+01  0.82429491486E+01  0.10778468547E+02  0.51100000000E-03 0. -1.
        -11    1    3    3    0    0  0.23537229373E+01 -0.24683144545E+01 -0.21787881162E+00  0.34176101811E+01  0.51100000000E-03 0.  1.
        -12    1    3    3    0    0 -0.11852127366E+02 -0.31230604086E+02  0.35418560803E+01  0.33591193775E+02  0.00000000000E+00 0.  1.
</event>
<event>
 7    1  0.4630495E-010  0.4778727E+02  0.7816164E-02  0.1312668E+00
        -11   -1    0    0    0    0  0.00000000000E+00  0.00000000000E+00  0.45593999997E+02  0.45594000000E+02  0.51100000000E-03 0.  1.
         11   -1    0    0    0    0 -0.00000000000E+00 -0.00000000000E+00 -0.45593999997E+02  0.45594000000E+02  0.51100000000E-03 0. -1.
    9900012    2    1    2    0    0 -0.35868825784E+02 -0.11972907462E+02 -0.21300231525E+02  0.47787273748E+02  0.20000012327E+02 0.  0.
        -12    1    1    2    0    0  0.35868825784E+02  0.11972907462E+02  0.21300231525E+02  0.43400726252E+02  0.00000000000E+00 0.  1.
         11    1    3    3    0    0 -0.11606634310E+01 -0.13869859511E+01 -0.88225889687E+01  0.90060505218E+01  0.51100000000E-03 0. -1.
        -11    1    3    3    0    0 -0.14114145564E+01 -0.17879621788E+01 -0.86464824595E+00  0.24364967993E+01  0.51100000000E-03 0.  1.
        -12    1    3    3    0    0 -0.33296747796E+02 -0.87979593322E+01 -0.11612994310E+02  0.36344726427E+02  0.00000000000E+00 0.  1.
</event>
<event>
 7    1  0.4630495E-010  0.4778727E+02  0.7816164E-02  0.1312668E+00
        -11   -1    0    0    0    0  0.00000000000E+00  0.00000000000E+00  0.45593999997E+02  0.45594000000E+02  0.51100000000E-03 0.  1.
         11   -1    0    0    0    0 -0.00000000000E+00 -0.00000000000E+00 -0.45593999997E+02  0.45594000000E+02  0.51100000000E-03 0. -1.
    9900012    2    1    2    0    0  0.32796044510E+02 -0.22716404695E+02 -0.17088232476E+02  0.47787271125E+02  0.20000000365E+02 0.  0.
        -12    1    1    2    0    0 -0.32796044510E+02  0.22716404695E+02  0.17088232476E+02  0.43400728875E+02  0.00000000000E+00 0.  1.
         11    1    3    3    0    0  0.10647981368E+02 -0.15397157221E+01 -0.18691232108E+01  0.10919883404E+02  0.51100000000E-03 0. -1.
        -11    1    3    3    0    0  0.29715641126E+01  0.15764122168E+01 -0.35890307006E+01  0.49189846903E+01  0.51100000000E-03 0.  1.
         12    1    3    3    0    0  0.19176499030E+02 -0.22753101189E+02 -0.11630078564E+02  0.31948403030E+02  0.00000000000E+00 0. -1.
</event>
<event>
 7    1  0.4630495E-010  0.4778727E+02  0.7816164E-02  0.1312668E+00
        -11   -1    0    0    0    0  0.00000000000E+00  0.00000000000E+00  0.45593999997E+02  0.45594000000E+02  0.51100000000E-03 0.  1.
         11   -1    0    0    0    0 -0.00000000000E+00 -0.00000000000E+00 -0.45593999997E+02  0.45594000000E+02  0.51100000000E-03 0. -1.
    9900012    2    1    2    0    0 -0.39810193347E+02  0.13292322076E+02 -0.11049236433E+02  0.47787274819E+02  0.20000017210E+02 0.  0.
        -12    1    1    2    0    0  0.39810193347E+02 -0.13292322076E+02  0.11049236433E+02  0.43400725181E+02  0.00000000000E+00 0.  1.
         11    1    3    3    0    0 -0.11681486999E+02 -0.61015831808E+00 -0.21791051359E+00  0.11699440881E+02  0.51100000000E-03 0. -1.
        -11    1    3    3    0    0 -0.24846539349E+02  0.69434261151E+01 -0.11732500298E+02  0.28341017048E+02  0.51100000000E-03 0.  1.
        -12    1    3    3    0    0 -0.32821669995E+01  0.69590542786E+01  0.90117437803E+00  0.77468168899E+01  0.00000000000E+00 0.  1.
</event>
<event>
 7    1  0.4630495E-010  0.4778726E+02  0.7816164E-02  0.1312668E+00
        -11   -1    0    0    0    0  0.00000000000E+00  0.00000000000E+00  0.45593999997E+02  0.45594000000E+02  0.51100000000E-03 0. -1.
         11   -1    0    0    0    0 -0.00000000000E+00 -0.00000000000E+00 -0.45593999997E+02  0.45594000000E+02  0.51100000000E-03 0.  1.
    9900012    2    1    2    0    0 -0.13864006139E+01  0.38285078567E+02 -0.20394967680E+02  0.47787262055E+02  0.19999959013E+02 0.  0.
        -12    1    1    2    0    0  0.13864006139E+01 -0.38285078567E+02  0.20394967680E+02  0.43400737945E+02  0.00000000000E+00 0.  1.
         11    1    3    3    0    0 -0.42483241631E+01  0.17312273858E+02 -0.51379098476E+01  0.18551582202E+02  0.51100000000E-03 0. -1.
        -11    1    3    3    0    0 -0.32074405691E+01  0.17793348103E+02 -0.10752544855E+02  0.21035877278E+02  0.51100000000E-03 0.  1.
        -12    1    3    3    0    0  0.60693641184E+01  0.31794566054E+01 -0.45045129777E+01  0.81998025753E+01  0.00000000000E+00 0.  1.
</event>
<event>
 7    1  0.4772559E-010  0.4778728E+02  0.7816164E-02  0.1312668E+00
        -11   -1    0    0    0    0  0.00000000000E+00  0.00000000000E+00  0.45593999997E+02  0.45594000000E+02  0.51100000000E-03 0.  1.
         11   -1    0    0    0    0 -0.00000000000E+00 -0.00000000000E+00 -0.45593999997E+02  0.45594000000E+02  0.51100000000E-03 0. -1.
    9900012    2    1    2    0    0 -0.15890174112E+02  0.37357994545E+02  0.15346163447E+02  0.47787284311E+02  0.20000060487E+02 0.  0.
        -12    1    1    2    0    0  0.15890174112E+02 -0.37357994545E+02 -0.15346163447E+02  0.43400715689E+02  0.00000000000E+00 0.  1.
         11    1    3    3    0    0 -0.18166146671E+01  0.14729318176E+02  0.10978910626E+02  0.18460481618E+02  0.51100000000E-03 0. -1.
        -11    1    3    3    0    0 -0.56633628333E+01  0.41522055261E+01  0.56101994109E+01  0.89882605105E+01  0.51100000000E-03 0.  1.
         12    1    3    3    0    0 -0.84101966120E+01  0.18476470844E+02 -0.12429465900E+01  0.20338542183E+02  0.00000000000E+00 0. -1.
</event>
<event>
 7    1  0.4775976E-010  0.4778727E+02  0.7816164E-02  0.1312668E+00
        -11   -1    0    0    0    0  0.00000000000E+00  0.00000000000E+00  0.45593999997E+02  0.45594000000E+02  0.51100000000E-03 0. -1.
         11   -1    0    0    0    0 -0.00000000000E+00 -0.00000000000E+00 -0.45593999997E+02  0.45594000000E+02  0.51100000000E-03 0.  1.
    9900012    2    1    2    0    0  0.35431475037E+02  0.24317728421E+02  0.60730385159E+01  0.47787272637E+02  0.20000007262E+02 0.  0.
        -12    1    1    2    0    0 -0.35431475037E+02 -0.24317728421E+02 -0.60730385159E+01  0.43400727363E+02  0.00000000000E+00 0.  1.
         11    1    3    3    0    0  0.37205765781E+01 -0.20487685505E+01  0.19095662838E+00  0.42516593634E+01  0.51100000000E-03 0. -1.
        -11    1    3    3    0    0  0.52672440056E+01  0.54804878004E+01 -0.37680532269E+01  0.84839749721E+01  0.51100000000E-03 0.  1.
         12    1    3    3    0    0  0.26443654453E+02  0.20886009171E+02  0.96501351145E+01  0.35051638302E+02  0.00000000000E+00 0. -1.
</event>
<event>
 7    1  0.4630495E-010  0.4778727E+02  0.7816164E-02  0.1312668E+00
        -11   -1    0    0    0    0  0.00000000000E+00  0.00000000000E+00  0.45593999997E+02  0.45594000000E+02  0.51100000000E-03 0.  1.
         11   -1    0    0    0    0 -0.00000000000E+00 -0.00000000000E+00 -0.45593999997E+02  0.45594000000E+02  0.51100000000E-03 0. -1.
    9900012    2    1    2    0    0 -0.20553153386E+02 -0.19573823878E+02 -0.32833767114E+02  0.47787274681E+02  0.20000016582E+02 0.  0.
        -12    1    1    2    0    0  0.20553153386E+02  0.19573823878E+02  0.32833767114E+02  0.43400725319E+02  0.00000000000E+00 0.  1.
         11    1    3    3    0    0 -0.42538069856E+01 -0.12412399792E+02 -0.74011028935E+01  0.15064490259E+02  0.51100000000E-03 0. -1.
        -11    1    3    3    0    0  0.13395170570E+01 -0.12494288302E+00 -0.32748715618E+01  0.35404379217E+01  0.51100000000E-03 0.  1.
         12    1    3    3    0    0 -0.17638863457E+02 -0.70364812034E+01 -0.22157792658E+02  0.29182346500E+02  0.00000000000E+00 0. -1.
</event>
<event>
 7    1  0.4630495E-010  0.4778726E+02  0.7816164E-02  0.1312668E+00
        -11   -1    0    0    0    0  0.00000000000E+00  0.00000000000E+00  0.45593999997E+02  0.45594000000E+02  0.51100000000E-03 0.  1.
         11   -1    0    0    0    0 -0.00000000000E+00 -0.00000000000E+00 -0.45593999997E+02  0.45594000000E+02  0.51100000000E-03 0. -1.
    9900012    2    1    2    0    0  0.43393820380E+01 -0.64659636902E+01 -0.42696428297E+02  0.47787263690E+02  0.19999966467E+02 0.  0.
        -12    1    1    2    0    0 -0.43393820380E+01  0.64659636902E+01  0.42696428297E+02  0.43400736310E+02  0.00000000000E+00 0.  1.
         11    1    3    3    0    0 -0.37081538136E+01 -0.10189523484E+02 -0.31106753347E+02  0.32942478620E+02  0.51100000000E-03 0. -1.
        -11    1    3    3    0    0  0.27363031216E+01 -0.69299939320E-01 -0.30793446789E+01  0.41200147048E+01  0.51100000000E-03 0.  1.
        -12    1    3    3    0    0  0.53112327300E+01  0.37928597330E+01 -0.85103302710E+01  0.10724770365E+02  0.00000000000E+00 0.  1.
</event>
<event>
 7    1  0.4630495E-010  0.4778727E+02  0.7816164E-02  0.1312668E+00
        -11   -1    0    0    0    0  0.00000000000E+00  0.00000000000E+00  0.45593999997E+02  0.45594000000E+02  0.51100000000E-03 0. -1.
         11   -1    0    0    0    0 -0.00000000000E+00 -0.00000000000E+00 -0.45593999997E+02  0.45594000000E+02  0.51100000000E-03 0.  1.
    9900012    2    1    2    0    0 -0.13629717200E+02 -0.35496859422E+02  0.20924312437E+02  0.47787273385E+02  0.20000010671E+02 0.  0.
        -12    1    1    2    0    0  0.13629717200E+02  0.35496859422E+02 -0.20924312437E+02  0.43400726615E+02  0.00000000000E+00 0.  1.
         11    1    3    3    0    0  0.39539991383E+01 -0.45464509631E+01  0.38831806946E+01  0.71682228002E+01  0.51100000000E-03 0. -1.
        -11    1    3    3    0    0 -0.49101956313E+01 -0.45685848637E+01 -0.87189811846E-01  0.67074280555E+01  0.51100000000E-03 0.  1.
         12    1    3    3    0    0 -0.12673520707E+02 -0.26381823595E+02  0.17128321554E+02  0.33911622529E+02  0.00000000000E+00 0. -1.
</event>
<event>
 7    1  0.4630495E-010  0.4778728E+02  0.7816164E-02  0.1312668E+00
        -11   -1    0    0    0    0  0.00000000000E+00  0.00000000000E+00  0.45593999997E+02  0.45594000000E+02  0.51100000000E-03 0. -1.
         11   -1    0    0    0    0 -0.00000000000E+00 -0.00000000000E+00 -0.45593999997E+02  0.45594000000E+02  0.51100000000E-03 0.  1.
    9900012    2    1    2    0    0  0.40357549639E+02  0.15529767225E+02  0.37036747335E+01  0.47787277777E+02  0.20000030697E+02 0.  0.
        -12    1    1    2    0    0 -0.40357549639E+02 -0.15529767225E+02 -0.37036747335E+01  0.43400722223E+02  0.00000000000E+00 0.  1.
         11    1    3    3    0    0  0.12928523385E+02  0.11287136266E+02  0.39076456732E+01  0.17601586774E+02  0.51100000000E-03 0. -1.
        -11    1    3    3    0    0  0.18309183937E+02  0.70771673084E+01  0.35063348815E+01  0.19940082701E+02  0.51100000000E-03 0.  1.
        -12    1    3    3    0    0  0.91198423165E+01 -0.28345363486E+01 -0.37103058212E+01  0.10245608302E+02  0.00000000000E+00 0.  1.
</event>
<event>
 7    1  0.4630495E-010  0.4778727E+02  0.7816164E-02  0.1312668E+00
        -11   -1    0    0    0    0  0.00000000000E+00  0.00000000000E+00  0.45593999997E+02  0.45594000000E+02  0.51100000000E-03 0.  1.
         11   -1    0    0    0    0 -0.00000000000E+00 -0.00000000000E+00 -0.45593999997E+02  0.45594000000E+02  0.51100000000E-03 0. -1.
    9900012    2    1    2    0    0  0.29492372109E+02 -0.18666221023E+02 -0.25795266717E+02  0.47787267231E+02  0.19999982611E+02 0.  0.
        -12    1    1    2    0    0 -0.29492372109E+02  0.18666221023E+02  0.25795266717E+02  0.43400732769E+02  0.00000000000E+00 0.  1.
         11    1    3    3    0    0  0.72072752357E+01 -0.11908308220E+02 -0.56850554255E+01  0.15035706716E+02  0.51100000000E-03 0. -1.
        -11    1    3    3    0    0  0.35669877726E+01 -0.44442039144E+01 -0.79243226361E+00  0.57534597727E+01  0.51100000000E-03 0.  1.
         12    1    3    3    0    0  0.18718109101E+02 -0.23137088891E+01 -0.19317779027E+02  0.26998100742E+02  0.00000000000E+00 0. -1.
</event>
<event>
 7    1  0.4630495E-010  0.4778727E+02  0.7816164E-02  0.1312668E+00
        -11   -1    0    0    0    0  0.00000000000E+00  0.00000000000E+00  0.45593999997E+02  0.45594000000E+02  0.51100000000E-03 0.  1.
         11   -1    0    0    0    0 -0.00000000000E+00 -0.00000000000E+00 -0.45593999997E+02  0.45594000000E+02  0.51100000000E-03 0. -1.
    9900012    2    1    2    0    0 -0.75704608453E+01  0.11026650634E+02 -0.41288305553E+02  0.47787273312E+02  0.20000010337E+02 0.  0.
        -12    1    1    2    0    0  0.75704608453E+01 -0.11026650634E+02  0.41288305553E+02  0.43400726688E+02  0.00000000000E+00 0.  1.
         11    1    3    3    0    0 -0.12761334066E+01 -0.52503885766E+00  0.53631604648E+00  0.14804787861E+01  0.51100000000E-03 0. -1.
        -11    1    3    3    0    0 -0.90060846294E+01  0.38045095612E+01 -0.12581363511E+02  0.15933441606E+02  0.51100000000E-03 0.  1.
         12    1    3    3    0    0  0.27117571906E+01  0.77471799303E+01 -0.29243258088E+02  0.30373352919E+02  0.00000000000E+00 0. -1.
</event>
<event>
 7    1  0.4630495E-010  0.4778727E+02  0.7816164E-02  0.1312668E+00
        -11   -1    0    0    0    0  0.00000000000E+00  0.00000000000E+00  0.45593999997E+02  0.45594000000E+02  0.51100000000E-03 0. -1.
         11   -1    0    0    0    0 -0.00000000000E+00 -0.00000000000E+00 -0.45593999997E+02  0.45594000000E+02  0.51100000000E-03 0.  1.
    9900012    2    1    2    0    0 -0.15489483146E+02 -0.22068677252E+02  0.34009888003E+02  0.47787273212E+02  0.20000009881E+02 0.  0.
        -12    1    1    2    0    0  0.15489483146E+02  0.22068677252E+02 -0.34009888003E+02  0.43400726788E+02  0.00000000000E+00 0.  1.
         11    1    3    3    0    0 -0.48936773777E+01 -0.17689504155E+02  0.23875100728E+02  0.30114565754E+02  0.51100000000E-03 0. -1.
        -11    1    3    3    0    0 -0.90856788382E+01 -0.66688993443E+01  0.97508155593E+01  0.14903093060E+02  0.51100000000E-03 0.  1.
        -12    1    3    3    0    0 -0.15101269304E+01  0.22897262470E+01  0.38397171520E+00  0.27696143974E+01  0.00000000000E+00 0.  1.
</event>
<event>
 7    1  0.5520317E-010  0.4778729E+02  0.7816164E-02  0.1312668E+00
        -11   -1    0    0    0    0  0.00000000000E+00  0.00000000000E+00  0.45593999997E+02  0.45594000000E+02  0.51100000000E-03 0.  1.
         11   -1    0    0    0    0 -0.00000000000E+00 -0.00000000000E+00 -0.45593999997E+02  0.45594000000E+02  0.51100000000E-03 0. -1.
    9900012    2    1    2    0    0 -0.28416042597E+02 -0.32802229109E+02  0.40477581924E+00  0.47787290849E+02  0.20000090295E+02 0.  0.
        -12    1    1    2    0    0  0.28416042597E+02  0.32802229109E+02 -0.40477581924E+00  0.43400709151E+02  0.00000000000E+00 0.  1.
         11    1    3    3    0    0 -0.12016151693E+01 -0.92700891801E+00 -0.35675452891E+01  0.38769323182E+01  0.51100000000E-03 0. -1.
        -11    1    3    3    0    0 -0.87006675233E+01 -0.39857845773E+01  0.41588967023E+01  0.10434774367E+02  0.51100000000E-03 0.  1.
         12    1    3    3    0    0 -0.18513759904E+02 -0.27889435614E+02 -0.18657559403E+00  0.33475584164E+02  0.00000000000E+00 0. -1.
</event>
<event>
 7    1  0.4630495E-010  0.4778727E+02  0.7816164E-02  0.1312668E+00
        -11   -1    0    0    0    0  0.00000000000E+00  0.00000000000E+00  0.45593999997E+02  0.45594000000E+02  0.51100000000E-03 0. -1.
         11   -1    0    0    0    0 -0.00000000000E+00 -0.00000000000E+00 -0.45593999997E+02  0.45594000000E+02  0.51100000000E-03 0.  1.
    9900012    2    1    2    0    0  0.16587537811E+01 -0.39960521215E+02  0.16853144713E+02  0.47787271820E+02  0.20000003535E+02 0.  0.
        -12    1    1    2    0    0 -0.16587537811E+01  0.39960521215E+02 -0.16853144713E+02  0.43400728180E+02  0.00000000000E+00 0.  1.
         11    1    3    3    0    0  0.38114078918E+01 -0.12758621685E+02  0.38402661284E+01  0.13858459569E+02  0.51100000000E-03 0. -1.
        -11    1    3    3    0    0 -0.11937985363E+01 -0.27324050694E+02  0.75388683844E+01  0.28370115228E+02  0.51100000000E-03 0.  1.
        -12    1    3    3    0    0 -0.95885557440E+00  0.12215116429E+00  0.54740102006E+01  0.55586970232E+01  0.00000000000E+00 0.  1.
</event>
<event>
 7    1  0.4630495E-010  0.4778727E+02  0.7816164E-02  0.1312668E+00
        -11   -1    0    0    0    0  0.00000000000E+00  0.00000000000E+00  0.45593999997E+02  0.45594000000E+02  0.51100000000E-03 0.  1.
         11   -1    0    0    0    0 -0.00000000000E+00 -0.00000000000E+00 -0.45593999997E+02  0.45594000000E+02  0.51100000000E-03 0. -1.
    9900012    2    1    2    0    0  0.36254180757E+02 -0.13777278875E+02 -0.19479333041E+02  0.47787269000E+02  0.19999990680E+02 0.  0.
        -12    1    1    2    0    0 -0.36254180757E+02  0.13777278875E+02  0.19479333041E+02  0.43400731000E+02  0.00000000000E+00 0.  1.
         11    1    3    3    0    0  0.44621486053E+01  0.10822580071E+01 -0.18832606870E+01  0.49627334853E+01  0.51100000000E-03 0. -1.
        -11    1    3    3    0    0  0.30056124819E+02 -0.10168923954E+02 -0.91741272604E+01  0.33029415145E+02  0.51100000000E-03 0.  1.
         12    1    3    3    0    0  0.17359073324E+01 -0.46906129276E+01 -0.84219450940E+01  0.97951203703E+01  0.00000000000E+00 0. -1.
</event>
<event>
 7    1  0.4630495E-010  0.4778727E+02  0.7816164E-02  0.1312668E+00
        -11   -1    0    0    0    0  0.00000000000E+00  0.00000000000E+00  0.45593999997E+02  0.45594000000E+02  0.51100000000E-03 0.  1.
         11   -1    0    0    0    0 -0.00000000000E+00 -0.00000000000E+00 -0.45593999997E+02  0.45594000000E+02  0.51100000000E-03 0. -1.
    9900012    2    1    2    0    0 -0.27238295562E+02  0.28358877572E+01 -0.33669808475E+02  0.47787274117E+02  0.20000014008E+02 0.  0.
        -12    1    1    2    0    0  0.27238295562E+02 -0.28358877572E+01  0.33669808475E+02  0.43400725883E+02  0.00000000000E+00 0.  1.
         11    1    3    3    0    0 -0.13866289734E+01  0.24181098248E+01 -0.14113773571E+01  0.31244169600E+01  0.51100000000E-03 0. -1.
        -11    1    3    3    0    0 -0.20669187090E+02 -0.64867866887E+01 -0.18853243410E+02  0.28718260460E+02  0.51100000000E-03 0.  1.
        -12    1    3    3    0    0 -0.51824794983E+01  0.69045646211E+01 -0.13405187708E+02  0.15944596697E+02  0.00000000000E+00 0.  1.
</event>
<event>
 7    1  0.4630495E-010  0.4778727E+02  0.7816164E-02  0.1312668E+00
        -11   -1    0    0    0    0  0.00000000000E+00  0.00000000000E+00  0.45593999997E+02  0.45594000000E+02  0.51100000000E-03 0.  1.
         11   -1    0    0    0    0 -0.00000000000E+00 -0.00000000000E+00 -0.45593999997E+02  0.45594000000E+02  0.51100000000E-03 0. -1.
    9900012    2    1    2    0    0  0.42120212154E+01  0.36814191420E+02 -0.22596414718E+02  0.47787265320E+02  0.19999973902E+02 0.  0.
        -12    1    1    2    0    0 -0.42120212154E+01 -0.36814191420E+02  0.22596414718E+02  0.43400734680E+02  0.00000000000E+00 0.  1.
         11    1    3    3    0    0  0.27185614669E+00  0.17293490498E+02 -0.21612087537E+01  0.17430133187E+02  0.51100000000E-03 0. -1.
        -11    1    3    3    0    0  0.22385888031E+01  0.10473795012E+01  0.35101950953E+00  0.24962969788E+01  0.51100000000E-03 0.  1.
        -12    1    3    3    0    0  0.17015762655E+01  0.18473321421E+02 -0.20786225473E+02  0.27860835155E+02  0.00000000000E+00 0.  1.
</event>
<event>
 7    1  0.4630495E-010  0.4778727E+02  0.7816164E-02  0.1312668E+00
        -11   -1    0    0    0    0  0.00000000000E+00  0.00000000000E+00  0.45593999997E+02  0.45594000000E+02  0.51100000000E-03 0. -1.
         11   -1    0    0    0    0 -0.00000000000E+00 -0.00000000000E+00 -0.45593999997E+02  0.45594000000E+02  0.51100000000E-03 0.  1.
    9900012    2    1    2    0    0  0.30945776538E+02 -0.76072547900E+01  0.29463743733E+02  0.47787267221E+02  0.19999982568E+02 0.  0.
        -12    1    1    2    0    0 -0.30945776538E+02  0.76072547900E+01 -0.29463743733E+02  0.43400732779E+02  0.00000000000E+00 0.  1.
         11    1    3    3    0    0  0.83823675588E+01 -0.59081166214E+01  0.15370274334E+02  0.18477425721E+02  0.51100000000E-03 0.  1.
        -11    1    3    3    0    0  0.23495133374E+02 -0.33769610130E+01  0.12569655970E+02  0.26859289071E+02  0.51100000000E-03 0. -1.
         12    1    3    3    0    0 -0.93172439422E+00  0.16778228445E+01  0.15238134288E+01  0.24505524295E+01  0.00000000000E+00 0. -1.
</event>
<event>
 7    1  0.4630495E-010  0.4778727E+02  0.7816164E-02  0.1312668E+00
        -11   -1    0    0    0    0  0.00000000000E+00  0.00000000000E+00  0.45593999997E+02  0.45594000000E+02  0.51100000000E-03 0. -1.
         11   -1    0    0    0    0 -0.00000000000E+00 -0.00000000000E+00 -0.45593999997E+02  0.45594000000E+02  0.51100000000E-03 0.  1.
    9900012    2    1    2    0    0 -0.40979678356E+02  0.13880193429E+02 -0.34102358530E+01  0.47787268251E+02  0.19999987262E+02 0.  0.
        -12    1    1    2    0    0  0.40979678356E+02 -0.13880193429E+02  0.34102358530E+01  0.43400731749E+02  0.00000000000E+00 0.  1.
         11    1    3    3    0    0 -0.15708731654E+02  0.81310383115E+01 -0.23497115039E+01  0.17843743402E+02  0.51100000000E-03 0. -1.
        -11    1    3    3    0    0 -0.70049934659E+01  0.27589293654E+01 -0.72252115723E+01  0.10434812276E+02  0.51100000000E-03 0.  1.
        -12    1    3    3    0    0 -0.18265953236E+02  0.29902257522E+01  0.61646872232E+01  0.19508712573E+02  0.00000000000E+00 0.  1.
</event>
<event>
 7    1  0.4630495E-010  0.4778727E+02  0.7816164E-02  0.1312668E+00
        -11   -1    0    0    0    0  0.00000000000E+00  0.00000000000E+00  0.45593999997E+02  0.45594000000E+02  0.51100000000E-03 0.  1.
         11   -1    0    0    0    0 -0.00000000000E+00 -0.00000000000E+00 -0.45593999997E+02  0.45594000000E+02  0.51100000000E-03 0. -1.
    9900012    2    1    2    0    0  0.33371351732E+02 -0.80333463835E+01 -0.26560156752E+02  0.47787266167E+02  0.19999977764E+02 0.  0.
        -12    1    1    2    0    0 -0.33371351732E+02  0.80333463835E+01  0.26560156752E+02  0.43400733833E+02  0.00000000000E+00 0.  1.
         11    1    3    3    0    0  0.15899486474E+02 -0.61737800453E+01 -0.14828232674E+02  0.22600568902E+02  0.51100000000E-03 0. -1.
        -11    1    3    3    0    0  0.17559157662E+02 -0.31848278211E+01 -0.52956309284E+01  0.18614801993E+02  0.51100000000E-03 0.  1.
        -12    1    3    3    0    0 -0.87292404731E-01  0.13252614830E+01 -0.64362931499E+01  0.65718952726E+01  0.00000000000E+00 0.  1.
</event>
<event>
 7    1  0.4630495E-010  0.4778727E+02  0.7816164E-02  0.1312668E+00
        -11   -1    0    0    0    0  0.00000000000E+00  0.00000000000E+00  0.45593999997E+02  0.45594000000E+02  0.51100000000E-03 0.  1.
         11   -1    0    0    0    0 -0.00000000000E+00 -0.00000000000E+00 -0.45593999997E+02  0.45594000000E+02  0.51100000000E-03 0. -1.
    9900012    2    1    2    0    0 -0.29078248488E+02 -0.10989364156E+02 -0.30287173428E+02  0.47787268049E+02  0.19999986341E+02 0.  0.
        -12    1    1    2    0    0  0.29078248488E+02  0.10989364156E+02  0.30287173428E+02  0.43400731951E+02  0.00000000000E+00 0.  1.
         11    1    3    3    0    0 -0.13451741438E+02 -0.33033812250E+01 -0.23355901128E+02  0.27154369685E+02  0.51100000000E-03 0. -1.
        -11    1    3    3    0    0 -0.11975310368E+02 -0.20334427222E+01 -0.67608609998E+01  0.13901517523E+02  0.51100000000E-03 0.  1.
        -12    1    3    3    0    0 -0.36511966812E+01 -0.56525402083E+01 -0.17041130055E+00  0.67313808407E+01  0.00000000000E+00 0.  1.
</event>
<event>
 7    1  0.4630495E-010  0.4778727E+02  0.7816164E-02  0.1312668E+00
        -11   -1    0    0    0    0  0.00000000000E+00  0.00000000000E+00  0.45593999997E+02  0.45594000000E+02  0.51100000000E-03 0. -1.
         11   -1    0    0    0    0 -0.00000000000E+00 -0.00000000000E+00 -0.45593999997E+02  0.45594000000E+02  0.51100000000E-03 0.  1.
    9900012    2    1    2    0    0  0.41782728740E+02  0.11514417802E+02  0.22902052714E+01  0.47787270991E+02  0.19999999758E+02 0.  0.
        -12    1    1    2    0    0 -0.41782728740E+02 -0.11514417802E+02 -0.22902052714E+01  0.43400729009E+02  0.00000000000E+00 0.  1.
         11    1    3    3    0    0  0.16082592826E+02 -0.55601664315E+00  0.19954814440E+01  0.16215452290E+02  0.51100000000E-03 0. -1.
        -11    1    3    3    0    0  0.26996155834E+02  0.10228633061E+02 -0.11574014182E+01  0.28892160570E+02  0.51100000000E-03 0.  1.
        -12    1    3    3    0    0 -0.12960199195E+01  0.18418013850E+01  0.14521252455E+01  0.26796581316E+01  0.00000000000E+00 0.  1.
</event>
<event>
 7    1  0.4630495E-010  0.4778727E+02  0.7816164E-02  0.1312668E+00
        -11   -1    0    0    0    0  0.00000000000E+00  0.00000000000E+00  0.45593999997E+02  0.45594000000E+02  0.51100000000E-03 0.  1.
         11   -1    0    0    0    0 -0.00000000000E+00 -0.00000000000E+00 -0.45593999997E+02  0.45594000000E+02  0.51100000000E-03 0. -1.
    9900012    2    1    2    0    0  0.19357916641E+02 -0.22349332205E+02 -0.31771085348E+02  0.47787269005E+02  0.19999990702E+02 0.  0.
        -12    1    1    2    0    0 -0.19357916641E+02  0.22349332205E+02  0.31771085348E+02  0.43400730995E+02  0.00000000000E+00 0.  1.
         11    1    3    3    0    0 -0.19264334627E+00 -0.50803986050E+01 -0.63623861007E+01  0.81441708357E+01  0.51100000000E-03 0. -1.
        -11    1    3    3    0    0 -0.24059950002E+00 -0.86338668709E+01 -0.52796570656E+01  0.10123059036E+02  0.51100000000E-03 0.  1.
         12    1    3    3    0    0  0.19791159487E+02 -0.86350667294E+01 -0.20129042182E+02  0.29520039133E+02  0.00000000000E+00 0. -1.
</event>
<event>
 7    1  0.4630495E-010  0.4778729E+02  0.7816164E-02  0.1312668E+00
        -11   -1    0    0    0    0  0.00000000000E+00  0.00000000000E+00  0.45593999997E+02  0.45594000000E+02  0.51100000000E-03 0.  1.
         11   -1    0    0    0    0 -0.00000000000E+00 -0.00000000000E+00 -0.45593999997E+02  0.45594000000E+02  0.51100000000E-03 0. -1.
    9900012    2    1    2    0    0  0.14614378249E+02 -0.20141271423E+01 -0.40816480076E+02  0.47787287960E+02  0.20000077125E+02 0.  0.
        -12    1    1    2    0    0 -0.14614378249E+02  0.20141271423E+01  0.40816480076E+02  0.43400712040E+02  0.00000000000E+00 0.  1.
         11    1    3    3    0    0 -0.11622631738E+01 -0.28207731993E+01 -0.11968455035E+02  0.12351175382E+02  0.51100000000E-03 0. -1.
        -11    1    3    3    0    0 -0.20037942671E+01 -0.20259324366E+00 -0.68108903898E+01  0.71024266029E+01  0.51100000000E-03 0.  1.
         12    1    3    3    0    0  0.17780435690E+02  0.10092393007E+01 -0.22037134651E+02  0.28333685975E+02  0.00000000000E+00 0. -1.
</event>
<event>
 7    1  0.4630495E-010  0.4778727E+02  0.7816164E-02  0.1312668E+00
        -11   -1    0    0    0    0  0.00000000000E+00  0.00000000000E+00  0.45593999997E+02  0.45594000000E+02  0.51100000000E-03 0.  1.
         11   -1    0    0    0    0 -0.00000000000E+00 -0.00000000000E+00 -0.45593999997E+02  0.45594000000E+02  0.51100000000E-03 0. -1.
    9900012    2    1    2    0    0 -0.54313002087E+01 -0.18430286080E+02 -0.38915916094E+02  0.47787274288E+02  0.20000014787E+02 0.  0.
        -12    1    1    2    0    0  0.54313002087E+01  0.18430286080E+02  0.38915916094E+02  0.43400725712E+02  0.00000000000E+00 0.  1.
         11    1    3    3    0    0 -0.93049815486E+01 -0.12364583641E+02 -0.24113434106E+02  0.28651759368E+02  0.51100000000E-03 0. -1.
        -11    1    3    3    0    0  0.20725230071E+00 -0.79761261282E+01 -0.10172877288E+02  0.12928610679E+02  0.51100000000E-03 0.  1.
         12    1    3    3    0    0  0.36664290392E+01  0.19104236891E+01 -0.46296046997E+01  0.62069042402E+01  0.00000000000E+00 0. -1.
</event>
<event>
 7    1  0.4630495E-010  0.4778728E+02  0.7816164E-02  0.1312668E+00
        -11   -1    0    0    0    0  0.00000000000E+00  0.00000000000E+00  0.45593999997E+02  0.45594000000E+02  0.51100000000E-03 0.  1.
         11   -1    0    0    0    0 -0.00000000000E+00 -0.00000000000E+00 -0.45593999997E+02  0.45594000000E+02  0.51100000000E-03 0. -1.
    9900012    2    1    2    0    0 -0.11426183893E+02  0.13761257687E+02 -0.39543552694E+02  0.47787280522E+02  0.20000043213E+02 0.  0.
        -12    1    1    2    0    0  0.11426183893E+02 -0.13761257687E+02  0.39543552694E+02  0.43400719478E+02  0.00000000000E+00 0.  1.
         11    1    3    3    0    0 -0.22389546145E+01  0.32178188530E+01 -0.34016701826E+01  0.51902443323E+01  0.51100000000E-03 0. -1.
        -11    1    3    3    0    0 -0.11094153038E+02  0.54705938286E+01 -0.10019694437E+02  0.15918602494E+02  0.51100000000E-03 0.  1.
         12    1    3    3    0    0  0.19069237602E+01  0.50728450058E+01 -0.26122188075E+02  0.26678433696E+02  0.00000000000E+00 0. -1.
</event>
<event>
 7    1  0.4630495E-010  0.4778727E+02  0.7816164E-02  0.1312668E+00
        -11   -1    0    0    0    0  0.00000000000E+00  0.00000000000E+00  0.45593999997E+02  0.45594000000E+02  0.51100000000E-03 0.  1.
         11   -1    0    0    0    0 -0.00000000000E+00 -0.00000000000E+00 -0.45593999997E+02  0.45594000000E+02  0.51100000000E-03 0. -1.
    9900012    2    1    2    0    0 -0.16181273582E+02 -0.34915352064E+02  0.20067583577E+02  0.47787270339E+02  0.19999996784E+02 0.  0.
        -12    1    1    2    0    0  0.16181273582E+02  0.34915352064E+02 -0.20067583577E+02  0.43400729661E+02  0.00000000000E+00 0.  1.
         11    1    3    3    0    0 -0.11617271142E+02 -0.26931102657E+02  0.91741817804E+01  0.30731268941E+02  0.51100000000E-03 0. -1.
        -11    1    3    3    0    0  0.19397770817E+01 -0.48200046577E+01  0.19396188006E+01  0.55459265574E+01  0.51100000000E-03 0.  1.
        -12    1    3    3    0    0 -0.65037795220E+01 -0.31642447492E+01  0.89537829958E+01  0.11510074841E+02  0.00000000000E+00 0.  1.
</event>
<event>
 7    1 -0.4630495E-010  0.4778727E+02  0.7816164E-02  0.1312668E+00
        -11   -1    0    0    0    0  0.00000000000E+00  0.00000000000E+00  0.45593999997E+02  0.45594000000E+02  0.51100000000E-03 0.  1.
         11   -1    0    0    0    0 -0.00000000000E+00 -0.00000000000E+00 -0.45593999997E+02  0.45594000000E+02  0.51100000000E-03 0. -1.
    9900012    2    1    2    0    0 -0.14199822938E+02 -0.51365091366E+01 -0.40689121131E+02  0.47787271020E+02  0.19999999888E+02 0.  0.
        -12    1    1    2    0    0  0.14199822938E+02  0.51365091366E+01  0.40689121131E+02  0.43400728980E+02  0.00000000000E+00 0.  1.
         11    1    3    3    0    0 -0.13659371539E+02  0.15586363260E+01 -0.19712875861E+02  0.24033419503E+02  0.51100000000E-03 0. -1.
        -11    1    3    3    0    0 -0.31955840647E+01 -0.27804816818E+01 -0.17163217203E+02  0.17678202989E+02  0.51100000000E-03 0.  1.
         12    1    3    3    0    0  0.26551326660E+01 -0.39146637807E+01 -0.38130280670E+01  0.60756485275E+01  0.00000000000E+00 0. -1.
</event>
<event>
 7    1  0.4630495E-010  0.4778727E+02  0.7816164E-02  0.1312668E+00
        -11   -1    0    0    0    0  0.00000000000E+00  0.00000000000E+00  0.45593999997E+02  0.45594000000E+02  0.51100000000E-03 0. -1.
         11   -1    0    0    0    0 -0.00000000000E+00 -0.00000000000E+00 -0.45593999997E+02  0.45594000000E+02  0.51100000000E-03 0.  1.
    9900012    2    1    2    0    0  0.35660047641E+02  0.18269637318E+02 -0.16679460904E+02  0.47787273490E+02  0.20000011152E+02 0.  0.
        -12    1    1    2    0    0 -0.35660047641E+02 -0.18269637318E+02  0.16679460904E+02  0.43400726510E+02  0.00000000000E+00 0.  1.
         11    1    3    3    0    0  0.11981425310E+02  0.83023747313E+01 -0.69182795156E+01  0.16135258608E+02  0.51100000000E-03 0. -1.
        -11    1    3    3    0    0  0.24913745417E+02  0.10382998008E+02 -0.11616752896E+02  0.29384524949E+02  0.51100000000E-03 0.  1.
        -12    1    3    3    0    0 -0.12351230859E+01 -0.41573542137E+00  0.18555715079E+01  0.22674899335E+01  0.00000000000E+00 0.  1.
</event>
<event>
 7    1  0.4630495E-010  0.4778727E+02  0.7816164E-02  0.1312668E+00
        -11   -1    0    0    0    0  0.00000000000E+00  0.00000000000E+00  0.45593999997E+02  0.45594000000E+02  0.51100000000E-03 0.  1.
         11   -1    0    0    0    0 -0.00000000000E+00 -0.00000000000E+00 -0.45593999997E+02  0.45594000000E+02  0.51100000000E-03 0. -1.
    9900012    2    1    2    0    0 -0.31119659268E+01  0.13853446164E+02 -0.41012449694E+02  0.47787270370E+02  0.19999996923E+02 0.  0.
        -12    1    1    2    0    0  0.31119659268E+01 -0.13853446164E+02  0.41012449694E+02  0.43400729630E+02  0.00000000000E+00 0.  1.
         11    1    3    3    0    0  0.18195555493E+00  0.30444334340E+01 -0.13463380625E+01  0.33338130118E+01  0.51100000000E-03 0.  1.
        -11    1    3    3    0    0 -0.93094769544E+00  0.14567484363E+02 -0.35421074043E+02  0.38310974288E+02  0.51100000000E-03 0. -1.
        -12    1    3    3    0    0 -0.23629737863E+01 -0.37584716332E+01 -0.42450375887E+01  0.61424830697E+01  0.00000000000E+00 0.  1.
</event>
<event>
 7    1  0.4630495E-010  0.4778727E+02  0.7816164E-02  0.1312668E+00
        -11   -1    0    0    0    0  0.00000000000E+00  0.00000000000E+00  0.45593999997E+02  0.45594000000E+02  0.51100000000E-03 0.  1.
         11   -1    0    0    0    0 -0.00000000000E+00 -0.00000000000E+00 -0.45593999997E+02  0.45594000000E+02  0.51100000000E-03 0. -1.
    9900012    2    1    2    0    0 -0.15448568506E+02  0.20223334594E+02 -0.35156532234E+02  0.47787270862E+02  0.19999999168E+02 0.  0.
        -12    1    1    2    0    0  0.15448568506E+02 -0.20223334594E+02  0.35156532234E+02  0.43400729138E+02  0.00000000000E+00 0.  1.
         11    1    3    3    0    0  0.23158327036E+01 -0.10628812556E+01 -0.41588558172E+01  0.48773845085E+01  0.51100000000E-03 0. -1.
        -11    1    3    3    0    0 -0.40180097156E+01  0.24436956927E+01 -0.82697563838E+00  0.47749282383E+01  0.51100000000E-03 0.  1.
         12    1    3    3    0    0 -0.13746391494E+02  0.18842520157E+02 -0.30170700779E+02  0.38134958115E+02  0.00000000000E+00 0. -1.
</event>
<event>
 7    1  0.4630495E-010  0.4778726E+02  0.7816164E-02  0.1312668E+00
        -11   -1    0    0    0    0  0.00000000000E+00  0.00000000000E+00  0.45593999997E+02  0.45594000000E+02  0.51100000000E-03 0.  1.
         11   -1    0    0    0    0 -0.00000000000E+00 -0.00000000000E+00 -0.45593999997E+02  0.45594000000E+02  0.51100000000E-03 0. -1.
    9900012    2    1    2    0    0  0.33325095515E+02  0.19204154605E+02 -0.20106282110E+02  0.47787261234E+02  0.19999955268E+02 0.  0.
        -12    1    1    2    0    0 -0.33325095515E+02 -0.19204154605E+02  0.20106282110E+02  0.43400738766E+02  0.00000000000E+00 0.  1.
         11    1    3    3    0    0  0.12850616586E+02  0.86603496757E+01 -0.55361292521E+01  0.16455659528E+02  0.51100000000E-03 0.  1.
        -11    1    3    3    0    0  0.10144932322E+02  0.31063438471E+00  0.79065711362E+00  0.10180436360E+02  0.51100000000E-03 0. -1.
         12    1    3    3    0    0  0.10329546607E+02  0.10233170544E+02 -0.15360809972E+02  0.21151165345E+02  0.00000000000E+00 0. -1.
</event>
<event>
 7    1  0.4630495E-010  0.4778727E+02  0.7816164E-02  0.1312668E+00
        -11   -1    0    0    0    0  0.00000000000E+00  0.00000000000E+00  0.45593999997E+02  0.45594000000E+02  0.51100000000E-03 0. -1.
         11   -1    0    0    0    0 -0.00000000000E+00 -0.00000000000E+00 -0.45593999997E+02  0.45594000000E+02  0.51100000000E-03 0.  1.
    9900012    2    1    2    0    0 -0.43349249884E+02  0.18200017731E+01  0.10739524659E+01  0.47787271367E+02  0.20000001473E+02 0.  0.
        -12    1    1    2    0    0  0.43349249884E+02 -0.18200017731E+01 -0.10739524659E+01  0.43400728633E+02  0.00000000000E+00 0.  1.
         11    1    3    3    0    0 -0.16917557966E+02  0.28460391022E+01  0.18722102969E+01  0.17257139907E+02  0.51100000000E-03 0. -1.
        -11    1    3    3    0    0 -0.20568798840E+02 -0.20980025366E+01  0.59617595422E+01  0.21517892031E+02  0.51100000000E-03 0.  1.
        -12    1    3    3    0    0 -0.58628930777E+01  0.10719652074E+01 -0.67600173732E+01  0.90122394294E+01  0.00000000000E+00 0.  1.
</event>
<event>
 7    1  0.4630495E-010  0.4778727E+02  0.7816164E-02  0.1312668E+00
        -11   -1    0    0    0    0  0.00000000000E+00  0.00000000000E+00  0.45593999997E+02  0.45594000000E+02  0.51100000000E-03 0.  1.
         11   -1    0    0    0    0 -0.00000000000E+00 -0.00000000000E+00 -0.45593999997E+02  0.45594000000E+02  0.51100000000E-03 0. -1.
    9900012    2    1    2    0    0  0.27994391085E+02 -0.72163515624E+01 -0.32370689415E+02  0.47787271950E+02  0.20000004128E+02 0.  0.
        -12    1    1    2    0    0 -0.27994391085E+02  0.72163515624E+01  0.32370689415E+02  0.43400728050E+02  0.00000000000E+00 0.  1.
         11    1    3    3    0    0  0.52241237416E+01  0.16296560473E+01 -0.59768671726E+01  0.81037145285E+01  0.51100000000E-03 0. -1.
        -11    1    3    3    0    0 -0.22954777542E+01  0.12344854371E+01 -0.26283524170E+01  0.37015414496E+01  0.51100000000E-03 0.  1.
         12    1    3    3    0    0  0.25065745098E+02 -0.10080493047E+02 -0.23765469825E+02  0.35982015972E+02  0.00000000000E+00 0. -1.
</event>
<event>
 7    1  0.4630495E-010  0.4778727E+02  0.7816164E-02  0.1312668E+00
        -11   -1    0    0    0    0  0.00000000000E+00  0.00000000000E+00  0.45593999997E+02  0.45594000000E+02  0.51100000000E-03 0.  1.
         11   -1    0    0    0    0 -0.00000000000E+00 -0.00000000000E+00 -0.45593999997E+02  0.45594000000E+02  0.51100000000E-03 0. -1.
    9900012    2    1    2    0    0  0.20563653483E+01  0.42913581997E+02  0.61497308482E+01  0.47787270194E+02  0.19999996121E+02 0.  0.
        -12    1    1    2    0    0 -0.20563653483E+01 -0.42913581997E+02 -0.61497308482E+01  0.43400729806E+02  0.00000000000E+00 0.  1.
         11    1    3    3    0    0 -0.64481739423E+00  0.22282851225E+02  0.20616221759E+01  0.22387307441E+02  0.51100000000E-03 0. -1.
        -11    1    3    3    0    0  0.33858930249E+01  0.13975135135E+02  0.91204635598E+01  0.17027963161E+02  0.51100000000E-03 0.  1.
        -12    1    3    3    0    0 -0.68471028238E+00  0.66555956369E+01 -0.50323548874E+01  0.83719995918E+01  0.00000000000E+00 0.  1.
</event>
<event>
 7    1  0.4630495E-010  0.4778727E+02  0.7816164E-02  0.1312668E+00
        -11   -1    0    0    0    0  0.00000000000E+00  0.00000000000E+00  0.45593999997E+02  0.45594000000E+02  0.51100000000E-03 0. -1.
         11   -1    0    0    0    0 -0.00000000000E+00 -0.00000000000E+00 -0.45593999997E+02  0.45594000000E+02  0.51100000000E-03 0.  1.
    9900012    2    1    2    0    0 -0.22507508410E+02  0.37088427918E+02 -0.12180830424E+01  0.47787272511E+02  0.20000006687E+02 0.  0.
        -12    1    1    2    0    0  0.22507508410E+02 -0.37088427918E+02  0.12180830424E+01  0.43400727489E+02  0.00000000000E+00 0.  1.
         11    1    3    3    0    0 -0.29562897259E+01  0.34053894884E+01  0.23164680054E+01  0.50697485927E+01  0.51100000000E-03 0. -1.
        -11    1    3    3    0    0 -0.16492211856E+02  0.17471848571E+02 -0.85059824318E+01  0.25487453419E+02  0.51100000000E-03 0.  1.
        -12    1    3    3    0    0 -0.30590068276E+01  0.16211189858E+02  0.49714313839E+01  0.17230070499E+02  0.00000000000E+00 0.  1.
</event>
<event>
 7    1  0.4630495E-010  0.4778727E+02  0.7816164E-02  0.1312668E+00
        -11   -1    0    0    0    0  0.00000000000E+00  0.00000000000E+00  0.45593999997E+02  0.45594000000E+02  0.51100000000E-03 0.  1.
         11   -1    0    0    0    0 -0.00000000000E+00 -0.00000000000E+00 -0.45593999997E+02  0.45594000000E+02  0.51100000000E-03 0. -1.
    9900012    2    1    2    0    0  0.43304231701E+02 -0.28891809223E+01  0.13893630760E+00  0.47787272438E+02  0.20000006355E+02 0.  0.
        -12    1    1    2    0    0 -0.43304231701E+02  0.28891809223E+01 -0.13893630760E+00  0.43400727562E+02  0.00000000000E+00 0.  1.
         11    1    3    3    0    0  0.15974110437E+01  0.23353643874E+01 -0.12403731582E+01  0.30893647724E+01  0.51100000000E-03 0. -1.
        -11    1    3    3    0    0  0.10208871235E+02 -0.40137143701E+01 -0.57431372012E+01  0.12382026495E+02  0.51100000000E-03 0.  1.
         12    1    3    3    0    0  0.31497949422E+02 -0.12108309396E+01  0.71224466670E+01  0.32315881171E+02  0.00000000000E+00 0. -1.
</event>
<event>
 7    1  0.4630495E-010  0.4778727E+02  0.7816164E-02  0.1312668E+00
        -11   -1    0    0    0    0  0.00000000000E+00  0.00000000000E+00  0.45593999997E+02  0.45594000000E+02  0.51100000000E-03 0.  1.
         11   -1    0    0    0    0 -0.00000000000E+00 -0.00000000000E+00 -0.45593999997E+02  0.45594000000E+02  0.51100000000E-03 0. -1.
    9900012    2    1    2    0    0 -0.25116342832E+02 -0.62699585752E+01 -0.34835042901E+02  0.47787271069E+02  0.20000000113E+02 0.  0.
        -12    1    1    2    0    0  0.25116342832E+02  0.62699585752E+01  0.34835042901E+02  0.43400728931E+02  0.00000000000E+00 0.  1.
         11    1    3    3    0    0 -0.82835039682E+01  0.41107822444E+01 -0.10616959128E+02  0.14079587708E+02  0.51100000000E-03 0. -1.
        -11    1    3    3    0    0 -0.60768813771E+01  0.16600004046E+01 -0.11662032965E+02  0.13254701119E+02  0.51100000000E-03 0.  1.
        -12    1    3    3    0    0 -0.10755957487E+02 -0.12040741224E+02 -0.12556050808E+02  0.20452982242E+02  0.00000000000E+00 0.  1.
</event>
<event>
 7    1  0.4630495E-010  0.4778725E+02  0.7816164E-02  0.1312668E+00
        -11   -1    0    0    0    0  0.00000000000E+00  0.00000000000E+00  0.45593999997E+02  0.45594000000E+02  0.51100000000E-03 0. -1.
         11   -1    0    0    0    0 -0.00000000000E+00 -0.00000000000E+00 -0.45593999997E+02  0.45594000000E+02  0.51100000000E-03 0.  1.
    9900012    2    1    2    0    0  0.13177037917E+02 -0.25999002263E+02 -0.32156540101E+02  0.47787245189E+02  0.19999882113E+02 0.  0.
        -12    1    1    2    0    0 -0.13177037917E+02  0.25999002263E+02  0.32156540101E+02  0.43400754811E+02  0.00000000000E+00 0.  1.
         11    1    3    3    0    0  0.85638644499E+01 -0.76391080589E+01 -0.14132869055E+02  0.18205321591E+02  0.51100000000E-03 0. -1.
        -11    1    3    3    0    0  0.55745335593E+01 -0.13473474423E+02 -0.19535735381E+02  0.24377343879E+02  0.51100000000E-03 0.  1.
         12    1    3    3    0    0 -0.96136009216E+00 -0.48864197807E+01  0.15120643350E+01  0.52045797192E+01  0.00000000000E+00 0. -1.
</event>
<event>
 7    1  0.4630495E-010  0.4778723E+02  0.7816164E-02  0.1312668E+00
        -11   -1    0    0    0    0  0.00000000000E+00  0.00000000000E+00  0.45593999997E+02  0.45594000000E+02  0.51100000000E-03 0.  1.
         11   -1    0    0    0    0 -0.00000000000E+00 -0.00000000000E+00 -0.45593999997E+02  0.45594000000E+02  0.51100000000E-03 0. -1.
    9900012    2    1    2    0    0  0.42450807790E+02 -0.53442993932E+01  0.72797139707E+01  0.47787229805E+02  0.19999811974E+02 0.  0.
        -12    1    1    2    0    0 -0.42450807790E+02  0.53442993932E+01 -0.72797139707E+01  0.43400770195E+02  0.00000000000E+00 0.  1.
         11    1    3    3    0    0  0.17899113061E+02 -0.88514871359E+00  0.15893546022E+01  0.17991325269E+02  0.51100000000E-03 0. -1.
        -11    1    3    3    0    0  0.23765526153E+02  0.84998907420E+00  0.55854291358E+01  0.24427847503E+02  0.51100000000E-03 0.  1.
        -12    1    3    3    0    0  0.78616857533E+00 -0.53091397538E+01  0.10493023273E+00  0.53680570329E+01  0.00000000000E+00 0.  1.
</event>
<event>
 7    1  0.4630495E-010  0.4778726E+02  0.7816164E-02  0.1312668E+00
        -11   -1    0    0    0    0  0.00000000000E+00  0.00000000000E+00  0.45593999997E+02  0.45594000000E+02  0.51100000000E-03 0. -1.
         11   -1    0    0    0    0 -0.00000000000E+00 -0.00000000000E+00 -0.45593999997E+02  0.45594000000E+02  0.51100000000E-03 0.  1.
    9900012    2    1    2    0    0  0.13961515274E+02 -0.40482466954E+02  0.70618869420E+01  0.47787259378E+02  0.19999946806E+02 0.  0.
        -12    1    1    2    0    0 -0.13961515274E+02  0.40482466954E+02 -0.70618869420E+01  0.43400740622E+02  0.00000000000E+00 0.  1.
         11    1    3    3    0    0  0.11945196675E+02 -0.31837641790E+02  0.76134217469E+01  0.34846626082E+02  0.51100000000E-03 0. -1.
        -11    1    3    3    0    0  0.57263145721E+01 -0.63549998952E+01 -0.72448892879E-01  0.85546450160E+01  0.51100000000E-03 0.  1.
        -12    1    3    3    0    0 -0.37099959727E+01 -0.22898252685E+01 -0.47908591202E+00  0.43859882795E+01  0.00000000000E+00 0.  1.
</event>
<event>
 7    1  0.4630495E-010  0.4778726E+02  0.7816164E-02  0.1312668E+00
        -11   -1    0    0    0    0  0.00000000000E+00  0.00000000000E+00  0.45593999997E+02  0.45594000000E+02  0.51100000000E-03 0.  1.
         11   -1    0    0    0    0 -0.00000000000E+00 -0.00000000000E+00 -0.45593999997E+02  0.45594000000E+02  0.51100000000E-03 0. -1.
    9900012    2    1    2    0    0  0.10955074535E+02 -0.10958281925E+02 -0.40540428009E+02  0.47787263786E+02  0.19999966906E+02 0.  0.
        -12    1    1    2    0    0 -0.10955074535E+02  0.10958281925E+02  0.40540428009E+02  0.43400736214E+02  0.00000000000E+00 0.  1.
         11    1    3    3    0    0  0.50524875065E+01 -0.74244132154E+01 -0.28144359102E+02  0.29542418505E+02  0.51100000000E-03 0. -1.
        -11    1    3    3    0    0 -0.33074836818E+01 -0.24176298446E+01 -0.41675060451E+01  0.58440131133E+01  0.51100000000E-03 0.  1.
        -12    1    3    3    0    0  0.92100707100E+01 -0.11162388649E+01 -0.82285628609E+01  0.12400832167E+02  0.00000000000E+00 0.  1.
</event>
<event>
 7    1  0.4630495E-010  0.4778727E+02  0.7816164E-02  0.1312668E+00
        -11   -1    0    0    0    0  0.00000000000E+00  0.00000000000E+00  0.45593999997E+02  0.45594000000E+02  0.51100000000E-03 0. -1.
         11   -1    0    0    0    0 -0.00000000000E+00 -0.00000000000E+00 -0.45593999997E+02  0.45594000000E+02  0.51100000000E-03 0.  1.
    9900012    2    1    2    0    0 -0.10615590883E+02 -0.33403246219E+02  0.25596010589E+02  0.47787269754E+02  0.19999994118E+02 0.  0.
        -12    1    1    2    0    0  0.10615590883E+02  0.33403246219E+02 -0.25596010589E+02  0.43400730246E+02  0.00000000000E+00 0.  1.
         11    1    3    3    0    0 -0.10029111911E+02 -0.28637572193E+02  0.17162394656E+02  0.34860312928E+02  0.51100000000E-03 0. -1.
        -11    1    3    3    0    0 -0.27036592748E+00 -0.72672072200E+01  0.61144092436E+01  0.95011262055E+01  0.51100000000E-03 0.  1.
        -12    1    3    3    0    0 -0.31611304516E+00  0.25015331939E+01  0.23192066887E+01  0.34258306208E+01  0.00000000000E+00 0.  1.
</event>
<event>
 7    1  0.4630495E-010  0.4778727E+02  0.7816164E-02  0.1312668E+00
        -11   -1    0    0    0    0  0.00000000000E+00  0.00000000000E+00  0.45593999997E+02  0.45594000000E+02  0.51100000000E-03 0. -1.
         11   -1    0    0    0    0 -0.00000000000E+00 -0.00000000000E+00 -0.45593999997E+02  0.45594000000E+02  0.51100000000E-03 0.  1.
    9900012    2    1    2    0    0  0.17548053765E+02 -0.37265896108E+01  0.39519637459E+02  0.47787269523E+02  0.19999993061E+02 0.  0.
        -12    1    1    2    0    0 -0.17548053765E+02  0.37265896108E+01 -0.39519637459E+02  0.43400730477E+02  0.00000000000E+00 0.  1.
         11    1    3    3    0    0  0.57466661424E+01 -0.47444608405E+01  0.16354032170E+02  0.17971879393E+02  0.51100000000E-03 0. -1.
        -11    1    3    3    0    0  0.12162650508E+02  0.20095730286E+01  0.24900338384E+02  0.27784803455E+02  0.51100000000E-03 0.  1.
        -12    1    3    3    0    0 -0.36126288590E+00 -0.99170179892E+00 -0.17347330953E+01  0.20305866745E+01  0.00000000000E+00 0.  1.
</event>
<event>
 7    1  0.4630495E-010  0.4778727E+02  0.7816164E-02  0.1312668E+00
        -11   -1    0    0    0    0  0.00000000000E+00  0.00000000000E+00  0.45593999997E+02  0.45594000000E+02  0.51100000000E-03 0. -1.
         11   -1    0    0    0    0 -0.00000000000E+00 -0.00000000000E+00 -0.45593999997E+02  0.45594000000E+02  0.51100000000E-03 0.  1.
    9900012    2    1    2    0    0  0.24557775497E+01  0.43141170560E+02  0.40536532673E+01  0.47787267915E+02  0.19999985733E+02 0.  0.
        -12    1    1    2    0    0 -0.24557775497E+01 -0.43141170560E+02 -0.40536532673E+01  0.43400732085E+02  0.00000000000E+00 0.  1.
         11    1    3    3    0    0 -0.43220806075E+01  0.74770247786E+01  0.55007574893E+01  0.10239365876E+02  0.51100000000E-03 0. -1.
        -11    1    3    3    0    0 -0.23485771087E+01  0.96656355298E+01 -0.91567322838E+00  0.99889329937E+01  0.51100000000E-03 0.  1.
        -12    1    3    3    0    0  0.91264352659E+01  0.25998510252E+02 -0.53143099362E+00  0.27558969046E+02  0.00000000000E+00 0.  1.
</event>
<event>
 7    1  0.4630495E-010  0.4778727E+02  0.7816164E-02  0.1312668E+00
        -11   -1    0    0    0    0  0.00000000000E+00  0.00000000000E+00  0.45593999997E+02  0.45594000000E+02  0.51100000000E-03 0.  1.
         11   -1    0    0    0    0 -0.00000000000E+00 -0.00000000000E+00 -0.45593999997E+02  0.45594000000E+02  0.51100000000E-03 0. -1.
    9900012    2    1    2    0    0 -0.88687229822E+01 -0.19857010925E+02 -0.37558864710E+02  0.47787269032E+02  0.19999990826E+02 0.  0.
        -12    1    1    2    0    0  0.88687229822E+01  0.19857010925E+02  0.37558864710E+02  0.43400730968E+02  0.00000000000E+00 0.  1.
         11    1    3    3    0    0 -0.91005943933E+00  0.17888832266E+00 -0.87887173161E+01  0.88375201012E+01  0.51100000000E-03 0. -1.
        -11    1    3    3    0    0  0.13658762202E+00 -0.21623020987E+01  0.16687509775E+01  0.27347644561E+01  0.51100000000E-03 0.  1.
        -12    1    3    3    0    0 -0.80952511649E+01 -0.17873597149E+02 -0.30438898371E+02  0.36214984475E+02  0.00000000000E+00 0.  1.
</event>
<event>
 7    1  0.4630495E-010  0.4778727E+02  0.7816164E-02  0.1312668E+00
        -11   -1    0    0    0    0  0.00000000000E+00  0.00000000000E+00  0.45593999997E+02  0.45594000000E+02  0.51100000000E-03 0. -1.
         11   -1    0    0    0    0 -0.00000000000E+00 -0.00000000000E+00 -0.45593999997E+02  0.45594000000E+02  0.51100000000E-03 0.  1.
    9900012    2    1    2    0    0  0.15451147264E+02 -0.44450451656E+01  0.40312861522E+02  0.47787272099E+02  0.20000004807E+02 0.  0.
        -12    1    1    2    0    0 -0.15451147264E+02  0.44450451656E+01 -0.40312861522E+02  0.43400727901E+02  0.00000000000E+00 0.  1.
         11    1    3    3    0    0  0.38974975165E+01  0.58782111588E+00  0.31726909433E+01  0.50598407720E+01  0.51100000000E-03 0. -1.
        -11    1    3    3    0    0  0.66709376676E+01  0.27473167698E+00  0.21685598191E+01  0.70199386614E+01  0.51100000000E-03 0.  1.
         12    1    3    3    0    0  0.48827120797E+01 -0.53075979585E+01  0.34971610759E+02  0.35707492665E+02  0.00000000000E+00 0. -1.
</event>
<event>
 7    1  0.4630495E-010  0.4778728E+02  0.7816164E-02  0.1312668E+00
        -11   -1    0    0    0    0  0.00000000000E+00  0.00000000000E+00  0.45593999997E+02  0.45594000000E+02  0.51100000000E-03 0. -1.
         11   -1    0    0    0    0 -0.00000000000E+00 -0.00000000000E+00 -0.45593999997E+02  0.45594000000E+02  0.51100000000E-03 0.  1.
    9900012    2    1    2    0    0  0.17267863286E+02  0.33375976833E+02  0.21713770952E+02  0.47787276723E+02  0.20000025890E+02 0.  0.
        -12    1    1    2    0    0 -0.17267863286E+02 -0.33375976833E+02 -0.21713770952E+02  0.43400723277E+02  0.00000000000E+00 0.  1.
         11    1    3    3    0    0  0.23084236758E+01  0.30899606998E+01 -0.16524557562E+00  0.38605677503E+01  0.51100000000E-03 0. -1.
        -11    1    3    3    0    0  0.11970354229E+02  0.65715285026E+01  0.11562709977E+02  0.17893312424E+02  0.51100000000E-03 0.  1.
        -12    1    3    3    0    0  0.29890853809E+01  0.23714487631E+02  0.10316306551E+02  0.26033396549E+02  0.00000000000E+00 0.  1.
</event>
<event>
 7    1  0.4630495E-010  0.4778727E+02  0.7816164E-02  0.1312668E+00
        -11   -1    0    0    0    0  0.00000000000E+00  0.00000000000E+00  0.45593999997E+02  0.45594000000E+02  0.51100000000E-03 0. -1.
         11   -1    0    0    0    0 -0.00000000000E+00 -0.00000000000E+00 -0.45593999997E+02  0.45594000000E+02  0.51100000000E-03 0.  1.
    9900012    2    1    2    0    0  0.26472927409E+02 -0.20359069958E+02  0.27718509796E+02  0.47787269586E+02  0.19999993349E+02 0.  0.
        -12    1    1    2    0    0 -0.26472927409E+02  0.20359069958E+02 -0.27718509796E+02  0.43400730414E+02  0.00000000000E+00 0.  1.
         11    1    3    3    0    0  0.85147173730E+01 -0.60702579323E+01  0.76984495758E+01  0.12985167286E+02  0.51100000000E-03 0. -1.
        -11    1    3    3    0    0  0.12188932414E+02 -0.58191868947E+01  0.14400328425E+01  0.13583324496E+02  0.51100000000E-03 0.  1.
        -12    1    3    3    0    0  0.57692776224E+01 -0.84696251308E+01  0.18580027378E+02  0.21218777804E+02  0.00000000000E+00 0.  1.
</event>
<event>
 7    1  0.4630495E-010  0.4778727E+02  0.7816164E-02  0.1312668E+00
        -11   -1    0    0    0    0  0.00000000000E+00  0.00000000000E+00  0.45593999997E+02  0.45594000000E+02  0.51100000000E-03 0.  1.
         11   -1    0    0    0    0 -0.00000000000E+00 -0.00000000000E+00 -0.45593999997E+02  0.45594000000E+02  0.51100000000E-03 0. -1.
    9900012    2    1    2    0    0 -0.32626471208E+02  0.21408480921E+02 -0.18995096470E+02  0.47787269951E+02  0.19999995015E+02 0.  0.
        -12    1    1    2    0    0  0.32626471208E+02 -0.21408480921E+02  0.18995096470E+02  0.43400730049E+02  0.00000000000E+00 0.  1.
         11    1    3    3    0    0 -0.20667975375E+02  0.19971223475E+02 -0.59723419123E+01  0.29354451815E+02  0.51100000000E-03 0. -1.
        -11    1    3    3    0    0 -0.32487917686E+00  0.13158118592E+01 -0.19260099114E+01  0.23550842380E+01  0.51100000000E-03 0.  1.
        -12    1    3    3    0    0 -0.11633616657E+02  0.12144558670E+00 -0.11096744646E+02  0.16077733898E+02  0.00000000000E+00 0.  1.
</event>
<event>
 7    1  0.4630495E-010  0.4778727E+02  0.7816164E-02  0.1312668E+00
        -11   -1    0    0    0    0  0.00000000000E+00  0.00000000000E+00  0.45593999997E+02  0.45594000000E+02  0.51100000000E-03 0.  1.
         11   -1    0    0    0    0 -0.00000000000E+00 -0.00000000000E+00 -0.45593999997E+02  0.45594000000E+02  0.51100000000E-03 0. -1.
    9900012    2    1    2    0    0  0.34223450002E+02 -0.18358026768E+02 -0.19374257688E+02  0.47787268004E+02  0.19999986138E+02 0.  0.
        -12    1    1    2    0    0 -0.34223450002E+02  0.18358026768E+02  0.19374257688E+02  0.43400731996E+02  0.00000000000E+00 0.  1.
         11    1    3    3    0    0  0.34061828781E+02 -0.17848108294E+02 -0.16518275707E+02  0.41852318719E+02  0.51100000000E-03 0. -1.
        -11    1    3    3    0    0  0.10698102772E+01 -0.23262440357E+01 -0.29448089098E+01  0.39022820400E+01  0.51100000000E-03 0.  1.
        -12    1    3    3    0    0 -0.90818905616E+00  0.18163255616E+01  0.88826929076E-01  0.20326672454E+01  0.00000000000E+00 0.  1.
</event>
<event>
 7    1  0.4630495E-010  0.4778727E+02  0.7816164E-02  0.1312668E+00
        -11   -1    0    0    0    0  0.00000000000E+00  0.00000000000E+00  0.45593999997E+02  0.45594000000E+02  0.51100000000E-03 0.  1.
         11   -1    0    0    0    0 -0.00000000000E+00 -0.00000000000E+00 -0.45593999997E+02  0.45594000000E+02  0.51100000000E-03 0. -1.
    9900012    2    1    2    0    0 -0.23397183971E+02  0.15727390705E+02 -0.32997639862E+02  0.47787271059E+02  0.20000000066E+02 0.  0.
        -12    1    1    2    0    0  0.23397183971E+02 -0.15727390705E+02  0.32997639862E+02  0.43400728941E+02  0.00000000000E+00 0.  1.
         11    1    3    3    0    0 -0.27883719177E+01  0.73827394140E+01 -0.65883694058E+01  0.10280392546E+02  0.51100000000E-03 0. -1.
        -11    1    3    3    0    0 -0.15132672366E+02  0.12266922625E+02 -0.22326768188E+02  0.29630385445E+02  0.51100000000E-03 0.  1.
        -12    1    3    3    0    0 -0.54761396871E+01 -0.39222713337E+01 -0.40825022678E+01  0.78764930683E+01  0.00000000000E+00 0.  1.
</event>
<event>
 7    1  0.4630495E-010  0.4778727E+02  0.7816164E-02  0.1312668E+00
        -11   -1    0    0    0    0  0.00000000000E+00  0.00000000000E+00  0.45593999997E+02  0.45594000000E+02  0.51100000000E-03 0.  1.
         11   -1    0    0    0    0 -0.00000000000E+00 -0.00000000000E+00 -0.45593999997E+02  0.45594000000E+02  0.51100000000E-03 0. -1.
    9900012    2    1    2    0    0 -0.24808867152E+02  0.20347591242E+02 -0.29225313445E+02  0.47787270690E+02  0.19999998383E+02 0.  0.
        -12    1    1    2    0    0  0.24808867152E+02 -0.20347591242E+02  0.29225313445E+02  0.43400729310E+02  0.00000000000E+00 0.  1.
         11    1    3    3    0    0 -0.10813165797E+02  0.19287011754E+01 -0.11143381689E+02  0.15646705675E+02  0.51100000000E-03 0. -1.
        -11    1    3    3    0    0 -0.32300174514E+01 -0.16582841711E+01 -0.13452011429E+01  0.38720131075E+01  0.51100000000E-03 0.  1.
         12    1    3    3    0    0 -0.10765683904E+02  0.20077174238E+02 -0.16736730613E+02  0.28268551907E+02  0.00000000000E+00 0. -1.
</event>
<event>
 7    1  0.4630495E-010  0.4778727E+02  0.7816164E-02  0.1312668E+00
        -11   -1    0    0    0    0  0.00000000000E+00  0.00000000000E+00  0.45593999997E+02  0.45594000000E+02  0.51100000000E-03 0.  1.
         11   -1    0    0    0    0 -0.00000000000E+00 -0.00000000000E+00 -0.45593999997E+02  0.45594000000E+02  0.51100000000E-03 0. -1.
    9900012    2    1    2    0    0  0.33003468212E+02  0.16592905252E+01 -0.28136118353E+02  0.47787270570E+02  0.19999997838E+02 0.  0.
        -12    1    1    2    0    0 -0.33003468212E+02 -0.16592905252E+01  0.28136118353E+02  0.43400729430E+02  0.00000000000E+00 0.  1.
         11    1    3    3    0    0  0.72934908995E+01  0.11336630671E+01 -0.84588008695E+01  0.11226375812E+02  0.51100000000E-03 0. -1.
        -11    1    3    3    0    0  0.24785727220E+02  0.98503129264E+00 -0.22540839509E+02  0.33517040539E+02  0.51100000000E-03 0.  1.
        -12    1    3    3    0    0  0.92425009255E+00 -0.45940383462E+00  0.28635220257E+01  0.30438542194E+01  0.00000000000E+00 0.  1.
</event>
<event>
 7    1  0.4630495E-010  0.4778729E+02  0.7816164E-02  0.1312668E+00
        -11   -1    0    0    0    0  0.00000000000E+00  0.00000000000E+00  0.45593999997E+02  0.45594000000E+02  0.51100000000E-03 0.  1.
         11   -1    0    0    0    0 -0.00000000000E+00 -0.00000000000E+00 -0.45593999997E+02  0.45594000000E+02  0.51100000000E-03 0. -1.
    9900012    2    1    2    0    0 -0.23035457899E+00  0.37944867524E+02 -0.21065514771E+02  0.47787286328E+02  0.20000069684E+02 0.  0.
        -12    1    1    2    0    0  0.23035457899E+00 -0.37944867524E+02  0.21065514771E+02  0.43400713672E+02  0.00000000000E+00 0.  1.
         11    1    3    3    0    0  0.71123534434E+01  0.27004049776E+02 -0.11364832129E+02  0.30149024618E+02  0.51100000000E-03 0. -1.
        -11    1    3    3    0    0 -0.22374104389E+01  0.89698880462E+01 -0.64605782223E+01  0.11278473667E+02  0.51100000000E-03 0.  1.
        -12    1    3    3    0    0 -0.51052975835E+01  0.19709297021E+01 -0.32401044193E+01  0.63597880432E+01  0.00000000000E+00 0.  1.
</event>
<event>
 7    1  0.4630495E-010  0.4778728E+02  0.7816164E-02  0.1312668E+00
        -11   -1    0    0    0    0  0.00000000000E+00  0.00000000000E+00  0.45593999997E+02  0.45594000000E+02  0.51100000000E-03 0.  1.
         11   -1    0    0    0    0 -0.00000000000E+00 -0.00000000000E+00 -0.45593999997E+02  0.45594000000E+02  0.51100000000E-03 0. -1.
    9900012    2    1    2    0    0 -0.39218425987E+02 -0.77356724406E+01 -0.16902569564E+02  0.47787280849E+02  0.20000044703E+02 0.  0.
        -12    1    1    2    0    0  0.39218425987E+02  0.77356724406E+01  0.16902569564E+02  0.43400719151E+02  0.00000000000E+00 0.  1.
         11    1    3    3    0    0 -0.91558977237E+01 -0.47720997985E+01 -0.27868694874E+01  0.10694392990E+02  0.51100000000E-03 0.  1.
        -11    1    3    3    0    0 -0.96929423483E+01 -0.85799209345E+01 -0.33138786806E+01  0.13362259045E+02  0.51100000000E-03 0. -1.
        -12    1    3    3    0    0 -0.20369585915E+02  0.56163482924E+01 -0.10801821396E+02  0.23730628815E+02  0.00000000000E+00 0.  1.
</event>
<event>
 7    1  0.4630495E-010  0.4778727E+02  0.7816164E-02  0.1312668E+00
        -11   -1    0    0    0    0  0.00000000000E+00  0.00000000000E+00  0.45593999997E+02  0.45594000000E+02  0.51100000000E-03 0.  1.
         11   -1    0    0    0    0 -0.00000000000E+00 -0.00000000000E+00 -0.45593999997E+02  0.45594000000E+02  0.51100000000E-03 0. -1.
    9900012    2    1    2    0    0 -0.28209747333E+02 -0.14527336872E+02 -0.29610637980E+02  0.47787271403E+02  0.20000001636E+02 0.  0.
        -12    1    1    2    0    0  0.28209747333E+02  0.14527336872E+02  0.29610637980E+02  0.43400728597E+02  0.00000000000E+00 0.  1.
         11    1    3    3    0    0 -0.18186989065E+02 -0.95940915142E+01 -0.14505722091E+02  0.25164044525E+02  0.51100000000E-03 0. -1.
        -11    1    3    3    0    0 -0.10662907641E+02  0.29366210164E+00 -0.13316123877E+02  0.17061740596E+02  0.51100000000E-03 0.  1.
        -12    1    3    3    0    0  0.64014937307E+00 -0.52269074590E+01 -0.17887920120E+01  0.55614862822E+01  0.00000000000E+00 0.  1.
</event>
<event>
 7    1  0.4630495E-010  0.4778728E+02  0.7816164E-02  0.1312668E+00
        -11   -1    0    0    0    0  0.00000000000E+00  0.00000000000E+00  0.45593999997E+02  0.45594000000E+02  0.51100000000E-03 0.  1.
         11   -1    0    0    0    0 -0.00000000000E+00 -0.00000000000E+00 -0.45593999997E+02  0.45594000000E+02  0.51100000000E-03 0. -1.
    9900012    2    1    2    0    0  0.11859164892E+02  0.14440675076E+02 -0.39172051588E+02  0.47787279796E+02  0.20000039902E+02 0.  0.
        -12    1    1    2    0    0 -0.11859164892E+02 -0.14440675076E+02  0.39172051588E+02  0.43400720204E+02  0.00000000000E+00 0.  1.
         11    1    3    3    0    0  0.11198208560E+02  0.95285607096E+01 -0.29213387901E+02  0.32704974806E+02  0.51100000000E-03 0. -1.
        -11    1    3    3    0    0  0.22308560785E+01  0.48776282023E+01 -0.11618875389E+02  0.12797118476E+02  0.51100000000E-03 0.  1.
        -12    1    3    3    0    0 -0.15698997469E+01  0.34486163846E-01  0.16602117014E+01  0.22851865141E+01  0.00000000000E+00 0.  1.
</event>
<event>
 7    1  0.4630495E-010  0.4778727E+02  0.7816164E-02  0.1312668E+00
        -11   -1    0    0    0    0  0.00000000000E+00  0.00000000000E+00  0.45593999997E+02  0.45594000000E+02  0.51100000000E-03 0.  1.
         11   -1    0    0    0    0 -0.00000000000E+00 -0.00000000000E+00 -0.45593999997E+02  0.45594000000E+02  0.51100000000E-03 0. -1.
    9900012    2    1    2    0    0  0.88090290823E+01  0.38356114160E+02 -0.18298445948E+02  0.47787267161E+02  0.19999982293E+02 0.  0.
        -12    1    1    2    0    0 -0.88090290823E+01 -0.38356114160E+02  0.18298445948E+02  0.43400732839E+02  0.00000000000E+00 0.  1.
         11    1    3    3    0    0  0.24774357536E+01  0.27308493188E+02 -0.19070942194E+02  0.33400483897E+02  0.51100000000E-03 0. -1.
        -11    1    3    3    0    0  0.47576507982E+01  0.31350296905E+01  0.23553954094E+01  0.61653499555E+01  0.51100000000E-03 0.  1.
        -12    1    3    3    0    0  0.15739425305E+01  0.79125912822E+01 -0.15828991633E+01  0.82214333087E+01  0.00000000000E+00 0.  1.
</event>
<event>
 7    1  0.4630495E-010  0.4778727E+02  0.7816164E-02  0.1312668E+00
        -11   -1    0    0    0    0  0.00000000000E+00  0.00000000000E+00  0.45593999997E+02  0.45594000000E+02  0.51100000000E-03 0. -1.
         11   -1    0    0    0    0 -0.00000000000E+00 -0.00000000000E+00 -0.45593999997E+02  0.45594000000E+02  0.51100000000E-03 0.  1.
    9900012    2    1    2    0    0  0.31725832911E+02 -0.77203770885E+01  0.28591790366E+02  0.47787272211E+02  0.20000005317E+02 0.  0.
        -12    1    1    2    0    0 -0.31725832911E+02  0.77203770885E+01 -0.28591790366E+02  0.43400727789E+02  0.00000000000E+00 0.  1.
         11    1    3    3    0    0  0.51603975375E+01  0.45393935416E+01  0.27940788322E+01  0.74190749594E+01  0.51100000000E-03 0. -1.
        -11    1    3    3    0    0  0.51077376141E+01  0.12716374615E+01  0.21442537099E+01  0.56836493208E+01  0.51100000000E-03 0.  1.
        -12    1    3    3    0    0  0.21457697760E+02 -0.13531408092E+02  0.23653457824E+02  0.34684547930E+02  0.00000000000E+00 0.  1.
</event>
<event>
 7    1  0.4630495E-010  0.4778727E+02  0.7816164E-02  0.1312668E+00
        -11   -1    0    0    0    0  0.00000000000E+00  0.00000000000E+00  0.45593999997E+02  0.45594000000E+02  0.51100000000E-03 0.  1.
         11   -1    0    0    0    0 -0.00000000000E+00 -0.00000000000E+00 -0.45593999997E+02  0.45594000000E+02  0.51100000000E-03 0. -1.
    9900012    2    1    2    0    0 -0.29125493488E+02 -0.25013655502E+02 -0.20239707961E+02  0.47787272923E+02  0.20000008565E+02 0.  0.
        -12    1    1    2    0    0  0.29125493488E+02  0.25013655502E+02  0.20239707961E+02  0.43400727077E+02  0.00000000000E+00 0.  1.
         11    1    3    3    0    0 -0.10797913452E+02 -0.11063749008E+02 -0.13285200976E+02  0.20383769089E+02  0.51100000000E-03 0. -1.
        -11    1    3    3    0    0 -0.94430209878E+01 -0.19015149118E+01 -0.78219715926E+01  0.12408450515E+02  0.51100000000E-03 0.  1.
         12    1    3    3    0    0 -0.88845590475E+01 -0.12048391582E+02  0.86746460714E+00  0.14995053319E+02  0.00000000000E+00 0. -1.
</event>
<event>
 7    1  0.4630495E-010  0.4778727E+02  0.7816164E-02  0.1312668E+00
        -11   -1    0    0    0    0  0.00000000000E+00  0.00000000000E+00  0.45593999997E+02  0.45594000000E+02  0.51100000000E-03 0. -1.
         11   -1    0    0    0    0 -0.00000000000E+00 -0.00000000000E+00 -0.45593999997E+02  0.45594000000E+02  0.51100000000E-03 0.  1.
    9900012    2    1    2    0    0 -0.22392015528E+02 -0.18179182528E+02  0.32430514036E+02  0.47787271003E+02  0.19999999813E+02 0.  0.
        -12    1    1    2    0    0  0.22392015528E+02  0.18179182528E+02 -0.32430514036E+02  0.43400728997E+02  0.00000000000E+00 0.  1.
         11    1    3    3    0    0  0.13363710689E+01 -0.39255847645E+00  0.10538012689E+01  0.17465643895E+01  0.51100000000E-03 0. -1.
        -11    1    3    3    0    0 -0.10565865064E+02 -0.86910550082E+00  0.41404707064E+01  0.11381403554E+02  0.51100000000E-03 0.  1.
         12    1    3    3    0    0 -0.13162521533E+02 -0.16917518551E+02  0.27236242061E+02  0.34659303060E+02  0.00000000000E+00 0. -1.
</event>
<event>
 7    1  0.4630495E-010  0.4778727E+02  0.7816164E-02  0.1312668E+00
        -11   -1    0    0    0    0  0.00000000000E+00  0.00000000000E+00  0.45593999997E+02  0.45594000000E+02  0.51100000000E-03 0. -1.
         11   -1    0    0    0    0 -0.00000000000E+00 -0.00000000000E+00 -0.45593999997E+02  0.45594000000E+02  0.51100000000E-03 0.  1.
    9900012    2    1    2    0    0  0.38286637014E+02 -0.20430490548E+02  0.59303284240E+00  0.47787271829E+02  0.20000003576E+02 0.  0.
        -12    1    1    2    0    0 -0.38286637014E+02  0.20430490548E+02 -0.59303284240E+00  0.43400728171E+02  0.00000000000E+00 0.  1.
         11    1    3    3    0    0  0.12470438446E+02 -0.29000414925E+01 -0.36690343137E+01  0.13318554304E+02  0.51100000000E-03 0. -1.
        -11    1    3    3    0    0  0.93826077378E+01 -0.52947258227E+00  0.53217808405E+01  0.10799769477E+02  0.51100000000E-03 0.  1.
        -12    1    3    3    0    0  0.16433590830E+02 -0.17000976473E+02 -0.10597136844E+01  0.23668948048E+02  0.00000000000E+00 0.  1.
</event>
<event>
 7    1  0.4630495E-010  0.4778724E+02  0.7816164E-02  0.1312668E+00
        -11   -1    0    0    0    0  0.00000000000E+00  0.00000000000E+00  0.45593999997E+02  0.45594000000E+02  0.51100000000E-03 0.  1.
         11   -1    0    0    0    0 -0.00000000000E+00 -0.00000000000E+00 -0.45593999997E+02  0.45594000000E+02  0.51100000000E-03 0. -1.
    9900012    2    1    2    0    0 -0.13758214685E+02  0.22387038964E+02 -0.34542117835E+02  0.47787240912E+02  0.19999862612E+02 0.  0.
        -12    1    1    2    0    0  0.13758214685E+02 -0.22387038964E+02  0.34542117835E+02  0.43400759088E+02  0.00000000000E+00 0.  1.
         11    1    3    3    0    0 -0.12458517541E+01  0.50679715289E+01 -0.14760856937E+02  0.15656288826E+02  0.51100000000E-03 0. -1.
        -11    1    3    3    0    0 -0.50092626701E+01  0.16455369586E+02 -0.16699244799E+02  0.23973666341E+02  0.51100000000E-03 0.  1.
        -12    1    3    3    0    0 -0.75031002607E+01  0.86369785007E+00 -0.30820160988E+01  0.81572857453E+01  0.00000000000E+00 0.  1.
</event>
<event>
 7    1  0.4630495E-010  0.4778727E+02  0.7816164E-02  0.1312668E+00
        -11   -1    0    0    0    0  0.00000000000E+00  0.00000000000E+00  0.45593999997E+02  0.45594000000E+02  0.51100000000E-03 0.  1.
         11   -1    0    0    0    0 -0.00000000000E+00 -0.00000000000E+00 -0.45593999997E+02  0.45594000000E+02  0.51100000000E-03 0. -1.
    9900012    2    1    2    0    0 -0.14765026372E+02  0.23889257332E+01 -0.40741996121E+02  0.47787271690E+02  0.20000002944E+02 0.  0.
        -12    1    1    2    0    0  0.14765026372E+02 -0.23889257332E+01  0.40741996121E+02  0.43400728310E+02  0.00000000000E+00 0.  1.
         11    1    3    3    0    0 -0.23354465862E+01  0.86200539515E+00 -0.61694323358E+00  0.25647579365E+01  0.51100000000E-03 0. -1.
        -11    1    3    3    0    0 -0.17021575887E+01 -0.57731839212E+01 -0.51618944765E+01  0.79291959171E+01  0.51100000000E-03 0.  1.
         12    1    3    3    0    0 -0.10727422197E+02  0.73001042592E+01 -0.34963158411E+02  0.37293317836E+02  0.00000000000E+00 0. -1.
</event>
<event>
 7    1  0.4630495E-010  0.4778727E+02  0.7816164E-02  0.1312668E+00
        -11   -1    0    0    0    0  0.00000000000E+00  0.00000000000E+00  0.45593999997E+02  0.45594000000E+02  0.51100000000E-03 0.  1.
         11   -1    0    0    0    0 -0.00000000000E+00 -0.00000000000E+00 -0.45593999997E+02  0.45594000000E+02  0.51100000000E-03 0. -1.
    9900012    2    1    2    0    0  0.19551437083E+02 -0.38371678730E+02 -0.53831985335E+01  0.47787271354E+02  0.20000001410E+02 0.  0.
        -12    1    1    2    0    0 -0.19551437083E+02  0.38371678730E+02  0.53831985335E+01  0.43400728646E+02  0.00000000000E+00 0.  1.
         11    1    3    3    0    0  0.19984911623E+01 -0.13620449005E+02  0.29698811019E+01  0.14082996558E+02  0.51100000000E-03 0.  1.
        -11    1    3    3    0    0  0.23434146480E+01 -0.13106840881E+02 -0.16812348088E+01  0.13420410606E+02  0.51100000000E-03 0. -1.
        -12    1    3    3    0    0  0.15209531272E+02 -0.11644388845E+02 -0.66718448266E+01  0.20283864190E+02  0.00000000000E+00 0.  1.
</event>
<event>
 7    1  0.5486667E-010  0.4778727E+02  0.7816164E-02  0.1312668E+00
        -11   -1    0    0    0    0  0.00000000000E+00  0.00000000000E+00  0.45593999997E+02  0.45594000000E+02  0.51100000000E-03 0.  1.
         11   -1    0    0    0    0 -0.00000000000E+00 -0.00000000000E+00 -0.45593999997E+02  0.45594000000E+02  0.51100000000E-03 0. -1.
    9900012    2    1    2    0    0 -0.32212084889E+02  0.13109853292E+02 -0.25964142217E+02  0.47787270199E+02  0.19999996143E+02 0.  0.
        -12    1    1    2    0    0  0.32212084889E+02 -0.13109853292E+02  0.25964142217E+02  0.43400729801E+02  0.00000000000E+00 0.  1.
         11    1    3    3    0    0 -0.22486191141E+02  0.30969535139E+01 -0.94547867428E+01  0.24588877683E+02  0.51100000000E-03 0. -1.
        -11    1    3    3    0    0 -0.73633877156E+00  0.27355820150E+01  0.24069487902E+00  0.28431563505E+01  0.51100000000E-03 0.  1.
         12    1    3    3    0    0 -0.89895549762E+01  0.72773177634E+01 -0.16750050354E+02  0.20355236165E+02  0.00000000000E+00 0. -1.
</event>
<event>
 7    1  0.4630495E-010  0.4778727E+02  0.7816164E-02  0.1312668E+00
        -11   -1    0    0    0    0  0.00000000000E+00  0.00000000000E+00  0.45593999997E+02  0.45594000000E+02  0.51100000000E-03 0.  1.
         11   -1    0    0    0    0 -0.00000000000E+00 -0.00000000000E+00 -0.45593999997E+02  0.45594000000E+02  0.51100000000E-03 0. -1.
    9900012    2    1    2    0    0  0.17594508499E+02  0.11011239507E+02 -0.38115731775E+02  0.47787272661E+02  0.20000007370E+02 0.  0.
        -12    1    1    2    0    0 -0.17594508499E+02 -0.11011239507E+02  0.38115731775E+02  0.43400727339E+02  0.00000000000E+00 0.  1.
         11    1    3    3    0    0  0.20374972164E+01  0.12670696716E+01  0.22449161216E+01  0.32858041807E+01  0.51100000000E-03 0.  1.
        -11    1    3    3    0    0  0.67280582935E+01  0.20679390482E+01 -0.15778197697E+02  0.17276998094E+02  0.51100000000E-03 0. -1.
        -12    1    3    3    0    0  0.88289529894E+01  0.76762307873E+01 -0.24582450200E+02  0.27224470386E+02  0.00000000000E+00 0.  1.
</event>
<event>
 7    1  0.4630495E-010  0.4778727E+02  0.7816164E-02  0.1312668E+00
        -11   -1    0    0    0    0  0.00000000000E+00  0.00000000000E+00  0.45593999997E+02  0.45594000000E+02  0.51100000000E-03 0.  1.
         11   -1    0    0    0    0 -0.00000000000E+00 -0.00000000000E+00 -0.45593999997E+02  0.45594000000E+02  0.51100000000E-03 0. -1.
    9900012    2    1    2    0    0 -0.10482123109E+02 -0.39596550902E+02 -0.14347876576E+02  0.47787270623E+02  0.19999998079E+02 0.  0.
        -12    1    1    2    0    0  0.10482123109E+02  0.39596550902E+02  0.14347876576E+02  0.43400729377E+02  0.00000000000E+00 0.  1.
         11    1    3    3    0    0 -0.15694065606E+01 -0.18124835806E+01 -0.55808088313E+01  0.60740070098E+01  0.51100000000E-03 0. -1.
        -11    1    3    3    0    0 -0.17707975930E+01 -0.75919242957E+01 -0.72577882608E+01  0.10651221964E+02  0.51100000000E-03 0.  1.
         12    1    3    3    0    0 -0.71419189552E+01 -0.30192143026E+02 -0.15092794837E+01  0.31062041649E+02  0.00000000000E+00 0. -1.
</event>
<event>
 7    1  0.4630495E-010  0.4778727E+02  0.7816164E-02  0.1312668E+00
        -11   -1    0    0    0    0  0.00000000000E+00  0.00000000000E+00  0.45593999997E+02  0.45594000000E+02  0.51100000000E-03 0.  1.
         11   -1    0    0    0    0 -0.00000000000E+00 -0.00000000000E+00 -0.45593999997E+02  0.45594000000E+02  0.51100000000E-03 0. -1.
    9900012    2    1    2    0    0 -0.23445752544E+02  0.55924242662E+00 -0.36518586752E+02  0.47787271402E+02  0.20000001631E+02 0.  0.
        -12    1    1    2    0    0  0.23445752544E+02 -0.55924242662E+00  0.36518586752E+02  0.43400728598E+02  0.00000000000E+00 0.  1.
         11    1    3    3    0    0 -0.50582005912E+01  0.14295640507E+00 -0.74104742284E+01  0.89733471071E+01  0.51100000000E-03 0. -1.
        -11    1    3    3    0    0  0.72580724950E+00 -0.43554061513E+01 -0.10636783304E+01  0.45417805713E+01  0.51100000000E-03 0.  1.
        -12    1    3    3    0    0 -0.19113359203E+02  0.47716921728E+01 -0.28044434193E+02  0.34272143724E+02  0.00000000000E+00 0.  1.
</event>
<event>
 7    1  0.4630495E-010  0.4778727E+02  0.7816164E-02  0.1312668E+00
        -11   -1    0    0    0    0  0.00000000000E+00  0.00000000000E+00  0.45593999997E+02  0.45594000000E+02  0.51100000000E-03 0. -1.
         11   -1    0    0    0    0 -0.00000000000E+00 -0.00000000000E+00 -0.45593999997E+02  0.45594000000E+02  0.51100000000E-03 0.  1.
    9900012    2    1    2    0    0  0.26433905306E+02  0.31598755248E+02  0.13652485158E+02  0.47787273809E+02  0.20000012605E+02 0.  0.
        -12    1    1    2    0    0 -0.26433905306E+02 -0.31598755248E+02 -0.13652485158E+02  0.43400726191E+02  0.00000000000E+00 0.  1.
         11    1    3    3    0    0  0.14178663630E+02  0.17225062634E+02  0.88548426039E+01  0.24003031535E+02  0.51100000000E-03 0. -1.
        -11    1    3    3    0    0  0.16162928728E+01 -0.23174322845E+01  0.26516228313E+01  0.38747901807E+01  0.51100000000E-03 0.  1.
         12    1    3    3    0    0  0.10638948803E+02  0.16691124898E+02  0.21460197224E+01  0.19909452093E+02  0.00000000000E+00 0. -1.
</event>
<event>
 7    1  0.4630495E-010  0.4778727E+02  0.7816164E-02  0.1312668E+00
        -11   -1    0    0    0    0  0.00000000000E+00  0.00000000000E+00  0.45593999997E+02  0.45594000000E+02  0.51100000000E-03 0. -1.
         11   -1    0    0    0    0 -0.00000000000E+00 -0.00000000000E+00 -0.45593999997E+02  0.45594000000E+02  0.51100000000E-03 0.  1.
    9900012    2    1    2    0    0 -0.21081454634E+02 -0.33249356771E+02  0.18266790818E+02  0.47787273025E+02  0.20000009029E+02 0.  0.
        -12    1    1    2    0    0  0.21081454634E+02  0.33249356771E+02 -0.18266790818E+02  0.43400726975E+02  0.00000000000E+00 0.  1.
         11    1    3    3    0    0  0.28362998199E+00  0.94478034998E+00  0.33695256238E+01  0.35109484569E+01  0.51100000000E-03 0. -1.
        -11    1    3    3    0    0 -0.40787660149E+01 -0.11264134478E+02  0.11815413616E+00  0.11980443163E+02  0.51100000000E-03 0.  1.
         12    1    3    3    0    0 -0.17286318601E+02 -0.22930002644E+02  0.14779111058E+02  0.32295881404E+02  0.00000000000E+00 0. -1.
</event>
<event>
 7    1  0.4630495E-010  0.4778727E+02  0.7816164E-02  0.1312668E+00
        -11   -1    0    0    0    0  0.00000000000E+00  0.00000000000E+00  0.45593999997E+02  0.45594000000E+02  0.51100000000E-03 0.  1.
         11   -1    0    0    0    0 -0.00000000000E+00 -0.00000000000E+00 -0.45593999997E+02  0.45594000000E+02  0.51100000000E-03 0. -1.
    9900012    2    1    2    0    0 -0.14034195942E+01 -0.34423361526E+01 -0.43241230023E+02  0.47787271450E+02  0.20000001849E+02 0.  0.
        -12    1    1    2    0    0  0.14034195942E+01  0.34423361526E+01  0.43241230023E+02  0.43400728550E+02  0.00000000000E+00 0.  1.
         11    1    3    3    0    0  0.69095161395E+00 -0.15555816682E+00 -0.21839221389E+02  0.21850702589E+02  0.51100000000E-03 0. -1.
        -11    1    3    3    0    0  0.16410158946E+01  0.51569478699E+01 -0.82824933635E+01  0.98937728434E+01  0.51100000000E-03 0.  1.
        -12    1    3    3    0    0 -0.37353871028E+01 -0.84437258557E+01 -0.13119515270E+02  0.16042796018E+02  0.00000000000E+00 0.  1.
</event>
<event>
 7    1  0.4630495E-010  0.4778727E+02  0.7816164E-02  0.1312668E+00
        -11   -1    0    0    0    0  0.00000000000E+00  0.00000000000E+00  0.45593999997E+02  0.45594000000E+02  0.51100000000E-03 0.  1.
         11   -1    0    0    0    0 -0.00000000000E+00 -0.00000000000E+00 -0.45593999997E+02  0.45594000000E+02  0.51100000000E-03 0. -1.
    9900012    2    1    2    0    0 -0.35998996846E+01  0.42780236861E+02 -0.63651641202E+01  0.47787271229E+02  0.20000000840E+02 0.  0.
        -12    1    1    2    0    0  0.35998996846E+01 -0.42780236861E+02  0.63651641202E+01  0.43400728771E+02  0.00000000000E+00 0.  1.
         11    1    3    3    0    0 -0.63690621720E+01  0.12817654677E+02 -0.45328980260E+01  0.15013473587E+02  0.51100000000E-03 0. -1.
        -11    1    3    3    0    0 -0.29107500204E+01  0.16011855116E+02  0.37661590353E+01  0.16704368413E+02  0.51100000000E-03 0.  1.
         12    1    3    3    0    0  0.56799125077E+01  0.13950727068E+02 -0.55984251295E+01  0.16069429229E+02  0.00000000000E+00 0. -1.
</event>
<event>
 7    1  0.4630495E-010  0.4778727E+02  0.7816164E-02  0.1312668E+00
        -11   -1    0    0    0    0  0.00000000000E+00  0.00000000000E+00  0.45593999997E+02  0.45594000000E+02  0.51100000000E-03 0.  1.
         11   -1    0    0    0    0 -0.00000000000E+00 -0.00000000000E+00 -0.45593999997E+02  0.45594000000E+02  0.51100000000E-03 0. -1.
    9900012    2    1    2    0    0 -0.62968895933E+01  0.33788252123E+02  0.26501441467E+02  0.47787271897E+02  0.20000003887E+02 0.  0.
        -12    1    1    2    0    0  0.62968895933E+01 -0.33788252123E+02 -0.26501441467E+02  0.43400728103E+02  0.00000000000E+00 0.  1.
         11    1    3    3    0    0 -0.50812442805E+00  0.28276960520E+01 -0.12324139214E+01  0.31261637404E+01  0.51100000000E-03 0.  1.
        -11    1    3    3    0    0 -0.13468498771E+01 -0.15559232824E+01  0.26450700000E+01  0.33513127902E+01  0.51100000000E-03 0. -1.
        -12    1    3    3    0    0 -0.44419152882E+01  0.32516479353E+02  0.25088785388E+02  0.41309795366E+02  0.00000000000E+00 0.  1.
</event>
<event>
 7    1  0.4630495E-010  0.4778730E+02  0.7816164E-02  0.1312668E+00
        -11   -1    0    0    0    0  0.00000000000E+00  0.00000000000E+00  0.45593999997E+02  0.45594000000E+02  0.51100000000E-03 0.  1.
         11   -1    0    0    0    0 -0.00000000000E+00 -0.00000000000E+00 -0.45593999997E+02  0.45594000000E+02  0.51100000000E-03 0. -1.
    9900012    2    1    2    0    0  0.19757144237E+02 -0.25332196258E+02 -0.29181429861E+02  0.47787299954E+02  0.20000131812E+02 0.  0.
        -12    1    1    2    0    0 -0.19757144237E+02  0.25332196258E+02  0.29181429861E+02  0.43400700046E+02  0.00000000000E+00 0.  1.
         11    1    3    3    0    0  0.10517122599E+02 -0.14813765478E+02 -0.17515581914E+02  0.25235949070E+02  0.51100000000E-03 0. -1.
        -11    1    3    3    0    0  0.86044012356E+01 -0.10727054498E+02 -0.32779851993E+01  0.14136852763E+02  0.51100000000E-03 0.  1.
        -12    1    3    3    0    0  0.63562040291E+00  0.20862371756E+00 -0.83878627484E+01  0.84144981216E+01  0.00000000000E+00 0.  1.
</event>
<event>
 7    1  0.4630495E-010  0.4778726E+02  0.7816164E-02  0.1312668E+00
        -11   -1    0    0    0    0  0.00000000000E+00  0.00000000000E+00  0.45593999997E+02  0.45594000000E+02  0.51100000000E-03 0.  1.
         11   -1    0    0    0    0 -0.00000000000E+00 -0.00000000000E+00 -0.45593999997E+02  0.45594000000E+02  0.51100000000E-03 0. -1.
    9900012    2    1    2    0    0 -0.24880098381E+02 -0.34949421708E+02  0.65682915407E+01  0.47787264672E+02  0.19999970946E+02 0.  0.
        -12    1    1    2    0    0  0.24880098381E+02  0.34949421708E+02 -0.65682915407E+01  0.43400735328E+02  0.00000000000E+00 0.  1.
         11    1    3    3    0    0 -0.14215403489E+02 -0.10828934450E+02  0.61262219149E+01  0.18891112008E+02  0.51100000000E-03 0. -1.
        -11    1    3    3    0    0 -0.10586349691E+02 -0.20061602026E+02  0.45339308385E+01  0.23132124951E+02  0.51100000000E-03 0.  1.
        -12    1    3    3    0    0 -0.78345201361E-01 -0.40588852324E+01 -0.40918612127E+01  0.57640277137E+01  0.00000000000E+00 0.  1.
</event>
<event>
 7    1  0.4630495E-010  0.4778727E+02  0.7816164E-02  0.1312668E+00
        -11   -1    0    0    0    0  0.00000000000E+00  0.00000000000E+00  0.45593999997E+02  0.45594000000E+02  0.51100000000E-03 0.  1.
         11   -1    0    0    0    0 -0.00000000000E+00 -0.00000000000E+00 -0.45593999997E+02  0.45594000000E+02  0.51100000000E-03 0. -1.
    9900012    2    1    2    0    0  0.14389923880E+02 -0.38538404021E+02  0.13832759921E+02  0.47787265665E+02  0.19999975475E+02 0.  0.
        -12    1    1    2    0    0 -0.14389923880E+02  0.38538404021E+02 -0.13832759921E+02  0.43400734335E+02  0.00000000000E+00 0.  1.
         11    1    3    3    0    0  0.17081304459E+01 -0.10293798407E+02  0.31829705487E+01  0.10909229902E+02  0.51100000000E-03 0. -1.
        -11    1    3    3    0    0  0.53829738480E+01 -0.36266874724E+01 -0.36918530325E+01  0.74671981724E+01  0.51100000000E-03 0.  1.
        -12    1    3    3    0    0  0.72988195857E+01 -0.24617918141E+02  0.14341642405E+02  0.29410837591E+02  0.00000000000E+00 0.  1.
</event>
<event>
 7    1  0.4630495E-010  0.4778727E+02  0.7816164E-02  0.1312668E+00
        -11   -1    0    0    0    0  0.00000000000E+00  0.00000000000E+00  0.45593999997E+02  0.45594000000E+02  0.51100000000E-03 0.  1.
         11   -1    0    0    0    0 -0.00000000000E+00 -0.00000000000E+00 -0.45593999997E+02  0.45594000000E+02  0.51100000000E-03 0. -1.
    9900012    2    1    2    0    0  0.81934654437E+01  0.47510128834E+01 -0.42354675672E+02  0.47787267856E+02  0.19999985462E+02 0.  0.
        -12    1    1    2    0    0 -0.81934654437E+01 -0.47510128834E+01  0.42354675672E+02  0.43400732144E+02  0.00000000000E+00 0.  1.
         11    1    3    3    0    0 -0.16587724408E+01 -0.11101148920E+00 -0.62896738046E+01  0.65056780116E+01  0.51100000000E-03 0. -1.
        -11    1    3    3    0    0 -0.10811482443E+01 -0.40391660848E+01 -0.24899917896E+01  0.48666008219E+01  0.51100000000E-03 0.  1.
         12    1    3    3    0    0  0.10933386129E+02  0.89011904574E+01 -0.33575010077E+02  0.36414989022E+02  0.00000000000E+00 0. -1.
</event>
<event>
 7    1  0.4630495E-010  0.4778728E+02  0.7816164E-02  0.1312668E+00
        -11   -1    0    0    0    0  0.00000000000E+00  0.00000000000E+00  0.45593999997E+02  0.45594000000E+02  0.51100000000E-03 0.  1.
         11   -1    0    0    0    0 -0.00000000000E+00 -0.00000000000E+00 -0.45593999997E+02  0.45594000000E+02  0.51100000000E-03 0. -1.
    9900012    2    1    2    0    0  0.35965796199E+02 -0.12432915510E+02 -0.20868785303E+02  0.47787284749E+02  0.20000062483E+02 0.  0.
        -12    1    1    2    0    0 -0.35965796199E+02  0.12432915510E+02  0.20868785303E+02  0.43400715251E+02  0.00000000000E+00 0.  1.
         11    1    3    3    0    0  0.18753495182E+02 -0.37501300750E-02 -0.81252209256E+01  0.20438023656E+02  0.51100000000E-03 0. -1.
        -11    1    3    3    0    0  0.10634170926E+02 -0.55362760272E+01 -0.72338191719E+00  0.12010796193E+02  0.51100000000E-03 0.  1.
        -12    1    3    3    0    0  0.65781300916E+01 -0.68928893526E+01 -0.12020182460E+02  0.15338464900E+02  0.00000000000E+00 0.  1.
</event>
<event>
 7    1  0.4630495E-010  0.4778728E+02  0.7816164E-02  0.1312668E+00
        -11   -1    0    0    0    0  0.00000000000E+00  0.00000000000E+00  0.45593999997E+02  0.45594000000E+02  0.51100000000E-03 0. -1.
         11   -1    0    0    0    0 -0.00000000000E+00 -0.00000000000E+00 -0.45593999997E+02  0.45594000000E+02  0.51100000000E-03 0.  1.
    9900012    2    1    2    0    0  0.15388050673E+02 -0.15057546073E+02  0.37684225572E+02  0.47787278183E+02  0.20000032546E+02 0.  0.
        -12    1    1    2    0    0 -0.15388050673E+02  0.15057546073E+02 -0.37684225572E+02  0.43400721817E+02  0.00000000000E+00 0.  1.
         11    1    3    3    0    0  0.18830031112E+01 -0.79906807077E+01  0.22081581008E+02  0.23558287268E+02  0.51100000000E-03 0. -1.
        -11    1    3    3    0    0 -0.10620760287E+01 -0.11679529271E+01 -0.56950796545E+00  0.16782309479E+01  0.51100000000E-03 0.  1.
         12    1    3    3    0    0  0.14567123591E+02 -0.58989124380E+01  0.16172152529E+02  0.22550759967E+02  0.00000000000E+00 0. -1.
</event>
<event>
 7    1  0.4630495E-010  0.4778727E+02  0.7816164E-02  0.1312668E+00
        -11   -1    0    0    0    0  0.00000000000E+00  0.00000000000E+00  0.45593999997E+02  0.45594000000E+02  0.51100000000E-03 0. -1.
         11   -1    0    0    0    0 -0.00000000000E+00 -0.00000000000E+00 -0.45593999997E+02  0.45594000000E+02  0.51100000000E-03 0.  1.
    9900012    2    1    2    0    0  0.32859628245E+01 -0.23367663901E+02  0.36424966657E+02  0.47787268856E+02  0.19999990022E+02 0.  0.
        -12    1    1    2    0    0 -0.32859628245E+01  0.23367663901E+02 -0.36424966657E+02  0.43400731144E+02  0.00000000000E+00 0.  1.
         11    1    3    3    0    0 -0.55218821599E+00 -0.22040992443E+01  0.68465999503E+01  0.72137990300E+01  0.51100000000E-03 0. -1.
        -11    1    3    3    0    0  0.10194951386E+02 -0.12235572639E+02  0.12346256794E+02  0.20151335654E+02  0.51100000000E-03 0.  1.
        -12    1    3    3    0    0 -0.63568003451E+01 -0.89279920176E+01  0.17232109913E+02  0.20422134172E+02  0.00000000000E+00 0.  1.
</event>
<event>
 7    1  0.4630495E-010  0.4778727E+02  0.7816164E-02  0.1312668E+00
        -11   -1    0    0    0    0  0.00000000000E+00  0.00000000000E+00  0.45593999997E+02  0.45594000000E+02  0.51100000000E-03 0.  1.
         11   -1    0    0    0    0 -0.00000000000E+00 -0.00000000000E+00 -0.45593999997E+02  0.45594000000E+02  0.51100000000E-03 0. -1.
    9900012    2    1    2    0    0  0.18743090610E+02 -0.23262144232E+02 -0.31483210551E+02  0.47787270208E+02  0.19999996188E+02 0.  0.
        -12    1    1    2    0    0 -0.18743090610E+02  0.23262144232E+02  0.31483210551E+02  0.43400729792E+02  0.00000000000E+00 0.  1.
         11    1    3    3    0    0  0.10478420542E+02 -0.11495366638E+02 -0.10203624012E+02  0.18602545375E+02  0.51100000000E-03 0. -1.
        -11    1    3    3    0    0  0.44305163660E+01 -0.10165830828E+02 -0.46173047255E+01  0.12012206079E+02  0.51100000000E-03 0.  1.
        -12    1    3    3    0    0  0.38341537015E+01 -0.16009467668E+01 -0.16662281813E+02  0.17172518755E+02  0.00000000000E+00 0.  1.
</event>
<event>
 7    1  0.4630495E-010  0.4778727E+02  0.7816164E-02  0.1312668E+00
        -11   -1    0    0    0    0  0.00000000000E+00  0.00000000000E+00  0.45593999997E+02  0.45594000000E+02  0.51100000000E-03 0.  1.
         11   -1    0    0    0    0 -0.00000000000E+00 -0.00000000000E+00 -0.45593999997E+02  0.45594000000E+02  0.51100000000E-03 0. -1.
    9900012    2    1    2    0    0 -0.18024765149E+02  0.35553516882E+02 -0.17166204321E+02  0.47787270834E+02  0.19999999040E+02 0.  0.
        -12    1    1    2    0    0  0.18024765149E+02 -0.35553516882E+02  0.17166204321E+02  0.43400729166E+02  0.00000000000E+00 0.  1.
         11    1    3    3    0    0  0.69894043538E+00  0.19629154606E+01 -0.65820062105E+00  0.21851277208E+01  0.51100000000E-03 0. -1.
        -11    1    3    3    0    0 -0.89133525411E+01  0.16555009151E+01 -0.27673405700E+01  0.94787504922E+01  0.51100000000E-03 0.  1.
        -12    1    3    3    0    0 -0.98103530434E+01  0.31935100506E+02 -0.13740663130E+02  0.36123392621E+02  0.00000000000E+00 0.  1.
</event>
<event>
 7    1  0.4630495E-010  0.4778727E+02  0.7816164E-02  0.1312668E+00
        -11   -1    0    0    0    0  0.00000000000E+00  0.00000000000E+00  0.45593999997E+02  0.45594000000E+02  0.51100000000E-03 0.  1.
         11   -1    0    0    0    0 -0.00000000000E+00 -0.00000000000E+00 -0.45593999997E+02  0.45594000000E+02  0.51100000000E-03 0. -1.
    9900012    2    1    2    0    0  0.18482000627E+02 -0.39220815330E+02 -0.19407374375E+01  0.47787272309E+02  0.20000005764E+02 0.  0.
        -12    1    1    2    0    0 -0.18482000627E+02  0.39220815330E+02  0.19407374375E+01  0.43400727691E+02  0.00000000000E+00 0.  1.
         11    1    3    3    0    0  0.15260644077E+02 -0.21441659434E+02 -0.53688914612E+01  0.26859951838E+02  0.51100000000E-03 0. -1.
        -11    1    3    3    0    0  0.64084251530E+01 -0.76778516028E+01  0.24041703996E+01  0.10285784061E+02  0.51100000000E-03 0.  1.
         12    1    3    3    0    0 -0.31870686031E+01 -0.10101304293E+02  0.10239836241E+01  0.10641536410E+02  0.00000000000E+00 0. -1.
</event>
<event>
 7    1  0.4630495E-010  0.4778727E+02  0.7816164E-02  0.1312668E+00
        -11   -1    0    0    0    0  0.00000000000E+00  0.00000000000E+00  0.45593999997E+02  0.45594000000E+02  0.51100000000E-03 0. -1.
         11   -1    0    0    0    0 -0.00000000000E+00 -0.00000000000E+00 -0.45593999997E+02  0.45594000000E+02  0.51100000000E-03 0.  1.
    9900012    2    1    2    0    0  0.24113019786E+02  0.23851512093E+02  0.27079345396E+02  0.47787270750E+02  0.19999998659E+02 0.  0.
        -12    1    1    2    0    0 -0.24113019786E+02 -0.23851512093E+02 -0.27079345396E+02  0.43400729250E+02  0.00000000000E+00 0.  1.
         11    1    3    3    0    0  0.84981733477E+01  0.83599074807E+01  0.30697465890E+01  0.12309766355E+02  0.51100000000E-03 0. -1.
        -11    1    3    3    0    0  0.13946344745E+01  0.10350633154E+02  0.63264531278E+01  0.12210840326E+02  0.51100000000E-03 0.  1.
        -12    1    3    3    0    0  0.14220211964E+02  0.51409714579E+01  0.17683145679E+02  0.23266664070E+02  0.00000000000E+00 0.  1.
</event>
<event>
 7    1  0.4630495E-010  0.4778727E+02  0.7816164E-02  0.1312668E+00
        -11   -1    0    0    0    0  0.00000000000E+00  0.00000000000E+00  0.45593999997E+02  0.45594000000E+02  0.51100000000E-03 0.  1.
         11   -1    0    0    0    0 -0.00000000000E+00 -0.00000000000E+00 -0.45593999997E+02  0.45594000000E+02  0.51100000000E-03 0. -1.
    9900012    2    1    2    0    0  0.38388942735E+02  0.22649824024E+01 -0.20119211239E+02  0.47787265784E+02  0.19999976018E+02 0.  0.
        -12    1    1    2    0    0 -0.38388942735E+02 -0.22649824024E+01  0.20119211239E+02  0.43400734216E+02  0.00000000000E+00 0.  1.
         11    1    3    3    0    0  0.11628252368E+01 -0.14280829034E+01 -0.20917871216E+01  0.27869619541E+01  0.51100000000E-03 0. -1.
        -11    1    3    3    0    0  0.15616483065E+02  0.10107681248E+02 -0.66935345577E+01  0.19769753885E+02  0.51100000000E-03 0.  1.
        -12    1    3    3    0    0  0.21609634432E+02 -0.64146159422E+01 -0.11333889560E+02  0.25230549945E+02  0.00000000000E+00 0.  1.
</event>
<event>
 7    1  0.4630495E-010  0.4778727E+02  0.7816164E-02  0.1312668E+00
        -11   -1    0    0    0    0  0.00000000000E+00  0.00000000000E+00  0.45593999997E+02  0.45594000000E+02  0.51100000000E-03 0. -1.
         11   -1    0    0    0    0 -0.00000000000E+00 -0.00000000000E+00 -0.45593999997E+02  0.45594000000E+02  0.51100000000E-03 0.  1.
    9900012    2    1    2    0    0  0.25801225988E+02 -0.41837987548E+01  0.34647016964E+02  0.47787271676E+02  0.20000002881E+02 0.  0.
        -12    1    1    2    0    0 -0.25801225988E+02  0.41837987548E+01 -0.34647016964E+02  0.43400728324E+02  0.00000000000E+00 0.  1.
         11    1    3    3    0    0  0.14181558598E+02 -0.96367121189E+01  0.11000063576E+02  0.20371161569E+02  0.51100000000E-03 0. -1.
        -11    1    3    3    0    0  0.64716321679E+00  0.21577374518E+01  0.25002999398E+01  0.33654347699E+01  0.51100000000E-03 0.  1.
         12    1    3    3    0    0  0.10972504173E+02  0.32951759123E+01  0.21146653448E+02  0.24050675337E+02  0.00000000000E+00 0. -1.
</event>
<event>
 7    1  0.4630495E-010  0.4778727E+02  0.7816164E-02  0.1312668E+00
        -11   -1    0    0    0    0  0.00000000000E+00  0.00000000000E+00  0.45593999997E+02  0.45594000000E+02  0.51100000000E-03 0. -1.
         11   -1    0    0    0    0 -0.00000000000E+00 -0.00000000000E+00 -0.45593999997E+02  0.45594000000E+02  0.51100000000E-03 0.  1.
    9900012    2    1    2    0    0 -0.38672316113E+02  0.11831220929E+02 -0.15751100530E+02  0.47787274313E+02  0.20000014904E+02 0.  0.
        -12    1    1    2    0    0  0.38672316113E+02 -0.11831220929E+02  0.15751100530E+02  0.43400725687E+02  0.00000000000E+00 0.  1.
         11    1    3    3    0    0 -0.21265618238E+02  0.12685181946E+02 -0.12180012476E+02  0.27595163783E+02  0.51100000000E-03 0. -1.
        -11    1    3    3    0    0 -0.36361157442E+01 -0.80894951996E+00 -0.51231948135E+01  0.63342609978E+01  0.51100000000E-03 0.  1.
         12    1    3    3    0    0 -0.13770582131E+02 -0.45011496991E-01  0.15521067598E+01  0.13857849533E+02  0.00000000000E+00 0. -1.
</event>
<event>
 7    1  0.4630495E-010  0.4778726E+02  0.7816164E-02  0.1312668E+00
        -11   -1    0    0    0    0  0.00000000000E+00  0.00000000000E+00  0.45593999997E+02  0.45594000000E+02  0.51100000000E-03 0.  1.
         11   -1    0    0    0    0 -0.00000000000E+00 -0.00000000000E+00 -0.45593999997E+02  0.45594000000E+02  0.51100000000E-03 0. -1.
    9900012    2    1    2    0    0  0.21339039611E+01  0.31193449381E+02 -0.30100494695E+02  0.47787255637E+02  0.19999929749E+02 0.  0.
        -12    1    1    2    0    0 -0.21339039611E+01 -0.31193449381E+02  0.30100494695E+02  0.43400744363E+02  0.00000000000E+00 0.  1.
         11    1    3    3    0    0 -0.20765489178E+01  0.20442532772E+02 -0.10618685796E+02  0.23129325321E+02  0.51100000000E-03 0.  1.
        -11    1    3    3    0    0  0.61251275139E+00  0.11414040295E+02 -0.14117086831E+02  0.18164460591E+02  0.51100000000E-03 0. -1.
        -12    1    3    3    0    0  0.35979401275E+01 -0.66312368530E+00 -0.53647220683E+01  0.64934697237E+01  0.00000000000E+00 0.  1.
</event>
<event>
 7    1  0.4630495E-010  0.4778727E+02  0.7816164E-02  0.1312668E+00
        -11   -1    0    0    0    0  0.00000000000E+00  0.00000000000E+00  0.45593999997E+02  0.45594000000E+02  0.51100000000E-03 0. -1.
         11   -1    0    0    0    0 -0.00000000000E+00 -0.00000000000E+00 -0.45593999997E+02  0.45594000000E+02  0.51100000000E-03 0.  1.
    9900012    2    1    2    0    0  0.27716293142E+02  0.25232640351E+02 -0.21880227319E+02  0.47787269682E+02  0.19999993787E+02 0.  0.
        -12    1    1    2    0    0 -0.27716293142E+02 -0.25232640351E+02  0.21880227319E+02  0.43400730318E+02  0.00000000000E+00 0.  1.
         11    1    3    3    0    0  0.17892212857E+02  0.10045391111E+02 -0.72577478048E+01  0.21765019342E+02  0.51100000000E-03 0. -1.
        -11    1    3    3    0    0  0.36163028590E+01 -0.13216696242E+01 -0.32268771649E+01  0.50236633508E+01  0.51100000000E-03 0.  1.
         12    1    3    3    0    0  0.62077774259E+01  0.16508918864E+02 -0.11395602349E+02  0.20998586989E+02  0.00000000000E+00 0. -1.
</event>
<event>
 7    1  0.4630495E-010  0.4778727E+02  0.7816164E-02  0.1312668E+00
        -11   -1    0    0    0    0  0.00000000000E+00  0.00000000000E+00  0.45593999997E+02  0.45594000000E+02  0.51100000000E-03 0.  1.
         11   -1    0    0    0    0 -0.00000000000E+00 -0.00000000000E+00 -0.45593999997E+02  0.45594000000E+02  0.51100000000E-03 0. -1.
    9900012    2    1    2    0    0 -0.13314042005E+02  0.99805696684E+01 -0.40084254846E+02  0.47787274522E+02  0.20000015857E+02 0.  0.
        -12    1    1    2    0    0  0.13314042005E+02 -0.99805696684E+01  0.40084254846E+02  0.43400725478E+02  0.00000000000E+00 0.  1.
         11    1    3    3    0    0 -0.56175809740E+01  0.53366685634E+01 -0.20089206273E+02  0.21531684938E+02  0.51100000000E-03 0. -1.
        -11    1    3    3    0    0 -0.48207019919E+01  0.99007398178E+01 -0.13421182972E+02  0.17360644264E+02  0.51100000000E-03 0.  1.
        -12    1    3    3    0    0 -0.28757590386E+01 -0.52568387127E+01 -0.65738656013E+01  0.88949453199E+01  0.00000000000E+00 0.  1.
</event>
<event>
 7    1  0.4630495E-010  0.4778728E+02  0.7816164E-02  0.1312668E+00
        -11   -1    0    0    0    0  0.00000000000E+00  0.00000000000E+00  0.45593999997E+02  0.45594000000E+02  0.51100000000E-03 0.  1.
         11   -1    0    0    0    0 -0.00000000000E+00 -0.00000000000E+00 -0.45593999997E+02  0.45594000000E+02  0.51100000000E-03 0. -1.
    9900012    2    1    2    0    0 -0.21018075091E+02 -0.11701032427E+02 -0.36124081452E+02  0.47787275339E+02  0.20000019580E+02 0.  0.
        -12    1    1    2    0    0  0.21018075091E+02  0.11701032427E+02  0.36124081452E+02  0.43400724661E+02  0.00000000000E+00 0.  1.
         11    1    3    3    0    0 -0.89604900509E+01 -0.28316855801E+01 -0.18309405762E+02  0.20580164353E+02  0.51100000000E-03 0. -1.
        -11    1    3    3    0    0 -0.14631768112E+02 -0.61430119808E+01 -0.10622301651E+02  0.19096034324E+02  0.51100000000E-03 0.  1.
        -12    1    3    3    0    0  0.25741830725E+01 -0.27263348664E+01 -0.71923740394E+01  0.81110766620E+01  0.00000000000E+00 0.  1.
</event>
<event>
 7    1  0.4630495E-010  0.4778728E+02  0.7816164E-02  0.1312668E+00
        -11   -1    0    0    0    0  0.00000000000E+00  0.00000000000E+00  0.45593999997E+02  0.45594000000E+02  0.51100000000E-03 0.  1.
         11   -1    0    0    0    0 -0.00000000000E+00 -0.00000000000E+00 -0.45593999997E+02  0.45594000000E+02  0.51100000000E-03 0. -1.
    9900012    2    1    2    0    0  0.30839744736E+02  0.29607752148E+02 -0.74775363657E+01  0.47787281196E+02  0.20000046286E+02 0.  0.
        -12    1    1    2    0    0 -0.30839744736E+02 -0.29607752148E+02  0.74775363657E+01  0.43400718804E+02  0.00000000000E+00 0.  1.
         11    1    3    3    0    0  0.58540659563E+01  0.16729193164E+02 -0.24475097419E+01  0.17892073561E+02  0.51100000000E-03 0. -1.
        -11    1    3    3    0    0 -0.17225852859E+00 -0.11116219879E+00  0.93750294495E+00  0.95965726592E+00  0.51100000000E-03 0.  1.
        -12    1    3    3    0    0  0.25157937308E+02  0.12989721183E+02 -0.59675295687E+01  0.28935550369E+02  0.00000000000E+00 0.  1.
</event>
<event>
 7    1  0.4630495E-010  0.4778729E+02  0.7816164E-02  0.1312668E+00
        -11   -1    0    0    0    0  0.00000000000E+00  0.00000000000E+00  0.45593999997E+02  0.45594000000E+02  0.51100000000E-03 0.  1.
         11   -1    0    0    0    0 -0.00000000000E+00 -0.00000000000E+00 -0.45593999997E+02  0.45594000000E+02  0.51100000000E-03 0. -1.
    9900012    2    1    2    0    0 -0.18167994968E+02  0.20388863106E+02 -0.33731885247E+02  0.47787287308E+02  0.20000074152E+02 0.  0.
        -12    1    1    2    0    0  0.18167994968E+02 -0.20388863106E+02  0.33731885247E+02  0.43400712692E+02  0.00000000000E+00 0.  1.
         11    1    3    3    0    0  0.22986230392E+01 -0.84942931504E+00  0.65727246497E-01  0.24514319019E+01  0.51100000000E-03 0. -1.
        -11    1    3    3    0    0 -0.32951551437E+00  0.15609882968E+01 -0.38236384879E+00  0.16405692034E+01  0.51100000000E-03 0.  1.
         12    1    3    3    0    0 -0.20137102492E+02  0.19677304124E+02 -0.33415248644E+02  0.43695286203E+02  0.00000000000E+00 0. -1.
</event>
<event>
 7    1  0.4630495E-010  0.4778727E+02  0.7816164E-02  0.1312668E+00
        -11   -1    0    0    0    0  0.00000000000E+00  0.00000000000E+00  0.45593999997E+02  0.45594000000E+02  0.51100000000E-03 0.  1.
         11   -1    0    0    0    0 -0.00000000000E+00 -0.00000000000E+00 -0.45593999997E+02  0.45594000000E+02  0.51100000000E-03 0. -1.
    9900012    2    1    2    0    0 -0.16440480045E+02  0.22441157453E+02 -0.33312582100E+02  0.47787273530E+02  0.20000011334E+02 0.  0.
        -12    1    1    2    0    0  0.16440480045E+02 -0.22441157453E+02  0.33312582100E+02  0.43400726470E+02  0.00000000000E+00 0.  1.
         11    1    3    3    0    0 -0.88222501729E+01  0.20536812094E+01 -0.15398718012E+02  0.17865335746E+02  0.51100000000E-03 0. -1.
        -11    1    3    3    0    0 -0.23480549848E+01  0.66589969160E+01 -0.12297884170E+02  0.14180746012E+02  0.51100000000E-03 0.  1.
        -12    1    3    3    0    0 -0.52701748871E+01  0.13728479328E+02 -0.56159799176E+01  0.15741191773E+02  0.00000000000E+00 0.  1.
</event>
<event>
 7    1  0.4630495E-010  0.4778727E+02  0.7816164E-02  0.1312668E+00
        -11   -1    0    0    0    0  0.00000000000E+00  0.00000000000E+00  0.45593999997E+02  0.45594000000E+02  0.51100000000E-03 0. -1.
         11   -1    0    0    0    0 -0.00000000000E+00 -0.00000000000E+00 -0.45593999997E+02  0.45594000000E+02  0.51100000000E-03 0.  1.
    9900012    2    1    2    0    0 -0.47768631605E+01 -0.32878988191E+02  0.27924485166E+02  0.47787272381E+02  0.20000006094E+02 0.  0.
        -12    1    1    2    0    0  0.47768631605E+01  0.32878988191E+02 -0.27924485166E+02  0.43400727619E+02  0.00000000000E+00 0.  1.
         11    1    3    3    0    0  0.58530097697E+00 -0.11291506075E+02  0.63782662618E+01  0.12981639628E+02  0.51100000000E-03 0. -1.
        -11    1    3    3    0    0  0.36232808229E+01 -0.10298003106E+02  0.30264411992E+01  0.11328564715E+02  0.51100000000E-03 0.  1.
        -12    1    3    3    0    0 -0.89854449604E+01 -0.11289479009E+02  0.18519777705E+02  0.23477068038E+02  0.00000000000E+00 0.  1.
</event>
<event>
 7    1  0.4630495E-010  0.4778727E+02  0.7816164E-02  0.1312668E+00
        -11   -1    0    0    0    0  0.00000000000E+00  0.00000000000E+00  0.45593999997E+02  0.45594000000E+02  0.51100000000E-03 0.  1.
         11   -1    0    0    0    0 -0.00000000000E+00 -0.00000000000E+00 -0.45593999997E+02  0.45594000000E+02  0.51100000000E-03 0. -1.
    9900012    2    1    2    0    0  0.22026568790E+02  0.55978067959E+01 -0.36974558939E+02  0.47787272099E+02  0.20000004810E+02 0.  0.
        -12    1    1    2    0    0 -0.22026568790E+02 -0.55978067959E+01  0.36974558939E+02  0.43400727901E+02  0.00000000000E+00 0.  1.
         11    1    3    3    0    0  0.48895071823E+01  0.10028334421E+02 -0.14326317414E+02  0.18158142599E+02  0.51100000000E-03 0. -1.
        -11    1    3    3    0    0  0.15786794334E+01  0.17536938760E+01 -0.29203045940E+01  0.37544440530E+01  0.51100000000E-03 0.  1.
        -12    1    3    3    0    0  0.15558382174E+02 -0.61842215012E+01 -0.19727936931E+02  0.25874685448E+02  0.00000000000E+00 0.  1.
</event>
<event>
 7    1  0.4630495E-010  0.4778727E+02  0.7816164E-02  0.1312668E+00
        -11   -1    0    0    0    0  0.00000000000E+00  0.00000000000E+00  0.45593999997E+02  0.45594000000E+02  0.51100000000E-03 0.  1.
         11   -1    0    0    0    0 -0.00000000000E+00 -0.00000000000E+00 -0.45593999997E+02  0.45594000000E+02  0.51100000000E-03 0. -1.
    9900012    2    1    2    0    0  0.12065340592E+02 -0.57360954110E+01 -0.41293438029E+02  0.47787271222E+02  0.20000000810E+02 0.  0.
        -12    1    1    2    0    0 -0.12065340592E+02  0.57360954110E+01  0.41293438029E+02  0.43400728778E+02  0.00000000000E+00 0.  1.
         11    1    3    3    0    0  0.69547477621E+01 -0.25775759161E+01 -0.29652520706E+02  0.30566066128E+02  0.51100000000E-03 0. -1.
        -11    1    3    3    0    0  0.13959831757E+01 -0.17849746128E+00 -0.12329401070E+02  0.12409462574E+02  0.51100000000E-03 0.  1.
        -12    1    3    3    0    0  0.37146096544E+01 -0.29800220337E+01  0.68848374721E+00  0.48117425197E+01  0.00000000000E+00 0.  1.
</event>
<event>
 7    1  0.4630495E-010  0.4778727E+02  0.7816164E-02  0.1312668E+00
        -11   -1    0    0    0    0  0.00000000000E+00  0.00000000000E+00  0.45593999997E+02  0.45594000000E+02  0.51100000000E-03 0.  1.
         11   -1    0    0    0    0 -0.00000000000E+00 -0.00000000000E+00 -0.45593999997E+02  0.45594000000E+02  0.51100000000E-03 0. -1.
    9900012    2    1    2    0    0 -0.83225508831E+01  0.40822121406E+02 -0.12161940205E+02  0.47787271448E+02  0.20000001839E+02 0.  0.
        -12    1    1    2    0    0  0.83225508831E+01 -0.40822121406E+02  0.12161940205E+02  0.43400728552E+02  0.00000000000E+00 0.  1.
         11    1    3    3    0    0  0.43247047368E+00  0.12729119907E+02 -0.10805355345E+01  0.12782217398E+02  0.51100000000E-03 0. -1.
        -11    1    3    3    0    0 -0.34928646648E+01  0.21845764288E+02 -0.14170368100E+02  0.26272359111E+02  0.51100000000E-03 0.  1.
         12    1    3    3    0    0 -0.52621566920E+01  0.62472372113E+01  0.30889634295E+01  0.87326949388E+01  0.00000000000E+00 0. -1.
</event>
<event>
 7    1  0.4630495E-010  0.4778727E+02  0.7816164E-02  0.1312668E+00
        -11   -1    0    0    0    0  0.00000000000E+00  0.00000000000E+00  0.45593999997E+02  0.45594000000E+02  0.51100000000E-03 0.  1.
         11   -1    0    0    0    0 -0.00000000000E+00 -0.00000000000E+00 -0.45593999997E+02  0.45594000000E+02  0.51100000000E-03 0. -1.
    9900012    2    1    2    0    0 -0.38501788299E+02  0.17392992256E+02  0.99357629363E+01  0.47787271124E+02  0.20000000365E+02 0.  0.
        -12    1    1    2    0    0  0.38501788299E+02 -0.17392992256E+02 -0.99357629363E+01  0.43400728876E+02  0.00000000000E+00 0.  1.
         11    1    3    3    0    0 -0.11334517658E+02  0.12489375723E+02  0.40107659275E+01  0.17336148364E+02  0.51100000000E-03 0. -1.
        -11    1    3    3    0    0 -0.59968866228E+01  0.30836915454E+01 -0.30299850915E+01  0.73927405358E+01  0.51100000000E-03 0.  1.
         12    1    3    3    0    0 -0.21170384018E+02  0.18199249873E+01  0.89549821003E+01  0.23058382225E+02  0.00000000000E+00 0. -1.
</event>
<event>
 7    1  0.4630495E-010  0.4778727E+02  0.7816164E-02  0.1312668E+00
        -11   -1    0    0    0    0  0.00000000000E+00  0.00000000000E+00  0.45593999997E+02  0.45594000000E+02  0.51100000000E-03 0. -1.
         11   -1    0    0    0    0 -0.00000000000E+00 -0.00000000000E+00 -0.45593999997E+02  0.45594000000E+02  0.51100000000E-03 0.  1.
    9900012    2    1    2    0    0  0.18528826153E+02 -0.25948247828E+02  0.29444761914E+02  0.47787274567E+02  0.20000016060E+02 0.  0.
        -12    1    1    2    0    0 -0.18528826153E+02  0.25948247828E+02 -0.29444761914E+02  0.43400725433E+02  0.00000000000E+00 0.  1.
         11    1    3    3    0    0 -0.68774574214E+00 -0.11282101097E+02  0.81226970892E+01  0.13918944199E+02  0.51100000000E-03 0. -1.
        -11    1    3    3    0    0  0.43292594126E+01 -0.78943655147E+01  0.12132597409E+02  0.15108388864E+02  0.51100000000E-03 0.  1.
        -12    1    3    3    0    0  0.14887312483E+02 -0.67717812163E+01  0.91894674164E+01  0.18759941503E+02  0.00000000000E+00 0.  1.
</event>
<event>
 7    1  0.4630495E-010  0.4778727E+02  0.7816164E-02  0.1312668E+00
        -11   -1    0    0    0    0  0.00000000000E+00  0.00000000000E+00  0.45593999997E+02  0.45594000000E+02  0.51100000000E-03 0.  1.
         11   -1    0    0    0    0 -0.00000000000E+00 -0.00000000000E+00 -0.45593999997E+02  0.45594000000E+02  0.51100000000E-03 0. -1.
    9900012    2    1    2    0    0 -0.14400977092E+02 -0.15934299609E+02 -0.37713837452E+02  0.47787267511E+02  0.19999983890E+02 0.  0.
        -12    1    1    2    0    0  0.14400977092E+02  0.15934299609E+02  0.37713837452E+02  0.43400732489E+02  0.00000000000E+00 0.  1.
         11    1    3    3    0    0  0.24001480348E+01 -0.24712407962E+01 -0.62419468978E+01  0.71294910757E+01  0.51100000000E-03 0.  1.
        -11    1    3    3    0    0 -0.90296503067E+01  0.90095676104E+00 -0.14491037039E+02  0.17097849645E+02  0.51100000000E-03 0. -1.
         12    1    3    3    0    0 -0.77714748203E+01 -0.14364015573E+02 -0.16980853515E+02  0.23559926790E+02  0.00000000000E+00 0. -1.
</event>
<event>
 7    1  0.4630495E-010  0.4778726E+02  0.7816164E-02  0.1312668E+00
        -11   -1    0    0    0    0  0.00000000000E+00  0.00000000000E+00  0.45593999997E+02  0.45594000000E+02  0.51100000000E-03 0.  1.
         11   -1    0    0    0    0 -0.00000000000E+00 -0.00000000000E+00 -0.45593999997E+02  0.45594000000E+02  0.51100000000E-03 0. -1.
    9900012    2    1    2    0    0 -0.37235884107E+02 -0.21517327567E+02 -0.58410412921E+01  0.47787260211E+02  0.19999950606E+02 0.  0.
        -12    1    1    2    0    0  0.37235884107E+02  0.21517327567E+02  0.58410412921E+01  0.43400739789E+02  0.00000000000E+00 0.  1.
         11    1    3    3    0    0 -0.57503289479E+01 -0.47610928957E+01  0.15666206583E+00  0.74671836614E+01  0.51100000000E-03 0. -1.
        -11    1    3    3    0    0 -0.15564330216E+02  0.14582446706E+01 -0.33116487983E+01  0.15979420221E+02  0.51100000000E-03 0.  1.
        -12    1    3    3    0    0 -0.15921224944E+02 -0.18214479342E+02 -0.26860545596E+01  0.24340656328E+02  0.00000000000E+00 0.  1.
</event>
<event>
 7    1  0.4630495E-010  0.4778727E+02  0.7816164E-02  0.1312668E+00
        -11   -1    0    0    0    0  0.00000000000E+00  0.00000000000E+00  0.45593999997E+02  0.45594000000E+02  0.51100000000E-03 0. -1.
         11   -1    0    0    0    0 -0.00000000000E+00 -0.00000000000E+00 -0.45593999997E+02  0.45594000000E+02  0.51100000000E-03 0.  1.
    9900012    2    1    2    0    0  0.34527446061E+02  0.19551507872E+02  0.17584572577E+02  0.47787272077E+02  0.20000004708E+02 0.  0.
        -12    1    1    2    0    0 -0.34527446061E+02 -0.19551507872E+02 -0.17584572577E+02  0.43400727923E+02  0.00000000000E+00 0.  1.
         11    1    3    3    0    0  0.12191157603E+02  0.25537091538E+01  0.49480637754E+01  0.13402577719E+02  0.51100000000E-03 0. -1.
        -11    1    3    3    0    0  0.59919846103E+01 -0.20207397728E+00  0.83407277166E+01  0.10271925456E+02  0.51100000000E-03 0.  1.
        -12    1    3    3    0    0  0.16344303848E+02  0.17199872695E+02  0.42957810849E+01  0.24112768902E+02  0.00000000000E+00 0.  1.
</event>
<event>
 7    1  0.4630495E-010  0.4778727E+02  0.7816164E-02  0.1312668E+00
        -11   -1    0    0    0    0  0.00000000000E+00  0.00000000000E+00  0.45593999997E+02  0.45594000000E+02  0.51100000000E-03 0. -1.
         11   -1    0    0    0    0 -0.00000000000E+00 -0.00000000000E+00 -0.45593999997E+02  0.45594000000E+02  0.51100000000E-03 0.  1.
    9900012    2    1    2    0    0  0.34380997494E+02 -0.24005547074E+02 -0.11193928770E+02  0.47787270509E+02  0.19999997561E+02 0.  0.
        -12    1    1    2    0    0 -0.34380997494E+02  0.24005547074E+02  0.11193928770E+02  0.43400729491E+02  0.00000000000E+00 0.  1.
         11    1    3    3    0    0  0.95180297313E+01 -0.64892091329E+01  0.34330567305E+00  0.11524781307E+02  0.51100000000E-03 0. -1.
        -11    1    3    3    0    0 -0.22378220339E+01 -0.20569564652E+01 -0.12958976742E+00  0.30423200233E+01  0.51100000000E-03 0.  1.
        -12    1    3    3    0    0  0.27100789797E+02 -0.15459381476E+02 -0.11407644675E+02  0.33220169179E+02  0.00000000000E+00 0.  1.
</event>
<event>
 7    1  0.4630495E-010  0.4778727E+02  0.7816164E-02  0.1312668E+00
        -11   -1    0    0    0    0  0.00000000000E+00  0.00000000000E+00  0.45593999997E+02  0.45594000000E+02  0.51100000000E-03 0.  1.
         11   -1    0    0    0    0 -0.00000000000E+00 -0.00000000000E+00 -0.45593999997E+02  0.45594000000E+02  0.51100000000E-03 0. -1.
    9900012    2    1    2    0    0 -0.52812499657E+00  0.34784972170E+01 -0.43257888102E+02  0.47787265652E+02  0.19999975412E+02 0.  0.
        -12    1    1    2    0    0  0.52812499657E+00 -0.34784972170E+01  0.43257888102E+02  0.43400734348E+02  0.00000000000E+00 0.  1.
         11    1    3    3    0    0 -0.92572982110E+00 -0.13856912913E+01 -0.80770107555E+00  0.18518902087E+01  0.51100000000E-03 0. -1.
        -11    1    3    3    0    0 -0.63104103587E+01  0.64267927978E+01 -0.13876910512E+02  0.16543687321E+02  0.51100000000E-03 0.  1.
         12    1    3    3    0    0  0.67080151833E+01 -0.15626042894E+01 -0.28573276515E+02  0.29391688122E+02  0.00000000000E+00 0. -1.
</event>
<event>
 7    1  0.4630495E-010  0.4778727E+02  0.7816164E-02  0.1312668E+00
        -11   -1    0    0    0    0  0.00000000000E+00  0.00000000000E+00  0.45593999997E+02  0.45594000000E+02  0.51100000000E-03 0. -1.
         11   -1    0    0    0    0 -0.00000000000E+00 -0.00000000000E+00 -0.45593999997E+02  0.45594000000E+02  0.51100000000E-03 0.  1.
    9900012    2    1    2    0    0 -0.45360095703E+01  0.22748602650E+02  0.36681729840E+02  0.47787267179E+02  0.19999982376E+02 0.  0.
        -12    1    1    2    0    0  0.45360095703E+01 -0.22748602650E+02 -0.36681729840E+02  0.43400732821E+02  0.00000000000E+00 0.  1.
         11    1    3    3    0    0  0.37663345859E+01  0.14713698250E+02  0.25146235032E+02  0.29377054464E+02  0.51100000000E-03 0. -1.
        -11    1    3    3    0    0  0.15280586905E+01  0.78491526351E+00  0.17098704335E+00  0.17263522707E+01  0.51100000000E-03 0.  1.
        -12    1    3    3    0    0 -0.98304028467E+01  0.72499891364E+01  0.11364507764E+02  0.16683860445E+02  0.00000000000E+00 0.  1.
</event>
<event>
 7    1  0.4630495E-010  0.4778723E+02  0.7816164E-02  0.1312668E+00
        -11   -1    0    0    0    0  0.00000000000E+00  0.00000000000E+00  0.45593999997E+02  0.45594000000E+02  0.51100000000E-03 0.  1.
         11   -1    0    0    0    0 -0.00000000000E+00 -0.00000000000E+00 -0.45593999997E+02  0.45594000000E+02  0.51100000000E-03 0. -1.
    9900012    2    1    2    0    0 -0.77040842317E+01  0.10043955606E+02 -0.41513769720E+02  0.47787227720E+02  0.19999802467E+02 0.  0.
        -12    1    1    2    0    0  0.77040842317E+01 -0.10043955606E+02  0.41513769720E+02  0.43400772280E+02  0.00000000000E+00 0.  1.
         11    1    3    3    0    0 -0.55824011058E+01 -0.81680971972E+00 -0.10495853933E+02  0.11916095429E+02  0.51100000000E-03 0. -1.
        -11    1    3    3    0    0  0.73073295705E+00  0.24609216421E+01 -0.25046258124E+02  0.25177473111E+02  0.51100000000E-03 0.  1.
        -12    1    3    3    0    0 -0.28524160830E+01  0.83998436839E+01 -0.59716576637E+01  0.10693659181E+02  0.00000000000E+00 0.  1.
</event>
<event>
 7    1  0.4630495E-010  0.4778727E+02  0.7816164E-02  0.1312668E+00
        -11   -1    0    0    0    0  0.00000000000E+00  0.00000000000E+00  0.45593999997E+02  0.45594000000E+02  0.51100000000E-03 0.  1.
         11   -1    0    0    0    0 -0.00000000000E+00 -0.00000000000E+00 -0.45593999997E+02  0.45594000000E+02  0.51100000000E-03 0. -1.
    9900012    2    1    2    0    0 -0.12807967312E+02  0.31338277555E+02 -0.27156797161E+02  0.47787270757E+02  0.19999998689E+02 0.  0.
        -12    1    1    2    0    0  0.12807967312E+02 -0.31338277555E+02  0.27156797161E+02  0.43400729243E+02  0.00000000000E+00 0.  1.
         11    1    3    3    0    0  0.17649949688E+01  0.69295713301E+01 -0.21490094502E+01  0.74667535072E+01  0.51100000000E-03 0. -1.
        -11    1    3    3    0    0 -0.97699831945E+01  0.12462500626E+02 -0.51465436334E+01  0.16650928056E+02  0.51100000000E-03 0.  1.
         12    1    3    3    0    0 -0.48029790865E+01  0.11946205599E+02 -0.19861244077E+02  0.23669589194E+02  0.00000000000E+00 0. -1.
</event>
<event>
 7    1  0.4630495E-010  0.4778728E+02  0.7816164E-02  0.1312668E+00
        -11   -1    0    0    0    0  0.00000000000E+00  0.00000000000E+00  0.45593999997E+02  0.45594000000E+02  0.51100000000E-03 0.  1.
         11   -1    0    0    0    0 -0.00000000000E+00 -0.00000000000E+00 -0.45593999997E+02  0.45594000000E+02  0.51100000000E-03 0. -1.
    9900012    2    1    2    0    0 -0.21312377436E+02 -0.30420767105E+02 -0.22449552633E+02  0.47787275159E+02  0.20000018761E+02 0.  0.
        -12    1    1    2    0    0  0.21312377436E+02  0.30420767105E+02  0.22449552633E+02  0.43400724841E+02  0.00000000000E+00 0.  1.
         11    1    3    3    0    0 -0.12073916735E+02 -0.60956193893E+01 -0.50201702432E+01  0.14426993817E+02  0.51100000000E-03 0. -1.
        -11    1    3    3    0    0 -0.10791698015E+02 -0.12584667048E+02 -0.94858216075E+01  0.19100141429E+02  0.51100000000E-03 0.  1.
        -12    1    3    3    0    0  0.15532373130E+01 -0.11740480668E+02 -0.79435607825E+01  0.14260139914E+02  0.00000000000E+00 0.  1.
</event>
<event>
 7    1  0.4630495E-010  0.4778727E+02  0.7816164E-02  0.1312668E+00
        -11   -1    0    0    0    0  0.00000000000E+00  0.00000000000E+00  0.45593999997E+02  0.45594000000E+02  0.51100000000E-03 0.  1.
         11   -1    0    0    0    0 -0.00000000000E+00 -0.00000000000E+00 -0.45593999997E+02  0.45594000000E+02  0.51100000000E-03 0. -1.
    9900012    2    1    2    0    0  0.17245327154E+02  0.32838895557E+02 -0.22535061375E+02  0.47787270038E+02  0.19999995413E+02 0.  0.
        -12    1    1    2    0    0 -0.17245327154E+02 -0.32838895557E+02  0.22535061375E+02  0.43400729962E+02  0.00000000000E+00 0.  1.
         11    1    3    3    0    0  0.62493388366E+01  0.15112251627E+02 -0.12697567629E+02  0.20704168882E+02  0.51100000000E-03 0. -1.
        -11    1    3    3    0    0  0.13114759741E+02  0.17630983887E+02 -0.61316950096E+01  0.22813289982E+02  0.51100000000E-03 0.  1.
        -12    1    3    3    0    0 -0.21187714240E+01  0.95660043669E-01 -0.37057987359E+01  0.42698111740E+01  0.00000000000E+00 0.  1.
</event>
<event>
 7    1  0.4630495E-010  0.4778727E+02  0.7816164E-02  0.1312668E+00
        -11   -1    0    0    0    0  0.00000000000E+00  0.00000000000E+00  0.45593999997E+02  0.45594000000E+02  0.51100000000E-03 0.  1.
         11   -1    0    0    0    0 -0.00000000000E+00 -0.00000000000E+00 -0.45593999997E+02  0.45594000000E+02  0.51100000000E-03 0. -1.
    9900012    2    1    2    0    0  0.67159354478E+01 -0.26196606082E+02 -0.33944911838E+02  0.47787274213E+02  0.20000014448E+02 0.  0.
        -12    1    1    2    0    0 -0.67159354478E+01  0.26196606082E+02  0.33944911838E+02  0.43400725787E+02  0.00000000000E+00 0.  1.
         11    1    3    3    0    0  0.68104665689E+01 -0.18723710990E+02 -0.20365361722E+02  0.28490485543E+02  0.51100000000E-03 0. -1.
        -11    1    3    3    0    0 -0.50232643896E+00 -0.10067155837E+02 -0.13252796346E+02  0.16650422509E+02  0.51100000000E-03 0.  1.
        -12    1    3    3    0    0  0.40779531782E+00  0.25942607449E+01 -0.32675376963E+00  0.26463661613E+01  0.00000000000E+00 0.  1.
</event>
<event>
 7    1  0.4630495E-010  0.4778727E+02  0.7816164E-02  0.1312668E+00
        -11   -1    0    0    0    0  0.00000000000E+00  0.00000000000E+00  0.45593999997E+02  0.45594000000E+02  0.51100000000E-03 0. -1.
         11   -1    0    0    0    0 -0.00000000000E+00 -0.00000000000E+00 -0.45593999997E+02  0.45594000000E+02  0.51100000000E-03 0.  1.
    9900012    2    1    2    0    0  0.22751574932E+01  0.21248418745E+02 -0.37775012742E+02  0.47787271568E+02  0.20000002386E+02 0.  0.
        -12    1    1    2    0    0 -0.22751574932E+01 -0.21248418745E+02  0.37775012742E+02  0.43400728432E+02  0.00000000000E+00 0.  1.
         11    1    3    3    0    0 -0.11902333982E+01  0.67222220941E+01 -0.87445163261E+01  0.11093759122E+02  0.51100000000E-03 0. -1.
        -11    1    3    3    0    0  0.96705944143E+01  0.48558994890E+01 -0.16062141055E+02  0.19367305742E+02  0.51100000000E-03 0.  1.
        -12    1    3    3    0    0 -0.62052035229E+01  0.96702971614E+01 -0.12968355362E+02  0.17326206704E+02  0.00000000000E+00 0.  1.
</event>
<event>
 7    1  0.4630495E-010  0.4778727E+02  0.7816164E-02  0.1312668E+00
        -11   -1    0    0    0    0  0.00000000000E+00  0.00000000000E+00  0.45593999997E+02  0.45594000000E+02  0.51100000000E-03 0.  1.
         11   -1    0    0    0    0 -0.00000000000E+00 -0.00000000000E+00 -0.45593999997E+02  0.45594000000E+02  0.51100000000E-03 0. -1.
    9900012    2    1    2    0    0 -0.15522840885E+02 -0.11993093164E+02 -0.38714733399E+02  0.47787268959E+02  0.19999990490E+02 0.  0.
        -12    1    1    2    0    0  0.15522840885E+02  0.11993093164E+02  0.38714733399E+02  0.43400731041E+02  0.00000000000E+00 0.  1.
         11    1    3    3    0    0 -0.14840171832E+02 -0.78944279285E+01 -0.26791472134E+02  0.31628083592E+02  0.51100000000E-03 0. -1.
        -11    1    3    3    0    0 -0.44668316690E+01 -0.52650928701E+01 -0.82485574827E+01  0.10756973966E+02  0.51100000000E-03 0.  1.
        -12    1    3    3    0    0  0.37841626164E+01  0.11664276348E+01 -0.36747037826E+01  0.54022114013E+01  0.00000000000E+00 0.  1.
</event>
<event>
 7    1  0.4630495E-010  0.4778726E+02  0.7816164E-02  0.1312668E+00
        -11   -1    0    0    0    0  0.00000000000E+00  0.00000000000E+00  0.45593999997E+02  0.45594000000E+02  0.51100000000E-03 0. -1.
         11   -1    0    0    0    0 -0.00000000000E+00 -0.00000000000E+00 -0.45593999997E+02  0.45594000000E+02  0.51100000000E-03 0.  1.
    9900012    2    1    2    0    0  0.36991259650E+01  0.36390094622E+02  0.23360256759E+02  0.47787261350E+02  0.19999955799E+02 0.  0.
        -12    1    1    2    0    0 -0.36991259650E+01 -0.36390094622E+02 -0.23360256759E+02  0.43400738650E+02  0.00000000000E+00 0.  1.
         11    1    3    3    0    0  0.16126916915E+01  0.10984250448E+02  0.16248572502E+02  0.19679193098E+02  0.51100000000E-03 0. -1.
        -11    1    3    3    0    0  0.10016016609E+01  0.25856335175E+00 -0.12151568586E+01  0.15958281067E+01  0.51100000000E-03 0.  1.
        -12    1    3    3    0    0  0.10848326126E+01  0.25147280822E+02  0.83268411163E+01  0.26512240145E+02  0.00000000000E+00 0.  1.
</event>
<event>
 7    1  0.4630495E-010  0.4778727E+02  0.7816164E-02  0.1312668E+00
        -11   -1    0    0    0    0  0.00000000000E+00  0.00000000000E+00  0.45593999997E+02  0.45594000000E+02  0.51100000000E-03 0. -1.
         11   -1    0    0    0    0 -0.00000000000E+00 -0.00000000000E+00 -0.45593999997E+02  0.45594000000E+02  0.51100000000E-03 0.  1.
    9900012    2    1    2    0    0 -0.63006343149E+01  0.14407200044E+02  0.40451919820E+02  0.47787271631E+02  0.20000002674E+02 0.  0.
        -12    1    1    2    0    0  0.63006343149E+01 -0.14407200044E+02 -0.40451919820E+02  0.43400728369E+02  0.00000000000E+00 0.  1.
         11    1    3    3    0    0  0.43599753050E+01 -0.22715630460E+01  0.83999949496E+01  0.97328977569E+01  0.51100000000E-03 0.  1.
        -11    1    3    3    0    0 -0.47240005917E+01  0.30325136021E+01  0.95109088424E+01  0.11043989660E+02  0.51100000000E-03 0. -1.
        -12    1    3    3    0    0 -0.59366090282E+01  0.13646249488E+02  0.22541016028E+02  0.27010384214E+02  0.00000000000E+00 0.  1.
</event>
<event>
 7    1  0.4630495E-010  0.4778727E+02  0.7816164E-02  0.1312668E+00
        -11   -1    0    0    0    0  0.00000000000E+00  0.00000000000E+00  0.45593999997E+02  0.45594000000E+02  0.51100000000E-03 0.  1.
         11   -1    0    0    0    0 -0.00000000000E+00 -0.00000000000E+00 -0.45593999997E+02  0.45594000000E+02  0.51100000000E-03 0. -1.
    9900012    2    1    2    0    0 -0.37442449690E+02 -0.16900157466E+01 -0.21882188056E+02  0.47787270211E+02  0.19999996202E+02 0.  0.
        -12    1    1    2    0    0  0.37442449690E+02  0.16900157466E+01  0.21882188056E+02  0.43400729789E+02  0.00000000000E+00 0.  1.
         11    1    3    3    0    0 -0.15630289397E+02  0.35713137258E+01 -0.24244737424E+01  0.16215372384E+02  0.51100000000E-03 0. -1.
        -11    1    3    3    0    0 -0.26475179085E+01  0.26968183165E+01 -0.50578460101E+01  0.63137933630E+01  0.51100000000E-03 0.  1.
        -12    1    3    3    0    0 -0.19164642385E+02 -0.79581477889E+01 -0.14399868304E+02  0.25258104465E+02  0.00000000000E+00 0.  1.
</event>
<event>
 7    1  0.4630495E-010  0.4778727E+02  0.7816164E-02  0.1312668E+00
        -11   -1    0    0    0    0  0.00000000000E+00  0.00000000000E+00  0.45593999997E+02  0.45594000000E+02  0.51100000000E-03 0. -1.
         11   -1    0    0    0    0 -0.00000000000E+00 -0.00000000000E+00 -0.45593999997E+02  0.45594000000E+02  0.51100000000E-03 0.  1.
    9900012    2    1    2    0    0  0.27792431817E+02  0.29959646417E+02  0.14615875539E+02  0.47787268468E+02  0.19999988254E+02 0.  0.
        -12    1    1    2    0    0 -0.27792431817E+02 -0.29959646417E+02 -0.14615875539E+02  0.43400731532E+02  0.00000000000E+00 0.  1.
         11    1    3    3    0    0  0.97534688481E+01  0.15601085488E+02  0.83926868907E+01  0.20222789533E+02  0.51100000000E-03 0. -1.
        -11    1    3    3    0    0  0.68746893156E+00  0.79860620171E+01 -0.13534975282E+00  0.80167399789E+01  0.51100000000E-03 0.  1.
        -12    1    3    3    0    0  0.17351494038E+02  0.63724989111E+01  0.63585384011E+01  0.19547738956E+02  0.00000000000E+00 0.  1.
</event>
<event>
 7    1  0.4630495E-010  0.4778727E+02  0.7816164E-02  0.1312668E+00
        -11   -1    0    0    0    0  0.00000000000E+00  0.00000000000E+00  0.45593999997E+02  0.45594000000E+02  0.51100000000E-03 0. -1.
         11   -1    0    0    0    0 -0.00000000000E+00 -0.00000000000E+00 -0.45593999997E+02  0.45594000000E+02  0.51100000000E-03 0.  1.
    9900012    2    1    2    0    0 -0.15357152245E+02 -0.39428842788E+02  0.96513070667E+01  0.47787268477E+02  0.19999988292E+02 0.  0.
        -12    1    1    2    0    0  0.15357152245E+02  0.39428842788E+02 -0.96513070667E+01  0.43400731523E+02  0.00000000000E+00 0.  1.
         11    1    3    3    0    0  0.38762700481E+00 -0.95892427251E+01  0.43865088594E+01  0.10552027813E+02  0.51100000000E-03 0. -1.
        -11    1    3    3    0    0 -0.70535097067E+00 -0.22309359537E+01 -0.38466469041E+01  0.45023646995E+01  0.51100000000E-03 0.  1.
        -12    1    3    3    0    0 -0.15039428279E+02 -0.27608664109E+02  0.91114451114E+01  0.32732875964E+02  0.00000000000E+00 0.  1.
</event>
<event>
 7    1  0.4630495E-010  0.4778727E+02  0.7816164E-02  0.1312668E+00
        -11   -1    0    0    0    0  0.00000000000E+00  0.00000000000E+00  0.45593999997E+02  0.45594000000E+02  0.51100000000E-03 0. -1.
         11   -1    0    0    0    0 -0.00000000000E+00 -0.00000000000E+00 -0.45593999997E+02  0.45594000000E+02  0.51100000000E-03 0.  1.
    9900012    2    1    2    0    0  0.25852436597E+02 -0.58170786560E+01  0.34372030413E+02  0.47787270088E+02  0.19999995641E+02 0.  0.
        -12    1    1    2    0    0 -0.25852436597E+02  0.58170786560E+01 -0.34372030413E+02  0.43400729912E+02  0.00000000000E+00 0.  1.
         11    1    3    3    0    0  0.42054124140E+01 -0.23613494297E+01 -0.44290084299E+00  0.48433073533E+01  0.51100000000E-03 0. -1.
        -11    1    3    3    0    0  0.62659685691E+01 -0.39061627991E+01  0.37604985807E+01  0.82862428011E+01  0.51100000000E-03 0.  1.
         12    1    3    3    0    0  0.15381055614E+02  0.45043357280E+00  0.31054432676E+02  0.34657719934E+02  0.00000000000E+00 0. -1.
</event>
<event>
 7    1  0.4630495E-010  0.4778725E+02  0.7816164E-02  0.1312668E+00
        -11   -1    0    0    0    0  0.00000000000E+00  0.00000000000E+00  0.45593999997E+02  0.45594000000E+02  0.51100000000E-03 0. -1.
         11   -1    0    0    0    0 -0.00000000000E+00 -0.00000000000E+00 -0.45593999997E+02  0.45594000000E+02  0.51100000000E-03 0.  1.
    9900012    2    1    2    0    0  0.94401933953E+01  0.92427586123E+01  0.41341008665E+02  0.47787253053E+02  0.19999917970E+02 0.  0.
        -12    1    1    2    0    0 -0.94401933953E+01 -0.92427586123E+01 -0.41341008665E+02  0.43400746947E+02  0.00000000000E+00 0.  1.
         11    1    3    3    0    0  0.63737103898E+01 -0.34324467470E+01  0.94293702571E+01  0.11887762553E+02  0.51100000000E-03 0. -1.
        -11    1    3    3    0    0  0.39336609053E+01  0.44907953920E+00  0.10590610032E+02  0.11306475210E+02  0.51100000000E-03 0.  1.
         12    1    3    3    0    0 -0.86717789978E+00  0.12226125820E+02  0.21321028376E+02  0.24593015291E+02  0.00000000000E+00 0. -1.
</event>
<event>
 7    1  0.4630495E-010  0.4778727E+02  0.7816164E-02  0.1312668E+00
        -11   -1    0    0    0    0  0.00000000000E+00  0.00000000000E+00  0.45593999997E+02  0.45594000000E+02  0.51100000000E-03 0. -1.
         11   -1    0    0    0    0 -0.00000000000E+00 -0.00000000000E+00 -0.45593999997E+02  0.45594000000E+02  0.51100000000E-03 0.  1.
    9900012    2    1    2    0    0 -0.40380557726E+02  0.15289647946E+02 -0.43887209542E+01  0.47787266732E+02  0.19999980336E+02 0.  0.
        -12    1    1    2    0    0  0.40380557726E+02 -0.15289647946E+02  0.43887209542E+01  0.43400733268E+02  0.00000000000E+00 0.  1.
         11    1    3    3    0    0 -0.39789868207E+00 -0.61287180316E+00  0.12929044654E+01  0.14851051903E+01  0.51100000000E-03 0.  1.
        -11    1    3    3    0    0 -0.15135769751E+02  0.24016001872E+01  0.49301843563E+01  0.16098631229E+02  0.51100000000E-03 0. -1.
         12    1    3    3    0    0 -0.24846889294E+02  0.13500919562E+02 -0.10611809776E+02  0.30203530312E+02  0.00000000000E+00 0. -1.
</event>
<event>
 7    1  0.4693486E-010  0.4778727E+02  0.7816164E-02  0.1312668E+00
        -11   -1    0    0    0    0  0.00000000000E+00  0.00000000000E+00  0.45593999997E+02  0.45594000000E+02  0.51100000000E-03 0. -1.
         11   -1    0    0    0    0 -0.00000000000E+00 -0.00000000000E+00 -0.45593999997E+02  0.45594000000E+02  0.51100000000E-03 0.  1.
    9900012    2    1    2    0    0  0.36048325539E+00 -0.39212342438E+02 -0.18597989130E+02  0.47787274806E+02  0.20000017152E+02 0.  0.
        -12    1    1    2    0    0 -0.36048325539E+00  0.39212342438E+02  0.18597989130E+02  0.43400725194E+02  0.00000000000E+00 0.  1.
         11    1    3    3    0    0  0.76378196075E+01 -0.23978700851E+02 -0.15992553139E+02  0.29817379815E+02  0.51100000000E-03 0. -1.
        -11    1    3    3    0    0 -0.21900345687E+01 -0.13653038442E+01 -0.18561354248E+01  0.31789219832E+01  0.51100000000E-03 0.  1.
         12    1    3    3    0    0 -0.50873017834E+01 -0.13868337743E+02 -0.74930056553E+00  0.14790973008E+02  0.00000000000E+00 0. -1.
</event>
<event>
 7    1  0.4630495E-010  0.4778727E+02  0.7816164E-02  0.1312668E+00
        -11   -1    0    0    0    0  0.00000000000E+00  0.00000000000E+00  0.45593999997E+02  0.45594000000E+02  0.51100000000E-03 0. -1.
         11   -1    0    0    0    0 -0.00000000000E+00 -0.00000000000E+00 -0.45593999997E+02  0.45594000000E+02  0.51100000000E-03 0.  1.
    9900012    2    1    2    0    0 -0.42513084698E+02 -0.66171613550E+01  0.56985888846E+01  0.47787272930E+02  0.20000008595E+02 0.  0.
        -12    1    1    2    0    0  0.42513084698E+02  0.66171613550E+01 -0.56985888846E+01  0.43400727070E+02  0.00000000000E+00 0.  1.
         11    1    3    3    0    0 -0.15395840050E+02  0.23641426338E+01  0.45022472474E+01  0.16213922775E+02  0.51100000000E-03 0. -1.
        -11    1    3    3    0    0  0.24563310457E+00  0.15634889567E+01  0.15940126215E+01  0.22462657542E+01  0.51100000000E-03 0.  1.
        -12    1    3    3    0    0 -0.27362877753E+02 -0.10544792946E+02 -0.39767098425E+00  0.29327084400E+02  0.00000000000E+00 0.  1.
</event>
<event>
 7    1  0.4630495E-010  0.4778727E+02  0.7816164E-02  0.1312668E+00
        -11   -1    0    0    0    0  0.00000000000E+00  0.00000000000E+00  0.45593999997E+02  0.45594000000E+02  0.51100000000E-03 0.  1.
         11   -1    0    0    0    0 -0.00000000000E+00 -0.00000000000E+00 -0.45593999997E+02  0.45594000000E+02  0.51100000000E-03 0. -1.
    9900012    2    1    2    0    0 -0.15590473671E+02  0.12777869901E+02 -0.38435489786E+02  0.47787266094E+02  0.19999977429E+02 0.  0.
        -12    1    1    2    0    0  0.15590473671E+02 -0.12777869901E+02  0.38435489786E+02  0.43400733906E+02  0.00000000000E+00 0.  1.
         11    1    3    3    0    0 -0.78573042969E+01  0.98223196929E+00 -0.90363034762E+01  0.12014857104E+02  0.51100000000E-03 0. -1.
        -11    1    3    3    0    0 -0.10523731274E+02  0.32259819465E+01 -0.19446256680E+02  0.22345307753E+02  0.51100000000E-03 0.  1.
        -12    1    3    3    0    0  0.27905618995E+01  0.85696559853E+01 -0.99529296294E+01  0.13427101237E+02  0.00000000000E+00 0.  1.
</event>
<event>
 7    1  0.4630495E-010  0.4778727E+02  0.7816164E-02  0.1312668E+00
        -11   -1    0    0    0    0  0.00000000000E+00  0.00000000000E+00  0.45593999997E+02  0.45594000000E+02  0.51100000000E-03 0.  1.
         11   -1    0    0    0    0 -0.00000000000E+00 -0.00000000000E+00 -0.45593999997E+02  0.45594000000E+02  0.51100000000E-03 0. -1.
    9900012    2    1    2    0    0 -0.69131324901E+01 -0.42520200933E+02  0.52786450182E+01  0.47787274414E+02  0.20000015362E+02 0.  0.
        -12    1    1    2    0    0  0.69131324901E+01  0.42520200933E+02 -0.52786450182E+01  0.43400725586E+02  0.00000000000E+00 0.  1.
         11    1    3    3    0    0 -0.12937462094E+02 -0.26286282142E+02  0.26453488977E+01  0.29416737163E+02  0.51100000000E-03 0. -1.
        -11    1    3    3    0    0  0.10850262010E+01 -0.63992844128E+01 -0.14171445418E+01  0.66435247999E+01  0.51100000000E-03 0.  1.
         12    1    3    3    0    0  0.49393034030E+01 -0.98346343783E+01  0.40504406623E+01  0.11727012451E+02  0.00000000000E+00 0. -1.
</event>
<event>
 7    1  0.4630495E-010  0.4778729E+02  0.7816164E-02  0.1312668E+00
        -11   -1    0    0    0    0  0.00000000000E+00  0.00000000000E+00  0.45593999997E+02  0.45594000000E+02  0.51100000000E-03 0.  1.
         11   -1    0    0    0    0 -0.00000000000E+00 -0.00000000000E+00 -0.45593999997E+02  0.45594000000E+02  0.51100000000E-03 0. -1.
    9900012    2    1    2    0    0 -0.34205884314E+02 -0.25647377967E+02 -0.74693220894E+01  0.47787293891E+02  0.20000104168E+02 0.  0.
        -12    1    1    2    0    0  0.34205884314E+02  0.25647377967E+02  0.74693220894E+01  0.43400706109E+02  0.00000000000E+00 0.  1.
         11    1    3    3    0    0 -0.23682692630E+02 -0.13022500366E+02 -0.81497429185E+01  0.28228952441E+02  0.51100000000E-03 0. -1.
        -11    1    3    3    0    0 -0.58290782652E+01  0.21417284267E+00 -0.39141731042E+00  0.58461295915E+01  0.51100000000E-03 0.  1.
         12    1    3    3    0    0 -0.46941134181E+01 -0.12839050443E+02  0.10718381396E+01  0.13712211859E+02  0.00000000000E+00 0. -1.
</event>
<event>
 7    1  0.4630495E-010  0.4778727E+02  0.7816164E-02  0.1312668E+00
        -11   -1    0    0    0    0  0.00000000000E+00  0.00000000000E+00  0.45593999997E+02  0.45594000000E+02  0.51100000000E-03 0.  1.
         11   -1    0    0    0    0 -0.00000000000E+00 -0.00000000000E+00 -0.45593999997E+02  0.45594000000E+02  0.51100000000E-03 0. -1.
    9900012    2    1    2    0    0  0.27085828837E+02  0.87883123110E+01 -0.32752812183E+02  0.47787271170E+02  0.20000000571E+02 0.  0.
        -12    1    1    2    0    0 -0.27085828837E+02 -0.87883123110E+01  0.32752812183E+02  0.43400728830E+02  0.00000000000E+00 0.  1.
         11    1    3    3    0    0  0.19131793728E+02 -0.24647432167E+01 -0.15704927966E+02  0.24874590510E+02  0.51100000000E-03 0. -1.
        -11    1    3    3    0    0 -0.53280242343E+00  0.85216141859E-01 -0.30462924402E+01  0.30937094410E+01  0.51100000000E-03 0.  1.
        -12    1    3    3    0    0  0.84868375328E+01  0.11167839386E+02 -0.14001591778E+02  0.19818971218E+02  0.00000000000E+00 0.  1.
</event>
<event>
 7    1  0.4630495E-010  0.4778725E+02  0.7816164E-02  0.1312668E+00
        -11   -1    0    0    0    0  0.00000000000E+00  0.00000000000E+00  0.45593999997E+02  0.45594000000E+02  0.51100000000E-03 0.  1.
         11   -1    0    0    0    0 -0.00000000000E+00 -0.00000000000E+00 -0.45593999997E+02  0.45594000000E+02  0.51100000000E-03 0. -1.
    9900012    2    1    2    0    0 -0.31724993304E+02  0.37776754022E+01 -0.29374806550E+02  0.47787247801E+02  0.19999894022E+02 0.  0.
        -12    1    1    2    0    0  0.31724993304E+02 -0.37776754022E+01  0.29374806550E+02  0.43400752199E+02  0.00000000000E+00 0.  1.
         11    1    3    3    0    0 -0.23707900363E+02  0.32632800962E+01 -0.19561841769E+02  0.30909208826E+02  0.51100000000E-03 0. -1.
        -11    1    3    3    0    0 -0.10831694709E+02 -0.10061139696E+00 -0.81057618316E+01  0.13529194656E+02  0.51100000000E-03 0.  1.
         12    1    3    3    0    0  0.28146017676E+01  0.61500670303E+00 -0.17072029499E+01  0.33488443181E+01  0.00000000000E+00 0. -1.
</event>
<event>
 7    1  0.4630495E-010  0.4778727E+02  0.7816164E-02  0.1312668E+00
        -11   -1    0    0    0    0  0.00000000000E+00  0.00000000000E+00  0.45593999997E+02  0.45594000000E+02  0.51100000000E-03 0.  1.
         11   -1    0    0    0    0 -0.00000000000E+00 -0.00000000000E+00 -0.45593999997E+02  0.45594000000E+02  0.51100000000E-03 0. -1.
    9900012    2    1    2    0    0  0.16429701985E+02  0.35178226093E+02 -0.19395371107E+02  0.47787272832E+02  0.20000008150E+02 0.  0.
        -12    1    1    2    0    0 -0.16429701985E+02 -0.35178226093E+02  0.19395371107E+02  0.43400727168E+02  0.00000000000E+00 0.  1.
         11    1    3    3    0    0  0.11022119002E+02  0.14636722518E+02 -0.27846931612E+01  0.18533085809E+02  0.51100000000E-03 0. -1.
        -11    1    3    3    0    0  0.22715043472E+01 -0.71443365322E+00 -0.59102938899E+00  0.24534594849E+01  0.51100000000E-03 0.  1.
         12    1    3    3    0    0  0.31360786358E+01  0.21255937228E+02 -0.16019648557E+02  0.26800727538E+02  0.00000000000E+00 0. -1.
</event>
<event>
 7    1  0.4630495E-010  0.4778732E+02  0.7816164E-02  0.1312668E+00
        -11   -1    0    0    0    0  0.00000000000E+00  0.00000000000E+00  0.45593999997E+02  0.45594000000E+02  0.51100000000E-03 0. -1.
         11   -1    0    0    0    0 -0.00000000000E+00 -0.00000000000E+00 -0.45593999997E+02  0.45594000000E+02  0.51100000000E-03 0.  1.
    9900012    2    1    2    0    0 -0.97943953662E+01  0.84835247122E+01  0.41421233916E+02  0.47787320383E+02  0.20000224951E+02 0.  0.
        -12    1    1    2    0    0  0.97943953662E+01 -0.84835247122E+01 -0.41421233916E+02  0.43400679617E+02  0.00000000000E+00 0.  1.
         11    1    3    3    0    0 -0.97367987884E+01  0.42334997047E+01  0.15911804081E+02  0.19128859866E+02  0.51100000000E-03 0. -1.
        -11    1    3    3    0    0 -0.35388339162E+01  0.75020803625E+01  0.16426601159E+02  0.18402113497E+02  0.51100000000E-03 0.  1.
        -12    1    3    3    0    0  0.34812373384E+01 -0.32520553549E+01  0.90828286760E+01  0.10256347020E+02  0.00000000000E+00 0.  1.
</event>
<event>
 7    1  0.4630495E-010  0.4778728E+02  0.7816164E-02  0.1312668E+00
        -11   -1    0    0    0    0  0.00000000000E+00  0.00000000000E+00  0.45593999997E+02  0.45594000000E+02  0.51100000000E-03 0. -1.
         11   -1    0    0    0    0 -0.00000000000E+00 -0.00000000000E+00 -0.45593999997E+02  0.45594000000E+02  0.51100000000E-03 0.  1.
    9900012    2    1    2    0    0  0.17308998846E+02 -0.31980953768E+02  0.23690499410E+02  0.47787278724E+02  0.20000035015E+02 0.  0.
        -12    1    1    2    0    0 -0.17308998846E+02  0.31980953768E+02 -0.23690499410E+02  0.43400721276E+02  0.00000000000E+00 0.  1.
         11    1    3    3    0    0  0.48516146688E+01 -0.11517149564E+02  0.16330320347E+02  0.20563615000E+02  0.51100000000E-03 0. -1.
        -11    1    3    3    0    0 -0.11013852616E+01 -0.85002038465E-01 -0.86325184893E+00  0.14019553691E+01  0.51100000000E-03 0.  1.
        -12    1    3    3    0    0  0.13558769439E+02 -0.20378802166E+02  0.82234309113E+01  0.25821708355E+02  0.00000000000E+00 0.  1.
</event>
<event>
 7    1  0.4630495E-010  0.4778727E+02  0.7816164E-02  0.1312668E+00
        -11   -1    0    0    0    0  0.00000000000E+00  0.00000000000E+00  0.45593999997E+02  0.45594000000E+02  0.51100000000E-03 0.  1.
         11   -1    0    0    0    0 -0.00000000000E+00 -0.00000000000E+00 -0.45593999997E+02  0.45594000000E+02  0.51100000000E-03 0. -1.
    9900012    2    1    2    0    0  0.20856107803E+02 -0.17347344308E+02 -0.33877957729E+02  0.47787267205E+02  0.19999982496E+02 0.  0.
        -12    1    1    2    0    0 -0.20856107803E+02  0.17347344308E+02  0.33877957729E+02  0.43400732795E+02  0.00000000000E+00 0.  1.
         11    1    3    3    0    0  0.17171506882E+01 -0.11991018472E+02 -0.92084508302E+01  0.15216067081E+02  0.51100000000E-03 0.  1.
        -11    1    3    3    0    0  0.91049128740E+01 -0.49667506801E+01 -0.79497749249E+01  0.13067783759E+02  0.51100000000E-03 0. -1.
        -12    1    3    3    0    0  0.10034044241E+02 -0.38957515661E+00 -0.16719731974E+02  0.19503416365E+02  0.00000000000E+00 0.  1.
</event>
<event>
 7    1  0.4630495E-010  0.4778727E+02  0.7816164E-02  0.1312668E+00
        -11   -1    0    0    0    0  0.00000000000E+00  0.00000000000E+00  0.45593999997E+02  0.45594000000E+02  0.51100000000E-03 0.  1.
         11   -1    0    0    0    0 -0.00000000000E+00 -0.00000000000E+00 -0.45593999997E+02  0.45594000000E+02  0.51100000000E-03 0. -1.
    9900012    2    1    2    0    0  0.36286481261E+02  0.22783725120E+01 -0.23700711415E+02  0.47787269301E+02  0.19999992051E+02 0.  0.
        -12    1    1    2    0    0 -0.36286481261E+02 -0.22783725120E+01  0.23700711415E+02  0.43400730699E+02  0.00000000000E+00 0.  1.
         11    1    3    3    0    0  0.11272163603E+02  0.10024677255E+01 -0.85789534798E+01  0.14200882258E+02  0.51100000000E-03 0. -1.
        -11    1    3    3    0    0  0.45209937802E+01 -0.50816857555E+01 -0.89852222481E+01  0.11269300510E+02  0.51100000000E-03 0.  1.
        -12    1    3    3    0    0  0.20493323878E+02  0.63575905420E+01 -0.61365356873E+01  0.22317086533E+02  0.00000000000E+00 0.  1.
</event>
<event>
 7    1  0.4630495E-010  0.4778727E+02  0.7816164E-02  0.1312668E+00
        -11   -1    0    0    0    0  0.00000000000E+00  0.00000000000E+00  0.45593999997E+02  0.45594000000E+02  0.51100000000E-03 0.  1.
         11   -1    0    0    0    0 -0.00000000000E+00 -0.00000000000E+00 -0.45593999997E+02  0.45594000000E+02  0.51100000000E-03 0. -1.
    9900012    2    1    2    0    0 -0.36730457200E+02 -0.12590761140E+02 -0.19389931115E+02  0.47787272117E+02  0.20000004889E+02 0.  0.
        -12    1    1    2    0    0  0.36730457200E+02  0.12590761140E+02  0.19389931115E+02  0.43400727883E+02  0.00000000000E+00 0.  1.
         11    1    3    3    0    0 -0.13881616084E+02 -0.24568819383E+01 -0.81330140043E+01  0.16275178986E+02  0.51100000000E-03 0.  1.
        -11    1    3    3    0    0 -0.97586238945E+01  0.12936889919E+01 -0.10089851943E+02  0.14096435153E+02  0.51100000000E-03 0. -1.
         12    1    3    3    0    0 -0.13090217221E+02 -0.11427568193E+02 -0.11670651673E+01  0.17415657978E+02  0.00000000000E+00 0. -1.
</event>
<event>
 7    1  0.4630495E-010  0.4778727E+02  0.7816164E-02  0.1312668E+00
        -11   -1    0    0    0    0  0.00000000000E+00  0.00000000000E+00  0.45593999997E+02  0.45594000000E+02  0.51100000000E-03 0.  1.
         11   -1    0    0    0    0 -0.00000000000E+00 -0.00000000000E+00 -0.45593999997E+02  0.45594000000E+02  0.51100000000E-03 0. -1.
    9900012    2    1    2    0    0 -0.36312218794E+02  0.19545293920E+02 -0.13528769972E+02  0.47787269994E+02  0.19999995210E+02 0.  0.
        -12    1    1    2    0    0  0.36312218794E+02 -0.19545293920E+02  0.13528769972E+02  0.43400730006E+02  0.00000000000E+00 0.  1.
         11    1    3    3    0    0 -0.32668139521E+02  0.12474591671E+02 -0.42512183824E+01  0.35226348592E+02  0.51100000000E-03 0. -1.
        -11    1    3    3    0    0 -0.25301242230E+01  0.21330322394E+01 -0.46159370180E+01  0.56796329048E+01  0.51100000000E-03 0.  1.
         12    1    3    3    0    0 -0.11139550494E+01  0.49376700091E+01 -0.46616145710E+01  0.68812884971E+01  0.00000000000E+00 0. -1.
</event>
<event>
 7    1  0.4630495E-010  0.4778727E+02  0.7816164E-02  0.1312668E+00
        -11   -1    0    0    0    0  0.00000000000E+00  0.00000000000E+00  0.45593999997E+02  0.45594000000E+02  0.51100000000E-03 0.  1.
         11   -1    0    0    0    0 -0.00000000000E+00 -0.00000000000E+00 -0.45593999997E+02  0.45594000000E+02  0.51100000000E-03 0. -1.
    9900012    2    1    2    0    0  0.40690562207E+02  0.14498220222E+02 -0.42074900397E+01  0.47787271725E+02  0.20000003104E+02 0.  0.
        -12    1    1    2    0    0 -0.40690562207E+02 -0.14498220222E+02  0.42074900397E+01  0.43400728275E+02  0.00000000000E+00 0.  1.
         11    1    3    3    0    0  0.22802565723E+01  0.97941180008E+00 -0.49560926547E+01  0.55427134305E+01  0.51100000000E-03 0. -1.
        -11    1    3    3    0    0  0.74060728899E+01  0.64834046264E+01  0.32197642369E+01  0.10356221956E+02  0.51100000000E-03 0.  1.
         12    1    3    3    0    0  0.31004232745E+02  0.70354037957E+01 -0.24711616219E+01  0.31888336339E+02  0.00000000000E+00 0. -1.
</event>
<event>
 7    1  0.4630495E-010  0.4778726E+02  0.7816164E-02  0.1312668E+00
        -11   -1    0    0    0    0  0.00000000000E+00  0.00000000000E+00  0.45593999997E+02  0.45594000000E+02  0.51100000000E-03 0.  1.
         11   -1    0    0    0    0 -0.00000000000E+00 -0.00000000000E+00 -0.45593999997E+02  0.45594000000E+02  0.51100000000E-03 0. -1.
    9900012    2    1    2    0    0 -0.31593204268E+02  0.49752699580E+01 -0.29338369703E+02  0.47787264938E+02  0.19999972157E+02 0.  0.
        -12    1    1    2    0    0  0.31593204268E+02 -0.49752699580E+01  0.29338369703E+02  0.43400735062E+02  0.00000000000E+00 0.  1.
         11    1    3    3    0    0 -0.42668364462E+01 -0.42241476955E+01 -0.73324402876E+01  0.94770247358E+01  0.51100000000E-03 0. -1.
        -11    1    3    3    0    0  0.26638411917E+00 -0.77434468466E+00 -0.35612509985E+01  0.36541865203E+01  0.51100000000E-03 0.  1.
         12    1    3    3    0    0 -0.27592751941E+02  0.99737623381E+01 -0.18444678417E+02  0.34656053682E+02  0.00000000000E+00 0. -1.
</event>
<event>
 7    1  0.4630495E-010  0.4778727E+02  0.7816164E-02  0.1312668E+00
        -11   -1    0    0    0    0  0.00000000000E+00  0.00000000000E+00  0.45593999997E+02  0.45594000000E+02  0.51100000000E-03 0.  1.
         11   -1    0    0    0    0 -0.00000000000E+00 -0.00000000000E+00 -0.45593999997E+02  0.45594000000E+02  0.51100000000E-03 0. -1.
    9900012    2    1    2    0    0  0.28965375530E+02  0.20751119501E+02 -0.24779457719E+02  0.47787268842E+02  0.19999989960E+02 0.  0.
        -12    1    1    2    0    0 -0.28965375530E+02 -0.20751119501E+02  0.24779457719E+02  0.43400731158E+02  0.00000000000E+00 0.  1.
         11    1    3    3    0    0  0.14589030958E+02  0.10448741690E+02 -0.10281043201E+02  0.20681292917E+02  0.51100000000E-03 0. -1.
        -11    1    3    3    0    0  0.16121564831E+02  0.10095976965E+02 -0.84624497993E+01  0.20819381843E+02  0.51100000000E-03 0.  1.
         12    1    3    3    0    0 -0.17452202581E+01  0.20640084664E+00 -0.60359647191E+01  0.62865940818E+01  0.00000000000E+00 0. -1.
</event>
<event>
 7    1  0.4630495E-010  0.4778728E+02  0.7816164E-02  0.1312668E+00
        -11   -1    0    0    0    0  0.00000000000E+00  0.00000000000E+00  0.45593999997E+02  0.45594000000E+02  0.51100000000E-03 0.  1.
         11   -1    0    0    0    0 -0.00000000000E+00 -0.00000000000E+00 -0.45593999997E+02  0.45594000000E+02  0.51100000000E-03 0. -1.
    9900012    2    1    2    0    0  0.36487755227E+02 -0.22206888461E+02 -0.76889554353E+01  0.47787283275E+02  0.20000055762E+02 0.  0.
        -12    1    1    2    0    0 -0.36487755227E+02  0.22206888461E+02  0.76889554353E+01  0.43400716725E+02  0.00000000000E+00 0.  1.
         11    1    3    3    0    0  0.76018565276E+01 -0.11376449902E+02 -0.69131344156E+01  0.15329816136E+02  0.51100000000E-03 0. -1.
        -11    1    3    3    0    0  0.53331092859E+01 -0.63270391612E+01  0.13487683977E+01  0.83840715440E+01  0.51100000000E-03 0.  1.
        -12    1    3    3    0    0  0.23552789413E+02 -0.45033993972E+01 -0.21245894175E+01  0.24073395595E+02  0.00000000000E+00 0.  1.
</event>
<event>
 7    1  0.4630495E-010  0.4778726E+02  0.7816164E-02  0.1312668E+00
        -11   -1    0    0    0    0  0.00000000000E+00  0.00000000000E+00  0.45593999997E+02  0.45594000000E+02  0.51100000000E-03 0.  1.
         11   -1    0    0    0    0 -0.00000000000E+00 -0.00000000000E+00 -0.45593999997E+02  0.45594000000E+02  0.51100000000E-03 0. -1.
    9900012    2    1    2    0    0  0.23459822655E+02 -0.30083671785E+02 -0.20693814422E+02  0.47787256430E+02  0.19999933368E+02 0.  0.
        -12    1    1    2    0    0 -0.23459822655E+02  0.30083671785E+02  0.20693814422E+02  0.43400743570E+02  0.00000000000E+00 0.  1.
         11    1    3    3    0    0  0.14889323126E+02 -0.24614302522E+02 -0.12694697000E+02  0.31443777826E+02  0.51100000000E-03 0. -1.
        -11    1    3    3    0    0  0.61366749577E+01 -0.62698633981E+01 -0.98441069610E+01  0.13186220410E+02  0.51100000000E-03 0.  1.
        -12    1    3    3    0    0  0.24338245714E+01  0.80049413549E+00  0.18449895391E+01  0.31572581942E+01  0.00000000000E+00 0.  1.
</event>
<event>
 7    1  0.4630495E-010  0.4778727E+02  0.7816164E-02  0.1312668E+00
        -11   -1    0    0    0    0  0.00000000000E+00  0.00000000000E+00  0.45593999997E+02  0.45594000000E+02  0.51100000000E-03 0.  1.
         11   -1    0    0    0    0 -0.00000000000E+00 -0.00000000000E+00 -0.45593999997E+02  0.45594000000E+02  0.51100000000E-03 0. -1.
    9900012    2    1    2    0    0  0.56513715209E+01 -0.93226951357E+01 -0.42009196445E+02  0.47787271543E+02  0.20000002274E+02 0.  0.
        -12    1    1    2    0    0 -0.56513715209E+01  0.93226951357E+01  0.42009196445E+02  0.43400728457E+02  0.00000000000E+00 0.  1.
         11    1    3    3    0    0  0.55401773931E+01  0.23994121286E+01 -0.16180725782E+02  0.17270397540E+02  0.51100000000E-03 0.  1.
        -11    1    3    3    0    0  0.13782277774E+01  0.19681866938E+01 -0.27350548219E+01  0.36405763016E+01  0.51100000000E-03 0. -1.
         12    1    3    3    0    0 -0.12670336496E+01 -0.13690293958E+02 -0.23093415841E+02  0.26876297701E+02  0.00000000000E+00 0. -1.
</event>
<event>
 7    1  0.4630495E-010  0.4778727E+02  0.7816164E-02  0.1312668E+00
        -11   -1    0    0    0    0  0.00000000000E+00  0.00000000000E+00  0.45593999997E+02  0.45594000000E+02  0.51100000000E-03 0. -1.
         11   -1    0    0    0    0 -0.00000000000E+00 -0.00000000000E+00 -0.45593999997E+02  0.45594000000E+02  0.51100000000E-03 0.  1.
    9900012    2    1    2    0    0  0.17972313103E+02 -0.21555728010E+02  0.33105435315E+02  0.47787270793E+02  0.19999998852E+02 0.  0.
        -12    1    1    2    0    0 -0.17972313103E+02  0.21555728010E+02 -0.33105435315E+02  0.43400729207E+02  0.00000000000E+00 0.  1.
         11    1    3    3    0    0  0.25670313723E+01 -0.35712356063E+01  0.12648239050E+02  0.13391091260E+02  0.51100000000E-03 0. -1.
        -11    1    3    3    0    0  0.10754876157E+02 -0.29802209710E+01  0.12601690552E+02  0.16833053294E+02  0.51100000000E-03 0.  1.
        -12    1    3    3    0    0  0.46504055745E+01 -0.15004271433E+02  0.78555057134E+01  0.17563126238E+02  0.00000000000E+00 0.  1.
</event>
<event>
 7    1  0.4630495E-010  0.4778730E+02  0.7816164E-02  0.1312668E+00
        -11   -1    0    0    0    0  0.00000000000E+00  0.00000000000E+00  0.45593999997E+02  0.45594000000E+02  0.51100000000E-03 0.  1.
         11   -1    0    0    0    0 -0.00000000000E+00 -0.00000000000E+00 -0.45593999997E+02  0.45594000000E+02  0.51100000000E-03 0. -1.
    9900012    2    1    2    0    0 -0.37377251807E+02  0.19592490251E+02 -0.10133908058E+02  0.47787300474E+02  0.20000134181E+02 0.  0.
        -12    1    1    2    0    0  0.37377251807E+02 -0.19592490251E+02  0.10133908058E+02  0.43400699526E+02  0.00000000000E+00 0.  1.
         11    1    3    3    0    0 -0.42672790872E+01  0.58687519308E+01 -0.29543221475E+01  0.78345350625E+01  0.51100000000E-03 0. -1.
        -11    1    3    3    0    0 -0.31001724846E+02  0.14388116435E+02 -0.19017236383E+01  0.34230708305E+02  0.51100000000E-03 0.  1.
         12    1    3    3    0    0 -0.21082478731E+01 -0.66437811470E+00 -0.52778622719E+01  0.57220571069E+01  0.00000000000E+00 0. -1.
</event>
<event>
 7    1  0.4630495E-010  0.4778727E+02  0.7816164E-02  0.1312668E+00
        -11   -1    0    0    0    0  0.00000000000E+00  0.00000000000E+00  0.45593999997E+02  0.45594000000E+02  0.51100000000E-03 0. -1.
         11   -1    0    0    0    0 -0.00000000000E+00 -0.00000000000E+00 -0.45593999997E+02  0.45594000000E+02  0.51100000000E-03 0.  1.
    9900012    2    1    2    0    0  0.34518187514E+02 -0.26302236740E+02  0.55709023722E+00  0.47787271017E+02  0.19999999875E+02 0.  0.
        -12    1    1    2    0    0 -0.34518187514E+02  0.26302236740E+02 -0.55709023722E+00  0.43400728983E+02  0.00000000000E+00 0.  1.
         11    1    3    3    0    0  0.10408322749E+02 -0.25520891341E+01 -0.78949203087E+00  0.10745680030E+02  0.51100000000E-03 0. -1.
        -11    1    3    3    0    0  0.52577099694E+01 -0.42506325419E+01 -0.58937179562E+01  0.89692420380E+01  0.51100000000E-03 0.  1.
         12    1    3    3    0    0  0.18852154796E+02 -0.19499515064E+02  0.72403002242E+01  0.28072348949E+02  0.00000000000E+00 0. -1.
</event>
<event>
 7    1  0.4630495E-010  0.4778726E+02  0.7816164E-02  0.1312668E+00
        -11   -1    0    0    0    0  0.00000000000E+00  0.00000000000E+00  0.45593999997E+02  0.45594000000E+02  0.51100000000E-03 0. -1.
         11   -1    0    0    0    0 -0.00000000000E+00 -0.00000000000E+00 -0.45593999997E+02  0.45594000000E+02  0.51100000000E-03 0.  1.
    9900012    2    1    2    0    0  0.41638671950E+02 -0.10094737410E+02 -0.69239602071E+01  0.47787263255E+02  0.19999964483E+02 0.  0.
        -12    1    1    2    0    0 -0.41638671950E+02  0.10094737410E+02  0.69239602071E+01  0.43400736745E+02  0.00000000000E+00 0.  1.
         11    1    3    3    0    0  0.26842996742E+02 -0.65219849917E+01  0.19455950427E+01  0.27692383477E+02  0.51100000000E-03 0. -1.
        -11    1    3    3    0    0  0.47426497511E+01 -0.57587483104E+01 -0.19982535962E+01  0.77232717459E+01  0.51100000000E-03 0.  1.
        -12    1    3    3    0    0  0.10053025457E+02  0.21859958921E+01 -0.68713016536E+01  0.12371608032E+02  0.00000000000E+00 0.  1.
</event>
<event>
 7    1  0.4630495E-010  0.4778727E+02  0.7816164E-02  0.1312668E+00
        -11   -1    0    0    0    0  0.00000000000E+00  0.00000000000E+00  0.45593999997E+02  0.45594000000E+02  0.51100000000E-03 0.  1.
         11   -1    0    0    0    0 -0.00000000000E+00 -0.00000000000E+00 -0.45593999997E+02  0.45594000000E+02  0.51100000000E-03 0. -1.
    9900012    2    1    2    0    0 -0.38558869441E+02 -0.12615830029E+02 -0.15416792990E+02  0.47787273209E+02  0.20000009870E+02 0.  0.
        -12    1    1    2    0    0  0.38558869441E+02  0.12615830029E+02  0.15416792990E+02  0.43400726791E+02  0.00000000000E+00 0.  1.
         11    1    3    3    0    0 -0.30548891752E+02 -0.15542398946E+02 -0.16582473058E+02  0.38075968343E+02  0.51100000000E-03 0. -1.
        -11    1    3    3    0    0 -0.32331669025E+01 -0.85111893609E+00  0.13813071692E+01  0.36174274588E+01  0.51100000000E-03 0.  1.
        -12    1    3    3    0    0 -0.47768107862E+01  0.37776878536E+01 -0.21562710128E+00  0.60938774071E+01  0.00000000000E+00 0.  1.
</event>
<event>
 7    1  0.4630495E-010  0.4778727E+02  0.7816164E-02  0.1312668E+00
        -11   -1    0    0    0    0  0.00000000000E+00  0.00000000000E+00  0.45593999997E+02  0.45594000000E+02  0.51100000000E-03 0.  1.
         11   -1    0    0    0    0 -0.00000000000E+00 -0.00000000000E+00 -0.45593999997E+02  0.45594000000E+02  0.51100000000E-03 0. -1.
    9900012    2    1    2    0    0 -0.15294131743E+02 -0.31756795357E+02 -0.25322291171E+02  0.47787274807E+02  0.20000017156E+02 0.  0.
        -12    1    1    2    0    0  0.15294131743E+02  0.31756795357E+02  0.25322291171E+02  0.43400725193E+02  0.00000000000E+00 0.  1.
         11    1    3    3    0    0 -0.84276647974E+01 -0.16758822873E+02 -0.90347953666E+01  0.20820931910E+02  0.51100000000E-03 0. -1.
        -11    1    3    3    0    0 -0.15415582377E+01 -0.52073163507E+01  0.17997062381E+01  0.57211439574E+01  0.51100000000E-03 0.  1.
        -12    1    3    3    0    0 -0.53249087083E+01 -0.97906561335E+01 -0.18087202043E+02  0.21245198940E+02  0.00000000000E+00 0.  1.
</event>
<event>
 7    1  0.4630495E-010  0.4778727E+02  0.7816164E-02  0.1312668E+00
        -11   -1    0    0    0    0  0.00000000000E+00  0.00000000000E+00  0.45593999997E+02  0.45594000000E+02  0.51100000000E-03 0.  1.
         11   -1    0    0    0    0 -0.00000000000E+00 -0.00000000000E+00 -0.45593999997E+02  0.45594000000E+02  0.51100000000E-03 0. -1.
    9900012    2    1    2    0    0  0.87577104929E+01 -0.20381290098E+02 -0.37303200016E+02  0.47787271774E+02  0.20000003325E+02 0.  0.
        -12    1    1    2    0    0 -0.87577104929E+01  0.20381290098E+02  0.37303200016E+02  0.43400728226E+02  0.00000000000E+00 0.  1.
         11    1    3    3    0    0  0.47418446091E+01 -0.16466937629E+02 -0.19040247008E+02  0.25615935110E+02  0.51100000000E-03 0. -1.
        -11    1    3    3    0    0  0.73277341276E+01 -0.45097168867E+01 -0.15835770568E+02  0.18022343454E+02  0.51100000000E-03 0.  1.
         12    1    3    3    0    0 -0.33118682438E+01  0.59536441772E+00 -0.24271824401E+01  0.41489932094E+01  0.00000000000E+00 0. -1.
</event>
<event>
 7    1  0.4630495E-010  0.4778727E+02  0.7816164E-02  0.1312668E+00
        -11   -1    0    0    0    0  0.00000000000E+00  0.00000000000E+00  0.45593999997E+02  0.45594000000E+02  0.51100000000E-03 0.  1.
         11   -1    0    0    0    0 -0.00000000000E+00 -0.00000000000E+00 -0.45593999997E+02  0.45594000000E+02  0.51100000000E-03 0. -1.
    9900012    2    1    2    0    0 -0.29051138024E+02 -0.30129333553E+02 -0.11483810217E+02  0.47787271228E+02  0.20000000835E+02 0.  0.
        -12    1    1    2    0    0  0.29051138024E+02  0.30129333553E+02  0.11483810217E+02  0.43400728772E+02  0.00000000000E+00 0.  1.
         11    1    3    3    0    0 -0.14903320286E+02 -0.92922000963E+01 -0.96381271879E+00  0.17589282913E+02  0.51100000000E-03 0. -1.
        -11    1    3    3    0    0 -0.44751226726E+01 -0.25891688501E+01  0.25417476654E+01  0.57611630532E+01  0.51100000000E-03 0.  1.
         12    1    3    3    0    0 -0.96726950657E+01 -0.18247964607E+02 -0.13061745164E+02  0.24436825262E+02  0.00000000000E+00 0. -1.
</event>
<event>
 7    1  0.4630495E-010  0.4778727E+02  0.7816164E-02  0.1312668E+00
        -11   -1    0    0    0    0  0.00000000000E+00  0.00000000000E+00  0.45593999997E+02  0.45594000000E+02  0.51100000000E-03 0. -1.
         11   -1    0    0    0    0 -0.00000000000E+00 -0.00000000000E+00 -0.45593999997E+02  0.45594000000E+02  0.51100000000E-03 0.  1.
    9900012    2    1    2    0    0  0.33078479348E+02  0.18323183651E+02  0.21300204874E+02  0.47787267486E+02  0.19999983775E+02 0.  0.
        -12    1    1    2    0    0 -0.33078479348E+02 -0.18323183651E+02 -0.21300204874E+02  0.43400732514E+02  0.00000000000E+00 0.  1.
         11    1    3    3    0    0  0.47055473592E+01  0.12320657805E+01 -0.18608196289E+01  0.52079566040E+01  0.51100000000E-03 0. -1.
        -11    1    3    3    0    0  0.23272441299E+02  0.10228615237E+02  0.10966042612E+02  0.27685468833E+02  0.51100000000E-03 0.  1.
         12    1    3    3    0    0  0.51004906906E+01  0.68625026331E+01  0.12194981890E+02  0.14893842049E+02  0.00000000000E+00 0. -1.
</event>
<event>
 7    1  0.4630495E-010  0.4778727E+02  0.7816164E-02  0.1312668E+00
        -11   -1    0    0    0    0  0.00000000000E+00  0.00000000000E+00  0.45593999997E+02  0.45594000000E+02  0.51100000000E-03 0.  1.
         11   -1    0    0    0    0 -0.00000000000E+00 -0.00000000000E+00 -0.45593999997E+02  0.45594000000E+02  0.51100000000E-03 0. -1.
    9900012    2    1    2    0    0 -0.16367016457E+02  0.23722803249E+02 -0.32449537439E+02  0.47787273028E+02  0.20000009043E+02 0.  0.
        -12    1    1    2    0    0  0.16367016457E+02 -0.23722803249E+02  0.32449537439E+02  0.43400726972E+02  0.00000000000E+00 0.  1.
         11    1    3    3    0    0 -0.11891080643E+02  0.18654816319E+02 -0.22173917448E+02  0.31322237883E+02  0.51100000000E-03 0. -1.
        -11    1    3    3    0    0 -0.30058559543E+01  0.84751508555E+01 -0.84075269562E+01  0.12310558956E+02  0.51100000000E-03 0.  1.
        -12    1    3    3    0    0 -0.14700798596E+01 -0.34071639257E+01 -0.18680930351E+01  0.41544761881E+01  0.00000000000E+00 0.  1.
</event>
<event>
 7    1  0.4630495E-010  0.4778727E+02  0.7816164E-02  0.1312668E+00
        -11   -1    0    0    0    0  0.00000000000E+00  0.00000000000E+00  0.45593999997E+02  0.45594000000E+02  0.51100000000E-03 0.  1.
         11   -1    0    0    0    0 -0.00000000000E+00 -0.00000000000E+00 -0.45593999997E+02  0.45594000000E+02  0.51100000000E-03 0. -1.
    9900012    2    1    2    0    0  0.57278902978E+00 -0.46644429708E+01 -0.43145547996E+02  0.47787269276E+02  0.19999991935E+02 0.  0.
        -12    1    1    2    0    0 -0.57278902978E+00  0.46644429708E+01  0.43145547996E+02  0.43400730724E+02  0.00000000000E+00 0.  1.
         11    1    3    3    0    0 -0.49470946612E+01  0.70909753587E-01 -0.15597045710E+02  0.16362964551E+02  0.51100000000E-03 0. -1.
        -11    1    3    3    0    0 -0.24527014255E+01 -0.44637233058E+01 -0.37510864358E+01  0.63254422567E+01  0.51100000000E-03 0.  1.
        -12    1    3    3    0    0  0.79725851165E+01 -0.27162941862E+00 -0.23797415851E+02  0.25098862468E+02  0.00000000000E+00 0.  1.
</event>
<event>
 7    1  0.4630495E-010  0.4778727E+02  0.7816164E-02  0.1312668E+00
        -11   -1    0    0    0    0  0.00000000000E+00  0.00000000000E+00  0.45593999997E+02  0.45594000000E+02  0.51100000000E-03 0. -1.
         11   -1    0    0    0    0 -0.00000000000E+00 -0.00000000000E+00 -0.45593999997E+02  0.45594000000E+02  0.51100000000E-03 0.  1.
    9900012    2    1    2    0    0 -0.25398067005E+02 -0.34912418697E+02 -0.44367352194E+01  0.47787269520E+02  0.19999993048E+02 0.  0.
        -12    1    1    2    0    0  0.25398067005E+02  0.34912418697E+02  0.44367352194E+01  0.43400730480E+02  0.00000000000E+00 0.  1.
         11    1    3    3    0    0 -0.10928009055E+02 -0.63936280392E+01  0.51454139954E+01  0.13666570413E+02  0.51100000000E-03 0.  1.
        -11    1    3    3    0    0 -0.71095587148E+01 -0.12556309564E+02 -0.75018703688E+00  0.14448858634E+02  0.51100000000E-03 0. -1.
        -12    1    3    3    0    0 -0.73604992346E+01 -0.15962481094E+02 -0.88319621779E+01  0.19671840472E+02  0.00000000000E+00 0.  1.
</event>
<event>
 7    1  0.4630495E-010  0.4778731E+02  0.7816164E-02  0.1312668E+00
        -11   -1    0    0    0    0  0.00000000000E+00  0.00000000000E+00  0.45593999997E+02  0.45594000000E+02  0.51100000000E-03 0.  1.
         11   -1    0    0    0    0 -0.00000000000E+00 -0.00000000000E+00 -0.45593999997E+02  0.45594000000E+02  0.51100000000E-03 0. -1.
    9900012    2    1    2    0    0 -0.37452473320E+02 -0.20232442245E+02  0.84605455802E+01  0.47787305208E+02  0.20000155762E+02 0.  0.
        -12    1    1    2    0    0  0.37452473320E+02  0.20232442245E+02 -0.84605455802E+01  0.43400694792E+02  0.00000000000E+00 0.  1.
         11    1    3    3    0    0 -0.26573103771E+01  0.10897058542E+01 -0.19426321375E+01  0.34673588179E+01  0.51100000000E-03 0. -1.
        -11    1    3    3    0    0 -0.57727982340E-01 -0.25903581549E+01 -0.16289359934E+01  0.30605098631E+01  0.51100000000E-03 0.  1.
         12    1    3    3    0    0 -0.34737434960E+02 -0.18731789945E+02  0.12032113711E+02  0.41259436527E+02  0.00000000000E+00 0. -1.
</event>
<event>
 7    1  0.4630495E-010  0.4778727E+02  0.7816164E-02  0.1312668E+00
        -11   -1    0    0    0    0  0.00000000000E+00  0.00000000000E+00  0.45593999997E+02  0.45594000000E+02  0.51100000000E-03 0.  1.
         11   -1    0    0    0    0 -0.00000000000E+00 -0.00000000000E+00 -0.45593999997E+02  0.45594000000E+02  0.51100000000E-03 0. -1.
    9900012    2    1    2    0    0  0.14542674600E+02 -0.37175066317E+02 -0.17033741189E+02  0.47787270984E+02  0.19999999725E+02 0.  0.
        -12    1    1    2    0    0 -0.14542674600E+02  0.37175066317E+02  0.17033741189E+02  0.43400729016E+02  0.00000000000E+00 0.  1.
         11    1    3    3    0    0  0.89391924718E+01 -0.65596260559E+01 -0.66762732684E+01  0.12942584018E+02  0.51100000000E-03 0. -1.
        -11    1    3    3    0    0  0.12036505446E+01 -0.31758985605E+00  0.15560715572E+01  0.19927360342E+01  0.51100000000E-03 0.  1.
         12    1    3    3    0    0  0.43998315840E+01 -0.30297850405E+02 -0.11913539478E+02  0.32851950932E+02  0.00000000000E+00 0. -1.
</event>
<event>
 7    1  0.4630495E-010  0.4778727E+02  0.7816164E-02  0.1312668E+00
        -11   -1    0    0    0    0  0.00000000000E+00  0.00000000000E+00  0.45593999997E+02  0.45594000000E+02  0.51100000000E-03 0.  1.
         11   -1    0    0    0    0 -0.00000000000E+00 -0.00000000000E+00 -0.45593999997E+02  0.45594000000E+02  0.51100000000E-03 0. -1.
    9900012    2    1    2    0    0 -0.74305555436E+01 -0.16366328127E+02 -0.39503837740E+02  0.47787273644E+02  0.20000011853E+02 0.  0.
        -12    1    1    2    0    0  0.74305555436E+01  0.16366328127E+02  0.39503837740E+02  0.43400726356E+02  0.00000000000E+00 0.  1.
         11    1    3    3    0    0 -0.45794317917E+01 -0.47705803011E+01 -0.12417242894E+02  0.14068317358E+02  0.51100000000E-03 0. -1.
        -11    1    3    3    0    0  0.28291126867E+01  0.18425492953E+01 -0.13027501350E+02  0.13457884611E+02  0.51100000000E-03 0.  1.
        -12    1    3    3    0    0 -0.56802364386E+01 -0.13438297121E+02 -0.14059093495E+02  0.20261071675E+02  0.00000000000E+00 0.  1.
</event>
<event>
 7    1  0.4630495E-010  0.4778726E+02  0.7816164E-02  0.1312668E+00
        -11   -1    0    0    0    0  0.00000000000E+00  0.00000000000E+00  0.45593999997E+02  0.45594000000E+02  0.51100000000E-03 0.  1.
         11   -1    0    0    0    0 -0.00000000000E+00 -0.00000000000E+00 -0.45593999997E+02  0.45594000000E+02  0.51100000000E-03 0. -1.
    9900012    2    1    2    0    0 -0.23297140696E+02 -0.36608076707E+02  0.84645553978E+00  0.47787256553E+02  0.19999933928E+02 0.  0.
        -12    1    1    2    0    0  0.23297140696E+02  0.36608076707E+02 -0.84645553978E+00  0.43400743447E+02  0.00000000000E+00 0.  1.
         11    1    3    3    0    0 -0.54179627612E+01 -0.41385102168E+01  0.31711110033E+01  0.75191444030E+01  0.51100000000E-03 0. -1.
        -11    1    3    3    0    0 -0.18244491233E+02 -0.23517583490E+02  0.28848895217E+01  0.29904193374E+02  0.51100000000E-03 0.  1.
        -12    1    3    3    0    0  0.36531329836E+00 -0.89519830001E+01 -0.52095449853E+01  0.10363918776E+02  0.00000000000E+00 0.  1.
</event>
<event>
 7    1  0.4630495E-010  0.4778726E+02  0.7816164E-02  0.1312668E+00
        -11   -1    0    0    0    0  0.00000000000E+00  0.00000000000E+00  0.45593999997E+02  0.45594000000E+02  0.51100000000E-03 0.  1.
         11   -1    0    0    0    0 -0.00000000000E+00 -0.00000000000E+00 -0.45593999997E+02  0.45594000000E+02  0.51100000000E-03 0. -1.
    9900012    2    1    2    0    0  0.22382669822E+02  0.12615128809E+02 -0.34978542696E+02  0.47787264611E+02  0.19999970665E+02 0.  0.
        -12    1    1    2    0    0 -0.22382669822E+02 -0.12615128809E+02  0.34978542696E+02  0.43400735389E+02  0.00000000000E+00 0.  1.
         11    1    3    3    0    0  0.16696305809E+02  0.46596581537E+00 -0.22853371734E+02  0.28306542560E+02  0.51100000000E-03 0. -1.
        -11    1    3    3    0    0  0.46400715549E+01  0.33983357500E+01 -0.77229192910E+01  0.96292488046E+01  0.51100000000E-03 0.  1.
        -12    1    3    3    0    0  0.10462924577E+01  0.87508272431E+01 -0.44022516712E+01  0.98514732463E+01  0.00000000000E+00 0.  1.
</event>
<event>
 7    1  0.4630495E-010  0.4778726E+02  0.7816164E-02  0.1312668E+00
        -11   -1    0    0    0    0  0.00000000000E+00  0.00000000000E+00  0.45593999997E+02  0.45594000000E+02  0.51100000000E-03 0.  1.
         11   -1    0    0    0    0 -0.00000000000E+00 -0.00000000000E+00 -0.45593999997E+02  0.45594000000E+02  0.51100000000E-03 0. -1.
    9900012    2    1    2    0    0 -0.35217871879E+01  0.22302607534E+02 -0.37065007537E+02  0.47787261855E+02  0.19999958101E+02 0.  0.
        -12    1    1    2    0    0  0.35217871879E+01 -0.22302607534E+02  0.37065007537E+02  0.43400738145E+02  0.00000000000E+00 0.  1.
         11    1    3    3    0    0 -0.38926798608E+01  0.17693656174E+02 -0.20946510392E+02  0.27694308498E+02  0.51100000000E-03 0. -1.
        -11    1    3    3    0    0 -0.70946513815E+00  0.61366148820E+01 -0.16953579027E+02  0.18043980301E+02  0.51100000000E-03 0.  1.
         12    1    3    3    0    0  0.10803578110E+01 -0.15276635219E+01  0.83508188236E+00  0.20489730565E+01  0.00000000000E+00 0. -1.
</event>
<event>
 7    1  0.4630495E-010  0.4778727E+02  0.7816164E-02  0.1312668E+00
        -11   -1    0    0    0    0  0.00000000000E+00  0.00000000000E+00  0.45593999997E+02  0.45594000000E+02  0.51100000000E-03 0. -1.
         11   -1    0    0    0    0 -0.00000000000E+00 -0.00000000000E+00 -0.45593999997E+02  0.45594000000E+02  0.51100000000E-03 0.  1.
    9900012    2    1    2    0    0  0.52767414397E+01 -0.26772698287E+02  0.33749100967E+02  0.47787272013E+02  0.20000004414E+02 0.  0.
        -12    1    1    2    0    0 -0.52767414397E+01  0.26772698287E+02 -0.33749100967E+02  0.43400727987E+02  0.00000000000E+00 0.  1.
         11    1    3    3    0    0  0.42071382240E+01 -0.14994226079E+02  0.15270988128E+02  0.21811233491E+02  0.51100000000E-03 0. -1.
        -11    1    3    3    0    0  0.61683422543E+01 -0.54523160303E+01  0.35199056737E+01  0.89535430124E+01  0.51100000000E-03 0.  1.
        -12    1    3    3    0    0 -0.50987390386E+01 -0.63261561777E+01  0.14958207165E+02  0.17022495509E+02  0.00000000000E+00 0.  1.
</event>
<event>
 7    1  0.4630495E-010  0.4778727E+02  0.7816164E-02  0.1312668E+00
        -11   -1    0    0    0    0  0.00000000000E+00  0.00000000000E+00  0.45593999997E+02  0.45594000000E+02  0.51100000000E-03 0. -1.
         11   -1    0    0    0    0 -0.00000000000E+00 -0.00000000000E+00 -0.45593999997E+02  0.45594000000E+02  0.51100000000E-03 0.  1.
    9900012    2    1    2    0    0  0.11341617519E+02 -0.18507553537E+02  0.37582729203E+02  0.47787270050E+02  0.19999995466E+02 0.  0.
        -12    1    1    2    0    0 -0.11341617519E+02  0.18507553537E+02 -0.37582729203E+02  0.43400729950E+02  0.00000000000E+00 0.  1.
         11    1    3    3    0    0  0.50960464818E+01 -0.59840181656E+01  0.21651597782E+02  0.23034101891E+02  0.51100000000E-03 0. -1.
        -11    1    3    3    0    0  0.19990523192E+01 -0.13165536083E+02  0.15503177675E+02  0.20437124769E+02  0.51100000000E-03 0.  1.
        -12    1    3    3    0    0  0.42465187178E+01  0.64200071160E+00  0.42795374498E+00  0.43160433897E+01  0.00000000000E+00 0.  1.
</event>
<event>
 7    1  0.4630495E-010  0.4778727E+02  0.7816164E-02  0.1312668E+00
        -11   -1    0    0    0    0  0.00000000000E+00  0.00000000000E+00  0.45593999997E+02  0.45594000000E+02  0.51100000000E-03 0.  1.
         11   -1    0    0    0    0 -0.00000000000E+00 -0.00000000000E+00 -0.45593999997E+02  0.45594000000E+02  0.51100000000E-03 0. -1.
    9900012    2    1    2    0    0  0.32118975053E+02  0.27550567855E+02 -0.96416248606E+01  0.47787271003E+02  0.19999999809E+02 0.  0.
        -12    1    1    2    0    0 -0.32118975053E+02 -0.27550567855E+02  0.96416248606E+01  0.43400728997E+02  0.00000000000E+00 0.  1.
         11    1    3    3    0    0  0.22574399645E+01  0.24821005062E+01 -0.42846396167E+01  0.54419660990E+01  0.51100000000E-03 0. -1.
        -11    1    3    3    0    0  0.19007401855E+02  0.69302390492E+01  0.10476335130E+01  0.20258506233E+02  0.51100000000E-03 0.  1.
         12    1    3    3    0    0  0.10854133233E+02  0.18138228300E+02 -0.64046187569E+01  0.22086798670E+02  0.00000000000E+00 0. -1.
</event>
<event>
 7    1  0.4630495E-010  0.4778726E+02  0.7816164E-02  0.1312668E+00
        -11   -1    0    0    0    0  0.00000000000E+00  0.00000000000E+00  0.45593999997E+02  0.45594000000E+02  0.51100000000E-03 0.  1.
         11   -1    0    0    0    0 -0.00000000000E+00 -0.00000000000E+00 -0.45593999997E+02  0.45594000000E+02  0.51100000000E-03 0. -1.
    9900012    2    1    2    0    0  0.24567010361E+02 -0.29929967046E+02 -0.19603135071E+02  0.47787264637E+02  0.19999970787E+02 0.  0.
        -12    1    1    2    0    0 -0.24567010361E+02  0.29929967046E+02  0.19603135071E+02  0.43400735363E+02  0.00000000000E+00 0.  1.
         11    1    3    3    0    0  0.76504147329E+01 -0.18149998436E+02 -0.25551383445E+01  0.19861521116E+02  0.51100000000E-03 0. -1.
        -11    1    3    3    0    0  0.11730924813E+02 -0.10128457796E+02 -0.81895920290E+01  0.17529109280E+02  0.51100000000E-03 0.  1.
        -12    1    3    3    0    0  0.51856708154E+01 -0.16515108139E+01 -0.88584046970E+01  0.10396634241E+02  0.00000000000E+00 0.  1.
</event>
<event>
 7    1  0.4630495E-010  0.4778728E+02  0.7816164E-02  0.1312668E+00
        -11   -1    0    0    0    0  0.00000000000E+00  0.00000000000E+00  0.45593999997E+02  0.45594000000E+02  0.51100000000E-03 0. -1.
         11   -1    0    0    0    0 -0.00000000000E+00 -0.00000000000E+00 -0.45593999997E+02  0.45594000000E+02  0.51100000000E-03 0.  1.
    9900012    2    1    2    0    0  0.39757552945E+01 -0.33320310021E+02  0.27524046564E+02  0.47787276166E+02  0.20000023350E+02 0.  0.
        -12    1    1    2    0    0 -0.39757552945E+01  0.33320310021E+02 -0.27524046564E+02  0.43400723834E+02  0.00000000000E+00 0.  1.
         11    1    3    3    0    0  0.65136971083E+00 -0.20461462606E+01 -0.17991575205E+01  0.28014219719E+01  0.51100000000E-03 0. -1.
        -11    1    3    3    0    0  0.68476433613E+01 -0.82103555648E+01  0.77013398652E+01  0.13176144887E+02  0.51100000000E-03 0.  1.
         12    1    3    3    0    0 -0.35232577776E+01 -0.23063808196E+02  0.21621864220E+02  0.31809709307E+02  0.00000000000E+00 0. -1.
</event>
<event>
 7    1  0.4630495E-010  0.4778727E+02  0.7816164E-02  0.1312668E+00
        -11   -1    0    0    0    0  0.00000000000E+00  0.00000000000E+00  0.45593999997E+02  0.45594000000E+02  0.51100000000E-03 0. -1.
         11   -1    0    0    0    0 -0.00000000000E+00 -0.00000000000E+00 -0.45593999997E+02  0.45594000000E+02  0.51100000000E-03 0.  1.
    9900012    2    1    2    0    0 -0.19868080057E+02 -0.20050962945E+02  0.32967281220E+02  0.47787270154E+02  0.19999995939E+02 0.  0.
        -12    1    1    2    0    0  0.19868080057E+02  0.20050962945E+02 -0.32967281220E+02  0.43400729846E+02  0.00000000000E+00 0.  1.
         11    1    3    3    0    0 -0.98554542978E+00  0.12248303445E+01  0.38873897283E+01  0.41932455602E+01  0.51100000000E-03 0. -1.
        -11    1    3    3    0    0 -0.10431342725E+02 -0.10851344773E+02  0.47070579232E+01  0.15770890557E+02  0.51100000000E-03 0.  1.
         12    1    3    3    0    0 -0.84511919024E+01 -0.10424448516E+02  0.24372833568E+02  0.27823134036E+02  0.00000000000E+00 0. -1.
</event>
<event>
 7    1  0.4630495E-010  0.4778726E+02  0.7816164E-02  0.1312668E+00
        -11   -1    0    0    0    0  0.00000000000E+00  0.00000000000E+00  0.45593999997E+02  0.45594000000E+02  0.51100000000E-03 0. -1.
         11   -1    0    0    0    0 -0.00000000000E+00 -0.00000000000E+00 -0.45593999997E+02  0.45594000000E+02  0.51100000000E-03 0.  1.
    9900012    2    1    2    0    0  0.26524107501E+02 -0.20880801269E+01  0.34289000441E+02  0.47787263732E+02  0.19999966660E+02 0.  0.
        -12    1    1    2    0    0 -0.26524107501E+02  0.20880801269E+01 -0.34289000441E+02  0.43400736268E+02  0.00000000000E+00 0.  1.
         11    1    3    3    0    0  0.58910967192E+01 -0.41344948979E+01  0.53105357237E+01  0.89443199042E+01  0.51100000000E-03 0. -1.
        -11    1    3    3    0    0 -0.82110502516E+00 -0.35408863924E+01  0.32018318042E+01  0.48439464355E+01  0.51100000000E-03 0.  1.
         12    1    3    3    0    0  0.21454115807E+02  0.55873011634E+01  0.25776632913E+02  0.33998997392E+02  0.00000000000E+00 0. -1.
</event>
<event>
 7    1  0.4630495E-010  0.4778730E+02  0.7816164E-02  0.1312668E+00
        -11   -1    0    0    0    0  0.00000000000E+00  0.00000000000E+00  0.45593999997E+02  0.45594000000E+02  0.51100000000E-03 0. -1.
         11   -1    0    0    0    0 -0.00000000000E+00 -0.00000000000E+00 -0.45593999997E+02  0.45594000000E+02  0.51100000000E-03 0.  1.
    9900012    2    1    2    0    0 -0.22247955743E+02 -0.23960128223E+02  0.28540529265E+02  0.47787296205E+02  0.20000114716E+02 0.  0.
        -12    1    1    2    0    0  0.22247955743E+02  0.23960128223E+02 -0.28540529265E+02  0.43400703795E+02  0.00000000000E+00 0.  1.
         11    1    3    3    0    0 -0.22464367981E+01 -0.90918277132E+01  0.51005934244E+01  0.10664139112E+02  0.51100000000E-03 0. -1.
        -11    1    3    3    0    0 -0.12444636922E+02 -0.10442819022E+02  0.54853961131E+01  0.17146749780E+02  0.51100000000E-03 0.  1.
         12    1    3    3    0    0 -0.75568820235E+01 -0.44254814877E+01  0.17954539727E+02  0.19976407313E+02  0.00000000000E+00 0. -1.
</event>
<event>
 7    1  0.4630495E-010  0.4778727E+02  0.7816164E-02  0.1312668E+00
        -11   -1    0    0    0    0  0.00000000000E+00  0.00000000000E+00  0.45593999997E+02  0.45594000000E+02  0.51100000000E-03 0. -1.
         11   -1    0    0    0    0 -0.00000000000E+00 -0.00000000000E+00 -0.45593999997E+02  0.45594000000E+02  0.51100000000E-03 0.  1.
    9900012    2    1    2    0    0  0.41050621038E+02  0.47430562421E+01  0.13265481758E+02  0.47787273319E+02  0.20000010370E+02 0.  0.
        -12    1    1    2    0    0 -0.41050621038E+02 -0.47430562421E+01 -0.13265481758E+02  0.43400726681E+02  0.00000000000E+00 0.  1.
         11    1    3    3    0    0  0.54333979457E+01 -0.74924073831E+00  0.31718175593E+01  0.63358978693E+01  0.51100000000E-03 0. -1.
        -11    1    3    3    0    0  0.92907356799E+01  0.72890716341E+01  0.93346880718E+01  0.15052731859E+02  0.51100000000E-03 0.  1.
         12    1    3    3    0    0  0.26326487413E+02 -0.17967746537E+01  0.75897612741E+00  0.26398643591E+02  0.00000000000E+00 0. -1.
</event>
<event>
 7    1  0.4630495E-010  0.4778727E+02  0.7816164E-02  0.1312668E+00
        -11   -1    0    0    0    0  0.00000000000E+00  0.00000000000E+00  0.45593999997E+02  0.45594000000E+02  0.51100000000E-03 0. -1.
         11   -1    0    0    0    0 -0.00000000000E+00 -0.00000000000E+00 -0.45593999997E+02  0.45594000000E+02  0.51100000000E-03 0.  1.
    9900012    2    1    2    0    0 -0.30965997475E+01  0.30392370562E+02  0.30827557273E+02  0.47787269524E+02  0.19999993069E+02 0.  0.
        -12    1    1    2    0    0  0.30965997475E+01 -0.30392370562E+02 -0.30827557273E+02  0.43400730476E+02  0.00000000000E+00 0.  1.
         11    1    3    3    0    0  0.25297326694E+01  0.63821223802E+01  0.14784743134E+02  0.16300909890E+02  0.51100000000E-03 0.  1.
        -11    1    3    3    0    0  0.24543896688E+01  0.92359638246E+01  0.93366916447E+01  0.13360421683E+02  0.51100000000E-03 0. -1.
         12    1    3    3    0    0 -0.80807220856E+01  0.14774284357E+02  0.67061224950E+01  0.18125937951E+02  0.00000000000E+00 0. -1.
</event>
<event>
 7    1  0.4630495E-010  0.4778728E+02  0.7816164E-02  0.1312668E+00
        -11   -1    0    0    0    0  0.00000000000E+00  0.00000000000E+00  0.45593999997E+02  0.45594000000E+02  0.51100000000E-03 0.  1.
         11   -1    0    0    0    0 -0.00000000000E+00 -0.00000000000E+00 -0.45593999997E+02  0.45594000000E+02  0.51100000000E-03 0. -1.
    9900012    2    1    2    0    0 -0.43112928212E+02 -0.78579923375E+00 -0.49275362221E+01  0.47787277971E+02  0.20000031581E+02 0.  0.
        -12    1    1    2    0    0  0.43112928212E+02  0.78579923375E+00  0.49275362221E+01  0.43400722029E+02  0.00000000000E+00 0.  1.
         11    1    3    3    0    0 -0.15522296085E+02  0.68942121201E+00  0.13046221166E+01  0.15592274256E+02  0.51100000000E-03 0. -1.
        -11    1    3    3    0    0 -0.19603505486E+02  0.28911530204E+01 -0.10174768661E+02  0.22275145581E+02  0.51100000000E-03 0.  1.
        -12    1    3    3    0    0 -0.79871266410E+01 -0.43663734662E+01  0.39426103223E+01  0.99198581330E+01  0.00000000000E+00 0.  1.
</event>
<event>
 7    1  0.4630495E-010  0.4778727E+02  0.7816164E-02  0.1312668E+00
        -11   -1    0    0    0    0  0.00000000000E+00  0.00000000000E+00  0.45593999997E+02  0.45594000000E+02  0.51100000000E-03 0.  1.
         11   -1    0    0    0    0 -0.00000000000E+00 -0.00000000000E+00 -0.45593999997E+02  0.45594000000E+02  0.51100000000E-03 0. -1.
    9900012    2    1    2    0    0 -0.15360133215E+02 -0.24519212786E+02 -0.32349625341E+02  0.47787265586E+02  0.19999975112E+02 0.  0.
        -12    1    1    2    0    0  0.15360133215E+02  0.24519212786E+02  0.32349625341E+02  0.43400734414E+02  0.00000000000E+00 0.  1.
         11    1    3    3    0    0 -0.52674384397E+01 -0.47072141660E+01  0.10648908375E+01  0.71440720655E+01  0.51100000000E-03 0.  1.
        -11    1    3    3    0    0 -0.26254278185E+01 -0.21080067305E+01 -0.23124235121E+01  0.40845888859E+01  0.51100000000E-03 0. -1.
        -12    1    3    3    0    0 -0.74672669568E+01 -0.17703991889E+02 -0.31102092666E+02  0.36558604634E+02  0.00000000000E+00 0.  1.
</event>
<event>
 7    1  0.4630495E-010  0.4778729E+02  0.7816164E-02  0.1312668E+00
        -11   -1    0    0    0    0  0.00000000000E+00  0.00000000000E+00  0.45593999997E+02  0.45594000000E+02  0.51100000000E-03 0.  1.
         11   -1    0    0    0    0 -0.00000000000E+00 -0.00000000000E+00 -0.45593999997E+02  0.45594000000E+02  0.51100000000E-03 0. -1.
    9900012    2    1    2    0    0  0.16824132116E+02 -0.35218190919E+02 -0.18980242209E+02  0.47787285866E+02  0.20000067575E+02 0.  0.
        -12    1    1    2    0    0 -0.16824132116E+02  0.35218190919E+02  0.18980242209E+02  0.43400714134E+02  0.00000000000E+00 0.  1.
         11    1    3    3    0    0  0.52609924578E+01 -0.12533331520E+02 -0.11673961518E+02  0.17917695678E+02  0.51100000000E-03 0. -1.
        -11    1    3    3    0    0 -0.30970534649E+01 -0.24732760801E+01 -0.53680942244E+00  0.39996249012E+01  0.51100000000E-03 0.  1.
         12    1    3    3    0    0  0.14660193123E+02 -0.20211583319E+02 -0.67694712690E+01  0.25869965287E+02  0.00000000000E+00 0. -1.
</event>
<event>
 7    1  0.4630495E-010  0.4778727E+02  0.7816164E-02  0.1312668E+00
        -11   -1    0    0    0    0  0.00000000000E+00  0.00000000000E+00  0.45593999997E+02  0.45594000000E+02  0.51100000000E-03 0. -1.
         11   -1    0    0    0    0 -0.00000000000E+00 -0.00000000000E+00 -0.45593999997E+02  0.45594000000E+02  0.51100000000E-03 0.  1.
    9900012    2    1    2    0    0  0.37280999228E+02  0.17173853968E+02  0.14099965841E+02  0.47787271893E+02  0.20000003868E+02 0.  0.
        -12    1    1    2    0    0 -0.37280999228E+02 -0.17173853968E+02 -0.14099965841E+02  0.43400728107E+02  0.00000000000E+00 0.  1.
         11    1    3    3    0    0  0.26550177748E+02  0.78760190700E+01  0.14760678128E+02  0.31381861543E+02  0.51100000000E-03 0. -1.
        -11    1    3    3    0    0  0.45790474765E+01  0.43705823118E+01  0.37659893990E+01  0.73656189116E+01  0.51100000000E-03 0.  1.
        -12    1    3    3    0    0  0.61517740031E+01  0.49272525858E+01 -0.44267016861E+01  0.90397914382E+01  0.00000000000E+00 0.  1.
</event>
<event>
 7    1  0.4630495E-010  0.4778728E+02  0.7816164E-02  0.1312668E+00
        -11   -1    0    0    0    0  0.00000000000E+00  0.00000000000E+00  0.45593999997E+02  0.45594000000E+02  0.51100000000E-03 0.  1.
         11   -1    0    0    0    0 -0.00000000000E+00 -0.00000000000E+00 -0.45593999997E+02  0.45594000000E+02  0.51100000000E-03 0. -1.
    9900012    2    1    2    0    0  0.22931187695E+02 -0.28313486260E+02  0.23582407651E+02  0.47787276228E+02  0.20000023636E+02 0.  0.
        -12    1    1    2    0    0 -0.22931187695E+02  0.28313486260E+02 -0.23582407651E+02  0.43400723772E+02  0.00000000000E+00 0.  1.
         11    1    3    3    0    0  0.26005649628E+01 -0.79379569606E+01  0.62095839791E+01  0.10408315536E+02  0.51100000000E-03 0. -1.
        -11    1    3    3    0    0  0.66773767851E+01 -0.14300366771E+02  0.15833677538E+02  0.22356055000E+02  0.51100000000E-03 0.  1.
        -12    1    3    3    0    0  0.13653245947E+02 -0.60751625275E+01  0.15391461341E+01  0.15022905693E+02  0.00000000000E+00 0.  1.
</event>
<event>
 7    1  0.4630495E-010  0.4778727E+02  0.7816164E-02  0.1312668E+00
        -11   -1    0    0    0    0  0.00000000000E+00  0.00000000000E+00  0.45593999997E+02  0.45594000000E+02  0.51100000000E-03 0.  1.
         11   -1    0    0    0    0 -0.00000000000E+00 -0.00000000000E+00 -0.45593999997E+02  0.45594000000E+02  0.51100000000E-03 0. -1.
    9900012    2    1    2    0    0 -0.15687128486E+02  0.29166191666E+02 -0.28051220038E+02  0.47787266342E+02  0.19999978558E+02 0.  0.
        -12    1    1    2    0    0  0.15687128486E+02 -0.29166191666E+02  0.28051220038E+02  0.43400733658E+02  0.00000000000E+00 0.  1.
         11    1    3    3    0    0 -0.10000285850E+02  0.75717783538E+01 -0.12053218484E+02  0.17395908157E+02  0.51100000000E-03 0. -1.
        -11    1    3    3    0    0 -0.19901633081E+01  0.97061357793E+01 -0.14899599253E+02  0.17893235591E+02  0.51100000000E-03 0.  1.
        -12    1    3    3    0    0 -0.36966793276E+01  0.11888277533E+02 -0.10984023021E+01  0.12498122594E+02  0.00000000000E+00 0.  1.
</event>
<event>
 7    1  0.4630495E-010  0.4778727E+02  0.7816164E-02  0.1312668E+00
        -11   -1    0    0    0    0  0.00000000000E+00  0.00000000000E+00  0.45593999997E+02  0.45594000000E+02  0.51100000000E-03 0.  1.
         11   -1    0    0    0    0 -0.00000000000E+00 -0.00000000000E+00 -0.45593999997E+02  0.45594000000E+02  0.51100000000E-03 0. -1.
    9900012    2    1    2    0    0 -0.11647302509E+02  0.11769138839E+02 -0.40117964820E+02  0.47787269753E+02  0.19999994110E+02 0.  0.
        -12    1    1    2    0    0  0.11647302509E+02 -0.11769138839E+02  0.40117964820E+02  0.43400730247E+02  0.00000000000E+00 0.  1.
         11    1    3    3    0    0 -0.57573824838E+01  0.85055313948E+01 -0.18402900736E+02  0.21075062826E+02  0.51100000000E-03 0. -1.
        -11    1    3    3    0    0 -0.25905177440E+00  0.64309900171E+01 -0.18312020048E+02  0.19410173078E+02  0.51100000000E-03 0.  1.
        -12    1    3    3    0    0 -0.56308682503E+01 -0.31673825725E+01 -0.34030440357E+01  0.73020338483E+01  0.00000000000E+00 0.  1.
</event>
<event>
 7    1  0.4630495E-010  0.4778730E+02  0.7816164E-02  0.1312668E+00
        -11   -1    0    0    0    0  0.00000000000E+00  0.00000000000E+00  0.45593999997E+02  0.45594000000E+02  0.51100000000E-03 0.  1.
         11   -1    0    0    0    0 -0.00000000000E+00 -0.00000000000E+00 -0.45593999997E+02  0.45594000000E+02  0.51100000000E-03 0. -1.
    9900012    2    1    2    0    0 -0.22542375242E+02 -0.27341911937E+02 -0.25057575973E+02  0.47787297891E+02  0.20000122404E+02 0.  0.
        -12    1    1    2    0    0  0.22542375242E+02  0.27341911937E+02  0.25057575973E+02  0.43400702109E+02  0.00000000000E+00 0.  1.
         11    1    3    3    0    0 -0.18702933599E+02 -0.20099563829E+02 -0.13403584142E+02  0.30552385495E+02  0.51100000000E-03 0. -1.
        -11    1    3    3    0    0 -0.38137902867E+01  0.13938061382E+01 -0.38181339000E+01  0.55736737114E+01  0.51100000000E-03 0.  1.
        -12    1    3    3    0    0 -0.25651356668E-01 -0.86361542454E+01 -0.78358579310E+01  0.11661238684E+02  0.00000000000E+00 0.  1.
</event>
<event>
 7    1  0.4630495E-010  0.4778727E+02  0.7816164E-02  0.1312668E+00
        -11   -1    0    0    0    0  0.00000000000E+00  0.00000000000E+00  0.45593999997E+02  0.45594000000E+02  0.51100000000E-03 0.  1.
         11   -1    0    0    0    0 -0.00000000000E+00 -0.00000000000E+00 -0.45593999997E+02  0.45594000000E+02  0.51100000000E-03 0. -1.
    9900012    2    1    2    0    0 -0.36162373772E+02 -0.69921722629E+01 -0.22956817305E+02  0.47787271774E+02  0.20000003327E+02 0.  0.
        -12    1    1    2    0    0  0.36162373772E+02  0.69921722629E+01  0.22956817305E+02  0.43400728226E+02  0.00000000000E+00 0.  1.
         11    1    3    3    0    0 -0.20855444830E+02 -0.47946031316E+01 -0.17733401477E+02  0.27792288975E+02  0.51100000000E-03 0. -1.
        -11    1    3    3    0    0 -0.95067840903E+01  0.14879017843E+01 -0.80682167998E+01  0.12557424818E+02  0.51100000000E-03 0.  1.
        -12    1    3    3    0    0 -0.58001448515E+01 -0.36854709155E+01  0.28448009715E+01  0.74375579819E+01  0.00000000000E+00 0.  1.
</event>
<event>
 7    1  0.4630495E-010  0.4778727E+02  0.7816164E-02  0.1312668E+00
        -11   -1    0    0    0    0  0.00000000000E+00  0.00000000000E+00  0.45593999997E+02  0.45594000000E+02  0.51100000000E-03 0. -1.
         11   -1    0    0    0    0 -0.00000000000E+00 -0.00000000000E+00 -0.45593999997E+02  0.45594000000E+02  0.51100000000E-03 0.  1.
    9900012    2    1    2    0    0 -0.30164775164E+02 -0.13300505266E+02  0.28227753505E+02  0.47787272253E+02  0.20000005511E+02 0.  0.
        -12    1    1    2    0    0  0.30164775164E+02  0.13300505266E+02 -0.28227753505E+02  0.43400727747E+02  0.00000000000E+00 0.  1.
         11    1    3    3    0    0 -0.85505550954E+01  0.15650010531E+01  0.78825269583E+01  0.11734370552E+02  0.51100000000E-03 0. -1.
        -11    1    3    3    0    0 -0.24133095041E+01 -0.40269880605E+01 -0.15848523529E+01  0.49550431727E+01  0.51100000000E-03 0.  1.
         12    1    3    3    0    0 -0.19200910565E+02 -0.10838518258E+02  0.21930078899E+02  0.31097858529E+02  0.00000000000E+00 0. -1.
</event>
<event>
 7    1  0.4630495E-010  0.4778727E+02  0.7816164E-02  0.1312668E+00
        -11   -1    0    0    0    0  0.00000000000E+00  0.00000000000E+00  0.45593999997E+02  0.45594000000E+02  0.51100000000E-03 0.  1.
         11   -1    0    0    0    0 -0.00000000000E+00 -0.00000000000E+00 -0.45593999997E+02  0.45594000000E+02  0.51100000000E-03 0. -1.
    9900012    2    1    2    0    0 -0.41013792738E+02  0.92134931970E+01 -0.10798316297E+02  0.47787270899E+02  0.19999999335E+02 0.  0.
        -12    1    1    2    0    0  0.41013792738E+02 -0.92134931970E+01  0.10798316297E+02  0.43400729101E+02  0.00000000000E+00 0.  1.
         11    1    3    3    0    0 -0.26719689282E+02  0.58141118906E+01 -0.67536605382E+01  0.28166604753E+02  0.51100000000E-03 0. -1.
        -11    1    3    3    0    0 -0.10473587491E+02  0.75233899728E+01 -0.51594595374E+01  0.13889472797E+02  0.51100000000E-03 0.  1.
        -12    1    3    3    0    0 -0.38205159657E+01 -0.41240086665E+01  0.11148037787E+01  0.57311933478E+01  0.00000000000E+00 0.  1.
</event>
<event>
 7    1  0.4630495E-010  0.4778727E+02  0.7816164E-02  0.1312668E+00
        -11   -1    0    0    0    0  0.00000000000E+00  0.00000000000E+00  0.45593999997E+02  0.45594000000E+02  0.51100000000E-03 0. -1.
         11   -1    0    0    0    0 -0.00000000000E+00 -0.00000000000E+00 -0.45593999997E+02  0.45594000000E+02  0.51100000000E-03 0.  1.
    9900012    2    1    2    0    0  0.10756452390E+02  0.13812648724E+02  0.39713132597E+02  0.47787269206E+02  0.19999991618E+02 0.  0.
        -12    1    1    2    0    0 -0.10756452390E+02 -0.13812648724E+02 -0.39713132597E+02  0.43400730794E+02  0.00000000000E+00 0.  1.
         11    1    3    3    0    0  0.87954189675E+01  0.23889671232E+01  0.76644696252E+01  0.11908427840E+02  0.51100000000E-03 0. -1.
        -11    1    3    3    0    0  0.16427765988E+01 -0.95868384248E+00  0.13123194133E+02  0.13260317272E+02  0.51100000000E-03 0.  1.
        -12    1    3    3    0    0  0.31825682414E+00  0.12382365443E+02  0.18925468839E+02  0.22618524093E+02  0.00000000000E+00 0.  1.
</event>
<event>
 7    1  0.4630495E-010  0.4778727E+02  0.7816164E-02  0.1312668E+00
        -11   -1    0    0    0    0  0.00000000000E+00  0.00000000000E+00  0.45593999997E+02  0.45594000000E+02  0.51100000000E-03 0.  1.
         11   -1    0    0    0    0 -0.00000000000E+00 -0.00000000000E+00 -0.45593999997E+02  0.45594000000E+02  0.51100000000E-03 0. -1.
    9900012    2    1    2    0    0  0.25481897299E+02 -0.16534067882E+02 -0.30998722920E+02  0.47787270590E+02  0.19999997927E+02 0.  0.
        -12    1    1    2    0    0 -0.25481897299E+02  0.16534067882E+02  0.30998722920E+02  0.43400729410E+02  0.00000000000E+00 0.  1.
         11    1    3    3    0    0  0.65470651072E+01 -0.80179532470E+01 -0.56300798680E+01  0.11783439030E+02  0.51100000000E-03 0. -1.
        -11    1    3    3    0    0  0.43002358545E+01  0.27713402203E+01 -0.67563747983E+00  0.51603140686E+01  0.51100000000E-03 0.  1.
         12    1    3    3    0    0  0.14634596337E+02 -0.11287454855E+02 -0.24693005572E+02  0.30843517491E+02  0.00000000000E+00 0. -1.
</event>
<event>
 7    1  0.4630495E-010  0.4778727E+02  0.7816164E-02  0.1312668E+00
        -11   -1    0    0    0    0  0.00000000000E+00  0.00000000000E+00  0.45593999997E+02  0.45594000000E+02  0.51100000000E-03 0. -1.
         11   -1    0    0    0    0 -0.00000000000E+00 -0.00000000000E+00 -0.45593999997E+02  0.45594000000E+02  0.51100000000E-03 0.  1.
    9900012    2    1    2    0    0 -0.39262106093E+02  0.16437480273E+02  0.84805451702E+01  0.47787269834E+02  0.19999994480E+02 0.  0.
        -12    1    1    2    0    0  0.39262106093E+02 -0.16437480273E+02 -0.84805451702E+01  0.43400730166E+02  0.00000000000E+00 0.  1.
         11    1    3    3    0    0 -0.25906179921E+01 -0.15708437887E+01  0.36308621198E+01  0.47288488857E+01  0.51100000000E-03 0.  1.
        -11    1    3    3    0    0  0.82048540627E+00  0.50057973141E+00 -0.85783466817E+00  0.12882767360E+01  0.51100000000E-03 0. -1.
         12    1    3    3    0    0 -0.37491973507E+02  0.17507744330E+02  0.57075177186E+01  0.41770144212E+02  0.00000000000E+00 0. -1.
</event>
<event>
 7    1  0.4630495E-010  0.4778728E+02  0.7816164E-02  0.1312668E+00
        -11   -1    0    0    0    0  0.00000000000E+00  0.00000000000E+00  0.45593999997E+02  0.45594000000E+02  0.51100000000E-03 0.  1.
         11   -1    0    0    0    0 -0.00000000000E+00 -0.00000000000E+00 -0.45593999997E+02  0.45594000000E+02  0.51100000000E-03 0. -1.
    9900012    2    1    2    0    0  0.20817582047E+02 -0.30313318043E+02 -0.23051111130E+02  0.47787277686E+02  0.20000030280E+02 0.  0.
        -12    1    1    2    0    0 -0.20817582047E+02  0.30313318043E+02  0.23051111130E+02  0.43400722314E+02  0.00000000000E+00 0.  1.
         11    1    3    3    0    0  0.72435672330E+01 -0.18140726650E+02 -0.14938864412E+02  0.24591154911E+02  0.51100000000E-03 0. -1.
        -11    1    3    3    0    0  0.14467672844E+02 -0.13500321293E+02 -0.85201517334E+01  0.21544493923E+02  0.51100000000E-03 0.  1.
         12    1    3    3    0    0 -0.89365802991E+00  0.13277299012E+01  0.40790501510E+00  0.16516288525E+01  0.00000000000E+00 0. -1.
</event>
<event>
 7    1  0.4630495E-010  0.4778727E+02  0.7816164E-02  0.1312668E+00
        -11   -1    0    0    0    0  0.00000000000E+00  0.00000000000E+00  0.45593999997E+02  0.45594000000E+02  0.51100000000E-03 0.  1.
         11   -1    0    0    0    0 -0.00000000000E+00 -0.00000000000E+00 -0.45593999997E+02  0.45594000000E+02  0.51100000000E-03 0. -1.
    9900012    2    1    2    0    0 -0.20343125888E+02 -0.10717016112E+01 -0.38322737108E+02  0.47787268501E+02  0.19999988402E+02 0.  0.
        -12    1    1    2    0    0  0.20343125888E+02  0.10717016112E+01  0.38322737108E+02  0.43400731499E+02  0.00000000000E+00 0.  1.
         11    1    3    3    0    0 -0.10297661126E+02  0.30311773467E+01 -0.70594199467E+01  0.12847772998E+02  0.51100000000E-03 0. -1.
        -11    1    3    3    0    0 -0.95117211405E+01  0.17706518653E+01 -0.20417185729E+02  0.22593572547E+02  0.51100000000E-03 0.  1.
        -12    1    3    3    0    0 -0.53374362167E+00 -0.58735308232E+01 -0.10846131432E+02  0.12345922956E+02  0.00000000000E+00 0.  1.
</event>
<event>
 7    1  0.4630495E-010  0.4778727E+02  0.7816164E-02  0.1312668E+00
        -11   -1    0    0    0    0  0.00000000000E+00  0.00000000000E+00  0.45593999997E+02  0.45594000000E+02  0.51100000000E-03 0.  1.
         11   -1    0    0    0    0 -0.00000000000E+00 -0.00000000000E+00 -0.45593999997E+02  0.45594000000E+02  0.51100000000E-03 0. -1.
    9900012    2    1    2    0    0 -0.12631905289E+02 -0.33529878089E+02 -0.24490924423E+02  0.47787272645E+02  0.20000007296E+02 0.  0.
        -12    1    1    2    0    0  0.12631905289E+02  0.33529878089E+02  0.24490924423E+02  0.43400727355E+02  0.00000000000E+00 0.  1.
         11    1    3    3    0    0 -0.46123633513E+01 -0.83452792636E+01 -0.79894704547E+01  0.12439823957E+02  0.51100000000E-03 0. -1.
        -11    1    3    3    0    0  0.18335432262E+01 -0.20002628339E+02 -0.97529715037E+01  0.22329072409E+02  0.51100000000E-03 0.  1.
        -12    1    3    3    0    0 -0.98530851638E+01 -0.51819704865E+01 -0.67484824647E+01  0.13018376279E+02  0.00000000000E+00 0.  1.
</event>
<event>
 7    1  0.4630495E-010  0.4778727E+02  0.7816164E-02  0.1312668E+00
        -11   -1    0    0    0    0  0.00000000000E+00  0.00000000000E+00  0.45593999997E+02  0.45594000000E+02  0.51100000000E-03 0.  1.
         11   -1    0    0    0    0 -0.00000000000E+00 -0.00000000000E+00 -0.45593999997E+02  0.45594000000E+02  0.51100000000E-03 0. -1.
    9900012    2    1    2    0    0 -0.10993059507E+02  0.25738292648E+01 -0.41906460616E+02  0.47787269640E+02  0.19999993597E+02 0.  0.
        -12    1    1    2    0    0  0.10993059507E+02 -0.25738292648E+01  0.41906460616E+02  0.43400730360E+02  0.00000000000E+00 0.  1.
         11    1    3    3    0    0 -0.50578967920E+01  0.68566556051E+00 -0.11718147139E+02  0.12781526898E+02  0.51100000000E-03 0. -1.
        -11    1    3    3    0    0  0.16334626993E+01 -0.63273171465E+01 -0.11884490135E+02  0.13562604790E+02  0.51100000000E-03 0.  1.
        -12    1    3    3    0    0 -0.75686254145E+01  0.82154808508E+01 -0.18303823342E+02  0.21443137952E+02  0.00000000000E+00 0.  1.
</event>
<event>
 7    1  0.4630495E-010  0.4778727E+02  0.7816164E-02  0.1312668E+00
        -11   -1    0    0    0    0  0.00000000000E+00  0.00000000000E+00  0.45593999997E+02  0.45594000000E+02  0.51100000000E-03 0.  1.
         11   -1    0    0    0    0 -0.00000000000E+00 -0.00000000000E+00 -0.45593999997E+02  0.45594000000E+02  0.51100000000E-03 0. -1.
    9900012    2    1    2    0    0  0.35005877022E+02  0.11197065015E+02 -0.23083272356E+02  0.47787272429E+02  0.20000006313E+02 0.  0.
        -12    1    1    2    0    0 -0.35005877022E+02 -0.11197065015E+02  0.23083272356E+02  0.43400727571E+02  0.00000000000E+00 0.  1.
         11    1    3    3    0    0  0.59871861128E+00  0.67622722055E+01 -0.44538241227E+01  0.81193188713E+01  0.51100000000E-03 0. -1.
        -11    1    3    3    0    0  0.37356423342E+01 -0.83411035699E+00 -0.28718770701E+01  0.47852316457E+01  0.51100000000E-03 0.  1.
        -12    1    3    3    0    0  0.30671516077E+02  0.52689031659E+01 -0.15757571163E+02  0.34882721912E+02  0.00000000000E+00 0.  1.
</event>
<event>
 7    1  0.4630495E-010  0.4778727E+02  0.7816164E-02  0.1312668E+00
        -11   -1    0    0    0    0  0.00000000000E+00  0.00000000000E+00  0.45593999997E+02  0.45594000000E+02  0.51100000000E-03 0. -1.
         11   -1    0    0    0    0 -0.00000000000E+00 -0.00000000000E+00 -0.45593999997E+02  0.45594000000E+02  0.51100000000E-03 0.  1.
    9900012    2    1    2    0    0  0.18918613028E+01  0.41029515994E+02  0.14022248323E+02  0.47787265330E+02  0.19999973944E+02 0.  0.
        -12    1    1    2    0    0 -0.18918613028E+01 -0.41029515994E+02 -0.14022248323E+02  0.43400734670E+02  0.00000000000E+00 0.  1.
         11    1    3    3    0    0  0.86412121058E+01  0.20462769567E+02  0.92150421899E+01  0.24048128573E+02  0.51100000000E-03 0. -1.
        -11    1    3    3    0    0 -0.81325457957E+00  0.18403536322E+01 -0.21068003380E+01  0.29132271501E+01  0.51100000000E-03 0.  1.
         12    1    3    3    0    0 -0.59360962234E+01  0.18726392794E+02  0.69140064715E+01  0.20825909607E+02  0.00000000000E+00 0. -1.
</event>
<event>
 7    1  0.4630495E-010  0.4778723E+02  0.7816164E-02  0.1312668E+00
        -11   -1    0    0    0    0  0.00000000000E+00  0.00000000000E+00  0.45593999997E+02  0.45594000000E+02  0.51100000000E-03 0. -1.
         11   -1    0    0    0    0 -0.00000000000E+00 -0.00000000000E+00 -0.45593999997E+02  0.45594000000E+02  0.51100000000E-03 0.  1.
    9900012    2    1    2    0    0  0.88508238103E+01  0.41901373037E+02 -0.70402421464E+01  0.47787226344E+02  0.19999796190E+02 0.  0.
        -12    1    1    2    0    0 -0.88508238103E+01 -0.41901373037E+02  0.70402421464E+01  0.43400773656E+02  0.00000000000E+00 0.  1.
         11    1    3    3    0    0  0.11005387336E+02  0.13762757073E+02 -0.23556983576E+01  0.17778676770E+02  0.51100000000E-03 0. -1.
        -11    1    3    3    0    0  0.30723591071E+01  0.67471246232E+01 -0.27330194882E+01  0.79014224636E+01  0.51100000000E-03 0.  1.
        -12    1    3    3    0    0 -0.52269226328E+01  0.21391491340E+02 -0.19515243006E+01  0.22107127110E+02  0.00000000000E+00 0.  1.
</event>
<event>
 7    1  0.4630495E-010  0.4778727E+02  0.7816164E-02  0.1312668E+00
        -11   -1    0    0    0    0  0.00000000000E+00  0.00000000000E+00  0.45593999997E+02  0.45594000000E+02  0.51100000000E-03 0.  1.
         11   -1    0    0    0    0 -0.00000000000E+00 -0.00000000000E+00 -0.45593999997E+02  0.45594000000E+02  0.51100000000E-03 0. -1.
    9900012    2    1    2    0    0  0.13283099339E+02  0.20320265876E+02 -0.35975956532E+02  0.47787269802E+02  0.19999994335E+02 0.  0.
        -12    1    1    2    0    0 -0.13283099339E+02 -0.20320265876E+02  0.35975956532E+02  0.43400730198E+02  0.00000000000E+00 0.  1.
         11    1    3    3    0    0 -0.15381467383E+01  0.91507023547E+01 -0.15130476647E+02  0.17749156961E+02  0.51100000000E-03 0. -1.
        -11    1    3    3    0    0  0.21001321959E+01 -0.16826739725E+01 -0.62318159608E+01  0.67880392875E+01  0.51100000000E-03 0.  1.
         12    1    3    3    0    0  0.12721113881E+02  0.12852237494E+02 -0.14613663924E+02  0.23250073554E+02  0.00000000000E+00 0. -1.
</event>
<event>
 7    1  0.4630495E-010  0.4778727E+02  0.7816164E-02  0.1312668E+00
        -11   -1    0    0    0    0  0.00000000000E+00  0.00000000000E+00  0.45593999997E+02  0.45594000000E+02  0.51100000000E-03 0. -1.
         11   -1    0    0    0    0 -0.00000000000E+00 -0.00000000000E+00 -0.45593999997E+02  0.45594000000E+02  0.51100000000E-03 0.  1.
    9900012    2    1    2    0    0  0.30856029536E+02 -0.24563900875E+02  0.18114730069E+02  0.47787271546E+02  0.20000002285E+02 0.  0.
        -12    1    1    2    0    0 -0.30856029536E+02  0.24563900875E+02 -0.18114730069E+02  0.43400728454E+02  0.00000000000E+00 0.  1.
         11    1    3    3    0    0  0.70241742765E+01 -0.87593884098E+01  0.60268155327E+00  0.11244071100E+02  0.51100000000E-03 0. -1.
        -11    1    3    3    0    0  0.18775994933E+02 -0.14349618211E+02  0.67702336346E+01  0.24582221060E+02  0.51100000000E-03 0.  1.
        -12    1    3    3    0    0  0.50558603266E+01 -0.14548942540E+01  0.10741814881E+02  0.11960979386E+02  0.00000000000E+00 0.  1.
</event>
<event>
 7    1  0.4630495E-010  0.4778726E+02  0.7816164E-02  0.1312668E+00
        -11   -1    0    0    0    0  0.00000000000E+00  0.00000000000E+00  0.45593999997E+02  0.45594000000E+02  0.51100000000E-03 0. -1.
         11   -1    0    0    0    0 -0.00000000000E+00 -0.00000000000E+00 -0.45593999997E+02  0.45594000000E+02  0.51100000000E-03 0.  1.
    9900012    2    1    2    0    0 -0.16980093189E+02  0.26064373495E+02  0.30264654039E+02  0.47787257904E+02  0.19999940087E+02 0.  0.
        -12    1    1    2    0    0  0.16980093189E+02 -0.26064373495E+02 -0.30264654039E+02  0.43400742096E+02  0.00000000000E+00 0.  1.
         11    1    3    3    0    0 -0.35990984668E-01 -0.29524606097E+01  0.35364230223E+01  0.46070171539E+01  0.51100000000E-03 0. -1.
        -11    1    3    3    0    0 -0.11900893415E+00  0.24732695142E+01  0.16769477780E+01  0.29905483322E+01  0.51100000000E-03 0.  1.
         12    1    3    3    0    0 -0.16825093271E+02  0.26543564591E+02  0.25051283238E+02  0.40189692418E+02  0.00000000000E+00 0. -1.
</event>
<event>
 7    1  0.4630495E-010  0.4778727E+02  0.7816164E-02  0.1312668E+00
        -11   -1    0    0    0    0  0.00000000000E+00  0.00000000000E+00  0.45593999997E+02  0.45594000000E+02  0.51100000000E-03 0. -1.
         11   -1    0    0    0    0 -0.00000000000E+00 -0.00000000000E+00 -0.45593999997E+02  0.45594000000E+02  0.51100000000E-03 0.  1.
    9900012    2    1    2    0    0 -0.37184428462E+02  0.84896007102E+01  0.20709138733E+02  0.47787268816E+02  0.19999989838E+02 0.  0.
        -12    1    1    2    0    0  0.37184428462E+02 -0.84896007102E+01 -0.20709138733E+02  0.43400731184E+02  0.00000000000E+00 0.  1.
         11    1    3    3    0    0 -0.59587019785E+01  0.33697715886E+01  0.91207127856E+01  0.11403898097E+02  0.51100000000E-03 0. -1.
        -11    1    3    3    0    0  0.13211615780E+01 -0.58452624302E+00  0.43509134847E+00  0.15087887813E+01  0.51100000000E-03 0.  1.
         12    1    3    3    0    0 -0.32546888062E+02  0.57043553646E+01  0.11153334599E+02  0.34874581937E+02  0.00000000000E+00 0. -1.
</event>
<event>
 7    1  0.4630495E-010  0.4778727E+02  0.7816164E-02  0.1312668E+00
        -11   -1    0    0    0    0  0.00000000000E+00  0.00000000000E+00  0.45593999997E+02  0.45594000000E+02  0.51100000000E-03 0. -1.
         11   -1    0    0    0    0 -0.00000000000E+00 -0.00000000000E+00 -0.45593999997E+02  0.45594000000E+02  0.51100000000E-03 0.  1.
    9900012    2    1    2    0    0 -0.24542157706E+01  0.31802265360E+02  0.29431546077E+02  0.47787272339E+02  0.20000005900E+02 0.  0.
        -12    1    1    2    0    0  0.24542157706E+01 -0.31802265360E+02 -0.29431546077E+02  0.43400727661E+02  0.00000000000E+00 0.  1.
         11    1    3    3    0    0 -0.24060603031E+01  0.22723448704E+02  0.26798938139E+02  0.35218281231E+02  0.51100000000E-03 0. -1.
        -11    1    3    3    0    0  0.19358655081E+01  0.37420717751E+01  0.48806986186E+01  0.64476271373E+01  0.51100000000E-03 0.  1.
        -12    1    3    3    0    0 -0.19840209756E+01  0.53367448806E+01 -0.22480906808E+01  0.61213639707E+01  0.00000000000E+00 0.  1.
</event>
<event>
 7    1  0.4630495E-010  0.4778727E+02  0.7816164E-02  0.1312668E+00
        -11   -1    0    0    0    0  0.00000000000E+00  0.00000000000E+00  0.45593999997E+02  0.45594000000E+02  0.51100000000E-03 0.  1.
         11   -1    0    0    0    0 -0.00000000000E+00 -0.00000000000E+00 -0.45593999997E+02  0.45594000000E+02  0.51100000000E-03 0. -1.
    9900012    2    1    2    0    0  0.13475315435E+02  0.15841457968E+02 -0.38093136458E+02  0.47787274640E+02  0.20000016393E+02 0.  0.
        -12    1    1    2    0    0 -0.13475315435E+02 -0.15841457968E+02  0.38093136458E+02  0.43400725360E+02  0.00000000000E+00 0.  1.
         11    1    3    3    0    0  0.56670071546E+01  0.98779657779E+01 -0.96845295306E+01  0.14949223742E+02  0.51100000000E-03 0. -1.
        -11    1    3    3    0    0  0.50281014920E+01  0.31437251812E+01 -0.21890204726E+01  0.63211251783E+01  0.51100000000E-03 0.  1.
         12    1    3    3    0    0  0.27802067879E+01  0.28197670089E+01 -0.26219586454E+02  0.26516925719E+02  0.00000000000E+00 0. -1.
</event>
<event>
 7    1  0.5714220E-010  0.4778727E+02  0.7816164E-02  0.1312668E+00
        -11   -1    0    0    0    0  0.00000000000E+00  0.00000000000E+00  0.45593999997E+02  0.45594000000E+02  0.51100000000E-03 0.  1.
         11   -1    0    0    0    0 -0.00000000000E+00 -0.00000000000E+00 -0.45593999997E+02  0.45594000000E+02  0.51100000000E-03 0. -1.
    9900012    2    1    2    0    0  0.37417547417E+02  0.21648211956E+02  0.38607749524E+01  0.47787268222E+02  0.19999987133E+02 0.  0.
        -12    1    1    2    0    0 -0.37417547417E+02 -0.21648211956E+02 -0.38607749524E+01  0.43400731778E+02  0.00000000000E+00 0.  1.
         11    1    3    3    0    0 -0.54934108779E+00  0.38309759496E+01  0.47439000762E+00  0.38991279150E+01  0.51100000000E-03 0.  1.
        -11    1    3    3    0    0  0.10140221407E+02  0.37990876587E+01 -0.45333835254E+01  0.11739196040E+02  0.51100000000E-03 0. -1.
         12    1    3    3    0    0  0.27826667098E+02  0.14018148348E+02  0.79197684701E+01  0.32148944267E+02  0.00000000000E+00 0. -1.
</event>
<event>
 7    1  0.5855523E-010  0.4778727E+02  0.7816164E-02  0.1312668E+00
        -11   -1    0    0    0    0  0.00000000000E+00  0.00000000000E+00  0.45593999997E+02  0.45594000000E+02  0.51100000000E-03 0.  1.
         11   -1    0    0    0    0 -0.00000000000E+00 -0.00000000000E+00 -0.45593999997E+02  0.45594000000E+02  0.51100000000E-03 0. -1.
    9900012    2    1    2    0    0  0.34948637407E+01 -0.39335711822E+02  0.18003081456E+02  0.47787271446E+02  0.20000001830E+02 0.  0.
        -12    1    1    2    0    0 -0.34948637407E+01  0.39335711822E+02 -0.18003081456E+02  0.43400728554E+02  0.00000000000E+00 0.  1.
         11    1    3    3    0    0  0.52972659809E+01 -0.11300006712E+02  0.31107971426E+01  0.12861890906E+02  0.51100000000E-03 0. -1.
        -11    1    3    3    0    0 -0.24977450415E+01  0.58264650667E+00 -0.18378696598E+00  0.25713780652E+01  0.51100000000E-03 0.  1.
         12    1    3    3    0    0  0.69534280120E+00 -0.28618351617E+02  0.15076071279E+02  0.32354002474E+02  0.00000000000E+00 0. -1.
</event>
<event>
 7    1  0.4630495E-010  0.4778727E+02  0.7816164E-02  0.1312668E+00
        -11   -1    0    0    0    0  0.00000000000E+00  0.00000000000E+00  0.45593999997E+02  0.45594000000E+02  0.51100000000E-03 0.  1.
         11   -1    0    0    0    0 -0.00000000000E+00 -0.00000000000E+00 -0.45593999997E+02  0.45594000000E+02  0.51100000000E-03 0. -1.
    9900012    2    1    2    0    0 -0.23152124283E+02  0.36066275086E+02 -0.68429498904E+01  0.47787273963E+02  0.20000013305E+02 0.  0.
        -12    1    1    2    0    0  0.23152124283E+02 -0.36066275086E+02  0.68429498904E+01  0.43400726037E+02  0.00000000000E+00 0.  1.
         11    1    3    3    0    0 -0.96444167939E+01  0.25625017134E+02 -0.20420622186E+01  0.27455897304E+02  0.51100000000E-03 0. -1.
        -11    1    3    3    0    0 -0.49701058306E+01  0.50784266770E+01  0.28692717223E+01  0.76632297342E+01  0.51100000000E-03 0.  1.
        -12    1    3    3    0    0 -0.85376016585E+01  0.53628312743E+01 -0.76701593941E+01  0.12668146924E+02  0.00000000000E+00 0.  1.
</event>
<event>
 7    1  0.4630495E-010  0.4778726E+02  0.7816164E-02  0.1312668E+00
        -11   -1    0    0    0    0  0.00000000000E+00  0.00000000000E+00  0.45593999997E+02  0.45594000000E+02  0.51100000000E-03 0.  1.
         11   -1    0    0    0    0 -0.00000000000E+00 -0.00000000000E+00 -0.45593999997E+02  0.45594000000E+02  0.51100000000E-03 0. -1.
    9900012    2    1    2    0    0  0.19816162681E+01 -0.80712081533E+01 -0.42597568156E+02  0.47787262484E+02  0.19999960971E+02 0.  0.
        -12    1    1    2    0    0 -0.19816162681E+01  0.80712081533E+01  0.42597568156E+02  0.43400737516E+02  0.00000000000E+00 0.  1.
         11    1    3    3    0    0 -0.70992588737E+01 -0.19519719767E+01 -0.15712019193E+02  0.17351576832E+02  0.51100000000E-03 0. -1.
        -11    1    3    3    0    0  0.48426683091E+01 -0.55547768723E+01 -0.72418483320E+01  0.10332054490E+02  0.51100000000E-03 0.  1.
        -12    1    3    3    0    0  0.42382068326E+01 -0.56445930426E+00 -0.19643700631E+02  0.20103631163E+02  0.00000000000E+00 0.  1.
</event>
<event>
 7    1  0.4630495E-010  0.4778728E+02  0.7816164E-02  0.1312668E+00
        -11   -1    0    0    0    0  0.00000000000E+00  0.00000000000E+00  0.45593999997E+02  0.45594000000E+02  0.51100000000E-03 0.  1.
         11   -1    0    0    0    0 -0.00000000000E+00 -0.00000000000E+00 -0.45593999997E+02  0.45594000000E+02  0.51100000000E-03 0. -1.
    9900012    2    1    2    0    0 -0.13882377976E+02  0.33405390135E+02 -0.23978786640E+02  0.47787277459E+02  0.20000029248E+02 0.  0.
        -12    1    1    2    0    0  0.13882377976E+02 -0.33405390135E+02  0.23978786640E+02  0.43400722541E+02  0.00000000000E+00 0.  1.
         11    1    3    3    0    0 -0.35330406961E+01  0.10497948065E+02 -0.14063938754E+02  0.17902057526E+02  0.51100000000E-03 0. -1.
        -11    1    3    3    0    0 -0.21583870943E+01  0.18627498070E+01 -0.64321729246E+01  0.70357174820E+01  0.51100000000E-03 0.  1.
         12    1    3    3    0    0 -0.81909501854E+01  0.21044692263E+02 -0.34826749614E+01  0.22849502452E+02  0.00000000000E+00 0. -1.
</event>
<event>
 7    1  0.4630495E-010  0.4778727E+02  0.7816164E-02  0.1312668E+00
        -11   -1    0    0    0    0  0.00000000000E+00  0.00000000000E+00  0.45593999997E+02  0.45594000000E+02  0.51100000000E-03 0.  1.
         11   -1    0    0    0    0 -0.00000000000E+00 -0.00000000000E+00 -0.45593999997E+02  0.45594000000E+02  0.51100000000E-03 0. -1.
    9900012    2    1    2    0    0 -0.19185853238E+02 -0.11383740216E+02 -0.37228172785E+02  0.47787270114E+02  0.19999995757E+02 0.  0.
        -12    1    1    2    0    0  0.19185853238E+02  0.11383740216E+02  0.37228172785E+02  0.43400729886E+02  0.00000000000E+00 0.  1.
         11    1    3    3    0    0 -0.78148096844E+01  0.59189231113E+00 -0.99400622476E+01  0.12658057697E+02  0.51100000000E-03 0. -1.
        -11    1    3    3    0    0 -0.11403848767E+01 -0.10895963747E+01  0.18218691797E+01  0.24097521648E+01  0.51100000000E-03 0.  1.
        -12    1    3    3    0    0 -0.10230658677E+02 -0.10886036152E+02 -0.29109979717E+02  0.32719460252E+02  0.00000000000E+00 0.  1.
</event>
<event>
 7    1  0.4630495E-010  0.4778727E+02  0.7816164E-02  0.1312668E+00
        -11   -1    0    0    0    0  0.00000000000E+00  0.00000000000E+00  0.45593999997E+02  0.45594000000E+02  0.51100000000E-03 0.  1.
         11   -1    0    0    0    0 -0.00000000000E+00 -0.00000000000E+00 -0.45593999997E+02  0.45594000000E+02  0.51100000000E-03 0. -1.
    9900012    2    1    2    0    0  0.15149504844E+02  0.60073150221E+01 -0.40224716304E+02  0.47787272673E+02  0.20000007426E+02 0.  0.
        -12    1    1    2    0    0 -0.15149504844E+02 -0.60073150221E+01  0.40224716304E+02  0.43400727327E+02  0.00000000000E+00 0.  1.
         11    1    3    3    0    0  0.34096912291E+01 -0.16020917649E+01 -0.13704785280E+01  0.40088531973E+01  0.51100000000E-03 0.  1.
        -11    1    3    3    0    0  0.18036554013E+01  0.40301853672E+01 -0.10661927711E+01  0.45422829268E+01  0.51100000000E-03 0. -1.
         12    1    3    3    0    0  0.99361582138E+01  0.35792214198E+01 -0.37788045005E+02  0.39236136549E+02  0.00000000000E+00 0. -1.
</event>
<event>
 7    1  0.4630495E-010  0.4778727E+02  0.7816164E-02  0.1312668E+00
        -11   -1    0    0    0    0  0.00000000000E+00  0.00000000000E+00  0.45593999997E+02  0.45594000000E+02  0.51100000000E-03 0.  1.
         11   -1    0    0    0    0 -0.00000000000E+00 -0.00000000000E+00 -0.45593999997E+02  0.45594000000E+02  0.51100000000E-03 0. -1.
    9900012    2    1    2    0    0 -0.38766812741E+02  0.19051658112E+02 -0.42180286838E+01  0.47787271747E+02  0.20000003206E+02 0.  0.
        -12    1    1    2    0    0  0.38766812741E+02 -0.19051658112E+02  0.42180286838E+01  0.43400728253E+02  0.00000000000E+00 0.  1.
         11    1    3    3    0    0 -0.23306361650E+02  0.12978097980E+02  0.27966428269E+01  0.26822355077E+02  0.51100000000E-03 0. -1.
        -11    1    3    3    0    0 -0.86230209908E+01  0.88532480060E+01 -0.39689209198E+01  0.12980324526E+02  0.51100000000E-03 0.  1.
        -12    1    3    3    0    0 -0.68374301000E+01 -0.27796878744E+01 -0.30457505909E+01  0.79845921445E+01  0.00000000000E+00 0.  1.
</event>
<event>
 7    1  0.4630495E-010  0.4778727E+02  0.7816164E-02  0.1312668E+00
        -11   -1    0    0    0    0  0.00000000000E+00  0.00000000000E+00  0.45593999997E+02  0.45594000000E+02  0.51100000000E-03 0.  1.
         11   -1    0    0    0    0 -0.00000000000E+00 -0.00000000000E+00 -0.45593999997E+02  0.45594000000E+02  0.51100000000E-03 0. -1.
    9900012    2    1    2    0    0  0.13180394425E+02  0.40562723374E+02  0.80352978186E+01  0.47787270331E+02  0.19999996748E+02 0.  0.
        -12    1    1    2    0    0 -0.13180394425E+02 -0.40562723374E+02 -0.80352978186E+01  0.43400729669E+02  0.00000000000E+00 0.  1.
         11    1    3    3    0    0  0.10000553685E+02  0.38435576359E+02  0.16232830096E+01  0.39748454712E+02  0.51100000000E-03 0. -1.
        -11    1    3    3    0    0  0.90179587617E+00  0.23555138947E+01  0.28645888969E+01  0.38167461691E+01  0.51100000000E-03 0.  1.
         12    1    3    3    0    0  0.22780448644E+01 -0.22836687932E+00  0.35474259121E+01  0.42220694497E+01  0.00000000000E+00 0. -1.
</event>
<event>
 7    1  0.4630495E-010  0.4778728E+02  0.7816164E-02  0.1312668E+00
        -11   -1    0    0    0    0  0.00000000000E+00  0.00000000000E+00  0.45593999997E+02  0.45594000000E+02  0.51100000000E-03 0.  1.
         11   -1    0    0    0    0 -0.00000000000E+00 -0.00000000000E+00 -0.45593999997E+02  0.45594000000E+02  0.51100000000E-03 0. -1.
    9900012    2    1    2    0    0 -0.23072987299E+02 -0.28532397064E+02 -0.23176761915E+02  0.47787277448E+02  0.20000029197E+02 0.  0.
        -12    1    1    2    0    0  0.23072987299E+02  0.28532397064E+02  0.23176761915E+02  0.43400722552E+02  0.00000000000E+00 0.  1.
         11    1    3    3    0    0 -0.32949916296E+01 -0.11898717090E+02 -0.11920462066E+02  0.17161988648E+02  0.51100000000E-03 0. -1.
        -11    1    3    3    0    0 -0.60571258454E+01 -0.56927481338E+00 -0.66298135858E+01  0.89981818032E+01  0.51100000000E-03 0.  1.
         12    1    3    3    0    0 -0.13720869824E+02 -0.16064405161E+02 -0.46264862631E+01  0.21627106997E+02  0.00000000000E+00 0. -1.
</event>
<event>
 7    1  0.4630495E-010  0.4778727E+02  0.7816164E-02  0.1312668E+00
        -11   -1    0    0    0    0  0.00000000000E+00  0.00000000000E+00  0.45593999997E+02  0.45594000000E+02  0.51100000000E-03 0.  1.
         11   -1    0    0    0    0 -0.00000000000E+00 -0.00000000000E+00 -0.45593999997E+02  0.45594000000E+02  0.51100000000E-03 0. -1.
    9900012    2    1    2    0    0 -0.22779536407E+02  0.13322742263E+02 -0.34456066140E+02  0.47787271502E+02  0.20000002087E+02 0.  0.
        -12    1    1    2    0    0  0.22779536407E+02 -0.13322742263E+02  0.34456066140E+02  0.43400728498E+02  0.00000000000E+00 0.  1.
         11    1    3    3    0    0 -0.17375275087E+02  0.39042430009E+01 -0.23920529646E+02  0.29821720885E+02  0.51100000000E-03 0. -1.
        -11    1    3    3    0    0  0.67461043200E+00 -0.69913732940E+00  0.10471171181E+01  0.14284070710E+01  0.51100000000E-03 0.  1.
        -12    1    3    3    0    0 -0.60788717515E+01  0.10117636591E+02 -0.11582653612E+02  0.16537143546E+02  0.00000000000E+00 0.  1.
</event>
<event>
 7    1  0.4630495E-010  0.4778727E+02  0.7816164E-02  0.1312668E+00
        -11   -1    0    0    0    0  0.00000000000E+00  0.00000000000E+00  0.45593999997E+02  0.45594000000E+02  0.51100000000E-03 0. -1.
         11   -1    0    0    0    0 -0.00000000000E+00 -0.00000000000E+00 -0.45593999997E+02  0.45594000000E+02  0.51100000000E-03 0.  1.
    9900012    2    1    2    0    0 -0.23661451258E+02  0.31664794673E+02 -0.17919267876E+02  0.47787266613E+02  0.19999979796E+02 0.  0.
        -12    1    1    2    0    0  0.23661451258E+02 -0.31664794673E+02  0.17919267876E+02  0.43400733387E+02  0.00000000000E+00 0.  1.
         11    1    3    3    0    0 -0.36400104469E+01  0.92538861794E+01 -0.32919154217E+01  0.10474769347E+02  0.51100000000E-03 0. -1.
        -11    1    3    3    0    0  0.39513294041E+00  0.47749630066E+01  0.24515701719E+01  0.53820626459E+01  0.51100000000E-03 0.  1.
         12    1    3    3    0    0 -0.20416573752E+02  0.17635945487E+02 -0.17078922626E+02  0.31930434620E+02  0.00000000000E+00 0. -1.
</event>
<event>
 7    1  0.4630495E-010  0.4778726E+02  0.7816164E-02  0.1312668E+00
        -11   -1    0    0    0    0  0.00000000000E+00  0.00000000000E+00  0.45593999997E+02  0.45594000000E+02  0.51100000000E-03 0. -1.
         11   -1    0    0    0    0 -0.00000000000E+00 -0.00000000000E+00 -0.45593999997E+02  0.45594000000E+02  0.51100000000E-03 0.  1.
    9900012    2    1    2    0    0 -0.33490743686E+02  0.17564340961E+02  0.21295257067E+02  0.47787263145E+02  0.19999963981E+02 0.  0.
        -12    1    1    2    0    0  0.33490743686E+02 -0.17564340961E+02 -0.21295257067E+02  0.43400736855E+02  0.00000000000E+00 0.  1.
         11    1    3    3    0    0 -0.16655698065E+02  0.56437609167E+01  0.13983131585E+02  0.22467582970E+02  0.51100000000E-03 0. -1.
        -11    1    3    3    0    0 -0.54891473689E+01 -0.19940853459E+01 -0.23273925705E+00  0.58447654381E+01  0.51100000000E-03 0.  1.
        -12    1    3    3    0    0 -0.11345898253E+02  0.13914665390E+02  0.75448647390E+01  0.19474914737E+02  0.00000000000E+00 0.  1.
</event>
<event>
 7    1  0.4630495E-010  0.4778729E+02  0.7816164E-02  0.1312668E+00
        -11   -1    0    0    0    0  0.00000000000E+00  0.00000000000E+00  0.45593999997E+02  0.45594000000E+02  0.51100000000E-03 0.  1.
         11   -1    0    0    0    0 -0.00000000000E+00 -0.00000000000E+00 -0.45593999997E+02  0.45594000000E+02  0.51100000000E-03 0. -1.
    9900012    2    1    2    0    0 -0.31559633055E+02  0.91540726492E+01 -0.28351623377E+02  0.47787285343E+02  0.20000065193E+02 0.  0.
        -12    1    1    2    0    0  0.31559633055E+02 -0.91540726492E+01  0.28351623377E+02  0.43400714657E+02  0.00000000000E+00 0.  1.
         11    1    3    3    0    0 -0.21331854677E+02  0.15249052861E+01 -0.18298015493E+02  0.28145883027E+02  0.51100000000E-03 0. -1.
        -11    1    3    3    0    0 -0.60935483246E+01 -0.58470557185E+00 -0.82459180393E+01  0.10269779762E+02  0.51100000000E-03 0.  1.
        -12    1    3    3    0    0 -0.41342300531E+01  0.82138729349E+01 -0.18076898444E+01  0.93716225541E+01  0.00000000000E+00 0.  1.
</event>
<event>
 7    1  0.4630495E-010  0.4778727E+02  0.7816164E-02  0.1312668E+00
        -11   -1    0    0    0    0  0.00000000000E+00  0.00000000000E+00  0.45593999997E+02  0.45594000000E+02  0.51100000000E-03 0.  1.
         11   -1    0    0    0    0 -0.00000000000E+00 -0.00000000000E+00 -0.45593999997E+02  0.45594000000E+02  0.51100000000E-03 0. -1.
    9900012    2    1    2    0    0 -0.54146368297E+01 -0.30801359791E+02 -0.30092880208E+02  0.47787268483E+02  0.19999988323E+02 0.  0.
        -12    1    1    2    0    0  0.54146368297E+01  0.30801359791E+02  0.30092880208E+02  0.43400731517E+02  0.00000000000E+00 0.  1.
         11    1    3    3    0    0 -0.40657701525E+01 -0.10828979461E+02 -0.10354894257E+02  0.15524854860E+02  0.51100000000E-03 0. -1.
        -11    1    3    3    0    0  0.47034657924E+01 -0.13225322915E+02 -0.18334072382E+02  0.23090473512E+02  0.51100000000E-03 0.  1.
        -12    1    3    3    0    0 -0.60523324695E+01 -0.67470574153E+01 -0.14039135695E+01  0.91719401109E+01  0.00000000000E+00 0.  1.
</event>
<event>
 7    1  0.4630495E-010  0.4778727E+02  0.7816164E-02  0.1312668E+00
        -11   -1    0    0    0    0  0.00000000000E+00  0.00000000000E+00  0.45593999997E+02  0.45594000000E+02  0.51100000000E-03 0.  1.
         11   -1    0    0    0    0 -0.00000000000E+00 -0.00000000000E+00 -0.45593999997E+02  0.45594000000E+02  0.51100000000E-03 0. -1.
    9900012    2    1    2    0    0  0.51666239008E+01  0.26442427600E+02 -0.34025393467E+02  0.47787269816E+02  0.19999994400E+02 0.  0.
        -12    1    1    2    0    0 -0.51666239008E+01 -0.26442427600E+02  0.34025393467E+02  0.43400730184E+02  0.00000000000E+00 0.  1.
         11    1    3    3    0    0  0.59177770896E+00  0.22946070269E+01 -0.42424068433E+00  0.24073642608E+01  0.51100000000E-03 0.  1.
        -11    1    3    3    0    0  0.21491396571E+01  0.19237696070E+02 -0.34755857468E+02  0.39782877975E+02  0.51100000000E-03 0. -1.
         12    1    3    3    0    0  0.24257065348E+01  0.49101245031E+01  0.11547046856E+01  0.55970275808E+01  0.00000000000E+00 0. -1.
</event>
<event>
 7    1  0.4630495E-010  0.4778727E+02  0.7816164E-02  0.1312668E+00
        -11   -1    0    0    0    0  0.00000000000E+00  0.00000000000E+00  0.45593999997E+02  0.45594000000E+02  0.51100000000E-03 0.  1.
         11   -1    0    0    0    0 -0.00000000000E+00 -0.00000000000E+00 -0.45593999997E+02  0.45594000000E+02  0.51100000000E-03 0. -1.
    9900012    2    1    2    0    0  0.25582955050E+02  0.29058890419E+02 -0.19614191895E+02  0.47787271605E+02  0.20000002557E+02 0.  0.
        -12    1    1    2    0    0 -0.25582955050E+02 -0.29058890419E+02  0.19614191895E+02  0.43400728395E+02  0.00000000000E+00 0.  1.
         11    1    3    3    0    0  0.18656165770E+02  0.23970877333E+02 -0.15533869456E+02  0.34116807909E+02  0.51100000000E-03 0. -1.
        -11    1    3    3    0    0  0.82459246960E+01  0.51664850054E+01 -0.37659708312E+00  0.97380525275E+01  0.51100000000E-03 0.  1.
        -12    1    3    3    0    0 -0.13191354158E+01 -0.78471919194E-01 -0.37037253565E+01  0.39324111692E+01  0.00000000000E+00 0.  1.
</event>
<event>
 7    1  0.4950334E-010  0.4778726E+02  0.7816164E-02  0.1312668E+00
        -11   -1    0    0    0    0  0.00000000000E+00  0.00000000000E+00  0.45593999997E+02  0.45594000000E+02  0.51100000000E-03 0.  1.
         11   -1    0    0    0    0 -0.00000000000E+00 -0.00000000000E+00 -0.45593999997E+02  0.45594000000E+02  0.51100000000E-03 0. -1.
    9900012    2    1    2    0    0  0.31050560780E+02  0.20549022700E+02 -0.22298534589E+02  0.47787259182E+02  0.19999945915E+02 0.  0.
        -12    1    1    2    0    0 -0.31050560780E+02 -0.20549022700E+02  0.22298534589E+02  0.43400740818E+02  0.00000000000E+00 0.  1.
         11    1    3    3    0    0 -0.10306961153E+01  0.25834437839E+00 -0.19544979246E+01  0.22246659745E+01  0.51100000000E-03 0. -1.
        -11    1    3    3    0    0  0.83791359088E+01  0.30839780196E+01  0.14617036257E+01  0.90475088700E+01  0.51100000000E-03 0.  1.
         12    1    3    3    0    0  0.23702120987E+02  0.17206700302E+02 -0.21805740291E+02  0.36515084338E+02  0.00000000000E+00 0. -1.
</event>
<event>
 7    1  0.4630495E-010  0.4778728E+02  0.7816164E-02  0.1312668E+00
        -11   -1    0    0    0    0  0.00000000000E+00  0.00000000000E+00  0.45593999997E+02  0.45594000000E+02  0.51100000000E-03 0. -1.
         11   -1    0    0    0    0 -0.00000000000E+00 -0.00000000000E+00 -0.45593999997E+02  0.45594000000E+02  0.51100000000E-03 0.  1.
    9900012    2    1    2    0    0 -0.30094373756E+02 -0.25418033733E+02  0.18217433650E+02  0.47787278124E+02  0.20000032277E+02 0.  0.
        -12    1    1    2    0    0  0.30094373756E+02  0.25418033733E+02 -0.18217433650E+02  0.43400721876E+02  0.00000000000E+00 0.  1.
         11    1    3    3    0    0 -0.37351490837E+01 -0.10229880357E+02  0.33938692615E+00  0.10895731941E+02  0.51100000000E-03 0. -1.
        -11    1    3    3    0    0 -0.75641098981E+01 -0.90196348269E+01  0.30235481927E+01  0.12153658498E+02  0.51100000000E-03 0.  1.
         12    1    3    3    0    0 -0.18795114774E+02 -0.61685185495E+01  0.14854498531E+02  0.24737887684E+02  0.00000000000E+00 0. -1.
</event>
<event>
 7    1  0.4630495E-010  0.4778727E+02  0.7816164E-02  0.1312668E+00
        -11   -1    0    0    0    0  0.00000000000E+00  0.00000000000E+00  0.45593999997E+02  0.45594000000E+02  0.51100000000E-03 0.  1.
         11   -1    0    0    0    0 -0.00000000000E+00 -0.00000000000E+00 -0.45593999997E+02  0.45594000000E+02  0.51100000000E-03 0. -1.
    9900012    2    1    2    0    0 -0.15110217419E+02  0.32246126197E+02  0.24809111703E+02  0.47787270183E+02  0.19999996071E+02 0.  0.
        -12    1    1    2    0    0  0.15110217419E+02 -0.32246126197E+02 -0.24809111703E+02  0.43400729817E+02  0.00000000000E+00 0.  1.
         11    1    3    3    0    0 -0.13483776710E+02  0.14239243867E+02  0.12189249286E+02  0.23089956662E+02  0.51100000000E-03 0. -1.
        -11    1    3    3    0    0 -0.23594365296E+01  0.37851745100E+00 -0.81086423362E+00  0.25234336259E+01  0.51100000000E-03 0.  1.
         12    1    3    3    0    0  0.73299582050E+00  0.17628364880E+02  0.13430726651E+02  0.22173879895E+02  0.00000000000E+00 0. -1.
</event>
<event>
 7    1  0.4630495E-010  0.4778727E+02  0.7816164E-02  0.1312668E+00
        -11   -1    0    0    0    0  0.00000000000E+00  0.00000000000E+00  0.45593999997E+02  0.45594000000E+02  0.51100000000E-03 0.  1.
         11   -1    0    0    0    0 -0.00000000000E+00 -0.00000000000E+00 -0.45593999997E+02  0.45594000000E+02  0.51100000000E-03 0. -1.
    9900012    2    1    2    0    0  0.57251774937E+01  0.24669396473E+02 -0.35245796475E+02  0.47787274789E+02  0.20000017074E+02 0.  0.
        -12    1    1    2    0    0 -0.57251774937E+01 -0.24669396473E+02  0.35245796475E+02  0.43400725211E+02  0.00000000000E+00 0.  1.
         11    1    3    3    0    0 -0.62808397879E+00  0.24099342322E+02 -0.22548019731E+02  0.33008877349E+02  0.51100000000E-03 0. -1.
        -11    1    3    3    0    0  0.36513049287E+00  0.12462523157E+01 -0.10733374298E+01  0.16847903759E+01  0.51100000000E-03 0.  1.
        -12    1    3    3    0    0  0.59881309796E+01 -0.67619816420E+00 -0.11624439314E+02  0.13093607064E+02  0.00000000000E+00 0.  1.
</event>
<event>
 7    1  0.4630495E-010  0.4778728E+02  0.7816164E-02  0.1312668E+00
        -11   -1    0    0    0    0  0.00000000000E+00  0.00000000000E+00  0.45593999997E+02  0.45594000000E+02  0.51100000000E-03 0.  1.
         11   -1    0    0    0    0 -0.00000000000E+00 -0.00000000000E+00 -0.45593999997E+02  0.45594000000E+02  0.51100000000E-03 0. -1.
    9900012    2    1    2    0    0 -0.15645734355E+02 -0.21687806269E+01 -0.40424375221E+02  0.47787277369E+02  0.20000028836E+02 0.  0.
        -12    1    1    2    0    0  0.15645734355E+02  0.21687806269E+01  0.40424375221E+02  0.43400722631E+02  0.00000000000E+00 0.  1.
         11    1    3    3    0    0 -0.34379995771E+01  0.40188328096E+01 -0.12231136692E+02  0.13325598046E+02  0.51100000000E-03 0. -1.
        -11    1    3    3    0    0 -0.33944287099E+01  0.26878588185E+01 -0.17431799705E+02  0.17961469108E+02  0.51100000000E-03 0.  1.
        -12    1    3    3    0    0 -0.88133060677E+01 -0.88754722550E+01 -0.10761438824E+02  0.16500210216E+02  0.00000000000E+00 0.  1.
</event>
<event>
 7    1  0.4630495E-010  0.4778728E+02  0.7816164E-02  0.1312668E+00
        -11   -1    0    0    0    0  0.00000000000E+00  0.00000000000E+00  0.45593999997E+02  0.45594000000E+02  0.51100000000E-03 0. -1.
         11   -1    0    0    0    0 -0.00000000000E+00 -0.00000000000E+00 -0.45593999997E+02  0.45594000000E+02  0.51100000000E-03 0.  1.
    9900012    2    1    2    0    0 -0.20443804002E+02 -0.36143922722E+02  0.12621018667E+02  0.47787281296E+02  0.20000046743E+02 0.  0.
        -12    1    1    2    0    0  0.20443804002E+02  0.36143922722E+02 -0.12621018667E+02  0.43400718704E+02  0.00000000000E+00 0.  1.
         11    1    3    3    0    0 -0.97180805679E+01 -0.12581855767E+02  0.95159760401E+01  0.18528302262E+02  0.51100000000E-03 0. -1.
        -11    1    3    3    0    0 -0.15051816760E+01  0.86274385842E+00  0.26259582700E+01  0.31473093175E+01  0.51100000000E-03 0.  1.
        -12    1    3    3    0    0 -0.92205417584E+01 -0.24424810813E+02  0.47908435704E+00  0.26111669717E+02  0.00000000000E+00 0.  1.
</event>
<event>
 7    1  0.4630495E-010  0.4778727E+02  0.7816164E-02  0.1312668E+00
        -11   -1    0    0    0    0  0.00000000000E+00  0.00000000000E+00  0.45593999997E+02  0.45594000000E+02  0.51100000000E-03 0.  1.
         11   -1    0    0    0    0 -0.00000000000E+00 -0.00000000000E+00 -0.45593999997E+02  0.45594000000E+02  0.51100000000E-03 0. -1.
    9900012    2    1    2    0    0 -0.15723825965E+02  0.21571079981E+00 -0.40451678431E+02  0.47787268186E+02  0.19999986966E+02 0.  0.
        -12    1    1    2    0    0  0.15723825965E+02 -0.21571079981E+00  0.40451678431E+02  0.43400731814E+02  0.00000000000E+00 0.  1.
         11    1    3    3    0    0  0.18288391984E+01 -0.39799854372E+01 -0.14379738242E+02  0.15032026113E+02  0.51100000000E-03 0.  1.
        -11    1    3    3    0    0 -0.56964182167E+01 -0.24229940487E+01 -0.93683154989E+01  0.11228776256E+02  0.51100000000E-03 0. -1.
        -12    1    3    3    0    0 -0.11856246947E+02  0.66186902858E+01 -0.16703624690E+02  0.21526465817E+02  0.00000000000E+00 0.  1.
</event>
<event>
 7    1  0.4630495E-010  0.4778728E+02  0.7816164E-02  0.1312668E+00
        -11   -1    0    0    0    0  0.00000000000E+00  0.00000000000E+00  0.45593999997E+02  0.45594000000E+02  0.51100000000E-03 0.  1.
         11   -1    0    0    0    0 -0.00000000000E+00 -0.00000000000E+00 -0.45593999997E+02  0.45594000000E+02  0.51100000000E-03 0. -1.
    9900012    2    1    2    0    0 -0.34737276208E+01  0.96518958491E+01 -0.42171044347E+02  0.47787275831E+02  0.20000021823E+02 0.  0.
        -12    1    1    2    0    0  0.34737276208E+01 -0.96518958491E+01  0.42171044347E+02  0.43400724169E+02  0.00000000000E+00 0.  1.
         11    1    3    3    0    0  0.43149081398E+01  0.94257519740E+00 -0.73772224610E+01  0.85982726031E+01  0.51100000000E-03 0. -1.
        -11    1    3    3    0    0  0.23342877444E+01  0.12123416367E+01 -0.18024883292E+02  0.18215792309E+02  0.51100000000E-03 0.  1.
         12    1    3    3    0    0 -0.10122923505E+02  0.74969790150E+01 -0.16768938594E+02  0.20973210918E+02  0.00000000000E+00 0. -1.
</event>
<event>
 7    1  0.4630495E-010  0.4778726E+02  0.7816164E-02  0.1312668E+00
        -11   -1    0    0    0    0  0.00000000000E+00  0.00000000000E+00  0.45593999997E+02  0.45594000000E+02  0.51100000000E-03 0.  1.
         11   -1    0    0    0    0 -0.00000000000E+00 -0.00000000000E+00 -0.45593999997E+02  0.45594000000E+02  0.51100000000E-03 0. -1.
    9900012    2    1    2    0    0 -0.23975606429E+02 -0.22862247264E+02 -0.28037692220E+02  0.47787259930E+02  0.19999949324E+02 0.  0.
        -12    1    1    2    0    0  0.23975606429E+02  0.22862247264E+02  0.28037692220E+02  0.43400740070E+02  0.00000000000E+00 0.  1.
         11    1    3    3    0    0 -0.15391715912E+02 -0.99398668955E+01 -0.22069375423E+02  0.28683849192E+02  0.51100000000E-03 0. -1.
        -11    1    3    3    0    0 -0.40583607868E+01 -0.55092484143E+01 -0.76425342394E+01  0.10258188935E+02  0.51100000000E-03 0.  1.
        -12    1    3    3    0    0 -0.45255297299E+01 -0.74131319538E+01  0.16742174421E+01  0.88452218030E+01  0.00000000000E+00 0.  1.
</event>
<event>
 7    1  0.4630495E-010  0.4778729E+02  0.7816164E-02  0.1312668E+00
        -11   -1    0    0    0    0  0.00000000000E+00  0.00000000000E+00  0.45593999997E+02  0.45594000000E+02  0.51100000000E-03 0.  1.
         11   -1    0    0    0    0 -0.00000000000E+00 -0.00000000000E+00 -0.45593999997E+02  0.45594000000E+02  0.51100000000E-03 0. -1.
    9900012    2    1    2    0    0  0.25435550881E+02  0.15899499655E+02 -0.31366546159E+02  0.47787290837E+02  0.20000090242E+02 0.  0.
        -12    1    1    2    0    0 -0.25435550881E+02 -0.15899499655E+02  0.31366546159E+02  0.43400709163E+02  0.00000000000E+00 0.  1.
         11    1    3    3    0    0  0.11388349702E+02  0.13869203283E+02 -0.16441099751E+02  0.24338427844E+02  0.51100000000E-03 0. -1.
        -11    1    3    3    0    0 -0.46719289993E-01  0.13270333565E+01  0.13595710619E+01  0.19004299395E+01  0.51100000000E-03 0.  1.
        -12    1    3    3    0    0  0.14093920469E+02  0.70326301542E+00 -0.16285017470E+02  0.21548433053E+02  0.00000000000E+00 0.  1.
</event>
<event>
 7    1  0.4630495E-010  0.4778728E+02  0.7816164E-02  0.1312668E+00
        -11   -1    0    0    0    0  0.00000000000E+00  0.00000000000E+00  0.45593999997E+02  0.45594000000E+02  0.51100000000E-03 0. -1.
         11   -1    0    0    0    0 -0.00000000000E+00 -0.00000000000E+00 -0.45593999997E+02  0.45594000000E+02  0.51100000000E-03 0.  1.
    9900012    2    1    2    0    0 -0.43019066196E+01 -0.42777435302E+02 -0.59335622910E+01  0.47787279579E+02  0.20000038912E+02 0.  0.
        -12    1    1    2    0    0  0.43019066196E+01  0.42777435302E+02  0.59335622910E+01  0.43400720421E+02  0.00000000000E+00 0.  1.
         11    1    3    3    0    0  0.67305751379E+00 -0.25402490667E+01 -0.16220454282E+01  0.30881877161E+01  0.51100000000E-03 0. -1.
        -11    1    3    3    0    0  0.35283114491E+01 -0.60666799915E+01 -0.62991328187E+01  0.94304115673E+01  0.51100000000E-03 0.  1.
         12    1    3    3    0    0 -0.85032755825E+01 -0.34170506244E+02  0.19876159558E+01  0.35268680296E+02  0.00000000000E+00 0. -1.
</event>
<event>
 7    1  0.4630495E-010  0.4778727E+02  0.7816164E-02  0.1312668E+00
        -11   -1    0    0    0    0  0.00000000000E+00  0.00000000000E+00  0.45593999997E+02  0.45594000000E+02  0.51100000000E-03 0.  1.
         11   -1    0    0    0    0 -0.00000000000E+00 -0.00000000000E+00 -0.45593999997E+02  0.45594000000E+02  0.51100000000E-03 0. -1.
    9900012    2    1    2    0    0  0.12446298020E+02  0.19760198433E+02 -0.36582065988E+02  0.47787270415E+02  0.19999997132E+02 0.  0.
        -12    1    1    2    0    0 -0.12446298020E+02 -0.19760198433E+02  0.36582065988E+02  0.43400729585E+02  0.00000000000E+00 0.  1.
         11    1    3    3    0    0  0.91244100148E+01  0.52600323193E+01 -0.13858331164E+02  0.17406209841E+02  0.51100000000E-03 0. -1.
        -11    1    3    3    0    0  0.32895565290E+01 -0.15266542402E+01 -0.72344965365E+01  0.80925765813E+01  0.51100000000E-03 0.  1.
         12    1    3    3    0    0  0.32331476467E-01  0.16026820354E+02 -0.15489238288E+02  0.22288483993E+02  0.00000000000E+00 0. -1.
</event>
<event>
 7    1  0.4630495E-010  0.4778727E+02  0.7816164E-02  0.1312668E+00
        -11   -1    0    0    0    0  0.00000000000E+00  0.00000000000E+00  0.45593999997E+02  0.45594000000E+02  0.51100000000E-03 0. -1.
         11   -1    0    0    0    0 -0.00000000000E+00 -0.00000000000E+00 -0.45593999997E+02  0.45594000000E+02  0.51100000000E-03 0.  1.
    9900012    2    1    2    0    0 -0.35519393429E+02 -0.95488656387E+01  0.23039420809E+02  0.47787273557E+02  0.20000011457E+02 0.  0.
        -12    1    1    2    0    0  0.35519393429E+02  0.95488656387E+01 -0.23039420809E+02  0.43400726443E+02  0.00000000000E+00 0.  1.
         11    1    3    3    0    0 -0.11645901881E+02 -0.10058960085E+02  0.30437189432E+01  0.15686743890E+02  0.51100000000E-03 0.  1.
        -11    1    3    3    0    0 -0.13595125250E+02 -0.34664921098E+01  0.10081631831E+02  0.17276669203E+02  0.51100000000E-03 0. -1.
        -12    1    3    3    0    0 -0.10278366298E+02  0.39765865563E+01  0.99140700353E+01  0.14823860464E+02  0.00000000000E+00 0.  1.
</event>
<event>
 7    1  0.4630495E-010  0.4778729E+02  0.7816164E-02  0.1312668E+00
        -11   -1    0    0    0    0  0.00000000000E+00  0.00000000000E+00  0.45593999997E+02  0.45594000000E+02  0.51100000000E-03 0. -1.
         11   -1    0    0    0    0 -0.00000000000E+00 -0.00000000000E+00 -0.45593999997E+02  0.45594000000E+02  0.51100000000E-03 0.  1.
    9900012    2    1    2    0    0  0.87962204763E+00 -0.42926827901E+02  0.63352653968E+01  0.47787287146E+02  0.20000073412E+02 0.  0.
        -12    1    1    2    0    0 -0.87962204763E+00  0.42926827901E+02 -0.63352653968E+01  0.43400712854E+02  0.00000000000E+00 0.  1.
         11    1    3    3    0    0  0.63954458504E+01 -0.16609544333E+02 -0.31619418448E+01  0.18076962329E+02  0.51100000000E-03 0. -1.
        -11    1    3    3    0    0 -0.30741295329E+01 -0.40782562256E+01 -0.64210871642E+00  0.51473051291E+01  0.51100000000E-03 0.  1.
        -12    1    3    3    0    0 -0.24416942699E+01 -0.22239027343E+02  0.10139315958E+02  0.24563019687E+02  0.00000000000E+00 0.  1.
</event>
<event>
 7    1  0.4630495E-010  0.4778727E+02  0.7816164E-02  0.1312668E+00
        -11   -1    0    0    0    0  0.00000000000E+00  0.00000000000E+00  0.45593999997E+02  0.45594000000E+02  0.51100000000E-03 0.  1.
         11   -1    0    0    0    0 -0.00000000000E+00 -0.00000000000E+00 -0.45593999997E+02  0.45594000000E+02  0.51100000000E-03 0. -1.
    9900012    2    1    2    0    0 -0.10307815354E+02  0.29474700237E+02 -0.30143237363E+02  0.47787265327E+02  0.19999973932E+02 0.  0.
        -12    1    1    2    0    0  0.10307815354E+02 -0.29474700237E+02  0.30143237363E+02  0.43400734673E+02  0.00000000000E+00 0.  1.
         11    1    3    3    0    0 -0.71671811070E+01  0.26436628157E+02 -0.25403087550E+02  0.37357471149E+02  0.51100000000E-03 0. -1.
        -11    1    3    3    0    0  0.22687736498E+00  0.43800702526E+01 -0.51694948332E+01  0.67793927345E+01  0.51100000000E-03 0.  1.
        -12    1    3    3    0    0 -0.33675116119E+01 -0.13419981722E+01  0.42934502050E+00  0.36504014433E+01  0.00000000000E+00 0.  1.
</event>
<event>
 7    1  0.4630495E-010  0.4778727E+02  0.7816164E-02  0.1312668E+00
        -11   -1    0    0    0    0  0.00000000000E+00  0.00000000000E+00  0.45593999997E+02  0.45594000000E+02  0.51100000000E-03 0.  1.
         11   -1    0    0    0    0 -0.00000000000E+00 -0.00000000000E+00 -0.45593999997E+02  0.45594000000E+02  0.51100000000E-03 0. -1.
    9900012    2    1    2    0    0  0.58103848465E+01  0.44591943024E+01 -0.42778245143E+02  0.47787271396E+02  0.20000001602E+02 0.  0.
        -12    1    1    2    0    0 -0.58103848465E+01 -0.44591943024E+01  0.42778245143E+02  0.43400728604E+02  0.00000000000E+00 0.  1.
         11    1    3    3    0    0  0.99219768567E+01  0.13443036632E+01 -0.22206274386E+02  0.24359215903E+02  0.51100000000E-03 0. -1.
        -11    1    3    3    0    0  0.14291279313E+01  0.34995612996E+01 -0.15336114301E+02  0.15795117538E+02  0.51100000000E-03 0.  1.
        -12    1    3    3    0    0 -0.55407199414E+01 -0.38467066047E+00 -0.52358564564E+01  0.76329379545E+01  0.00000000000E+00 0.  1.
</event>
<event>
 7    1  0.4630495E-010  0.4778728E+02  0.7816164E-02  0.1312668E+00
        -11   -1    0    0    0    0  0.00000000000E+00  0.00000000000E+00  0.45593999997E+02  0.45594000000E+02  0.51100000000E-03 0. -1.
         11   -1    0    0    0    0 -0.00000000000E+00 -0.00000000000E+00 -0.45593999997E+02  0.45594000000E+02  0.51100000000E-03 0.  1.
    9900012    2    1    2    0    0 -0.56082845011E+01  0.42608803744E+02  0.60547187864E+01  0.47787278449E+02  0.20000033763E+02 0.  0.
        -12    1    1    2    0    0  0.56082845011E+01 -0.42608803744E+02 -0.60547187864E+01  0.43400721551E+02  0.00000000000E+00 0.  1.
         11    1    3    3    0    0 -0.41743997746E+01  0.15241358234E+02 -0.49112400363E+01  0.16548259523E+02  0.51100000000E-03 0. -1.
        -11    1    3    3    0    0  0.49111009272E+00  0.19046309956E+02  0.25047413094E+01  0.19216577254E+02  0.51100000000E-03 0.  1.
         12    1    3    3    0    0 -0.19249948192E+01  0.83211355538E+01  0.84612175133E+01  0.12022441672E+02  0.00000000000E+00 0. -1.
</event>
<event>
 7    1  0.4630495E-010  0.4778726E+02  0.7816164E-02  0.1312668E+00
        -11   -1    0    0    0    0  0.00000000000E+00  0.00000000000E+00  0.45593999997E+02  0.45594000000E+02  0.51100000000E-03 0.  1.
         11   -1    0    0    0    0 -0.00000000000E+00 -0.00000000000E+00 -0.45593999997E+02  0.45594000000E+02  0.51100000000E-03 0. -1.
    9900012    2    1    2    0    0  0.17587531964E+02  0.38361066556E+02  0.10135663903E+02  0.47787258178E+02  0.19999941338E+02 0.  0.
        -12    1    1    2    0    0 -0.17587531964E+02 -0.38361066556E+02 -0.10135663903E+02  0.43400741822E+02  0.00000000000E+00 0.  1.
         11    1    3    3    0    0  0.14473519233E+02  0.16906200302E+02  0.86568114532E+01  0.23879756122E+02  0.51100000000E-03 0.  1.
        -11    1    3    3    0    0  0.60102327335E+01  0.80584555354E+01  0.17224308174E+01  0.10199429950E+02  0.51100000000E-03 0. -1.
        -12    1    3    3    0    0 -0.28962200025E+01  0.13396410719E+02 -0.24357836755E+00  0.13708072106E+02  0.00000000000E+00 0.  1.
</event>
<event>
 7    1  0.4630495E-010  0.4778727E+02  0.7816164E-02  0.1312668E+00
        -11   -1    0    0    0    0  0.00000000000E+00  0.00000000000E+00  0.45593999997E+02  0.45594000000E+02  0.51100000000E-03 0. -1.
         11   -1    0    0    0    0 -0.00000000000E+00 -0.00000000000E+00 -0.45593999997E+02  0.45594000000E+02  0.51100000000E-03 0.  1.
    9900012    2    1    2    0    0 -0.27656521743E+02 -0.13167746263E+02  0.30746550434E+02  0.47787273046E+02  0.20000009125E+02 0.  0.
        -12    1    1    2    0    0  0.27656521743E+02  0.13167746263E+02 -0.30746550434E+02  0.43400726954E+02  0.00000000000E+00 0.  1.
         11    1    3    3    0    0 -0.10082380960E+02 -0.39809694618E+01  0.77066162402E+01  0.13300167586E+02  0.51100000000E-03 0. -1.
        -11    1    3    3    0    0 -0.72456317659E+01  0.38235958229E+01  0.12042187721E+02  0.14564798319E+02  0.51100000000E-03 0.  1.
         12    1    3    3    0    0 -0.10328509017E+02 -0.13010372624E+02  0.10997746473E+02  0.19922307141E+02  0.00000000000E+00 0. -1.
</event>
<event>
 7    1  0.4630495E-010  0.4778727E+02  0.7816164E-02  0.1312668E+00
        -11   -1    0    0    0    0  0.00000000000E+00  0.00000000000E+00  0.45593999997E+02  0.45594000000E+02  0.51100000000E-03 0.  1.
         11   -1    0    0    0    0 -0.00000000000E+00 -0.00000000000E+00 -0.45593999997E+02  0.45594000000E+02  0.51100000000E-03 0. -1.
    9900012    2    1    2    0    0  0.19875182151E+01 -0.26234106805E+01 -0.43275752523E+02  0.47787271105E+02  0.20000000275E+02 0.  0.
        -12    1    1    2    0    0 -0.19875182151E+01  0.26234106805E+01  0.43275752523E+02  0.43400728895E+02  0.00000000000E+00 0.  1.
         11    1    3    3    0    0  0.61485665772E+01  0.14526083387E+01 -0.10677715167E+02  0.12406794243E+02  0.51100000000E-03 0. -1.
        -11    1    3    3    0    0  0.21823305297E+01 -0.62692838234E+01 -0.11963706567E+02  0.13681986745E+02  0.51100000000E-03 0.  1.
         12    1    3    3    0    0 -0.63433788919E+01  0.21932648042E+01 -0.20634330788E+02  0.21698490117E+02  0.00000000000E+00 0. -1.
</event>
<event>
 7    1  0.4630495E-010  0.4778727E+02  0.7816164E-02  0.1312668E+00
        -11   -1    0    0    0    0  0.00000000000E+00  0.00000000000E+00  0.45593999997E+02  0.45594000000E+02  0.51100000000E-03 0.  1.
         11   -1    0    0    0    0 -0.00000000000E+00 -0.00000000000E+00 -0.45593999997E+02  0.45594000000E+02  0.51100000000E-03 0. -1.
    9900012    2    1    2    0    0  0.40285884649E+02 -0.14937248445E+02  0.61277607738E+01  0.47787270223E+02  0.19999996254E+02 0.  0.
        -12    1    1    2    0    0 -0.40285884649E+02  0.14937248445E+02 -0.61277607738E+01  0.43400729777E+02  0.00000000000E+00 0.  1.
         11    1    3    3    0    0  0.16502134808E+02 -0.52676061878E+00 -0.48690121827E+01  0.17213518230E+02  0.51100000000E-03 0. -1.
        -11    1    3    3    0    0  0.43268573985E+01 -0.34332696592E+01 -0.31654802143E+00  0.55325616499E+01  0.51100000000E-03 0.  1.
         12    1    3    3    0    0  0.19456892443E+02 -0.10977218167E+02  0.11313320978E+02  0.25041190343E+02  0.00000000000E+00 0. -1.
</event>
<event>
 7    1  0.4630495E-010  0.4778727E+02  0.7816164E-02  0.1312668E+00
        -11   -1    0    0    0    0  0.00000000000E+00  0.00000000000E+00  0.45593999997E+02  0.45594000000E+02  0.51100000000E-03 0.  1.
         11   -1    0    0    0    0 -0.00000000000E+00 -0.00000000000E+00 -0.45593999997E+02  0.45594000000E+02  0.51100000000E-03 0. -1.
    9900012    2    1    2    0    0 -0.21199999515E+02 -0.33299995257E+02 -0.18035902864E+02  0.47787268950E+02  0.19999990452E+02 0.  0.
        -12    1    1    2    0    0  0.21199999515E+02  0.33299995257E+02  0.18035902864E+02  0.43400731050E+02  0.00000000000E+00 0.  1.
         11    1    3    3    0    0 -0.14544638697E+02 -0.22342037134E+02 -0.17202582103E+02  0.31727621553E+02  0.51100000000E-03 0. -1.
        -11    1    3    3    0    0 -0.57974691879E+01 -0.12599797771E+02 -0.17730459693E+01  0.13982462055E+02  0.51100000000E-03 0.  1.
         12    1    3    3    0    0 -0.85789162973E+00  0.16418396480E+01  0.93972520868E+00  0.20771853422E+01  0.00000000000E+00 0. -1.
</event>
<event>
 7    1  0.4630495E-010  0.4778728E+02  0.7816164E-02  0.1312668E+00
        -11   -1    0    0    0    0  0.00000000000E+00  0.00000000000E+00  0.45593999997E+02  0.45594000000E+02  0.51100000000E-03 0. -1.
         11   -1    0    0    0    0 -0.00000000000E+00 -0.00000000000E+00 -0.45593999997E+02  0.45594000000E+02  0.51100000000E-03 0.  1.
    9900012    2    1    2    0    0  0.25115397939E+02 -0.34596597181E+02 -0.74776212881E+01  0.47787279150E+02  0.20000036957E+02 0.  0.
        -12    1    1    2    0    0 -0.25115397939E+02  0.34596597181E+02  0.74776212881E+01  0.43400720850E+02  0.00000000000E+00 0.  1.
         11    1    3    3    0    0  0.53764433255E+01 -0.21483490567E+02 -0.11882653060E+01  0.22177882777E+02  0.51100000000E-03 0. -1.
        -11    1    3    3    0    0 -0.15810566688E+00 -0.12874372231E+01 -0.14818433397E+01  0.19693531806E+01  0.51100000000E-03 0.  1.
        -12    1    3    3    0    0  0.19897060280E+02 -0.11825669392E+02 -0.48075126423E+01  0.23640043193E+02  0.00000000000E+00 0.  1.
</event>
<event>
 7    1  0.4630495E-010  0.4778727E+02  0.7816164E-02  0.1312668E+00
        -11   -1    0    0    0    0  0.00000000000E+00  0.00000000000E+00  0.45593999997E+02  0.45594000000E+02  0.51100000000E-03 0.  1.
         11   -1    0    0    0    0 -0.00000000000E+00 -0.00000000000E+00 -0.45593999997E+02  0.45594000000E+02  0.51100000000E-03 0. -1.
    9900012    2    1    2    0    0 -0.17989215378E+02  0.41347761640E+01 -0.39279957185E+02  0.47787270971E+02  0.19999999664E+02 0.  0.
        -12    1    1    2    0    0  0.17989215378E+02 -0.41347761640E+01  0.39279957185E+02  0.43400729029E+02  0.00000000000E+00 0.  1.
         11    1    3    3    0    0 -0.63057399874E+01  0.57773382791E+00 -0.94196767983E+01  0.11350173761E+02  0.51100000000E-03 0. -1.
        -11    1    3    3    0    0  0.29178960672E+01 -0.21732001573E+01 -0.13196514731E+01  0.38701933613E+01  0.51100000000E-03 0.  1.
        -12    1    3    3    0    0 -0.14601371457E+02  0.57302424934E+01 -0.28540628913E+02  0.32566903848E+02  0.00000000000E+00 0.  1.
</event>
<event>
 7    1  0.4630495E-010  0.4778727E+02  0.7816164E-02  0.1312668E+00
        -11   -1    0    0    0    0  0.00000000000E+00  0.00000000000E+00  0.45593999997E+02  0.45594000000E+02  0.51100000000E-03 0.  1.
         11   -1    0    0    0    0 -0.00000000000E+00 -0.00000000000E+00 -0.45593999997E+02  0.45594000000E+02  0.51100000000E-03 0. -1.
    9900012    2    1    2    0    0 -0.28908776362E+01 -0.18405366229E+02 -0.39198323410E+02  0.47787271461E+02  0.20000001899E+02 0.  0.
        -12    1    1    2    0    0  0.28908776362E+01  0.18405366229E+02  0.39198323410E+02  0.43400728539E+02  0.00000000000E+00 0.  1.
         11    1    3    3    0    0  0.17452796386E+00 -0.12467378621E+02 -0.30560846352E+02  0.33006534500E+02  0.51100000000E-03 0. -1.
        -11    1    3    3    0    0 -0.36225339472E+01 -0.48144789018E+01 -0.10750403234E+02  0.12323681644E+02  0.51100000000E-03 0.  1.
        -12    1    3    3    0    0  0.55712834719E+00 -0.11235087063E+01  0.21129261757E+01  0.24570553173E+01  0.00000000000E+00 0.  1.
</event>
<event>
 7    1  0.4630495E-010  0.4778728E+02  0.7816164E-02  0.1312668E+00
        -11   -1    0    0    0    0  0.00000000000E+00  0.00000000000E+00  0.45593999997E+02  0.45594000000E+02  0.51100000000E-03 0.  1.
         11   -1    0    0    0    0 -0.00000000000E+00 -0.00000000000E+00 -0.45593999997E+02  0.45594000000E+02  0.51100000000E-03 0. -1.
    9900012    2    1    2    0    0  0.24977194892E+02 -0.24390128377E+02 -0.25785346163E+02  0.47787277613E+02  0.20000029951E+02 0.  0.
        -12    1    1    2    0    0 -0.24977194892E+02  0.24390128377E+02  0.25785346163E+02  0.43400722387E+02  0.00000000000E+00 0.  1.
         11    1    3    3    0    0  0.19613490748E+02 -0.16551368626E+02 -0.18079361899E+02  0.31392676689E+02  0.51100000000E-03 0. -1.
        -11    1    3    3    0    0  0.86997087709E+01 -0.65599650334E+01 -0.56794035640E+01  0.12287135510E+02  0.51100000000E-03 0.  1.
         12    1    3    3    0    0 -0.33360046271E+01 -0.12787947180E+01 -0.20265806994E+01  0.41074654149E+01  0.00000000000E+00 0. -1.
</event>
<event>
 7    1  0.4630495E-010  0.4778727E+02  0.7816164E-02  0.1312668E+00
        -11   -1    0    0    0    0  0.00000000000E+00  0.00000000000E+00  0.45593999997E+02  0.45594000000E+02  0.51100000000E-03 0.  1.
         11   -1    0    0    0    0 -0.00000000000E+00 -0.00000000000E+00 -0.45593999997E+02  0.45594000000E+02  0.51100000000E-03 0. -1.
    9900012    2    1    2    0    0 -0.55732504577E+01  0.42823944371E+02  0.43211291691E+01  0.47787268561E+02  0.19999988678E+02 0.  0.
        -12    1    1    2    0    0  0.55732504577E+01 -0.42823944371E+02 -0.43211291691E+01  0.43400731439E+02  0.00000000000E+00 0.  1.
         11    1    3    3    0    0 -0.18725585989E+01  0.20130012829E+02 -0.29540308387E+01  0.20431597849E+02  0.51100000000E-03 0.  1.
        -11    1    3    3    0    0  0.16036954306E+00  0.22441198742E+02  0.68452577599E+01  0.23462537660E+02  0.51100000000E-03 0. -1.
        -12    1    3    3    0    0 -0.38610614018E+01  0.25273279890E+00  0.42990224790E+00  0.38931330518E+01  0.00000000000E+00 0.  1.
</event>
<event>
 7    1  0.5387596E-010  0.4778727E+02  0.7816164E-02  0.1312668E+00
        -11   -1    0    0    0    0  0.00000000000E+00  0.00000000000E+00  0.45593999997E+02  0.45594000000E+02  0.51100000000E-03 0. -1.
         11   -1    0    0    0    0 -0.00000000000E+00 -0.00000000000E+00 -0.45593999997E+02  0.45594000000E+02  0.51100000000E-03 0.  1.
    9900012    2    1    2    0    0  0.30244094458E+02 -0.26736645959E+02  0.15939564182E+02  0.47787271976E+02  0.20000004247E+02 0.  0.
        -12    1    1    2    0    0 -0.30244094458E+02  0.26736645959E+02 -0.15939564182E+02  0.43400728024E+02  0.00000000000E+00 0.  1.
         11    1    3    3    0    0 -0.89710426239E+00 -0.63492209150E+01  0.24766701339E+01  0.68739579208E+01  0.51100000000E-03 0. -1.
        -11    1    3    3    0    0  0.44866552791E+01  0.80184901542E+00  0.20845790423E+01  0.50118367373E+01  0.51100000000E-03 0.  1.
         12    1    3    3    0    0  0.26654543441E+02 -0.21189274059E+02  0.11378315006E+02  0.35901477318E+02  0.00000000000E+00 0. -1.
</event>
<event>
 7    1  0.4630495E-010  0.4778727E+02  0.7816164E-02  0.1312668E+00
        -11   -1    0    0    0    0  0.00000000000E+00  0.00000000000E+00  0.45593999997E+02  0.45594000000E+02  0.51100000000E-03 0. -1.
         11   -1    0    0    0    0 -0.00000000000E+00 -0.00000000000E+00 -0.45593999997E+02  0.45594000000E+02  0.51100000000E-03 0.  1.
    9900012    2    1    2    0    0 -0.30534040085E+02  0.12821077297E+02  0.28052012610E+02  0.47787273757E+02  0.20000012365E+02 0.  0.
        -12    1    1    2    0    0  0.30534040085E+02 -0.12821077297E+02 -0.28052012610E+02  0.43400726243E+02  0.00000000000E+00 0.  1.
         11    1    3    3    0    0 -0.22542014160E+02  0.48284380325E+01  0.23547611217E+02  0.32953697979E+02  0.51100000000E-03 0. -1.
        -11    1    3    3    0    0 -0.88438346136E+01  0.34915122476E+01  0.24867773351E+01  0.98279260388E+01  0.51100000000E-03 0.  1.
        -12    1    3    3    0    0  0.85180868842E+00  0.45011270169E+01  0.20176240581E+01  0.50056497384E+01  0.00000000000E+00 0.  1.
</event>
<event>
 7    1  0.4696368E-010  0.4778727E+02  0.7816164E-02  0.1312668E+00
        -11   -1    0    0    0    0  0.00000000000E+00  0.00000000000E+00  0.45593999997E+02  0.45594000000E+02  0.51100000000E-03 0. -1.
         11   -1    0    0    0    0 -0.00000000000E+00 -0.00000000000E+00 -0.45593999997E+02  0.45594000000E+02  0.51100000000E-03 0.  1.
    9900012    2    1    2    0    0  0.21080614299E+02  0.30254633987E+02  0.22888600040E+02  0.47787272026E+02  0.20000004474E+02 0.  0.
        -12    1    1    2    0    0 -0.21080614299E+02 -0.30254633987E+02 -0.22888600040E+02  0.43400727974E+02  0.00000000000E+00 0.  1.
         11    1    3    3    0    0  0.15847496724E+02  0.18600512774E+02  0.10567464040E+02  0.26623176452E+02  0.51100000000E-03 0. -1.
        -11    1    3    3    0    0  0.39658811439E+01  0.51999280649E+01 -0.69895990726E+00  0.65769301608E+01  0.51100000000E-03 0.  1.
         12    1    3    3    0    0  0.12672364309E+01  0.64541931481E+01  0.13020095907E+02  0.14587165413E+02  0.00000000000E+00 0. -1.
</event>
<event>
 7    1  0.4630495E-010  0.4778727E+02  0.7816164E-02  0.1312668E+00
        -11   -1    0    0    0    0  0.00000000000E+00  0.00000000000E+00  0.45593999997E+02  0.45594000000E+02  0.51100000000E-03 0.  1.
         11   -1    0    0    0    0 -0.00000000000E+00 -0.00000000000E+00 -0.45593999997E+02  0.45594000000E+02  0.51100000000E-03 0. -1.
    9900012    2    1    2    0    0 -0.30428482348E+02  0.63079196111E+01 -0.30297539409E+02  0.47787270950E+02  0.19999999570E+02 0.  0.
        -12    1    1    2    0    0  0.30428482348E+02 -0.63079196111E+01  0.30297539409E+02  0.43400729050E+02  0.00000000000E+00 0.  1.
         11    1    3    3    0    0 -0.16379953918E+02  0.72496926236E+01 -0.11175597150E+02  0.21112908502E+02  0.51100000000E-03 0. -1.
        -11    1    3    3    0    0 -0.26835816948E+00  0.30694068510E+01 -0.43448245274E+00  0.31115992331E+01  0.51100000000E-03 0.  1.
         12    1    3    3    0    0 -0.13780170261E+02 -0.40111798636E+01 -0.18687459807E+02  0.23562763215E+02  0.00000000000E+00 0. -1.
</event>
<event>
 7    1  0.4630495E-010  0.4778725E+02  0.7816164E-02  0.1312668E+00
        -11   -1    0    0    0    0  0.00000000000E+00  0.00000000000E+00  0.45593999997E+02  0.45594000000E+02  0.51100000000E-03 0.  1.
         11   -1    0    0    0    0 -0.00000000000E+00 -0.00000000000E+00 -0.45593999997E+02  0.45594000000E+02  0.51100000000E-03 0. -1.
    9900012    2    1    2    0    0  0.18981464531E+02  0.12656033771E+02 -0.36920915768E+02  0.47787248766E+02  0.19999898421E+02 0.  0.
        -12    1    1    2    0    0 -0.18981464531E+02 -0.12656033771E+02  0.36920915768E+02  0.43400751234E+02  0.00000000000E+00 0.  1.
         11    1    3    3    0    0 -0.91431670491E+00 -0.16087116219E+01 -0.83440840661E+01  0.85467928068E+01  0.51100000000E-03 0. -1.
        -11    1    3    3    0    0  0.27097463947E+01  0.59186951701E+01 -0.13192236040E+02  0.14710838523E+02  0.51100000000E-03 0.  1.
        -12    1    3    3    0    0  0.17186034841E+02  0.83460502223E+01 -0.15384595662E+02  0.24529617436E+02  0.00000000000E+00 0.  1.
</event>
<event>
 7    1  0.4630495E-010  0.4778733E+02  0.7816164E-02  0.1312667E+00
        -11   -1    0    0    0    0  0.00000000000E+00  0.00000000000E+00  0.45593999997E+02  0.45594000000E+02  0.51100000000E-03 0.  1.
         11   -1    0    0    0    0 -0.00000000000E+00 -0.00000000000E+00 -0.45593999997E+02  0.45594000000E+02  0.51100000000E-03 0. -1.
    9900012    2    1    2    0    0  0.26099888156E+02 -0.34047038702E+02 -0.65736392402E+01  0.47787334809E+02  0.20000290726E+02 0.  0.
        -12    1    1    2    0    0 -0.26099888156E+02  0.34047038702E+02  0.65736392402E+01  0.43400665191E+02  0.00000000000E+00 0.  1.
         11    1    3    3    0    0  0.14658224077E+02 -0.88911636419E+01  0.12986103490E+01  0.17193100741E+02  0.51100000000E-03 0. -1.
        -11    1    3    3    0    0  0.42695330101E+00 -0.69861633727E+00 -0.32802147471E+01  0.33808524008E+01  0.51100000000E-03 0.  1.
         12    1    3    3    0    0  0.11014710778E+02 -0.24457258723E+02 -0.45920348421E+01  0.27213381667E+02  0.00000000000E+00 0. -1.
</event>
<event>
 7    1  0.4630495E-010  0.4778728E+02  0.7816164E-02  0.1312668E+00
        -11   -1    0    0    0    0  0.00000000000E+00  0.00000000000E+00  0.45593999997E+02  0.45594000000E+02  0.51100000000E-03 0.  1.
         11   -1    0    0    0    0 -0.00000000000E+00 -0.00000000000E+00 -0.45593999997E+02  0.45594000000E+02  0.51100000000E-03 0. -1.
    9900012    2    1    2    0    0  0.34904350395E+02 -0.83998679442E+01 -0.24387526864E+02  0.47787275070E+02  0.20000018352E+02 0.  0.
        -12    1    1    2    0    0 -0.34904350395E+02  0.83998679442E+01  0.24387526864E+02  0.43400724930E+02  0.00000000000E+00 0.  1.
         11    1    3    3    0    0  0.26152477065E+00 -0.21358510166E+01 -0.26070976394E+01  0.33804161184E+01  0.51100000000E-03 0. -1.
        -11    1    3    3    0    0  0.13077015476E+01 -0.22920597689E+00  0.24292970985E+01  0.27684117056E+01  0.51100000000E-03 0.  1.
         12    1    3    3    0    0  0.33335124076E+02 -0.60348109507E+01 -0.24209726323E+02  0.41638447246E+02  0.00000000000E+00 0. -1.
</event>
<event>
 7    1  0.4630495E-010  0.4778727E+02  0.7816164E-02  0.1312668E+00
        -11   -1    0    0    0    0  0.00000000000E+00  0.00000000000E+00  0.45593999997E+02  0.45594000000E+02  0.51100000000E-03 0. -1.
         11   -1    0    0    0    0 -0.00000000000E+00 -0.00000000000E+00 -0.45593999997E+02  0.45594000000E+02  0.51100000000E-03 0.  1.
    9900012    2    1    2    0    0 -0.23092835987E+02 -0.36545949503E+02 -0.38389817361E+01  0.47787270976E+02  0.19999999690E+02 0.  0.
        -12    1    1    2    0    0  0.23092835987E+02  0.36545949503E+02  0.38389817361E+01  0.43400729024E+02  0.00000000000E+00 0.  1.
         11    1    3    3    0    0 -0.29947354324E+01 -0.11820789565E+02  0.34743926551E+01  0.12679546949E+02  0.51100000000E-03 0.  1.
        -11    1    3    3    0    0 -0.16990025211E+02 -0.21379156006E+02 -0.10136839562E+01  0.27326851696E+02  0.51100000000E-03 0. -1.
        -12    1    3    3    0    0 -0.31080753432E+01 -0.33460039323E+01 -0.62996904350E+01  0.77808723310E+01  0.00000000000E+00 0.  1.
</event>
<event>
 7    1  0.4630495E-010  0.4778727E+02  0.7816164E-02  0.1312668E+00
        -11   -1    0    0    0    0  0.00000000000E+00  0.00000000000E+00  0.45593999997E+02  0.45594000000E+02  0.51100000000E-03 0. -1.
         11   -1    0    0    0    0 -0.00000000000E+00 -0.00000000000E+00 -0.45593999997E+02  0.45594000000E+02  0.51100000000E-03 0.  1.
    9900012    2    1    2    0    0  0.22405458522E+02 -0.29716173092E+02  0.22328636625E+02  0.47787268113E+02  0.19999986634E+02 0.  0.
        -12    1    1    2    0    0 -0.22405458522E+02  0.29716173092E+02 -0.22328636625E+02  0.43400731887E+02  0.00000000000E+00 0.  1.
         11    1    3    3    0    0  0.35178211275E+01 -0.48648739047E+01  0.76269273109E+01  0.97062909528E+01  0.51100000000E-03 0.  1.
        -11    1    3    3    0    0  0.18889746913E+02 -0.27009133894E+02  0.14028227403E+02  0.35820483197E+02  0.51100000000E-03 0. -1.
         12    1    3    3    0    0 -0.21095180140E-02  0.21578347070E+01  0.67348191082E+00  0.22604939631E+01  0.00000000000E+00 0. -1.
</event>
<event>
 7    1  0.4630495E-010  0.4778727E+02  0.7816164E-02  0.1312668E+00
        -11   -1    0    0    0    0  0.00000000000E+00  0.00000000000E+00  0.45593999997E+02  0.45594000000E+02  0.51100000000E-03 0.  1.
         11   -1    0    0    0    0 -0.00000000000E+00 -0.00000000000E+00 -0.45593999997E+02  0.45594000000E+02  0.51100000000E-03 0. -1.
    9900012    2    1    2    0    0 -0.21931875208E+02  0.67232688164E+01 -0.36843095368E+02  0.47787272241E+02  0.20000005454E+02 0.  0.
        -12    1    1    2    0    0  0.21931875208E+02 -0.67232688164E+01  0.36843095368E+02  0.43400727759E+02  0.00000000000E+00 0.  1.
         11    1    3    3    0    0 -0.84214941260E+01  0.44664398255E+01 -0.15512168859E+02  0.18207087384E+02  0.51100000000E-03 0.  1.
        -11    1    3    3    0    0 -0.13720270239E+02  0.42553855193E+01 -0.87080297928E+01  0.16798330407E+02  0.51100000000E-03 0. -1.
        -12    1    3    3    0    0  0.20988915634E+00 -0.19985565284E+01 -0.12622896717E+02  0.12781854450E+02  0.00000000000E+00 0.  1.
</event>
<event>
 7    1  0.4630495E-010  0.4778727E+02  0.7816164E-02  0.1312668E+00
        -11   -1    0    0    0    0  0.00000000000E+00  0.00000000000E+00  0.45593999997E+02  0.45594000000E+02  0.51100000000E-03 0. -1.
         11   -1    0    0    0    0 -0.00000000000E+00 -0.00000000000E+00 -0.45593999997E+02  0.45594000000E+02  0.51100000000E-03 0.  1.
    9900012    2    1    2    0    0  0.34830884679E+02 -0.21400825297E+02  0.14575235785E+02  0.47787270178E+02  0.19999996047E+02 0.  0.
        -12    1    1    2    0    0 -0.34830884679E+02  0.21400825297E+02 -0.14575235785E+02  0.43400729822E+02  0.00000000000E+00 0.  1.
         11    1    3    3    0    0  0.26876965094E+02 -0.10472969217E+02  0.15435239117E+02  0.32715454204E+02  0.51100000000E-03 0. -1.
        -11    1    3    3    0    0  0.21051271396E+01 -0.54716200495E+01  0.25289658309E+01  0.63848143807E+01  0.51100000000E-03 0.  1.
        -12    1    3    3    0    0  0.58487924455E+01 -0.54562360305E+01 -0.33889691631E+01  0.86870015931E+01  0.00000000000E+00 0.  1.
</event>
<event>
 7    1  0.4630495E-010  0.4778726E+02  0.7816164E-02  0.1312668E+00
        -11   -1    0    0    0    0  0.00000000000E+00  0.00000000000E+00  0.45593999997E+02  0.45594000000E+02  0.51100000000E-03 0. -1.
         11   -1    0    0    0    0 -0.00000000000E+00 -0.00000000000E+00 -0.45593999997E+02  0.45594000000E+02  0.51100000000E-03 0.  1.
    9900012    2    1    2    0    0  0.32491948733E+02 -0.13942539485E+01  0.28739401606E+02  0.47787264048E+02  0.19999968099E+02 0.  0.
        -12    1    1    2    0    0 -0.32491948733E+02  0.13942539485E+01 -0.28739401606E+02  0.43400735952E+02  0.00000000000E+00 0.  1.
         11    1    3    3    0    0  0.98141655526E+01  0.46118304153E+01  0.49278788649E+01  0.11910953599E+02  0.51100000000E-03 0. -1.
        -11    1    3    3    0    0 -0.24077906666E+00  0.12924150438E+01 -0.73798035753E+00  0.15076227889E+01  0.51100000000E-03 0.  1.
        -12    1    3    3    0    0  0.22918562247E+02 -0.72984994076E+01  0.24549503098E+02  0.34368687660E+02  0.00000000000E+00 0.  1.
</event>
<event>
 7    1  0.4630495E-010  0.4778727E+02  0.7816164E-02  0.1312668E+00
        -11   -1    0    0    0    0  0.00000000000E+00  0.00000000000E+00  0.45593999997E+02  0.45594000000E+02  0.51100000000E-03 0. -1.
         11   -1    0    0    0    0 -0.00000000000E+00 -0.00000000000E+00 -0.45593999997E+02  0.45594000000E+02  0.51100000000E-03 0.  1.
    9900012    2    1    2    0    0 -0.28570531350E+02  0.26617565730E+02  0.18943434647E+02  0.47787265176E+02  0.19999973244E+02 0.  0.
        -12    1    1    2    0    0  0.28570531350E+02 -0.26617565730E+02 -0.18943434647E+02  0.43400734824E+02  0.00000000000E+00 0.  1.
         11    1    3    3    0    0  0.11770585323E+01  0.35981715977E+01  0.34786836354E+01  0.51413564097E+01  0.51100000000E-03 0. -1.
        -11    1    3    3    0    0 -0.62993814889E+01  0.17289240378E+00 -0.30201163144E+00  0.63089864648E+01  0.51100000000E-03 0.  1.
         12    1    3    3    0    0 -0.23448208394E+02  0.22846501729E+02  0.15766762643E+02  0.36336922302E+02  0.00000000000E+00 0. -1.
</event>
<event>
 7    1  0.4630495E-010  0.4778727E+02  0.7816164E-02  0.1312668E+00
        -11   -1    0    0    0    0  0.00000000000E+00  0.00000000000E+00  0.45593999997E+02  0.45594000000E+02  0.51100000000E-03 0.  1.
         11   -1    0    0    0    0 -0.00000000000E+00 -0.00000000000E+00 -0.45593999997E+02  0.45594000000E+02  0.51100000000E-03 0. -1.
    9900012    2    1    2    0    0  0.22829641511E+02 -0.32135919833E+02  0.18158008982E+02  0.47787272297E+02  0.20000005709E+02 0.  0.
        -12    1    1    2    0    0 -0.22829641511E+02  0.32135919833E+02 -0.18158008982E+02  0.43400727703E+02  0.00000000000E+00 0.  1.
         11    1    3    3    0    0  0.50344243636E+01 -0.37771386252E+01  0.79376395367E+01  0.10130070412E+02  0.51100000000E-03 0. -1.
        -11    1    3    3    0    0  0.54442665742E+01 -0.15381048298E+02  0.11077325032E+02  0.19721151473E+02  0.51100000000E-03 0.  1.
        -12    1    3    3    0    0  0.12350950573E+02 -0.12977732910E+02 -0.85695558708E+00  0.17936050413E+02  0.00000000000E+00 0.  1.
</event>
<event>
 7    1  0.4630495E-010  0.4778728E+02  0.7816164E-02  0.1312668E+00
        -11   -1    0    0    0    0  0.00000000000E+00  0.00000000000E+00  0.45593999997E+02  0.45594000000E+02  0.51100000000E-03 0. -1.
         11   -1    0    0    0    0 -0.00000000000E+00 -0.00000000000E+00 -0.45593999997E+02  0.45594000000E+02  0.51100000000E-03 0.  1.
    9900012    2    1    2    0    0 -0.37494409309E+02 -0.34614347630E+01  0.21582646715E+02  0.47787275361E+02  0.20000019679E+02 0.  0.
        -12    1    1    2    0    0  0.37494409309E+02  0.34614347630E+01 -0.21582646715E+02  0.43400724639E+02  0.00000000000E+00 0.  1.
         11    1    3    3    0    0 -0.28015322051E+02 -0.57775346154E+01  0.20002096989E+02  0.34904470489E+02  0.51100000000E-03 0. -1.
        -11    1    3    3    0    0 -0.80948170179E+01  0.68506713239E-01  0.42378196516E+01  0.91372792112E+01  0.51100000000E-03 0.  1.
        -12    1    3    3    0    0 -0.13842702394E+01  0.22475931391E+01 -0.26572699261E+01  0.37455256607E+01  0.00000000000E+00 0.  1.
</event>
<event>
 7    1  0.4630495E-010  0.4778727E+02  0.7816164E-02  0.1312668E+00
        -11   -1    0    0    0    0  0.00000000000E+00  0.00000000000E+00  0.45593999997E+02  0.45594000000E+02  0.51100000000E-03 0.  1.
         11   -1    0    0    0    0 -0.00000000000E+00 -0.00000000000E+00 -0.45593999997E+02  0.45594000000E+02  0.51100000000E-03 0. -1.
    9900012    2    1    2    0    0  0.17131031718E+02 -0.63128828772E+01 -0.39373830430E+02  0.47787271196E+02  0.20000000692E+02 0.  0.
        -12    1    1    2    0    0 -0.17131031718E+02  0.63128828772E+01  0.39373830430E+02  0.43400728804E+02  0.00000000000E+00 0.  1.
         11    1    3    3    0    0 -0.57739844614E+00 -0.56606309836E+00  0.87741072876E+00  0.11931748594E+01  0.51100000000E-03 0. -1.
        -11    1    3    3    0    0 -0.24662437533E+01 -0.25680033669E+00 -0.55850314771E+01  0.61107185768E+01  0.51100000000E-03 0.  1.
         12    1    3    3    0    0  0.20174673918E+02 -0.54900194421E+01 -0.34666209682E+02  0.40483377760E+02  0.00000000000E+00 0. -1.
</event>
<event>
 7    1  0.4630495E-010  0.4778727E+02  0.7816164E-02  0.1312668E+00
        -11   -1    0    0    0    0  0.00000000000E+00  0.00000000000E+00  0.45593999997E+02  0.45594000000E+02  0.51100000000E-03 0. -1.
         11   -1    0    0    0    0 -0.00000000000E+00 -0.00000000000E+00 -0.45593999997E+02  0.45594000000E+02  0.51100000000E-03 0.  1.
    9900012    2    1    2    0    0 -0.36002224741E+02  0.21892425877E+02 -0.10401206439E+02  0.47787267374E+02  0.19999983266E+02 0.  0.
        -12    1    1    2    0    0  0.36002224741E+02 -0.21892425877E+02  0.10401206439E+02  0.43400732626E+02  0.00000000000E+00 0.  1.
         11    1    3    3    0    0 -0.16866856608E+01  0.74981936845E+01 -0.44706967544E+01  0.88912848779E+01  0.51100000000E-03 0. -1.
        -11    1    3    3    0    0 -0.40355284104E+01 -0.11631092012E+01  0.56947130314E+00  0.42382319889E+01  0.51100000000E-03 0.  1.
         12    1    3    3    0    0 -0.30280010670E+02  0.15557341393E+02 -0.64999809875E+01  0.34657750507E+02  0.00000000000E+00 0. -1.
</event>
<event>
 7    1  0.4630495E-010  0.4778727E+02  0.7816164E-02  0.1312668E+00
        -11   -1    0    0    0    0  0.00000000000E+00  0.00000000000E+00  0.45593999997E+02  0.45594000000E+02  0.51100000000E-03 0. -1.
         11   -1    0    0    0    0 -0.00000000000E+00 -0.00000000000E+00 -0.45593999997E+02  0.45594000000E+02  0.51100000000E-03 0.  1.
    9900012    2    1    2    0    0  0.97782266105E+01 -0.41284464985E+02  0.91434423450E+01  0.47787270712E+02  0.19999998486E+02 0.  0.
        -12    1    1    2    0    0 -0.97782266105E+01  0.41284464985E+02 -0.91434423450E+01  0.43400729288E+02  0.00000000000E+00 0.  1.
         11    1    3    3    0    0  0.68451217356E+01 -0.95957998713E+01  0.49555892005E+01  0.12786435443E+02  0.51100000000E-03 0. -1.
        -11    1    3    3    0    0  0.25702846078E+01 -0.21682853010E+02  0.93308075118E+01  0.23744819366E+02  0.51100000000E-03 0.  1.
         12    1    3    3    0    0  0.36282026708E+00 -0.10005812104E+02 -0.51429543673E+01  0.11256015904E+02  0.00000000000E+00 0. -1.
</event>
<event>
 7    1  0.4630495E-010  0.4778727E+02  0.7816164E-02  0.1312668E+00
        -11   -1    0    0    0    0  0.00000000000E+00  0.00000000000E+00  0.45593999997E+02  0.45594000000E+02  0.51100000000E-03 0.  1.
         11   -1    0    0    0    0 -0.00000000000E+00 -0.00000000000E+00 -0.45593999997E+02  0.45594000000E+02  0.51100000000E-03 0. -1.
    9900012    2    1    2    0    0 -0.20739216154E+02 -0.30205350991E+02 -0.23262521004E+02  0.47787271912E+02  0.20000003953E+02 0.  0.
        -12    1    1    2    0    0  0.20739216154E+02  0.30205350991E+02  0.23262521004E+02  0.43400728088E+02  0.00000000000E+00 0.  1.
         11    1    3    3    0    0 -0.53865957901E+00  0.72846161193E+00  0.11340181055E+01  0.14514846836E+01  0.51100000000E-03 0. -1.
        -11    1    3    3    0    0 -0.15656541763E+01  0.51750516485E+00  0.90088925631E+00  0.18790120566E+01  0.51100000000E-03 0.  1.
         12    1    3    3    0    0 -0.18634902398E+02 -0.31451317767E+02 -0.25297428366E+02  0.44456775171E+02  0.00000000000E+00 0. -1.
</event>
<event>
 7    1  0.4630495E-010  0.4778727E+02  0.7816164E-02  0.1312668E+00
        -11   -1    0    0    0    0  0.00000000000E+00  0.00000000000E+00  0.45593999997E+02  0.45594000000E+02  0.51100000000E-03 0. -1.
         11   -1    0    0    0    0 -0.00000000000E+00 -0.00000000000E+00 -0.45593999997E+02  0.45594000000E+02  0.51100000000E-03 0.  1.
    9900012    2    1    2    0    0  0.54924603643E+01  0.35823002378E+02  0.23878214431E+02  0.47787265621E+02  0.19999975272E+02 0.  0.
        -12    1    1    2    0    0 -0.54924603643E+01 -0.35823002378E+02 -0.23878214431E+02  0.43400734379E+02  0.00000000000E+00 0.  1.
         11    1    3    3    0    0  0.14708987975E+01  0.17010613351E+01 -0.27830125401E+01  0.35780318609E+01  0.51100000000E-03 0.  1.
        -11    1    3    3    0    0 -0.64846587562E+00  0.42943930507E+01  0.68087340971E+01  0.80759630963E+01  0.51100000000E-03 0. -1.
        -12    1    3    3    0    0  0.46700274425E+01  0.29827547993E+02  0.19852492873E+02  0.36133270664E+02  0.00000000000E+00 0.  1.
</event>
<event>
 7    1  0.4630495E-010  0.4778727E+02  0.7816164E-02  0.1312668E+00
        -11   -1    0    0    0    0  0.00000000000E+00  0.00000000000E+00  0.45593999997E+02  0.45594000000E+02  0.51100000000E-03 0. -1.
         11   -1    0    0    0    0 -0.00000000000E+00 -0.00000000000E+00 -0.45593999997E+02  0.45594000000E+02  0.51100000000E-03 0.  1.
    9900012    2    1    2    0    0 -0.89123446392E+01  0.14506608817E+02  0.39921815498E+02  0.47787274902E+02  0.20000017589E+02 0.  0.
        -12    1    1    2    0    0  0.89123446392E+01 -0.14506608817E+02 -0.39921815498E+02  0.43400725098E+02  0.00000000000E+00 0.  1.
         11    1    3    3    0    0 -0.54612427801E+01  0.62669641874E+01  0.36789084709E+01  0.90903454625E+01  0.51100000000E-03 0. -1.
        -11    1    3    3    0    0 -0.57452653696E+01  0.88342650788E+01  0.33245857745E+02  0.34876057276E+02  0.51100000000E-03 0.  1.
         12    1    3    3    0    0  0.22941635106E+01 -0.59462044935E+00  0.29970492825E+01  0.38208721640E+01  0.00000000000E+00 0. -1.
</event>
<event>
 7    1  0.4630495E-010  0.4778727E+02  0.7816164E-02  0.1312668E+00
        -11   -1    0    0    0    0  0.00000000000E+00  0.00000000000E+00  0.45593999997E+02  0.45594000000E+02  0.51100000000E-03 0. -1.
         11   -1    0    0    0    0 -0.00000000000E+00 -0.00000000000E+00 -0.45593999997E+02  0.45594000000E+02  0.51100000000E-03 0.  1.
    9900012    2    1    2    0    0  0.29070014492E+02  0.13233475186E+02  0.29384231631E+02  0.47787266405E+02  0.19999978846E+02 0.  0.
        -12    1    1    2    0    0 -0.29070014492E+02 -0.13233475186E+02 -0.29384231631E+02  0.43400733595E+02  0.00000000000E+00 0.  1.
         11    1    3    3    0    0  0.14132175047E+01  0.37997345989E+01  0.10104659044E+02  0.10887575552E+02  0.51100000000E-03 0.  1.
        -11    1    3    3    0    0  0.27438959321E+01  0.24846090745E+01 -0.12194787459E+01  0.38973549764E+01  0.51100000000E-03 0. -1.
         12    1    3    3    0    0  0.24912901055E+02  0.69491315122E+01  0.20499051333E+02  0.33002335877E+02  0.00000000000E+00 0. -1.
</event>
<event>
 7    1  0.4630495E-010  0.4778732E+02  0.7816164E-02  0.1312668E+00
        -11   -1    0    0    0    0  0.00000000000E+00  0.00000000000E+00  0.45593999997E+02  0.45594000000E+02  0.51100000000E-03 0.  1.
         11   -1    0    0    0    0 -0.00000000000E+00 -0.00000000000E+00 -0.45593999997E+02  0.45594000000E+02  0.51100000000E-03 0. -1.
    9900012    2    1    2    0    0  0.14767885157E+02 -0.41719612196E+01 -0.40597089316E+02  0.47787316211E+02  0.20000205932E+02 0.  0.
        -12    1    1    2    0    0 -0.14767885157E+02  0.41719612196E+01  0.40597089316E+02  0.43400683789E+02  0.00000000000E+00 0.  1.
         11    1    3    3    0    0 -0.33006656828E+00 -0.38583518078E+01 -0.42817635868E+01  0.57731553146E+01  0.51100000000E-03 0. -1.
        -11    1    3    3    0    0  0.35601550722E+01 -0.69260388775E+01 -0.14710439010E+02  0.16644570730E+02  0.51100000000E-03 0.  1.
         12    1    3    3    0    0  0.11537796654E+02  0.66124294658E+01 -0.21604886719E+02  0.25369590166E+02  0.00000000000E+00 0. -1.
</event>
<event>
 7    1  0.4630495E-010  0.4778728E+02  0.7816164E-02  0.1312668E+00
        -11   -1    0    0    0    0  0.00000000000E+00  0.00000000000E+00  0.45593999997E+02  0.45594000000E+02  0.51100000000E-03 0. -1.
         11   -1    0    0    0    0 -0.00000000000E+00 -0.00000000000E+00 -0.45593999997E+02  0.45594000000E+02  0.51100000000E-03 0.  1.
    9900012    2    1    2    0    0  0.32700622617E+02  0.10127849125E+02  0.26678058579E+02  0.47787275847E+02  0.20000021896E+02 0.  0.
        -12    1    1    2    0    0 -0.32700622617E+02 -0.10127849125E+02 -0.26678058579E+02  0.43400724153E+02  0.00000000000E+00 0.  1.
         11    1    3    3    0    0  0.13077394630E+02  0.15212040870E+01  0.16845135438E+02  0.21379684291E+02  0.51100000000E-03 0. -1.
        -11    1    3    3    0    0 -0.11479305249E+01 -0.89154412490E+00 -0.18906434745E+00  0.14657220082E+01  0.51100000000E-03 0.  1.
        -12    1    3    3    0    0  0.20771158512E+02  0.94981891632E+01  0.10021987488E+02  0.24941869548E+02  0.00000000000E+00 0.  1.
</event>
<event>
 7    1  0.4630495E-010  0.4778727E+02  0.7816164E-02  0.1312668E+00
        -11   -1    0    0    0    0  0.00000000000E+00  0.00000000000E+00  0.45593999997E+02  0.45594000000E+02  0.51100000000E-03 0.  1.
         11   -1    0    0    0    0 -0.00000000000E+00 -0.00000000000E+00 -0.45593999997E+02  0.45594000000E+02  0.51100000000E-03 0. -1.
    9900012    2    1    2    0    0  0.30846855744E+02  0.20900793001E+02 -0.22254247458E+02  0.47787272042E+02  0.20000004548E+02 0.  0.
        -12    1    1    2    0    0 -0.30846855744E+02 -0.20900793001E+02  0.22254247458E+02  0.43400727958E+02  0.00000000000E+00 0.  1.
         11    1    3    3    0    0  0.15652428860E+02  0.13732491298E+02 -0.75668610443E+01  0.22154846712E+02  0.51100000000E-03 0. -1.
        -11    1    3    3    0    0  0.50970429263E+01  0.57439546858E+00  0.15938618342E+01  0.53712356636E+01  0.51100000000E-03 0.  1.
         12    1    3    3    0    0  0.10097383958E+02  0.65939062337E+01 -0.16281248248E+02  0.20261189667E+02  0.00000000000E+00 0. -1.
</event>
<event>
 7    1  0.4630495E-010  0.4778727E+02  0.7816164E-02  0.1312668E+00
        -11   -1    0    0    0    0  0.00000000000E+00  0.00000000000E+00  0.45593999997E+02  0.45594000000E+02  0.51100000000E-03 0.  1.
         11   -1    0    0    0    0 -0.00000000000E+00 -0.00000000000E+00 -0.45593999997E+02  0.45594000000E+02  0.51100000000E-03 0. -1.
    9900012    2    1    2    0    0 -0.25442242824E+02  0.19801006300E+02 -0.29055735056E+02  0.47787270628E+02  0.19999998102E+02 0.  0.
        -12    1    1    2    0    0  0.25442242824E+02 -0.19801006300E+02  0.29055735056E+02  0.43400729372E+02  0.00000000000E+00 0.  1.
         11    1    3    3    0    0 -0.14826299007E+00 -0.10191662438E+01  0.23999799819E+00  0.10574880836E+01  0.51100000000E-03 0. -1.
        -11    1    3    3    0    0 -0.96535099656E+01  0.67998137619E+01 -0.15188692664E+01  0.11905237753E+02  0.51100000000E-03 0.  1.
         12    1    3    3    0    0 -0.15640469868E+02  0.14020358782E+02 -0.27776863787E+02  0.34824544791E+02  0.00000000000E+00 0. -1.
</event>
<event>
 7    1  0.4630495E-010  0.4778727E+02  0.7816164E-02  0.1312668E+00
        -11   -1    0    0    0    0  0.00000000000E+00  0.00000000000E+00  0.45593999997E+02  0.45594000000E+02  0.51100000000E-03 0.  1.
         11   -1    0    0    0    0 -0.00000000000E+00 -0.00000000000E+00 -0.45593999997E+02  0.45594000000E+02  0.51100000000E-03 0. -1.
    9900012    2    1    2    0    0  0.24294613775E+02 -0.34019931293E+02 -0.11663595143E+02  0.47787269184E+02  0.19999991518E+02 0.  0.
        -12    1    1    2    0    0 -0.24294613775E+02  0.34019931293E+02  0.11663595143E+02  0.43400730816E+02  0.00000000000E+00 0.  1.
         11    1    3    3    0    0  0.10250787761E+02 -0.72138612087E+01 -0.23028949503E+01  0.12744479929E+02  0.51100000000E-03 0. -1.
        -11    1    3    3    0    0  0.35580775642E+01 -0.24173641071E+01  0.34988446534E+01  0.55448606248E+01  0.51100000000E-03 0.  1.
        -12    1    3    3    0    0  0.10485748451E+02 -0.24388705977E+02 -0.12859544846E+02  0.29497928630E+02  0.00000000000E+00 0.  1.
</event>
<event>
 7    1  0.4630495E-010  0.4778727E+02  0.7816164E-02  0.1312668E+00
        -11   -1    0    0    0    0  0.00000000000E+00  0.00000000000E+00  0.45593999997E+02  0.45594000000E+02  0.51100000000E-03 0.  1.
         11   -1    0    0    0    0 -0.00000000000E+00 -0.00000000000E+00 -0.45593999997E+02  0.45594000000E+02  0.51100000000E-03 0. -1.
    9900012    2    1    2    0    0 -0.43210127023E+01 -0.41507687090E+02 -0.11919065637E+02  0.47787270006E+02  0.19999995267E+02 0.  0.
        -12    1    1    2    0    0  0.43210127023E+01  0.41507687090E+02  0.11919065637E+02  0.43400729994E+02  0.00000000000E+00 0.  1.
         11    1    3    3    0    0 -0.15984190268E+01 -0.26019797613E+02 -0.68770905444E+01  0.26960697057E+02  0.51100000000E-03 0. -1.
        -11    1    3    3    0    0 -0.14526190361E+01 -0.14503417573E+02 -0.85990165952E+01  0.16923424890E+02  0.51100000000E-03 0.  1.
        -12    1    3    3    0    0 -0.12699746394E+01 -0.98447190478E+00  0.35570415031E+01  0.39031480590E+01  0.00000000000E+00 0.  1.
</event>
<event>
 7    1  0.4630495E-010  0.4778727E+02  0.7816164E-02  0.1312668E+00
        -11   -1    0    0    0    0  0.00000000000E+00  0.00000000000E+00  0.45593999997E+02  0.45594000000E+02  0.51100000000E-03 0.  1.
         11   -1    0    0    0    0 -0.00000000000E+00 -0.00000000000E+00 -0.45593999997E+02  0.45594000000E+02  0.51100000000E-03 0. -1.
    9900012    2    1    2    0    0  0.27660077651E+02 -0.25620368348E+02 -0.21497453620E+02  0.47787266342E+02  0.19999978558E+02 0.  0.
        -12    1    1    2    0    0 -0.27660077651E+02  0.25620368348E+02  0.21497453620E+02  0.43400733658E+02  0.00000000000E+00 0.  1.
         11    1    3    3    0    0  0.23534554304E+02 -0.18752831407E+02 -0.98748691311E+01  0.31671074700E+02  0.51100000000E-03 0.  1.
        -11    1    3    3    0    0  0.62503843100E+01 -0.35632596620E+01 -0.81672696644E+01  0.10884319798E+02  0.51100000000E-03 0. -1.
        -12    1    3    3    0    0 -0.21248609624E+01 -0.33042772787E+01 -0.34553148244E+01  0.52318718429E+01  0.00000000000E+00 0.  1.
</event>
<event>
 7    1  0.4630495E-010  0.4778727E+02  0.7816164E-02  0.1312668E+00
        -11   -1    0    0    0    0  0.00000000000E+00  0.00000000000E+00  0.45593999997E+02  0.45594000000E+02  0.51100000000E-03 0. -1.
         11   -1    0    0    0    0 -0.00000000000E+00 -0.00000000000E+00 -0.45593999997E+02  0.45594000000E+02  0.51100000000E-03 0.  1.
    9900012    2    1    2    0    0 -0.36026882321E+02 -0.99086104786E+01  0.22079551766E+02  0.47787269389E+02  0.19999992452E+02 0.  0.
        -12    1    1    2    0    0  0.36026882321E+02  0.99086104786E+01 -0.22079551766E+02  0.43400730611E+02  0.00000000000E+00 0.  1.
         11    1    3    3    0    0  0.47733822633E+00  0.21238606371E+01  0.26140732576E+01  0.34017664595E+01  0.51100000000E-03 0. -1.
        -11    1    3    3    0    0 -0.13484897846E+01 -0.35464874912E+00 -0.13097975452E+01  0.19130526143E+01  0.51100000000E-03 0.  1.
         12    1    3    3    0    0 -0.35155730763E+02 -0.11677822367E+02  0.20775276054E+02  0.42472450315E+02  0.00000000000E+00 0. -1.
</event>
<event>
 7    1  0.4630495E-010  0.4778728E+02  0.7816164E-02  0.1312668E+00
        -11   -1    0    0    0    0  0.00000000000E+00  0.00000000000E+00  0.45593999997E+02  0.45594000000E+02  0.51100000000E-03 0.  1.
         11   -1    0    0    0    0 -0.00000000000E+00 -0.00000000000E+00 -0.45593999997E+02  0.45594000000E+02  0.51100000000E-03 0. -1.
    9900012    2    1    2    0    0 -0.24498141903E+02 -0.18915083434E+01 -0.35775495805E+02  0.47787275805E+02  0.20000021707E+02 0.  0.
        -12    1    1    2    0    0  0.24498141903E+02  0.18915083434E+01  0.35775495805E+02  0.43400724195E+02  0.00000000000E+00 0.  1.
         11    1    3    3    0    0 -0.83115318729E+01 -0.83643861933E+00 -0.11931028046E+02  0.14564704670E+02  0.51100000000E-03 0. -1.
        -11    1    3    3    0    0 -0.90439840638E+01  0.74552202862E+01 -0.95544535224E+01  0.15121558770E+02  0.51100000000E-03 0.  1.
        -12    1    3    3    0    0 -0.71426259659E+01 -0.85102900102E+01 -0.14290014237E+02  0.18101012365E+02  0.00000000000E+00 0.  1.
</event>
<event>
 7    1  0.4630495E-010  0.4778727E+02  0.7816164E-02  0.1312668E+00
        -11   -1    0    0    0    0  0.00000000000E+00  0.00000000000E+00  0.45593999997E+02  0.45594000000E+02  0.51100000000E-03 0.  1.
         11   -1    0    0    0    0 -0.00000000000E+00 -0.00000000000E+00 -0.45593999997E+02  0.45594000000E+02  0.51100000000E-03 0. -1.
    9900012    2    1    2    0    0 -0.16175256892E+02  0.14768868813E+02 -0.37468184134E+02  0.47787271390E+02  0.20000001577E+02 0.  0.
        -12    1    1    2    0    0  0.16175256892E+02 -0.14768868813E+02  0.37468184134E+02  0.43400728610E+02  0.00000000000E+00 0.  1.
         11    1    3    3    0    0  0.42945522725E+01  0.37267118284E+01 -0.10550552397E+02  0.11985229093E+02  0.51100000000E-03 0. -1.
        -11    1    3    3    0    0 -0.28109013602E+01  0.32691797198E+01 -0.49814603559E+01  0.65881446581E+01  0.51100000000E-03 0.  1.
         12    1    3    3    0    0 -0.17658907804E+02  0.77729772651E+01 -0.21936171381E+02  0.29213897639E+02  0.00000000000E+00 0. -1.
</event>
<event>
 7    1  0.4630495E-010  0.4778723E+02  0.7816164E-02  0.1312668E+00
        -11   -1    0    0    0    0  0.00000000000E+00  0.00000000000E+00  0.45593999997E+02  0.45594000000E+02  0.51100000000E-03 0.  1.
         11   -1    0    0    0    0 -0.00000000000E+00 -0.00000000000E+00 -0.45593999997E+02  0.45594000000E+02  0.51100000000E-03 0. -1.
    9900012    2    1    2    0    0  0.26213257483E+02 -0.14646924637E+02 -0.31336228247E+02  0.47787234224E+02  0.19999832120E+02 0.  0.
        -12    1    1    2    0    0 -0.26213257483E+02  0.14646924637E+02  0.31336228247E+02  0.43400765776E+02  0.00000000000E+00 0.  1.
         11    1    3    3    0    0  0.16859562056E+02 -0.42947112710E+01 -0.22902260200E+02  0.28761135237E+02  0.51100000000E-03 0. -1.
        -11    1    3    3    0    0  0.94312853840E+01 -0.94109368272E+01 -0.10362397018E+02  0.16878807665E+02  0.51100000000E-03 0.  1.
        -12    1    3    3    0    0 -0.77589957356E-01 -0.94127653927E+00  0.19284289709E+01  0.21472913218E+01  0.00000000000E+00 0.  1.
</event>
<event>
 7    1  0.4630495E-010  0.4778727E+02  0.7816164E-02  0.1312668E+00
        -11   -1    0    0    0    0  0.00000000000E+00  0.00000000000E+00  0.45593999997E+02  0.45594000000E+02  0.51100000000E-03 0.  1.
         11   -1    0    0    0    0 -0.00000000000E+00 -0.00000000000E+00 -0.45593999997E+02  0.45594000000E+02  0.51100000000E-03 0. -1.
    9900012    2    1    2    0    0 -0.42217367226E+02  0.70482093014E+01 -0.71860921648E+01  0.47787271084E+02  0.20000000182E+02 0.  0.
        -12    1    1    2    0    0  0.42217367226E+02 -0.70482093014E+01  0.71860921648E+01  0.43400728916E+02  0.00000000000E+00 0.  1.
         11    1    3    3    0    0 -0.97907518319E+01  0.42079644586E+01 -0.27915901612E+01  0.11016295303E+02  0.51100000000E-03 0. -1.
        -11    1    3    3    0    0 -0.11151213494E+02  0.87730317930E+01  0.29444192748E+00  0.14191629418E+02  0.51100000000E-03 0.  1.
        -12    1    3    3    0    0 -0.21275401900E+02 -0.59327869502E+01 -0.46889439311E+01  0.22579346363E+02  0.00000000000E+00 0.  1.
</event>
<event>
 7    1 -0.4630495E-010  0.4778727E+02  0.7816164E-02  0.1312668E+00
        -11   -1    0    0    0    0  0.00000000000E+00  0.00000000000E+00  0.45593999997E+02  0.45594000000E+02  0.51100000000E-03 0. -1.
         11   -1    0    0    0    0 -0.00000000000E+00 -0.00000000000E+00 -0.45593999997E+02  0.45594000000E+02  0.51100000000E-03 0.  1.
    9900012    2    1    2    0    0 -0.34677190718E+02 -0.24269517817E+02  0.95971884193E+01  0.47787273316E+02  0.20000010358E+02 0.  0.
        -12    1    1    2    0    0  0.34677190718E+02  0.24269517817E+02 -0.95971884193E+01  0.43400726684E+02  0.00000000000E+00 0.  1.
         11    1    3    3    0    0 -0.57911455747E+01 -0.86457054535E+01 -0.72478014055E+00  0.10431246156E+02  0.51100000000E-03 0. -1.
        -11    1    3    3    0    0 -0.26470681203E+02 -0.11256194985E+02  0.36076478336E+01  0.28989894999E+02  0.51100000000E-03 0.  1.
        -12    1    3    3    0    0 -0.24153639401E+01 -0.43676173778E+01  0.67143207262E+01  0.83661321610E+01  0.00000000000E+00 0.  1.
</event>
<event>
 7    1  0.4630495E-010  0.4778727E+02  0.7816164E-02  0.1312668E+00
        -11   -1    0    0    0    0  0.00000000000E+00  0.00000000000E+00  0.45593999997E+02  0.45594000000E+02  0.51100000000E-03 0.  1.
         11   -1    0    0    0    0 -0.00000000000E+00 -0.00000000000E+00 -0.45593999997E+02  0.45594000000E+02  0.51100000000E-03 0. -1.
    9900012    2    1    2    0    0  0.31858915686E+02 -0.13568305302E+02 -0.26163596266E+02  0.47787272046E+02  0.20000004565E+02 0.  0.
        -12    1    1    2    0    0 -0.31858915686E+02  0.13568305302E+02  0.26163596266E+02  0.43400727954E+02  0.00000000000E+00 0.  1.
         11    1    3    3    0    0  0.91324572127E+01 -0.34534051989E+01 -0.59562529013E+01  0.11436989599E+02  0.51100000000E-03 0. -1.
        -11    1    3    3    0    0  0.22326354678E+01  0.40311247373E+01 -0.63700871472E+01  0.78621013924E+01  0.51100000000E-03 0.  1.
        -12    1    3    3    0    0  0.20493823005E+02 -0.14146024840E+02 -0.13837256217E+02  0.28488181054E+02  0.00000000000E+00 0.  1.
</event>
<event>
 7    1  0.4630495E-010  0.4778727E+02  0.7816164E-02  0.1312668E+00
        -11   -1    0    0    0    0  0.00000000000E+00  0.00000000000E+00  0.45593999997E+02  0.45594000000E+02  0.51100000000E-03 0. -1.
         11   -1    0    0    0    0 -0.00000000000E+00 -0.00000000000E+00 -0.45593999997E+02  0.45594000000E+02  0.51100000000E-03 0.  1.
    9900012    2    1    2    0    0  0.60913077404E+01 -0.29103285696E+02 -0.31615152523E+02  0.47787272618E+02  0.20000007173E+02 0.  0.
        -12    1    1    2    0    0 -0.60913077404E+01  0.29103285696E+02  0.31615152523E+02  0.43400727382E+02  0.00000000000E+00 0.  1.
         11    1    3    3    0    0  0.27990274206E+01 -0.19312852753E+01 -0.45116881466E+01  0.56497564115E+01  0.51100000000E-03 0. -1.
        -11    1    3    3    0    0 -0.12510694961E+01 -0.18025542276E+02 -0.26279018656E+02  0.31891568964E+02  0.51100000000E-03 0.  1.
         12    1    3    3    0    0  0.45433498159E+01 -0.91464581445E+01 -0.82444572010E+00  0.10245947242E+02  0.00000000000E+00 0. -1.
</event>
<event>
 7    1  0.4630495E-010  0.4778727E+02  0.7816164E-02  0.1312668E+00
        -11   -1    0    0    0    0  0.00000000000E+00  0.00000000000E+00  0.45593999997E+02  0.45594000000E+02  0.51100000000E-03 0. -1.
         11   -1    0    0    0    0 -0.00000000000E+00 -0.00000000000E+00 -0.45593999997E+02  0.45594000000E+02  0.51100000000E-03 0.  1.
    9900012    2    1    2    0    0  0.81318008342E+01  0.15199885520E+02  0.39830395126E+02  0.47787273272E+02  0.20000010154E+02 0.  0.
        -12    1    1    2    0    0 -0.81318008342E+01 -0.15199885520E+02 -0.39830395126E+02  0.43400726728E+02  0.00000000000E+00 0.  1.
         11    1    3    3    0    0 -0.21885142333E+00 -0.27180446296E+00 -0.53364632669E-01  0.35301792691E+00  0.51100000000E-03 0. -1.
        -11    1    3    3    0    0  0.58965695405E+01  0.19666916085E+01  0.11251717821E+01  0.63169153888E+01  0.51100000000E-03 0.  1.
         12    1    3    3    0    0  0.24540827171E+01  0.13504998374E+02  0.38758587977E+02  0.41117339956E+02  0.00000000000E+00 0. -1.
</event>
<event>
 7    1  0.4630495E-010  0.4778727E+02  0.7816164E-02  0.1312668E+00
        -11   -1    0    0    0    0  0.00000000000E+00  0.00000000000E+00  0.45593999997E+02  0.45594000000E+02  0.51100000000E-03 0.  1.
         11   -1    0    0    0    0 -0.00000000000E+00 -0.00000000000E+00 -0.45593999997E+02  0.45594000000E+02  0.51100000000E-03 0. -1.
    9900012    2    1    2    0    0 -0.22879111772E+02  0.36833978951E+02 -0.18513317072E+01  0.47787272012E+02  0.20000004410E+02 0.  0.
        -12    1    1    2    0    0  0.22879111772E+02 -0.36833978951E+02  0.18513317072E+01  0.43400727988E+02  0.00000000000E+00 0.  1.
         11    1    3    3    0    0 -0.99563343536E+01  0.10158698399E+02 -0.38831397539E+01  0.14744711646E+02  0.51100000000E-03 0. -1.
        -11    1    3    3    0    0 -0.14171243199E+02  0.18376729428E+02  0.56811145605E+01  0.23891491816E+02  0.51100000000E-03 0.  1.
        -12    1    3    3    0    0  0.12484657812E+01  0.82985511238E+01 -0.36493065138E+01  0.91510685493E+01  0.00000000000E+00 0.  1.
</event>
<event>
 7    1  0.4630495E-010  0.4778727E+02  0.7816164E-02  0.1312668E+00
        -11   -1    0    0    0    0  0.00000000000E+00  0.00000000000E+00  0.45593999997E+02  0.45594000000E+02  0.51100000000E-03 0.  1.
         11   -1    0    0    0    0 -0.00000000000E+00 -0.00000000000E+00 -0.45593999997E+02  0.45594000000E+02  0.51100000000E-03 0. -1.
    9900012    2    1    2    0    0 -0.15533722101E+02  0.38621767014E+01 -0.40341173706E+02  0.47787271582E+02  0.20000002452E+02 0.  0.
        -12    1    1    2    0    0  0.15533722101E+02 -0.38621767014E+01  0.40341173706E+02  0.43400728418E+02  0.00000000000E+00 0.  1.
         11    1    3    3    0    0 -0.67358898296E+01 -0.55666536922E+01 -0.20173920358E+02  0.21985151989E+02  0.51100000000E-03 0. -1.
        -11    1    3    3    0    0  0.21211129140E+01  0.15367932372E+01 -0.34577737882E+01  0.43378627548E+01  0.51100000000E-03 0.  1.
        -12    1    3    3    0    0 -0.10918945185E+02  0.78920371564E+01 -0.16709479561E+02  0.21464256838E+02  0.00000000000E+00 0.  1.
</event>
<event>
 7    1  0.4630495E-010  0.4778727E+02  0.7816164E-02  0.1312668E+00
        -11   -1    0    0    0    0  0.00000000000E+00  0.00000000000E+00  0.45593999997E+02  0.45594000000E+02  0.51100000000E-03 0. -1.
         11   -1    0    0    0    0 -0.00000000000E+00 -0.00000000000E+00 -0.45593999997E+02  0.45594000000E+02  0.51100000000E-03 0.  1.
    9900012    2    1    2    0    0 -0.32519958055E+02 -0.54012354622E+01 -0.28229455340E+02  0.47787272296E+02  0.20000005705E+02 0.  0.
        -12    1    1    2    0    0  0.32519958055E+02  0.54012354622E+01  0.28229455340E+02  0.43400727704E+02  0.00000000000E+00 0.  1.
         11    1    3    3    0    0 -0.21658419414E+02 -0.49759138851E+01 -0.16355585345E+02  0.27592608118E+02  0.51100000000E-03 0. -1.
        -11    1    3    3    0    0 -0.52076065974E+01 -0.28388416194E+01  0.91850330695E+00  0.60018194574E+01  0.51100000000E-03 0.  1.
         12    1    3    3    0    0 -0.56539320439E+01  0.24135200422E+01 -0.12792373302E+02  0.14192844720E+02  0.00000000000E+00 0. -1.
</event>
<event>
 7    1  0.4630495E-010  0.4778726E+02  0.7816164E-02  0.1312668E+00
        -11   -1    0    0    0    0  0.00000000000E+00  0.00000000000E+00  0.45593999997E+02  0.45594000000E+02  0.51100000000E-03 0.  1.
         11   -1    0    0    0    0 -0.00000000000E+00 -0.00000000000E+00 -0.45593999997E+02  0.45594000000E+02  0.51100000000E-03 0. -1.
    9900012    2    1    2    0    0 -0.87910421859E+01  0.18610730690E+02 -0.38209723010E+02  0.47787255167E+02  0.19999927609E+02 0.  0.
        -12    1    1    2    0    0  0.87910421859E+01 -0.18610730690E+02  0.38209723010E+02  0.43400744833E+02  0.00000000000E+00 0.  1.
         11    1    3    3    0    0 -0.20092222063E+01  0.69804447540E+00 -0.96496913291E+00  0.23356809826E+01  0.51100000000E-03 0. -1.
        -11    1    3    3    0    0 -0.35488993715E+01 -0.11667558432E+00  0.41361110421E+00  0.35748250793E+01  0.51100000000E-03 0.  1.
         12    1    3    3    0    0 -0.32329206081E+01  0.18029361799E+02 -0.37658364981E+02  0.41876749105E+02  0.00000000000E+00 0. -1.
</event>
<event>
 7    1  0.4630495E-010  0.4778727E+02  0.7816164E-02  0.1312668E+00
        -11   -1    0    0    0    0  0.00000000000E+00  0.00000000000E+00  0.45593999997E+02  0.45594000000E+02  0.51100000000E-03 0.  1.
         11   -1    0    0    0    0 -0.00000000000E+00 -0.00000000000E+00 -0.45593999997E+02  0.45594000000E+02  0.51100000000E-03 0. -1.
    9900012    2    1    2    0    0  0.15015307389E+01 -0.17049406982E+02 -0.39883409169E+02  0.47787271896E+02  0.20000003882E+02 0.  0.
        -12    1    1    2    0    0 -0.15015307389E+01  0.17049406982E+02  0.39883409169E+02  0.43400728104E+02  0.00000000000E+00 0.  1.
         11    1    3    3    0    0 -0.60696321658E+01 -0.10291500880E+02 -0.11859712527E+02  0.16834732148E+02  0.51100000000E-03 0. -1.
        -11    1    3    3    0    0  0.48370617576E+00  0.14741782175E+01 -0.82210358080E+01  0.83661582043E+01  0.51100000000E-03 0.  1.
        -12    1    3    3    0    0  0.70874567290E+01 -0.82320843193E+01 -0.19802660834E+02  0.22586381544E+02  0.00000000000E+00 0.  1.
</event>
<event>
 7    1  0.4630495E-010  0.4778727E+02  0.7816164E-02  0.1312668E+00
        -11   -1    0    0    0    0  0.00000000000E+00  0.00000000000E+00  0.45593999997E+02  0.45594000000E+02  0.51100000000E-03 0. -1.
         11   -1    0    0    0    0 -0.00000000000E+00 -0.00000000000E+00 -0.45593999997E+02  0.45594000000E+02  0.51100000000E-03 0.  1.
    9900012    2    1    2    0    0 -0.42732818374E+02  0.69006335905E+01  0.31481702738E+01  0.47787268598E+02  0.19999988847E+02 0.  0.
        -12    1    1    2    0    0  0.42732818374E+02 -0.69006335905E+01 -0.31481702738E+01  0.43400731402E+02  0.00000000000E+00 0.  1.
         11    1    3    3    0    0 -0.18455096771E+02  0.81102205589E+00  0.60816196402E+01  0.19448250598E+02  0.51100000000E-03 0. -1.
        -11    1    3    3    0    0 -0.16027894563E+02 -0.21705979562E+01 -0.38584628473E+01  0.16628067699E+02  0.51100000000E-03 0.  1.
        -12    1    3    3    0    0 -0.82498270404E+01  0.82602094908E+01  0.92501348090E+00  0.11710950302E+02  0.00000000000E+00 0.  1.
</event>
<event>
 7    1  0.4630495E-010  0.4778726E+02  0.7816164E-02  0.1312668E+00
        -11   -1    0    0    0    0  0.00000000000E+00  0.00000000000E+00  0.45593999997E+02  0.45594000000E+02  0.51100000000E-03 0.  1.
         11   -1    0    0    0    0 -0.00000000000E+00 -0.00000000000E+00 -0.45593999997E+02  0.45594000000E+02  0.51100000000E-03 0. -1.
    9900012    2    1    2    0    0 -0.41066064289E+02  0.13099219934E+02  0.50609004335E+01  0.47787263690E+02  0.19999966469E+02 0.  0.
        -12    1    1    2    0    0  0.41066064289E+02 -0.13099219934E+02 -0.50609004335E+01  0.43400736310E+02  0.00000000000E+00 0.  1.
         11    1    3    3    0    0 -0.52965747741E+01  0.39915214154E+01  0.79141593425E+00  0.66792429952E+01  0.51100000000E-03 0.  1.
        -11    1    3    3    0    0 -0.50436904979E+01 -0.44654682868E+01 -0.18024377114E+01  0.69733781501E+01  0.51100000000E-03 0. -1.
         12    1    3    3    0    0 -0.30725799017E+02  0.13573166805E+02  0.60719222107E+01  0.34134642545E+02  0.00000000000E+00 0. -1.
</event>
<event>
 7    1  0.4630495E-010  0.4778726E+02  0.7816164E-02  0.1312668E+00
        -11   -1    0    0    0    0  0.00000000000E+00  0.00000000000E+00  0.45593999997E+02  0.45594000000E+02  0.51100000000E-03 0. -1.
         11   -1    0    0    0    0 -0.00000000000E+00 -0.00000000000E+00 -0.45593999997E+02  0.45594000000E+02  0.51100000000E-03 0.  1.
    9900012    2    1    2    0    0  0.86477851375E+01 -0.42525222365E+02  0.66735839118E+00  0.47787261616E+02  0.19999957014E+02 0.  0.
        -12    1    1    2    0    0 -0.86477851375E+01  0.42525222365E+02 -0.66735839118E+00  0.43400738384E+02  0.00000000000E+00 0.  1.
         11    1    3    3    0    0  0.13962501889E+01 -0.11353569684E+02  0.43719879718E+01  0.12246115231E+02  0.51100000000E-03 0. -1.
        -11    1    3    3    0    0  0.90753151938E+01 -0.11808770160E+02  0.25533782320E+01  0.15110530739E+02  0.51100000000E-03 0.  1.
        -12    1    3    3    0    0 -0.18237802452E+01 -0.19362882521E+02 -0.62580078126E+01  0.20430615646E+02  0.00000000000E+00 0.  1.
</event>
<event>
 7    1  0.4630495E-010  0.4778728E+02  0.7816164E-02  0.1312668E+00
        -11   -1    0    0    0    0  0.00000000000E+00  0.00000000000E+00  0.45593999997E+02  0.45594000000E+02  0.51100000000E-03 0.  1.
         11   -1    0    0    0    0 -0.00000000000E+00 -0.00000000000E+00 -0.45593999997E+02  0.45594000000E+02  0.51100000000E-03 0. -1.
    9900012    2    1    2    0    0 -0.52242039321E+01 -0.30586643946E+01 -0.42976446797E+02  0.47787277496E+02  0.20000029414E+02 0.  0.
        -12    1    1    2    0    0  0.52242039321E+01  0.30586643946E+01  0.42976446797E+02  0.43400722504E+02  0.00000000000E+00 0.  1.
         11    1    3    3    0    0 -0.62792802705E+01  0.43863426803E+01 -0.11165418752E+02  0.13540160228E+02  0.51100000000E-03 0. -1.
        -11    1    3    3    0    0 -0.44551520139E+01 -0.38276498224E+01 -0.11847669330E+02  0.13223711712E+02  0.51100000000E-03 0.  1.
        -12    1    3    3    0    0  0.55102283523E+01 -0.36173572525E+01 -0.19963358715E+02  0.21023405556E+02  0.00000000000E+00 0.  1.
</event>
<event>
 7    1  0.4630495E-010  0.4778727E+02  0.7816164E-02  0.1312668E+00
        -11   -1    0    0    0    0  0.00000000000E+00  0.00000000000E+00  0.45593999997E+02  0.45594000000E+02  0.51100000000E-03 0.  1.
         11   -1    0    0    0    0 -0.00000000000E+00 -0.00000000000E+00 -0.45593999997E+02  0.45594000000E+02  0.51100000000E-03 0. -1.
    9900012    2    1    2    0    0  0.26889779647E+02 -0.12665140867E+02 -0.31625258749E+02  0.47787273812E+02  0.20000012620E+02 0.  0.
        -12    1    1    2    0    0 -0.26889779647E+02  0.12665140867E+02  0.31625258749E+02  0.43400726188E+02  0.00000000000E+00 0.  1.
         11    1    3    3    0    0  0.30296674791E+01 -0.68673232813E+01 -0.50441882314E+01  0.90433870457E+01  0.51100000000E-03 0. -1.
        -11    1    3    3    0    0 -0.35169371841E+00 -0.35316792324E+01 -0.55797346047E+01  0.66128575663E+01  0.51100000000E-03 0.  1.
         12    1    3    3    0    0  0.24211805887E+02 -0.22661383531E+01 -0.21001335913E+02  0.32131029200E+02  0.00000000000E+00 0. -1.
</event>
<event>
 7    1  0.4630495E-010  0.4778727E+02  0.7816164E-02  0.1312668E+00
        -11   -1    0    0    0    0  0.00000000000E+00  0.00000000000E+00  0.45593999997E+02  0.45594000000E+02  0.51100000000E-03 0. -1.
         11   -1    0    0    0    0 -0.00000000000E+00 -0.00000000000E+00 -0.45593999997E+02  0.45594000000E+02  0.51100000000E-03 0.  1.
    9900012    2    1    2    0    0 -0.28012559089E+02 -0.33144623608E+02  0.59500515190E+00  0.47787267610E+02  0.19999984342E+02 0.  0.
        -12    1    1    2    0    0  0.28012559089E+02  0.33144623608E+02 -0.59500515190E+00  0.43400732390E+02  0.00000000000E+00 0.  1.
         11    1    3    3    0    0 -0.84822483980E+01 -0.13279087120E+02  0.75811363770E+01  0.17485889216E+02  0.51100000000E-03 0. -1.
        -11    1    3    3    0    0 -0.28090700100E+01  0.18204335174E+00  0.10224820643E+01  0.29949096707E+01  0.51100000000E-03 0.  1.
        -12    1    3    3    0    0 -0.16721240681E+02 -0.20047579840E+02 -0.80086132894E+01  0.27306468724E+02  0.00000000000E+00 0.  1.
</event>
<event>
 7    1  0.4630495E-010  0.4778727E+02  0.7816164E-02  0.1312668E+00
        -11   -1    0    0    0    0  0.00000000000E+00  0.00000000000E+00  0.45593999997E+02  0.45594000000E+02  0.51100000000E-03 0.  1.
         11   -1    0    0    0    0 -0.00000000000E+00 -0.00000000000E+00 -0.45593999997E+02  0.45594000000E+02  0.51100000000E-03 0. -1.
    9900012    2    1    2    0    0 -0.23482179864E+02  0.14487896064E+02 -0.33500915656E+02  0.47787271281E+02  0.20000001081E+02 0.  0.
        -12    1    1    2    0    0  0.23482179864E+02 -0.14487896064E+02  0.33500915656E+02  0.43400728719E+02  0.00000000000E+00 0.  1.
         11    1    3    3    0    0 -0.10325384744E+02  0.45269935547E+01 -0.73279476611E+01  0.13446414316E+02  0.51100000000E-03 0. -1.
        -11    1    3    3    0    0 -0.34400974801E+00  0.86427211205E-01  0.19043071381E+01  0.19370591904E+01  0.51100000000E-03 0.  1.
         12    1    3    3    0    0 -0.12812785372E+02  0.98744752976E+01 -0.28077275133E+02  0.32403797776E+02  0.00000000000E+00 0. -1.
</event>
<event>
 7    1  0.4630495E-010  0.4778727E+02  0.7816164E-02  0.1312668E+00
        -11   -1    0    0    0    0  0.00000000000E+00  0.00000000000E+00  0.45593999997E+02  0.45594000000E+02  0.51100000000E-03 0.  1.
         11   -1    0    0    0    0 -0.00000000000E+00 -0.00000000000E+00 -0.45593999997E+02  0.45594000000E+02  0.51100000000E-03 0. -1.
    9900012    2    1    2    0    0 -0.75590736155E+01  0.74825359447E+01 -0.42077254945E+02  0.47787270493E+02  0.19999997484E+02 0.  0.
        -12    1    1    2    0    0  0.75590736155E+01 -0.74825359447E+01  0.42077254945E+02  0.43400729507E+02  0.00000000000E+00 0.  1.
         11    1    3    3    0    0 -0.13434222694E+01 -0.27851555045E+01 -0.99385157548E+01  0.10408456670E+02  0.51100000000E-03 0. -1.
        -11    1    3    3    0    0 -0.24801154393E+01  0.60524662431E+01 -0.30935538615E+02  0.31619469791E+02  0.51100000000E-03 0.  1.
        -12    1    3    3    0    0 -0.37355359068E+01  0.42152252061E+01 -0.12032005748E+01  0.57593440314E+01  0.00000000000E+00 0.  1.
</event>
<event>
 7    1  0.4630495E-010  0.4778726E+02  0.7816164E-02  0.1312668E+00
        -11   -1    0    0    0    0  0.00000000000E+00  0.00000000000E+00  0.45593999997E+02  0.45594000000E+02  0.51100000000E-03 0.  1.
         11   -1    0    0    0    0 -0.00000000000E+00 -0.00000000000E+00 -0.45593999997E+02  0.45594000000E+02  0.51100000000E-03 0. -1.
    9900012    2    1    2    0    0  0.20529480979E+02  0.33887454596E+02 -0.17714550402E+02  0.47787257331E+02  0.19999937477E+02 0.  0.
        -12    1    1    2    0    0 -0.20529480979E+02 -0.33887454596E+02  0.17714550402E+02  0.43400742669E+02  0.00000000000E+00 0.  1.
         11    1    3    3    0    0  0.90629420587E+01  0.14188018801E+01 -0.22029244250E+01  0.94341292029E+01  0.51100000000E-03 0. -1.
        -11    1    3    3    0    0  0.59877963336E+01  0.93317435115E+01 -0.69297642868E+01  0.13075043986E+02  0.51100000000E-03 0.  1.
        -12    1    3    3    0    0  0.54787425862E+01  0.23136909204E+02 -0.85818616903E+01  0.25278084143E+02  0.00000000000E+00 0.  1.
</event>
<event>
 7    1  0.4630495E-010  0.4778727E+02  0.7816164E-02  0.1312668E+00
        -11   -1    0    0    0    0  0.00000000000E+00  0.00000000000E+00  0.45593999997E+02  0.45594000000E+02  0.51100000000E-03 0.  1.
         11   -1    0    0    0    0 -0.00000000000E+00 -0.00000000000E+00 -0.45593999997E+02  0.45594000000E+02  0.51100000000E-03 0. -1.
    9900012    2    1    2    0    0  0.12481326476E+02  0.15517921418E+02 -0.38562079083E+02  0.47787270295E+02  0.19999996583E+02 0.  0.
        -12    1    1    2    0    0 -0.12481326476E+02 -0.15517921418E+02  0.38562079083E+02  0.43400729705E+02  0.00000000000E+00 0.  1.
         11    1    3    3    0    0  0.69223987669E+01  0.10263651056E+02 -0.18643660067E+02  0.22379638036E+02  0.51100000000E-03 0. -1.
        -11    1    3    3    0    0  0.62096329738E+01  0.72827022917E+01 -0.59320198363E+01  0.11259935787E+02  0.51100000000E-03 0.  1.
         12    1    3    3    0    0 -0.65070526417E+00 -0.20284319294E+01 -0.13986399180E+02  0.14147696471E+02  0.00000000000E+00 0. -1.
</event>
<event>
 7    1  0.4630495E-010  0.4778727E+02  0.7816164E-02  0.1312668E+00
        -11   -1    0    0    0    0  0.00000000000E+00  0.00000000000E+00  0.45593999997E+02  0.45594000000E+02  0.51100000000E-03 0.  1.
         11   -1    0    0    0    0 -0.00000000000E+00 -0.00000000000E+00 -0.45593999997E+02  0.45594000000E+02  0.51100000000E-03 0. -1.
    9900012    2    1    2    0    0 -0.36860996817E+01  0.35304584969E+02 -0.24972437811E+02  0.47787266124E+02  0.19999977568E+02 0.  0.
        -12    1    1    2    0    0  0.36860996817E+01 -0.35304584969E+02  0.24972437811E+02  0.43400733876E+02  0.00000000000E+00 0.  1.
         11    1    3    3    0    0  0.62911321224E+01  0.12215281184E+02 -0.71519975750E+01  0.15490077707E+02  0.51100000000E-03 0.  1.
        -11    1    3    3    0    0  0.15097958475E+01  0.47786601563E+01 -0.15607156048E+01  0.52488960602E+01  0.51100000000E-03 0. -1.
        -12    1    3    3    0    0 -0.11487027652E+02  0.18310643629E+02 -0.16259724631E+02  0.27048292357E+02  0.00000000000E+00 0.  1.
</event>
<event>
 7    1  0.4630495E-010  0.4778728E+02  0.7816164E-02  0.1312668E+00
        -11   -1    0    0    0    0  0.00000000000E+00  0.00000000000E+00  0.45593999997E+02  0.45594000000E+02  0.51100000000E-03 0.  1.
         11   -1    0    0    0    0 -0.00000000000E+00 -0.00000000000E+00 -0.45593999997E+02  0.45594000000E+02  0.51100000000E-03 0. -1.
    9900012    2    1    2    0    0  0.23727952900E+02  0.18020509426E+02 -0.31557379948E+02  0.47787277218E+02  0.20000028147E+02 0.  0.
        -12    1    1    2    0    0 -0.23727952900E+02 -0.18020509426E+02  0.31557379948E+02  0.43400722782E+02  0.00000000000E+00 0.  1.
         11    1    3    3    0    0  0.17575611958E+02  0.15029721120E+02 -0.11921736189E+02  0.26017733311E+02  0.51100000000E-03 0. -1.
        -11    1    3    3    0    0  0.53957934455E+00 -0.18080624476E+01 -0.27003478456E+01  0.32942547612E+01  0.51100000000E-03 0.  1.
        -12    1    3    3    0    0  0.56127615980E+01  0.47988507535E+01 -0.16935295914E+02  0.18475289145E+02  0.00000000000E+00 0.  1.
</event>
<event>
 7    1  0.4630495E-010  0.4778730E+02  0.7816164E-02  0.1312668E+00
        -11   -1    0    0    0    0  0.00000000000E+00  0.00000000000E+00  0.45593999997E+02  0.45594000000E+02  0.51100000000E-03 0. -1.
         11   -1    0    0    0    0 -0.00000000000E+00 -0.00000000000E+00 -0.45593999997E+02  0.45594000000E+02  0.51100000000E-03 0.  1.
    9900012    2    1    2    0    0 -0.12766668694E+02  0.15553043771E+02  0.38454337752E+02  0.47787296180E+02  0.20000114605E+02 0.  0.
        -12    1    1    2    0    0  0.12766668694E+02 -0.15553043771E+02 -0.38454337752E+02  0.43400703820E+02  0.00000000000E+00 0.  1.
         11    1    3    3    0    0 -0.28843188993E+01  0.38364820986E+01  0.76922310449E+01  0.90668797894E+01  0.51100000000E-03 0. -1.
        -11    1    3    3    0    0 -0.66275606907E+01  0.96059127333E+01  0.32453795573E+02  0.34488359885E+02  0.51100000000E-03 0.  1.
         12    1    3    3    0    0 -0.32547891039E+01  0.21106489389E+01 -0.16916888662E+01  0.42320565064E+01  0.00000000000E+00 0. -1.
</event>
<event>
 7    1  0.4630495E-010  0.4778727E+02  0.7816164E-02  0.1312668E+00
        -11   -1    0    0    0    0  0.00000000000E+00  0.00000000000E+00  0.45593999997E+02  0.45594000000E+02  0.51100000000E-03 0. -1.
         11   -1    0    0    0    0 -0.00000000000E+00 -0.00000000000E+00 -0.45593999997E+02  0.45594000000E+02  0.51100000000E-03 0.  1.
    9900012    2    1    2    0    0  0.38857440072E+02  0.44885988108E+01  0.18803589389E+02  0.47787272562E+02  0.20000006921E+02 0.  0.
        -12    1    1    2    0    0 -0.38857440072E+02 -0.44885988108E+01 -0.18803589389E+02  0.43400727438E+02  0.00000000000E+00 0.  1.
         11    1    3    3    0    0  0.97716487613E+01  0.16902559119E+01  0.49801781795E+01  0.11097038322E+02  0.51100000000E-03 0. -1.
        -11    1    3    3    0    0  0.11333212630E+02 -0.13876945349E+00  0.14833515862E+02  0.18667998248E+02  0.51100000000E-03 0.  1.
         12    1    3    3    0    0  0.17752578680E+02  0.29371123524E+01 -0.10101046528E+01  0.18022235993E+02  0.00000000000E+00 0. -1.
</event>
<event>
 7    1  0.4630495E-010  0.4778727E+02  0.7816164E-02  0.1312668E+00
        -11   -1    0    0    0    0  0.00000000000E+00  0.00000000000E+00  0.45593999997E+02  0.45594000000E+02  0.51100000000E-03 0.  1.
         11   -1    0    0    0    0 -0.00000000000E+00 -0.00000000000E+00 -0.45593999997E+02  0.45594000000E+02  0.51100000000E-03 0. -1.
    9900012    2    1    2    0    0  0.41031411955E+02  0.13986436251E+02 -0.21037897200E+01  0.47787273080E+02  0.20000009282E+02 0.  0.
        -12    1    1    2    0    0 -0.41031411955E+02 -0.13986436251E+02  0.21037897200E+01  0.43400726920E+02  0.00000000000E+00 0.  1.
         11    1    3    3    0    0  0.87099094553E+01  0.13533096118E+01 -0.63807594354E+01  0.10881546805E+02  0.51100000000E-03 0.  1.
        -11    1    3    3    0    0  0.48301924562E+01 -0.17767356507E+01  0.27357460656E+01  0.58285380271E+01  0.51100000000E-03 0. -1.
         12    1    3    3    0    0  0.27491310043E+02  0.14409862290E+02  0.15412236498E+01  0.31077188249E+02  0.00000000000E+00 0. -1.
</event>
<event>
 7    1  0.4630495E-010  0.4778727E+02  0.7816164E-02  0.1312668E+00
        -11   -1    0    0    0    0  0.00000000000E+00  0.00000000000E+00  0.45593999997E+02  0.45594000000E+02  0.51100000000E-03 0.  1.
         11   -1    0    0    0    0 -0.00000000000E+00 -0.00000000000E+00 -0.45593999997E+02  0.45594000000E+02  0.51100000000E-03 0. -1.
    9900012    2    1    2    0    0  0.59763641482E+01  0.34184178853E+02 -0.26064312603E+02  0.47787269549E+02  0.19999993180E+02 0.  0.
        -12    1    1    2    0    0 -0.59763641482E+01 -0.34184178853E+02  0.26064312603E+02  0.43400730451E+02  0.00000000000E+00 0.  1.
         11    1    3    3    0    0 -0.54119221731E+00 -0.31549691906E+00  0.97263124513E+00  0.11569092973E+01  0.51100000000E-03 0. -1.
        -11    1    3    3    0    0  0.10544468702E+01 -0.12380831190E+01 -0.27351490285E+00  0.16490963207E+01  0.51100000000E-03 0.  1.
         12    1    3    3    0    0  0.54631094953E+01  0.35737758891E+02 -0.26763428945E+02  0.44981263931E+02  0.00000000000E+00 0. -1.
</event>
<event>
 7    1  0.4630495E-010  0.4778727E+02  0.7816164E-02  0.1312668E+00
        -11   -1    0    0    0    0  0.00000000000E+00  0.00000000000E+00  0.45593999997E+02  0.45594000000E+02  0.51100000000E-03 0.  1.
         11   -1    0    0    0    0 -0.00000000000E+00 -0.00000000000E+00 -0.45593999997E+02  0.45594000000E+02  0.51100000000E-03 0. -1.
    9900012    2    1    2    0    0 -0.19989909343E+02  0.24275045165E+02 -0.29912356703E+02  0.47787269858E+02  0.19999994590E+02 0.  0.
        -12    1    1    2    0    0  0.19989909343E+02 -0.24275045165E+02  0.29912356703E+02  0.43400730142E+02  0.00000000000E+00 0.  1.
         11    1    3    3    0    0 -0.91155266461E+01  0.79761098945E+01 -0.12667354840E+02  0.17526352558E+02  0.51100000000E-03 0. -1.
        -11    1    3    3    0    0 -0.70271346479E+01  0.18787243138E+02 -0.15533510022E+02  0.25369884902E+02  0.51100000000E-03 0.  1.
        -12    1    3    3    0    0 -0.38472480494E+01 -0.24883078675E+01 -0.17114918421E+01  0.48910323984E+01  0.00000000000E+00 0.  1.
</event>
<event>
 7    1  0.4630495E-010  0.4778727E+02  0.7816164E-02  0.1312668E+00
        -11   -1    0    0    0    0  0.00000000000E+00  0.00000000000E+00  0.45593999997E+02  0.45594000000E+02  0.51100000000E-03 0. -1.
         11   -1    0    0    0    0 -0.00000000000E+00 -0.00000000000E+00 -0.45593999997E+02  0.45594000000E+02  0.51100000000E-03 0.  1.
    9900012    2    1    2    0    0 -0.23460174503E+02 -0.34860357032E+02  0.10862731292E+02  0.47787271766E+02  0.20000003289E+02 0.  0.
        -12    1    1    2    0    0  0.23460174503E+02  0.34860357032E+02 -0.10862731292E+02  0.43400728234E+02  0.00000000000E+00 0.  1.
         11    1    3    3    0    0 -0.15226870899E+02 -0.18799197779E+02  0.48869427087E+01  0.24680957109E+02  0.51100000000E-03 0. -1.
        -11    1    3    3    0    0 -0.60876952004E+01 -0.57685361323E+01  0.88642192524E+01  0.12202885936E+02  0.51100000000E-03 0.  1.
         12    1    3    3    0    0 -0.21456084043E+01 -0.10292623121E+02 -0.28884306695E+01  0.10903428721E+02  0.00000000000E+00 0. -1.
</event>
<event>
 7    1  0.4630495E-010  0.4778727E+02  0.7816164E-02  0.1312668E+00
        -11   -1    0    0    0    0  0.00000000000E+00  0.00000000000E+00  0.45593999997E+02  0.45594000000E+02  0.51100000000E-03 0. -1.
         11   -1    0    0    0    0 -0.00000000000E+00 -0.00000000000E+00 -0.45593999997E+02  0.45594000000E+02  0.51100000000E-03 0.  1.
    9900012    2    1    2    0    0 -0.21958180101E+02 -0.18605554556E+02  0.32485298192E+02  0.47787274980E+02  0.20000017942E+02 0.  0.
        -12    1    1    2    0    0  0.21958180101E+02  0.18605554556E+02 -0.32485298192E+02  0.43400725020E+02  0.00000000000E+00 0.  1.
         11    1    3    3    0    0 -0.32308086697E+01 -0.71450337156E+01  0.85947123596E+01  0.11634376316E+02  0.51100000000E-03 0. -1.
        -11    1    3    3    0    0  0.71676519133E-01  0.21504420441E+01  0.73351635624E+01  0.76442241763E+01  0.51100000000E-03 0.  1.
         12    1    3    3    0    0 -0.18799047951E+02 -0.13610962885E+02  0.16555422270E+02  0.28508674487E+02  0.00000000000E+00 0. -1.
</event>
<event>
 7    1  0.4630495E-010  0.4778727E+02  0.7816164E-02  0.1312668E+00
        -11   -1    0    0    0    0  0.00000000000E+00  0.00000000000E+00  0.45593999997E+02  0.45594000000E+02  0.51100000000E-03 0.  1.
         11   -1    0    0    0    0 -0.00000000000E+00 -0.00000000000E+00 -0.45593999997E+02  0.45594000000E+02  0.51100000000E-03 0. -1.
    9900012    2    1    2    0    0 -0.62317065705E+01 -0.34740527118E+02 -0.25256386086E+02  0.47787269254E+02  0.19999991835E+02 0.  0.
        -12    1    1    2    0    0  0.62317065705E+01  0.34740527118E+02  0.25256386086E+02  0.43400730746E+02  0.00000000000E+00 0.  1.
         11    1    3    3    0    0  0.18371228518E+01  0.54534448910E+00 -0.28920221195E+01  0.34693246008E+01  0.51100000000E-03 0. -1.
        -11    1    3    3    0    0 -0.81240878730E+01 -0.11619486689E+02 -0.11599165050E+02  0.18318130495E+02  0.51100000000E-03 0.  1.
        -12    1    3    3    0    0  0.55258450636E-01 -0.23666384918E+02 -0.10765198916E+02  0.25999814158E+02  0.00000000000E+00 0.  1.
</event>
<event>
 7    1  0.4630495E-010  0.4778727E+02  0.7816164E-02  0.1312668E+00
        -11   -1    0    0    0    0  0.00000000000E+00  0.00000000000E+00  0.45593999997E+02  0.45594000000E+02  0.51100000000E-03 0. -1.
         11   -1    0    0    0    0 -0.00000000000E+00 -0.00000000000E+00 -0.45593999997E+02  0.45594000000E+02  0.51100000000E-03 0.  1.
    9900012    2    1    2    0    0  0.26418263015E+02  0.34336402451E+02  0.25903865420E+01  0.47787271245E+02  0.20000000915E+02 0.  0.
        -12    1    1    2    0    0 -0.26418263015E+02 -0.34336402451E+02 -0.25903865420E+01  0.43400728755E+02  0.00000000000E+00 0.  1.
         11    1    3    3    0    0  0.28436817823E+01  0.52391893912E+01  0.45373691710E+01  0.74915519627E+01  0.51100000000E-03 0. -1.
        -11    1    3    3    0    0  0.21696417599E+02  0.19731596241E+02  0.31033799214E+01  0.29490700128E+02  0.51100000000E-03 0.  1.
         12    1    3    3    0    0  0.18781636334E+01  0.93656168189E+01 -0.50503625503E+01  0.10805019154E+02  0.00000000000E+00 0. -1.
</event>
<event>
 7    1  0.4630495E-010  0.4778727E+02  0.7816164E-02  0.1312668E+00
        -11   -1    0    0    0    0  0.00000000000E+00  0.00000000000E+00  0.45593999997E+02  0.45594000000E+02  0.51100000000E-03 0.  1.
         11   -1    0    0    0    0 -0.00000000000E+00 -0.00000000000E+00 -0.45593999997E+02  0.45594000000E+02  0.51100000000E-03 0. -1.
    9900012    2    1    2    0    0  0.20694648712E+02  0.35348751305E+02  0.14346460024E+02  0.47787267065E+02  0.19999981855E+02 0.  0.
        -12    1    1    2    0    0 -0.20694648712E+02 -0.35348751305E+02 -0.14346460024E+02  0.43400732935E+02  0.00000000000E+00 0.  1.
         11    1    3    3    0    0  0.12523674692E+02  0.83673752701E+01  0.42259943537E+01  0.15643350832E+02  0.51100000000E-03 0. -1.
        -11    1    3    3    0    0  0.77450840177E+01  0.18338159917E+02  0.15539114912E+01  0.19967200023E+02  0.51100000000E-03 0.  1.
        -12    1    3    3    0    0  0.42589000171E+00  0.86432161178E+01  0.85665541789E+01  0.12176716210E+02  0.00000000000E+00 0.  1.
</event>
<event>
 7    1  0.4630495E-010  0.4778727E+02  0.7816164E-02  0.1312668E+00
        -11   -1    0    0    0    0  0.00000000000E+00  0.00000000000E+00  0.45593999997E+02  0.45594000000E+02  0.51100000000E-03 0.  1.
         11   -1    0    0    0    0 -0.00000000000E+00 -0.00000000000E+00 -0.45593999997E+02  0.45594000000E+02  0.51100000000E-03 0. -1.
    9900012    2    1    2    0    0  0.11046405484E+02 -0.35927648181E+02 -0.21698024373E+02  0.47787271439E+02  0.20000001799E+02 0.  0.
        -12    1    1    2    0    0 -0.11046405484E+02  0.35927648181E+02  0.21698024373E+02  0.43400728561E+02  0.00000000000E+00 0.  1.
         11    1    3    3    0    0  0.13621627911E+02 -0.22873890500E+02 -0.10575664354E+02  0.28646261367E+02  0.51100000000E-03 0. -1.
        -11    1    3    3    0    0  0.25623079959E+01 -0.25307508520E+01 -0.12112795267E+01  0.37996474170E+01  0.51100000000E-03 0.  1.
        -12    1    3    3    0    0 -0.51375304229E+01 -0.10523006830E+02 -0.99110804920E+01  0.15341362655E+02  0.00000000000E+00 0.  1.
</event>
<event>
 7    1  0.4630495E-010  0.4778727E+02  0.7816164E-02  0.1312668E+00
        -11   -1    0    0    0    0  0.00000000000E+00  0.00000000000E+00  0.45593999997E+02  0.45594000000E+02  0.51100000000E-03 0.  1.
         11   -1    0    0    0    0 -0.00000000000E+00 -0.00000000000E+00 -0.45593999997E+02  0.45594000000E+02  0.51100000000E-03 0. -1.
    9900012    2    1    2    0    0 -0.26488841026E+02 -0.74263110724E+01 -0.33568058449E+02  0.47787270247E+02  0.19999996365E+02 0.  0.
        -12    1    1    2    0    0  0.26488841026E+02  0.74263110724E+01  0.33568058449E+02  0.43400729753E+02  0.00000000000E+00 0.  1.
         11    1    3    3    0    0 -0.16719654145E+02  0.44788716796E+01 -0.19724489325E+02  0.26242381860E+02  0.51100000000E-03 0. -1.
        -11    1    3    3    0    0 -0.38751491667E+01 -0.28750156907E+01 -0.12879192820E+01  0.49941198047E+01  0.51100000000E-03 0.  1.
        -12    1    3    3    0    0 -0.58940377140E+01 -0.90301670614E+01 -0.12555649842E+02  0.16550768583E+02  0.00000000000E+00 0.  1.
</event>
<event>
 7    1  0.4630495E-010  0.4778725E+02  0.7816164E-02  0.1312668E+00
        -11   -1    0    0    0    0  0.00000000000E+00  0.00000000000E+00  0.45593999997E+02  0.45594000000E+02  0.51100000000E-03 0.  1.
         11   -1    0    0    0    0 -0.00000000000E+00 -0.00000000000E+00 -0.45593999997E+02  0.45594000000E+02  0.51100000000E-03 0. -1.
    9900012    2    1    2    0    0 -0.33999145315E+02  0.26417487865E+02 -0.54588809502E+01  0.47787251983E+02  0.19999913089E+02 0.  0.
        -12    1    1    2    0    0  0.33999145315E+02 -0.26417487865E+02  0.54588809502E+01  0.43400748017E+02  0.00000000000E+00 0.  1.
         11    1    3    3    0    0 -0.19963233426E+02  0.94430477583E+01 -0.22417129889E+01  0.22197457449E+02  0.51100000000E-03 0. -1.
        -11    1    3    3    0    0 -0.10907737734E+02  0.33633905884E+01 -0.11622470144E+01  0.11473532896E+02  0.51100000000E-03 0.  1.
         12    1    3    3    0    0 -0.31281741543E+01  0.13611049518E+02 -0.20549209469E+01  0.14116261638E+02  0.00000000000E+00 0. -1.
</event>
<event>
 7    1  0.4630495E-010  0.4778727E+02  0.7816164E-02  0.1312668E+00
        -11   -1    0    0    0    0  0.00000000000E+00  0.00000000000E+00  0.45593999997E+02  0.45594000000E+02  0.51100000000E-03 0.  1.
         11   -1    0    0    0    0 -0.00000000000E+00 -0.00000000000E+00 -0.45593999997E+02  0.45594000000E+02  0.51100000000E-03 0. -1.
    9900012    2    1    2    0    0 -0.11145508150E+02 -0.12929057452E+02 -0.39902890061E+02  0.47787268281E+02  0.19999987402E+02 0.  0.
        -12    1    1    2    0    0  0.11145508150E+02  0.12929057452E+02  0.39902890061E+02  0.43400731719E+02  0.00000000000E+00 0.  1.
         11    1    3    3    0    0 -0.28490084793E+01 -0.63393847016E+01 -0.57416331907E+01  0.90150429654E+01  0.51100000000E-03 0. -1.
        -11    1    3    3    0    0  0.22339337917E+01  0.13683313127E+01 -0.57028763960E+00  0.26810481197E+01  0.51100000000E-03 0.  1.
         12    1    3    3    0    0 -0.10530433462E+02 -0.79580040630E+01 -0.33590969231E+02  0.36091177196E+02  0.00000000000E+00 0. -1.
</event>
<event>
 7    1  0.4630495E-010  0.4778727E+02  0.7816164E-02  0.1312668E+00
        -11   -1    0    0    0    0  0.00000000000E+00  0.00000000000E+00  0.45593999997E+02  0.45594000000E+02  0.51100000000E-03 0.  1.
         11   -1    0    0    0    0 -0.00000000000E+00 -0.00000000000E+00 -0.45593999997E+02  0.45594000000E+02  0.51100000000E-03 0. -1.
    9900012    2    1    2    0    0  0.31031783151E+02  0.18383780626E+02 -0.24138941315E+02  0.47787269091E+02  0.19999991092E+02 0.  0.
        -12    1    1    2    0    0 -0.31031783151E+02 -0.18383780626E+02  0.24138941315E+02  0.43400730909E+02  0.00000000000E+00 0.  1.
         11    1    3    3    0    0 -0.13641354674E+01  0.25192179364E+01 -0.23869877172E+01  0.37289455893E+01  0.51100000000E-03 0. -1.
        -11    1    3    3    0    0  0.69599172297E+01 -0.90214729397E+00 -0.75523238324E+00  0.70586609069E+01  0.51100000000E-03 0.  1.
         12    1    3    3    0    0  0.25436001389E+02  0.16766709984E+02 -0.20996721214E+02  0.36999662594E+02  0.00000000000E+00 0. -1.
</event>
<event>
 7    1  0.4630495E-010  0.4778727E+02  0.7816164E-02  0.1312668E+00
        -11   -1    0    0    0    0  0.00000000000E+00  0.00000000000E+00  0.45593999997E+02  0.45594000000E+02  0.51100000000E-03 0.  1.
         11   -1    0    0    0    0 -0.00000000000E+00 -0.00000000000E+00 -0.45593999997E+02  0.45594000000E+02  0.51100000000E-03 0. -1.
    9900012    2    1    2    0    0 -0.67317927256E+00  0.42655710736E+02 -0.79787285567E+01  0.47787274912E+02  0.20000017635E+02 0.  0.
        -12    1    1    2    0    0  0.67317927256E+00 -0.42655710736E+02  0.79787285567E+01  0.43400725088E+02  0.00000000000E+00 0.  1.
         11    1    3    3    0    0  0.43921005735E+01  0.25099664292E+02 -0.89098974645E+01  0.26993887606E+02  0.51100000000E-03 0. -1.
        -11    1    3    3    0    0 -0.37431556437E+01  0.92091565029E+01 -0.43253165467E+01  0.10841039671E+02  0.51100000000E-03 0.  1.
         12    1    3    3    0    0 -0.13221242024E+01  0.83468899415E+01  0.52564854545E+01  0.99523476343E+01  0.00000000000E+00 0. -1.
</event>
<event>
 7    1  0.4630495E-010  0.4778727E+02  0.7816164E-02  0.1312668E+00
        -11   -1    0    0    0    0  0.00000000000E+00  0.00000000000E+00  0.45593999997E+02  0.45594000000E+02  0.51100000000E-03 0.  1.
         11   -1    0    0    0    0 -0.00000000000E+00 -0.00000000000E+00 -0.45593999997E+02  0.45594000000E+02  0.51100000000E-03 0. -1.
    9900012    2    1    2    0    0  0.96783562820E+01  0.38252341785E+02 -0.18075148805E+02  0.47787271472E+02  0.20000001952E+02 0.  0.
        -12    1    1    2    0    0 -0.96783562820E+01 -0.38252341785E+02  0.18075148805E+02  0.43400728528E+02  0.00000000000E+00 0.  1.
         11    1    3    3    0    0  0.85366335125E+01  0.48302973408E+01 -0.48535009957E+01  0.10943598874E+02  0.51100000000E-03 0. -1.
        -11    1    3    3    0    0  0.36340267130E+01  0.93637154870E+01 -0.55141617816E+01  0.11458241501E+02  0.51100000000E-03 0.  1.
        -12    1    3    3    0    0 -0.24923039435E+01  0.24058328957E+02 -0.77074860280E+01  0.25385431098E+02  0.00000000000E+00 0.  1.
</event>
<event>
 7    1  0.4630495E-010  0.4778727E+02  0.7816164E-02  0.1312668E+00
        -11   -1    0    0    0    0  0.00000000000E+00  0.00000000000E+00  0.45593999997E+02  0.45594000000E+02  0.51100000000E-03 0.  1.
         11   -1    0    0    0    0 -0.00000000000E+00 -0.00000000000E+00 -0.45593999997E+02  0.45594000000E+02  0.51100000000E-03 0. -1.
    9900012    2    1    2    0    0  0.33747077991E+02 -0.13199402036E+02 -0.23885852049E+02  0.47787269417E+02  0.19999992578E+02 0.  0.
        -12    1    1    2    0    0 -0.33747077991E+02  0.13199402036E+02  0.23885852049E+02  0.43400730583E+02  0.00000000000E+00 0.  1.
         11    1    3    3    0    0  0.18831427076E+02 -0.14176103009E+02 -0.98420296930E+01  0.25543102611E+02  0.51100000000E-03 0. -1.
        -11    1    3    3    0    0  0.73322261359E+01 -0.36800221118E+01 -0.81908212186E+01  0.11592827755E+02  0.51100000000E-03 0.  1.
        -12    1    3    3    0    0  0.75834247794E+01  0.46567230849E+01 -0.58530011371E+01  0.10651339051E+02  0.00000000000E+00 0.  1.
</event>
<event>
 7    1  0.4630495E-010  0.4778727E+02  0.7816164E-02  0.1312668E+00
        -11   -1    0    0    0    0  0.00000000000E+00  0.00000000000E+00  0.45593999997E+02  0.45594000000E+02  0.51100000000E-03 0.  1.
         11   -1    0    0    0    0 -0.00000000000E+00 -0.00000000000E+00 -0.45593999997E+02  0.45594000000E+02  0.51100000000E-03 0. -1.
    9900012    2    1    2    0    0  0.17093967834E+02 -0.18474668365E+02 -0.35356836461E+02  0.47787274291E+02  0.20000014803E+02 0.  0.
        -12    1    1    2    0    0 -0.17093967834E+02  0.18474668365E+02  0.35356836461E+02  0.43400725709E+02  0.00000000000E+00 0.  1.
         11    1    3    3    0    0  0.23193333241E+01 -0.80735955553E+01 -0.22600892501E+02  0.24111461888E+02  0.51100000000E-03 0. -1.
        -11    1    3    3    0    0  0.91034916785E+01 -0.50144675594E+01 -0.11912220296E+02  0.15808840510E+02  0.51100000000E-03 0.  1.
        -12    1    3    3    0    0  0.56711428313E+01 -0.53866052506E+01 -0.84372366379E+00  0.78669718926E+01  0.00000000000E+00 0.  1.
</event>
<event>
 7    1  0.4630495E-010  0.4778727E+02  0.7816164E-02  0.1312668E+00
        -11   -1    0    0    0    0  0.00000000000E+00  0.00000000000E+00  0.45593999997E+02  0.45594000000E+02  0.51100000000E-03 0. -1.
         11   -1    0    0    0    0 -0.00000000000E+00 -0.00000000000E+00 -0.45593999997E+02  0.45594000000E+02  0.51100000000E-03 0.  1.
    9900012    2    1    2    0    0  0.29329463295E+02  0.31965479507E+02  0.12704093213E+01  0.47787271468E+02  0.20000001931E+02 0.  0.
        -12    1    1    2    0    0 -0.29329463295E+02 -0.31965479507E+02 -0.12704093213E+01  0.43400728532E+02  0.00000000000E+00 0.  1.
         11    1    3    3    0    0  0.25993687446E+02  0.22804317879E+02  0.81308617972E+00  0.34588579190E+02  0.51100000000E-03 0. -1.
        -11    1    3    3    0    0  0.44546953367E+01  0.10006918960E+02  0.19770301739E+01  0.11130650753E+02  0.51100000000E-03 0.  1.
        -12    1    3    3    0    0 -0.11189194883E+01 -0.84575733171E+00 -0.15197070323E+01  0.20680415251E+01  0.00000000000E+00 0.  1.
</event>
<event>
 7    1  0.4630495E-010  0.4778727E+02  0.7816164E-02  0.1312668E+00
        -11   -1    0    0    0    0  0.00000000000E+00  0.00000000000E+00  0.45593999997E+02  0.45594000000E+02  0.51100000000E-03 0.  1.
         11   -1    0    0    0    0 -0.00000000000E+00 -0.00000000000E+00 -0.45593999997E+02  0.45594000000E+02  0.51100000000E-03 0. -1.
    9900012    2    1    2    0    0 -0.20693211012E+02  0.11339164109E+01 -0.38133035777E+02  0.47787272287E+02  0.20000005665E+02 0.  0.
        -12    1    1    2    0    0  0.20693211012E+02 -0.11339164109E+01  0.38133035777E+02  0.43400727713E+02  0.00000000000E+00 0.  1.
         11    1    3    3    0    0 -0.75125351877E+01 -0.28226352948E+00 -0.14924077278E+01  0.76645377378E+01  0.51100000000E-03 0. -1.
        -11    1    3    3    0    0 -0.72446801580E+01 -0.37720433698E+01 -0.14822827903E+02  0.16924240872E+02  0.51100000000E-03 0.  1.
        -12    1    3    3    0    0 -0.59359956666E+01  0.51882233102E+01 -0.21817800146E+02  0.23198493677E+02  0.00000000000E+00 0.  1.
</event>
<event>
 7    1  0.4630495E-010  0.4778727E+02  0.7816164E-02  0.1312668E+00
        -11   -1    0    0    0    0  0.00000000000E+00  0.00000000000E+00  0.45593999997E+02  0.45594000000E+02  0.51100000000E-03 0. -1.
         11   -1    0    0    0    0 -0.00000000000E+00 -0.00000000000E+00 -0.45593999997E+02  0.45594000000E+02  0.51100000000E-03 0.  1.
    9900012    2    1    2    0    0 -0.15161050412E+02  0.28410718241E+02  0.29096344677E+02  0.47787266894E+02  0.19999981076E+02 0.  0.
        -12    1    1    2    0    0  0.15161050412E+02 -0.28410718241E+02 -0.29096344677E+02  0.43400733106E+02  0.00000000000E+00 0.  1.
         11    1    3    3    0    0 -0.14861169828E+02  0.18496610925E+02  0.16058059009E+02  0.28650309663E+02  0.51100000000E-03 0. -1.
        -11    1    3    3    0    0 -0.28840986773E+01  0.93484007104E+01  0.13264333947E+02  0.16481904512E+02  0.51100000000E-03 0.  1.
         12    1    3    3    0    0  0.25842180935E+01  0.56570660511E+00 -0.22604827793E+00  0.26550527193E+01  0.00000000000E+00 0. -1.
</event>
<event>
 7    1  0.4630495E-010  0.4778728E+02  0.7816164E-02  0.1312668E+00
        -11   -1    0    0    0    0  0.00000000000E+00  0.00000000000E+00  0.45593999997E+02  0.45594000000E+02  0.51100000000E-03 0.  1.
         11   -1    0    0    0    0 -0.00000000000E+00 -0.00000000000E+00 -0.45593999997E+02  0.45594000000E+02  0.51100000000E-03 0. -1.
    9900012    2    1    2    0    0  0.89351620595E+01 -0.32936287071E+02 -0.26813919728E+02  0.47787280902E+02  0.20000044944E+02 0.  0.
        -12    1    1    2    0    0 -0.89351620595E+01  0.32936287071E+02  0.26813919728E+02  0.43400719098E+02  0.00000000000E+00 0.  1.
         11    1    3    3    0    0  0.97890560788E+01 -0.52876381305E+01 -0.71629090604E+01  0.13232233462E+02  0.51100000000E-03 0. -1.
        -11    1    3    3    0    0 -0.28278602670E+01 -0.69458866663E+01 -0.66928383092E+01  0.10051677480E+02  0.51100000000E-03 0.  1.
         12    1    3    3    0    0  0.19739662476E+01 -0.20702762274E+02 -0.12958172358E+02  0.24503369960E+02  0.00000000000E+00 0. -1.
</event>
<event>
 7    1  0.4630495E-010  0.4778727E+02  0.7816164E-02  0.1312668E+00
        -11   -1    0    0    0    0  0.00000000000E+00  0.00000000000E+00  0.45593999997E+02  0.45594000000E+02  0.51100000000E-03 0. -1.
         11   -1    0    0    0    0 -0.00000000000E+00 -0.00000000000E+00 -0.45593999997E+02  0.45594000000E+02  0.51100000000E-03 0.  1.
    9900012    2    1    2    0    0 -0.16060718146E+02  0.23872195154E+02  0.32492992690E+02  0.47787274858E+02  0.20000017389E+02 0.  0.
        -12    1    1    2    0    0  0.16060718146E+02 -0.23872195154E+02 -0.32492992690E+02  0.43400725142E+02  0.00000000000E+00 0.  1.
         11    1    3    3    0    0 -0.12171646023E+02  0.18443831254E+02  0.21429575197E+02  0.30782309394E+02  0.51100000000E-03 0. -1.
        -11    1    3    3    0    0 -0.73811173147E+00  0.76831073840E+01  0.34336814379E+01  0.84477876678E+01  0.51100000000E-03 0.  1.
         12    1    3    3    0    0 -0.31509603919E+01 -0.22547434840E+01  0.76297360556E+01  0.85571777969E+01  0.00000000000E+00 0. -1.
</event>
<event>
 7    1  0.4630495E-010  0.4778726E+02  0.7816164E-02  0.1312668E+00
        -11   -1    0    0    0    0  0.00000000000E+00  0.00000000000E+00  0.45593999997E+02  0.45594000000E+02  0.51100000000E-03 0. -1.
         11   -1    0    0    0    0 -0.00000000000E+00 -0.00000000000E+00 -0.45593999997E+02  0.45594000000E+02  0.51100000000E-03 0.  1.
    9900012    2    1    2    0    0 -0.17776489996E+02  0.37242931179E+02 -0.13438167595E+02  0.47787264203E+02  0.19999968809E+02 0.  0.
        -12    1    1    2    0    0  0.17776489996E+02 -0.37242931179E+02  0.13438167595E+02  0.43400735797E+02  0.00000000000E+00 0.  1.
         11    1    3    3    0    0 -0.13201167410E+01  0.22432543241E+02 -0.57442687401E+01  0.23193928690E+02  0.51100000000E-03 0. -1.
        -11    1    3    3    0    0 -0.89305593330E+00  0.34908962630E+01 -0.32274781506E+01  0.48374085101E+01  0.51100000000E-03 0.  1.
        -12    1    3    3    0    0 -0.15563317322E+02  0.11319491675E+02 -0.44664207039E+01  0.19755927003E+02  0.00000000000E+00 0.  1.
</event>
<event>
 7    1  0.4630495E-010  0.4778727E+02  0.7816164E-02  0.1312668E+00
        -11   -1    0    0    0    0  0.00000000000E+00  0.00000000000E+00  0.45593999997E+02  0.45594000000E+02  0.51100000000E-03 0.  1.
         11   -1    0    0    0    0 -0.00000000000E+00 -0.00000000000E+00 -0.45593999997E+02  0.45594000000E+02  0.51100000000E-03 0. -1.
    9900012    2    1    2    0    0 -0.78345340630E+00  0.79835346163E+01 -0.42652932310E+02  0.47787271218E+02  0.20000000789E+02 0.  0.
        -12    1    1    2    0    0  0.78345340630E+00 -0.79835346163E+01  0.42652932310E+02  0.43400728782E+02  0.00000000000E+00 0.  1.
         11    1    3    3    0    0 -0.99447704877E-01  0.17747502613E+01 -0.27321338147E+02  0.27379100546E+02  0.51100000000E-03 0. -1.
        -11    1    3    3    0    0  0.48308525571E+01  0.20308814544E+01 -0.11160050458E+02  0.12329166330E+02  0.51100000000E-03 0.  1.
         12    1    3    3    0    0 -0.55148582586E+01  0.41779029007E+01 -0.41715437054E+01  0.80790043413E+01  0.00000000000E+00 0. -1.
</event>
<event>
 7    1  0.4630495E-010  0.4778727E+02  0.7816164E-02  0.1312668E+00
        -11   -1    0    0    0    0  0.00000000000E+00  0.00000000000E+00  0.45593999997E+02  0.45594000000E+02  0.51100000000E-03 0.  1.
         11   -1    0    0    0    0 -0.00000000000E+00 -0.00000000000E+00 -0.45593999997E+02  0.45594000000E+02  0.51100000000E-03 0. -1.
    9900012    2    1    2    0    0 -0.87420806145E+00 -0.23948459052E+02 -0.36184667684E+02  0.47787272977E+02  0.20000008812E+02 0.  0.
        -12    1    1    2    0    0  0.87420806145E+00  0.23948459052E+02  0.36184667684E+02  0.43400727023E+02  0.00000000000E+00 0.  1.
         11    1    3    3    0    0 -0.29569555499E+01 -0.88545261014E+01 -0.16202867024E+02  0.18699709053E+02  0.51100000000E-03 0. -1.
        -11    1    3    3    0    0  0.50004953861E+01 -0.16745043908E+02 -0.18414042943E+02  0.25386579670E+02  0.51100000000E-03 0.  1.
        -12    1    3    3    0    0 -0.29177478976E+01  0.16511109576E+01 -0.15677577173E+01  0.37009842540E+01  0.00000000000E+00 0.  1.
</event>
<event>
 7    1  0.4630495E-010  0.4778727E+02  0.7816164E-02  0.1312668E+00
        -11   -1    0    0    0    0  0.00000000000E+00  0.00000000000E+00  0.45593999997E+02  0.45594000000E+02  0.51100000000E-03 0. -1.
         11   -1    0    0    0    0 -0.00000000000E+00 -0.00000000000E+00 -0.45593999997E+02  0.45594000000E+02  0.51100000000E-03 0.  1.
    9900012    2    1    2    0    0  0.14472565896E+02 -0.36121434285E+02  0.19220047048E+02  0.47787269742E+02  0.19999994060E+02 0.  0.
        -12    1    1    2    0    0 -0.14472565896E+02  0.36121434285E+02 -0.19220047048E+02  0.43400730258E+02  0.00000000000E+00 0.  1.
         11    1    3    3    0    0  0.79261851809E+01 -0.83874411221E+01  0.88325865326E+01  0.14532314517E+02  0.51100000000E-03 0. -1.
        -11    1    3    3    0    0  0.10015729238E+02 -0.25040539889E+02  0.74790430229E+01  0.27987131952E+02  0.51100000000E-03 0.  1.
        -12    1    3    3    0    0 -0.34693485237E+01 -0.26934532744E+01  0.29084174926E+01  0.52678232726E+01  0.00000000000E+00 0.  1.
</event>
<event>
 7    1  0.4630495E-010  0.4778723E+02  0.7816164E-02  0.1312668E+00
        -11   -1    0    0    0    0  0.00000000000E+00  0.00000000000E+00  0.45593999997E+02  0.45594000000E+02  0.51100000000E-03 0. -1.
         11   -1    0    0    0    0 -0.00000000000E+00 -0.00000000000E+00 -0.45593999997E+02  0.45594000000E+02  0.51100000000E-03 0.  1.
    9900012    2    1    2    0    0 -0.35613901275E+02 -0.20469884564E+02  0.14009292627E+02  0.47787234822E+02  0.19999834849E+02 0.  0.
        -12    1    1    2    0    0  0.35613901275E+02  0.20469884564E+02 -0.14009292627E+02  0.43400765178E+02  0.00000000000E+00 0.  1.
         11    1    3    3    0    0 -0.79915426338E+01 -0.78244077702E+01  0.12877869760E+02  0.17056542453E+02  0.51100000000E-03 0. -1.
        -11    1    3    3    0    0 -0.10086446554E+02 -0.53538068321E+01 -0.16456470913E+01  0.11537235644E+02  0.51100000000E-03 0.  1.
        -12    1    3    3    0    0 -0.17535912087E+02 -0.72916699615E+01  0.27770699585E+01  0.19193456726E+02  0.00000000000E+00 0.  1.
</event>
<event>
 7    1  0.4630495E-010  0.4778723E+02  0.7816164E-02  0.1312668E+00
        -11   -1    0    0    0    0  0.00000000000E+00  0.00000000000E+00  0.45593999997E+02  0.45594000000E+02  0.51100000000E-03 0.  1.
         11   -1    0    0    0    0 -0.00000000000E+00 -0.00000000000E+00 -0.45593999997E+02  0.45594000000E+02  0.51100000000E-03 0. -1.
    9900012    2    1    2    0    0  0.29796702700E+02 -0.26610411794E+02 -0.16960823189E+02  0.47787227762E+02  0.19999802656E+02 0.  0.
        -12    1    1    2    0    0 -0.29796702700E+02  0.26610411794E+02  0.16960823189E+02  0.43400772238E+02  0.00000000000E+00 0.  1.
         11    1    3    3    0    0  0.27758569311E+02 -0.18489189732E+02 -0.62398997886E+01  0.33931175293E+02  0.51100000000E-03 0. -1.
        -11    1    3    3    0    0 -0.94505843450E-01 -0.26051103621E+01 -0.18582269292E+01  0.32013339305E+01  0.51100000000E-03 0.  1.
         12    1    3    3    0    0  0.21326392321E+01 -0.55161117000E+01 -0.88626964713E+01  0.10654718538E+02  0.00000000000E+00 0. -1.
</event>
<event>
 7    1  0.4630495E-010  0.4778727E+02  0.7816164E-02  0.1312668E+00
        -11   -1    0    0    0    0  0.00000000000E+00  0.00000000000E+00  0.45593999997E+02  0.45594000000E+02  0.51100000000E-03 0. -1.
         11   -1    0    0    0    0 -0.00000000000E+00 -0.00000000000E+00 -0.45593999997E+02  0.45594000000E+02  0.51100000000E-03 0.  1.
    9900012    2    1    2    0    0 -0.42210259114E+02 -0.86854077158E+01  0.51459788081E+01  0.47787269827E+02  0.19999994449E+02 0.  0.
        -12    1    1    2    0    0  0.42210259114E+02  0.86854077158E+01 -0.51459788081E+01  0.43400730173E+02  0.00000000000E+00 0.  1.
         11    1    3    3    0    0 -0.50264037657E+01 -0.10794071914E+01 -0.29415740897E+00  0.51494061350E+01  0.51100000000E-03 0. -1.
        -11    1    3    3    0    0 -0.14183845765E+01 -0.40684816502E+01  0.51262840407E+01  0.66965025253E+01  0.51100000000E-03 0.  1.
        -12    1    3    3    0    0 -0.35765470772E+02 -0.35375188743E+01  0.31385217635E+00  0.35941361167E+02  0.00000000000E+00 0.  1.
</event>
<event>
 7    1  0.4630495E-010  0.4778727E+02  0.7816164E-02  0.1312668E+00
        -11   -1    0    0    0    0  0.00000000000E+00  0.00000000000E+00  0.45593999997E+02  0.45594000000E+02  0.51100000000E-03 0.  1.
         11   -1    0    0    0    0 -0.00000000000E+00 -0.00000000000E+00 -0.45593999997E+02  0.45594000000E+02  0.51100000000E-03 0. -1.
    9900012    2    1    2    0    0  0.17083983826E+02  0.53306427683E+01 -0.39539155485E+02  0.47787273369E+02  0.20000010596E+02 0.  0.
        -12    1    1    2    0    0 -0.17083983826E+02 -0.53306427683E+01  0.39539155485E+02  0.43400726631E+02  0.00000000000E+00 0.  1.
         11    1    3    3    0    0  0.47793987885E+01  0.58761577826E+01 -0.14009982837E+02  0.15926440356E+02  0.51100000000E-03 0. -1.
        -11    1    3    3    0    0  0.11754495302E+02  0.45150538282E+01 -0.22895175631E+02  0.26129350132E+02  0.51100000000E-03 0.  1.
        -12    1    3    3    0    0  0.55008973544E+00 -0.50605688425E+01 -0.26339970171E+01  0.57314828808E+01  0.00000000000E+00 0.  1.
</event>
<event>
 7    1  0.4630495E-010  0.4778727E+02  0.7816164E-02  0.1312668E+00
        -11   -1    0    0    0    0  0.00000000000E+00  0.00000000000E+00  0.45593999997E+02  0.45594000000E+02  0.51100000000E-03 0. -1.
         11   -1    0    0    0    0 -0.00000000000E+00 -0.00000000000E+00 -0.45593999997E+02  0.45594000000E+02  0.51100000000E-03 0.  1.
    9900012    2    1    2    0    0 -0.17615370345E+02 -0.38577895500E+02  0.92232231630E+01  0.47787272597E+02  0.20000007080E+02 0.  0.
        -12    1    1    2    0    0  0.17615370345E+02  0.38577895500E+02 -0.92232231630E+01  0.43400727403E+02  0.00000000000E+00 0.  1.
         11    1    3    3    0    0 -0.17572539806E+02 -0.33635599811E+02  0.12278902997E+02  0.39886328346E+02  0.51100000000E-03 0. -1.
        -11    1    3    3    0    0  0.71057848776E-01 -0.50758186806E+01 -0.24229933142E+00  0.50820954068E+01  0.51100000000E-03 0.  1.
        -12    1    3    3    0    0 -0.11388838778E+00  0.13352299161E+00 -0.28133805029E+01  0.28188488445E+01  0.00000000000E+00 0.  1.
</event>
<event>
 7    1  0.4630495E-010  0.4778728E+02  0.7816164E-02  0.1312668E+00
        -11   -1    0    0    0    0  0.00000000000E+00  0.00000000000E+00  0.45593999997E+02  0.45594000000E+02  0.51100000000E-03 0. -1.
         11   -1    0    0    0    0 -0.00000000000E+00 -0.00000000000E+00 -0.45593999997E+02  0.45594000000E+02  0.51100000000E-03 0.  1.
    9900012    2    1    2    0    0  0.32279895359E+02  0.24995141512E+02 -0.14726647131E+02  0.47787275590E+02  0.20000020724E+02 0.  0.
        -12    1    1    2    0    0 -0.32279895359E+02 -0.24995141512E+02  0.14726647131E+02  0.43400724410E+02  0.00000000000E+00 0.  1.
         11    1    3    3    0    0  0.95502112454E+01  0.39023322862E+01 -0.85871065693E-01  0.10317078375E+02  0.51100000000E-03 0. -1.
        -11    1    3    3    0    0  0.19181876876E+02  0.77936136485E+01 -0.94553102744E+01  0.22761540081E+02  0.51100000000E-03 0.  1.
        -12    1    3    3    0    0  0.35478072376E+01  0.13299195578E+02 -0.51854657905E+01  0.14708657133E+02  0.00000000000E+00 0.  1.
</event>
<event>
 7    1  0.4630495E-010  0.4778727E+02  0.7816164E-02  0.1312668E+00
        -11   -1    0    0    0    0  0.00000000000E+00  0.00000000000E+00  0.45593999997E+02  0.45594000000E+02  0.51100000000E-03 0.  1.
         11   -1    0    0    0    0 -0.00000000000E+00 -0.00000000000E+00 -0.45593999997E+02  0.45594000000E+02  0.51100000000E-03 0. -1.
    9900012    2    1    2    0    0  0.40630947835E+02 -0.49996216449E+01 -0.14413648682E+02  0.47787269513E+02  0.19999993015E+02 0.  0.
        -12    1    1    2    0    0 -0.40630947835E+02  0.49996216449E+01  0.14413648682E+02  0.43400730487E+02  0.00000000000E+00 0.  1.
         11    1    3    3    0    0  0.10188404550E+02 -0.19999970127E+00 -0.49908596662E+01  0.11346905641E+02  0.51100000000E-03 0. -1.
        -11    1    3    3    0    0  0.57079126336E+01 -0.38366078435E+01  0.43261142684E+01  0.81249671570E+01  0.51100000000E-03 0.  1.
        -12    1    3    3    0    0  0.24734630651E+02 -0.96301410015E+00 -0.13748903284E+02  0.28315396715E+02  0.00000000000E+00 0.  1.
</event>
<event>
 7    1  0.4630495E-010  0.4778727E+02  0.7816164E-02  0.1312668E+00
        -11   -1    0    0    0    0  0.00000000000E+00  0.00000000000E+00  0.45593999997E+02  0.45594000000E+02  0.51100000000E-03 0. -1.
         11   -1    0    0    0    0 -0.00000000000E+00 -0.00000000000E+00 -0.45593999997E+02  0.45594000000E+02  0.51100000000E-03 0.  1.
    9900012    2    1    2    0    0 -0.21326974389E+02 -0.35351520544E+02  0.13381075705E+02  0.47787273873E+02  0.20000012894E+02 0.  0.
        -12    1    1    2    0    0  0.21326974389E+02  0.35351520544E+02 -0.13381075705E+02  0.43400726127E+02  0.00000000000E+00 0.  1.
         11    1    3    3    0    0  0.17457417782E+01 -0.70929883777E+01 -0.23318106457E+01  0.76678184401E+01  0.51100000000E-03 0. -1.
        -11    1    3    3    0    0 -0.54268088491E+01 -0.91237576452E+01  0.24012073849E+01  0.10883887404E+02  0.51100000000E-03 0.  1.
         12    1    3    3    0    0 -0.17645907318E+02 -0.19134774521E+02  0.13311678966E+02  0.29235568029E+02  0.00000000000E+00 0. -1.
</event>
<event>
 7    1  0.4630495E-010  0.4778727E+02  0.7816164E-02  0.1312668E+00
        -11   -1    0    0    0    0  0.00000000000E+00  0.00000000000E+00  0.45593999997E+02  0.45594000000E+02  0.51100000000E-03 0.  1.
         11   -1    0    0    0    0 -0.00000000000E+00 -0.00000000000E+00 -0.45593999997E+02  0.45594000000E+02  0.51100000000E-03 0. -1.
    9900012    2    1    2    0    0 -0.33067507997E+02  0.57669574657E+01 -0.27511913411E+02  0.47787271168E+02  0.20000000565E+02 0.  0.
        -12    1    1    2    0    0  0.33067507997E+02 -0.57669574657E+01  0.27511913411E+02  0.43400728832E+02  0.00000000000E+00 0.  1.
         11    1    3    3    0    0 -0.95540702228E+01 -0.46076978658E+01 -0.15777293930E+02  0.19011421343E+02  0.51100000000E-03 0. -1.
        -11    1    3    3    0    0 -0.93018901162E+01  0.35280470387E+01 -0.74522053484E+01  0.12430110235E+02  0.51100000000E-03 0.  1.
         12    1    3    3    0    0 -0.14211547658E+02  0.68466082928E+01 -0.42824141325E+01  0.16345739591E+02  0.00000000000E+00 0. -1.
</event>
<event>
 7    1  0.4630495E-010  0.4778727E+02  0.7816164E-02  0.1312668E+00
        -11   -1    0    0    0    0  0.00000000000E+00  0.00000000000E+00  0.45593999997E+02  0.45594000000E+02  0.51100000000E-03 0.  1.
         11   -1    0    0    0    0 -0.00000000000E+00 -0.00000000000E+00 -0.45593999997E+02  0.45594000000E+02  0.51100000000E-03 0. -1.
    9900012    2    1    2    0    0 -0.34293126561E+02 -0.96300649358E+01 -0.24796501867E+02  0.47787272070E+02  0.20000004678E+02 0.  0.
        -12    1    1    2    0    0  0.34293126561E+02  0.96300649358E+01  0.24796501867E+02  0.43400727930E+02  0.00000000000E+00 0.  1.
         11    1    3    3    0    0 -0.37822592171E+01  0.28506114627E+01 -0.79908173776E+01  0.92889522078E+01  0.51100000000E-03 0.  1.
        -11    1    3    3    0    0 -0.14195897626E+02 -0.97996144067E+00 -0.39944011442E+01  0.14779684523E+02  0.51100000000E-03 0. -1.
        -12    1    3    3    0    0 -0.16314969718E+02 -0.11500714958E+02 -0.12811283345E+02  0.23718635340E+02  0.00000000000E+00 0.  1.
</event>
<event>
 7    1  0.4630495E-010  0.4778728E+02  0.7816164E-02  0.1312668E+00
        -11   -1    0    0    0    0  0.00000000000E+00  0.00000000000E+00  0.45593999997E+02  0.45594000000E+02  0.51100000000E-03 0. -1.
         11   -1    0    0    0    0 -0.00000000000E+00 -0.00000000000E+00 -0.45593999997E+02  0.45594000000E+02  0.51100000000E-03 0.  1.
    9900012    2    1    2    0    0 -0.36060793071E+02  0.23732499912E+02  0.44732800374E+01  0.47787279001E+02  0.20000036276E+02 0.  0.
        -12    1    1    2    0    0  0.36060793071E+02 -0.23732499912E+02 -0.44732800374E+01  0.43400720999E+02  0.00000000000E+00 0.  1.
         11    1    3    3    0    0 -0.35412469268E+02  0.25529583192E+02  0.32379937766E+01  0.43775417777E+02  0.51100000000E-03 0. -1.
        -11    1    3    3    0    0  0.34176014877E+00  0.78055763958E+00 -0.23453131056E+00  0.88378471629E+00  0.51100000000E-03 0.  1.
         12    1    3    3    0    0 -0.99008395193E+00 -0.25776409198E+01  0.14698175713E+01  0.31280765074E+01  0.00000000000E+00 0. -1.
</event>
<event>
 7    1  0.4630495E-010  0.4778727E+02  0.7816164E-02  0.1312668E+00
        -11   -1    0    0    0    0  0.00000000000E+00  0.00000000000E+00  0.45593999997E+02  0.45594000000E+02  0.51100000000E-03 0.  1.
         11   -1    0    0    0    0 -0.00000000000E+00 -0.00000000000E+00 -0.45593999997E+02  0.45594000000E+02  0.51100000000E-03 0. -1.
    9900012    2    1    2    0    0  0.41203294335E+02 -0.23443217595E+01 -0.13431888572E+02  0.47787274900E+02  0.20000017580E+02 0.  0.
        -12    1    1    2    0    0 -0.41203294335E+02  0.23443217595E+01  0.13431888572E+02  0.43400725100E+02  0.00000000000E+00 0.  1.
         11    1    3    3    0    0  0.14107728769E+02 -0.11030454586E+01 -0.12955122291E+02  0.19185408887E+02  0.51100000000E-03 0. -1.
        -11    1    3    3    0    0  0.11156489663E+02  0.35269911625E+01 -0.20932817067E+01  0.11886494724E+02  0.51100000000E-03 0.  1.
        -12    1    3    3    0    0  0.15939075903E+02 -0.47682674635E+01  0.16165154250E+01  0.16715371290E+02  0.00000000000E+00 0.  1.
</event>
<event>
 7    1  0.4630495E-010  0.4778727E+02  0.7816164E-02  0.1312668E+00
        -11   -1    0    0    0    0  0.00000000000E+00  0.00000000000E+00  0.45593999997E+02  0.45594000000E+02  0.51100000000E-03 0.  1.
         11   -1    0    0    0    0 -0.00000000000E+00 -0.00000000000E+00 -0.45593999997E+02  0.45594000000E+02  0.51100000000E-03 0. -1.
    9900012    2    1    2    0    0  0.19771203008E+02 -0.11926325534E+02 -0.36748952049E+02  0.47787272059E+02  0.20000004624E+02 0.  0.
        -12    1    1    2    0    0 -0.19771203008E+02  0.11926325534E+02  0.36748952049E+02  0.43400727941E+02  0.00000000000E+00 0.  1.
         11    1    3    3    0    0  0.17910714488E+02 -0.97362824874E+01 -0.35228418095E+02  0.40701723942E+02  0.51100000000E-03 0. -1.
        -11    1    3    3    0    0 -0.22202646409E+01 -0.16718390563E+01 -0.92460900886E+00  0.29290822771E+01  0.51100000000E-03 0.  1.
        -12    1    3    3    0    0  0.40807531604E+01 -0.51820399058E+00 -0.59592494571E+00  0.41564658392E+01  0.00000000000E+00 0.  1.
</event>
<event>
 7    1  0.4630495E-010  0.4778727E+02  0.7816164E-02  0.1312668E+00
        -11   -1    0    0    0    0  0.00000000000E+00  0.00000000000E+00  0.45593999997E+02  0.45594000000E+02  0.51100000000E-03 0.  1.
         11   -1    0    0    0    0 -0.00000000000E+00 -0.00000000000E+00 -0.45593999997E+02  0.45594000000E+02  0.51100000000E-03 0. -1.
    9900012    2    1    2    0    0  0.40836597289E+02 -0.48740387714E+01 -0.13865029147E+02  0.47787274599E+02  0.20000016209E+02 0.  0.
        -12    1    1    2    0    0 -0.40836597289E+02  0.48740387714E+01  0.13865029147E+02  0.43400725401E+02  0.00000000000E+00 0.  1.
         11    1    3    3    0    0  0.88319416412E+01  0.26306594730E+01 -0.64342944846E+00  0.92378333030E+01  0.51100000000E-03 0. -1.
        -11    1    3    3    0    0  0.18031487027E+01 -0.44187560516E+01  0.12271103610E+01  0.49277327836E+01  0.51100000000E-03 0.  1.
         12    1    3    3    0    0  0.30201506945E+02 -0.30859421928E+01 -0.14448710059E+02  0.33621708513E+02  0.00000000000E+00 0. -1.
</event>
<event>
 7    1  0.4630495E-010  0.4778727E+02  0.7816164E-02  0.1312668E+00
        -11   -1    0    0    0    0  0.00000000000E+00  0.00000000000E+00  0.45593999997E+02  0.45594000000E+02  0.51100000000E-03 0.  1.
         11   -1    0    0    0    0 -0.00000000000E+00 -0.00000000000E+00 -0.45593999997E+02  0.45594000000E+02  0.51100000000E-03 0. -1.
    9900012    2    1    2    0    0  0.35289540316E+02  0.20171706562E+02 -0.15210974241E+02  0.47787272602E+02  0.20000007102E+02 0.  0.
        -12    1    1    2    0    0 -0.35289540316E+02 -0.20171706562E+02  0.15210974241E+02  0.43400727398E+02  0.00000000000E+00 0.  1.
         11    1    3    3    0    0  0.50906331515E+01  0.58972420409E+01 -0.21349203481E+01  0.80777406943E+01  0.51100000000E-03 0. -1.
        -11    1    3    3    0    0  0.13840535027E+02  0.10498933126E+02  0.15533866774E+01  0.17441359381E+02  0.51100000000E-03 0.  1.
         12    1    3    3    0    0  0.16358372137E+02  0.37755313944E+01 -0.14629440570E+02  0.22268172527E+02  0.00000000000E+00 0. -1.
</event>
<event>
 7    1  0.4630495E-010  0.4778727E+02  0.7816164E-02  0.1312668E+00
        -11   -1    0    0    0    0  0.00000000000E+00  0.00000000000E+00  0.45593999997E+02  0.45594000000E+02  0.51100000000E-03 0.  1.
         11   -1    0    0    0    0 -0.00000000000E+00 -0.00000000000E+00 -0.45593999997E+02  0.45594000000E+02  0.51100000000E-03 0. -1.
    9900012    2    1    2    0    0  0.42048807181E+02 -0.13237469867E+01 -0.10666251799E+02  0.47787269374E+02  0.19999992385E+02 0.  0.
        -12    1    1    2    0    0 -0.42048807181E+02  0.13237469867E+01  0.10666251799E+02  0.43400730626E+02  0.00000000000E+00 0.  1.
         11    1    3    3    0    0  0.18477870199E+02  0.11268301020E+01 -0.64337649129E+01  0.19598335756E+02  0.51100000000E-03 0. -1.
        -11    1    3    3    0    0  0.25362430808E+02 -0.20807110487E+01 -0.23370155612E+01  0.25554723574E+02  0.51100000000E-03 0.  1.
        -12    1    3    3    0    0 -0.17914938261E+01 -0.36986604001E+00 -0.18954713245E+01  0.26342100445E+01  0.00000000000E+00 0.  1.
</event>
<event>
 7    1  0.4630495E-010  0.4778727E+02  0.7816164E-02  0.1312668E+00
        -11   -1    0    0    0    0  0.00000000000E+00  0.00000000000E+00  0.45593999997E+02  0.45594000000E+02  0.51100000000E-03 0.  1.
         11   -1    0    0    0    0 -0.00000000000E+00 -0.00000000000E+00 -0.45593999997E+02  0.45594000000E+02  0.51100000000E-03 0. -1.
    9900012    2    1    2    0    0 -0.16467094234E+02  0.12790398173E+02 -0.38063945263E+02  0.47787269511E+02  0.19999993010E+02 0.  0.
        -12    1    1    2    0    0  0.16467094234E+02 -0.12790398173E+02  0.38063945263E+02  0.43400730489E+02  0.00000000000E+00 0.  1.
         11    1    3    3    0    0 -0.29239626322E+01  0.85130456979E+01 -0.12201265813E+02  0.15162202750E+02  0.51100000000E-03 0. -1.
        -11    1    3    3    0    0 -0.31793410424E+01  0.25854554136E+01 -0.20362671659E+02  0.20770921658E+02  0.51100000000E-03 0.  1.
        -12    1    3    3    0    0 -0.10363790560E+02  0.16918970617E+01 -0.55000077912E+01  0.11854145104E+02  0.00000000000E+00 0.  1.
</event>
<event>
 7    1  0.4630495E-010  0.4778727E+02  0.7816164E-02  0.1312668E+00
        -11   -1    0    0    0    0  0.00000000000E+00  0.00000000000E+00  0.45593999997E+02  0.45594000000E+02  0.51100000000E-03 0.  1.
         11   -1    0    0    0    0 -0.00000000000E+00 -0.00000000000E+00 -0.45593999997E+02  0.45594000000E+02  0.51100000000E-03 0. -1.
    9900012    2    1    2    0    0 -0.24833785452E+02  0.20431594345E+00 -0.35593042714E+02  0.47787270346E+02  0.19999996815E+02 0.  0.
        -12    1    1    2    0    0  0.24833785452E+02 -0.20431594345E+00  0.35593042714E+02  0.43400729654E+02  0.00000000000E+00 0.  1.
         11    1    3    3    0    0 -0.18606774194E+02  0.44273105057E+01 -0.29727811410E+02  0.35349057918E+02  0.51100000000E-03 0. -1.
        -11    1    3    3    0    0 -0.49751042722E+01 -0.31153260882E+00 -0.65949903737E+01  0.82669591372E+01  0.51100000000E-03 0.  1.
        -12    1    3    3    0    0 -0.12519069861E+01 -0.39114619535E+01  0.72975906954E+00  0.41712532907E+01  0.00000000000E+00 0.  1.
</event>
<event>
 7    1  0.5253748E-010  0.4778727E+02  0.7816164E-02  0.1312668E+00
        -11   -1    0    0    0    0  0.00000000000E+00  0.00000000000E+00  0.45593999997E+02  0.45594000000E+02  0.51100000000E-03 0.  1.
         11   -1    0    0    0    0 -0.00000000000E+00 -0.00000000000E+00 -0.45593999997E+02  0.45594000000E+02  0.51100000000E-03 0. -1.
    9900012    2    1    2    0    0  0.10994013274E+02  0.38936695683E+02 -0.15706323125E+02  0.47787272072E+02  0.20000004683E+02 0.  0.
        -12    1    1    2    0    0 -0.10994013274E+02 -0.38936695683E+02  0.15706323125E+02  0.43400727928E+02  0.00000000000E+00 0.  1.
         11    1    3    3    0    0  0.30826944587E+01  0.23671732780E+02 -0.70950721520E+01  0.24903694245E+02  0.51100000000E-03 0. -1.
        -11    1    3    3    0    0 -0.32286170523E+01  0.54952456280E+01 -0.29288467979E+01  0.70142595054E+01  0.51100000000E-03 0.  1.
         12    1    3    3    0    0  0.11139935868E+02  0.97697172751E+01 -0.56824041754E+01  0.15869318321E+02  0.00000000000E+00 0. -1.
</event>
<event>
 7    1  0.4630495E-010  0.4778726E+02  0.7816164E-02  0.1312668E+00
        -11   -1    0    0    0    0  0.00000000000E+00  0.00000000000E+00  0.45593999997E+02  0.45594000000E+02  0.51100000000E-03 0.  1.
         11   -1    0    0    0    0 -0.00000000000E+00 -0.00000000000E+00 -0.45593999997E+02  0.45594000000E+02  0.51100000000E-03 0. -1.
    9900012    2    1    2    0    0 -0.75606011435E+00  0.26948585264E+02 -0.34012153391E+02  0.47787257461E+02  0.19999938068E+02 0.  0.
        -12    1    1    2    0    0  0.75606011435E+00 -0.26948585264E+02  0.34012153391E+02  0.43400742539E+02  0.00000000000E+00 0.  1.
         11    1    3    3    0    0  0.60653995694E+01  0.10966382529E+02 -0.11396829079E+02  0.16939254146E+02  0.51100000000E-03 0. -1.
        -11    1    3    3    0    0 -0.40259660881E+01 -0.30137804614E+00 -0.71833849209E+01  0.82401608511E+01  0.51100000000E-03 0.  1.
         12    1    3    3    0    0 -0.27954935956E+01  0.16283580782E+02 -0.15431939390E+02  0.22607842464E+02  0.00000000000E+00 0. -1.
</event>
<event>
 7    1  0.4630495E-010  0.4778727E+02  0.7816164E-02  0.1312668E+00
        -11   -1    0    0    0    0  0.00000000000E+00  0.00000000000E+00  0.45593999997E+02  0.45594000000E+02  0.51100000000E-03 0. -1.
         11   -1    0    0    0    0 -0.00000000000E+00 -0.00000000000E+00 -0.45593999997E+02  0.45594000000E+02  0.51100000000E-03 0.  1.
    9900012    2    1    2    0    0  0.39736653734E+02 -0.14823481949E+02  0.92133545039E+01  0.47787272261E+02  0.20000005546E+02 0.  0.
        -12    1    1    2    0    0 -0.39736653734E+02  0.14823481949E+02 -0.92133545039E+01  0.43400727739E+02  0.00000000000E+00 0.  1.
         11    1    3    3    0    0  0.13612650640E+02 -0.97102135557E+01  0.50901194966E+01  0.17478610399E+02  0.51100000000E-03 0. -1.
        -11    1    3    3    0    0  0.22998275117E+02 -0.72016211804E+01 -0.80193660247E+00  0.24112799683E+02  0.51100000000E-03 0.  1.
        -12    1    3    3    0    0  0.31257279775E+01  0.20883527871E+01  0.49251716098E+01  0.61958621788E+01  0.00000000000E+00 0.  1.
</event>
<event>
 7    1  0.4630495E-010  0.4778727E+02  0.7816164E-02  0.1312668E+00
        -11   -1    0    0    0    0  0.00000000000E+00  0.00000000000E+00  0.45593999997E+02  0.45594000000E+02  0.51100000000E-03 0.  1.
         11   -1    0    0    0    0 -0.00000000000E+00 -0.00000000000E+00 -0.45593999997E+02  0.45594000000E+02  0.51100000000E-03 0. -1.
    9900012    2    1    2    0    0  0.37179600848E+02 -0.59227999956E+01 -0.21592147701E+02  0.47787272802E+02  0.20000008012E+02 0.  0.
        -12    1    1    2    0    0 -0.37179600848E+02  0.59227999956E+01  0.21592147701E+02  0.43400727198E+02  0.00000000000E+00 0.  1.
         11    1    3    3    0    0  0.12854826880E+02 -0.50017905232E+00 -0.12127281125E+01  0.12921589025E+02  0.51100000000E-03 0. -1.
        -11    1    3    3    0    0  0.43649345277E+01  0.42595838100E+01 -0.47008361211E+01  0.77002966283E+01  0.51100000000E-03 0.  1.
         12    1    3    3    0    0  0.19959839440E+02 -0.96822047533E+01 -0.15678583467E+02  0.27165387148E+02  0.00000000000E+00 0. -1.
</event>
<event>
 7    1  0.4630495E-010  0.4778727E+02  0.7816164E-02  0.1312668E+00
        -11   -1    0    0    0    0  0.00000000000E+00  0.00000000000E+00  0.45593999997E+02  0.45594000000E+02  0.51100000000E-03 0.  1.
         11   -1    0    0    0    0 -0.00000000000E+00 -0.00000000000E+00 -0.45593999997E+02  0.45594000000E+02  0.51100000000E-03 0. -1.
    9900012    2    1    2    0    0  0.29567455548E+01  0.42408477547E+02 -0.87408251434E+01  0.47787270325E+02  0.19999996718E+02 0.  0.
        -12    1    1    2    0    0 -0.29567455548E+01 -0.42408477547E+02  0.87408251434E+01  0.43400729675E+02  0.00000000000E+00 0.  1.
         11    1    3    3    0    0  0.56205807113E+01  0.30949877836E+02 -0.10086417985E+01  0.31472261186E+02  0.51100000000E-03 0. -1.
        -11    1    3    3    0    0  0.10902810684E+01  0.10399586564E+02 -0.53699214087E+01  0.11754836014E+02  0.51100000000E-03 0.  1.
        -12    1    3    3    0    0 -0.37541162249E+01  0.10590131469E+01 -0.23622619363E+01  0.45601731251E+01  0.00000000000E+00 0.  1.
</event>
<event>
 7    1  0.4630495E-010  0.4778727E+02  0.7816164E-02  0.1312668E+00
        -11   -1    0    0    0    0  0.00000000000E+00  0.00000000000E+00  0.45593999997E+02  0.45594000000E+02  0.51100000000E-03 0.  1.
         11   -1    0    0    0    0 -0.00000000000E+00 -0.00000000000E+00 -0.45593999997E+02  0.45594000000E+02  0.51100000000E-03 0. -1.
    9900012    2    1    2    0    0  0.13954162923E+02  0.21437529981E+02 -0.35061900368E+02  0.47787271757E+02  0.20000003250E+02 0.  0.
        -12    1    1    2    0    0 -0.13954162923E+02 -0.21437529981E+02  0.35061900368E+02  0.43400728243E+02  0.00000000000E+00 0.  1.
         11    1    3    3    0    0  0.12882565837E+01 -0.82955802834E+00 -0.21711494434E+01  0.26573787300E+01  0.51100000000E-03 0.  1.
        -11    1    3    3    0    0  0.15783571213E+02  0.14920451622E+02 -0.17892240740E+02  0.28140242994E+02  0.51100000000E-03 0. -1.
         12    1    3    3    0    0 -0.31176648733E+01  0.73466363870E+01 -0.14998510185E+02  0.16989650033E+02  0.00000000000E+00 0. -1.
</event>
<event>
 7    1  0.5564340E-010  0.4778727E+02  0.7816164E-02  0.1312668E+00
        -11   -1    0    0    0    0  0.00000000000E+00  0.00000000000E+00  0.45593999997E+02  0.45594000000E+02  0.51100000000E-03 0.  1.
         11   -1    0    0    0    0 -0.00000000000E+00 -0.00000000000E+00 -0.45593999997E+02  0.45594000000E+02  0.51100000000E-03 0. -1.
    9900012    2    1    2    0    0  0.25323936191E+02  0.30888057917E+02  0.16977902903E+02  0.47787273588E+02  0.20000011597E+02 0.  0.
        -12    1    1    2    0    0 -0.25323936191E+02 -0.30888057917E+02 -0.16977902903E+02  0.43400726412E+02  0.00000000000E+00 0.  1.
         11    1    3    3    0    0  0.95436786594E+00  0.81254582882E+01  0.79905442192E+01  0.11436025866E+02  0.51100000000E-03 0. -1.
        -11    1    3    3    0    0  0.18349126112E+01  0.37891613534E+01 -0.23083471902E+01  0.48013659582E+01  0.51100000000E-03 0.  1.
         12    1    3    3    0    0  0.22534655714E+02  0.18973438275E+02  0.11295705874E+02  0.31549881764E+02  0.00000000000E+00 0. -1.
</event>
<event>
 7    1  0.4630495E-010  0.4778729E+02  0.7816164E-02  0.1312668E+00
        -11   -1    0    0    0    0  0.00000000000E+00  0.00000000000E+00  0.45593999997E+02  0.45594000000E+02  0.51100000000E-03 0.  1.
         11   -1    0    0    0    0 -0.00000000000E+00 -0.00000000000E+00 -0.45593999997E+02  0.45594000000E+02  0.51100000000E-03 0. -1.
    9900012    2    1    2    0    0  0.11952051935E+02  0.12604686658E+02 -0.39773001671E+02  0.47787293403E+02  0.20000101940E+02 0.  0.
        -12    1    1    2    0    0 -0.11952051935E+02 -0.12604686658E+02  0.39773001671E+02  0.43400706597E+02  0.00000000000E+00 0.  1.
         11    1    3    3    0    0 -0.15125924458E+00  0.56005070859E+01 -0.78035507678E+01  0.96064542795E+01  0.51100000000E-03 0. -1.
        -11    1    3    3    0    0 -0.21188018987E+01  0.62595577820E+01 -0.92920369709E+01  0.11402339078E+02  0.51100000000E-03 0.  1.
         12    1    3    3    0    0  0.14222113078E+02  0.74462179034E+00 -0.22677413932E+02  0.26778500046E+02  0.00000000000E+00 0. -1.
</event>
<event>
 7    1  0.4638004E-010  0.4778727E+02  0.7816164E-02  0.1312668E+00
        -11   -1    0    0    0    0  0.00000000000E+00  0.00000000000E+00  0.45593999997E+02  0.45594000000E+02  0.51100000000E-03 0.  1.
         11   -1    0    0    0    0 -0.00000000000E+00 -0.00000000000E+00 -0.45593999997E+02  0.45594000000E+02  0.51100000000E-03 0. -1.
    9900012    2    1    2    0    0 -0.35457815037E+02  0.11790442390E+02 -0.22076057006E+02  0.47787268763E+02  0.19999989598E+02 0.  0.
        -12    1    1    2    0    0  0.35457815037E+02 -0.11790442390E+02  0.22076057006E+02  0.43400731237E+02  0.00000000000E+00 0.  1.
         11    1    3    3    0    0 -0.13329090966E+02  0.53799249153E+01 -0.19150712669E+02  0.23944896201E+02  0.51100000000E-03 0. -1.
        -11    1    3    3    0    0 -0.18622731832E+01 -0.64238648542E+00  0.67790041320E+00  0.20833317155E+01  0.51100000000E-03 0.  1.
         12    1    3    3    0    0 -0.20266450887E+02  0.70529039605E+01 -0.36032447509E+01  0.21759040847E+02  0.00000000000E+00 0. -1.
</event>
<event>
 7    1  0.4630495E-010  0.4778727E+02  0.7816164E-02  0.1312668E+00
        -11   -1    0    0    0    0  0.00000000000E+00  0.00000000000E+00  0.45593999997E+02  0.45594000000E+02  0.51100000000E-03 0.  1.
         11   -1    0    0    0    0 -0.00000000000E+00 -0.00000000000E+00 -0.45593999997E+02  0.45594000000E+02  0.51100000000E-03 0. -1.
    9900012    2    1    2    0    0  0.30808964291E+02 -0.16715674064E+02 -0.25593306169E+02  0.47787270043E+02  0.19999995433E+02 0.  0.
        -12    1    1    2    0    0 -0.30808964291E+02  0.16715674064E+02  0.25593306169E+02  0.43400729957E+02  0.00000000000E+00 0.  1.
         11    1    3    3    0    0  0.51991184550E+00 -0.18038115305E+01 -0.84426558113E+01  0.86488427997E+01  0.51100000000E-03 0. -1.
        -11    1    3    3    0    0  0.48242964569E+01  0.12692510474E+01 -0.29151437943E+01  0.57777935345E+01  0.51100000000E-03 0.  1.
         12    1    3    3    0    0  0.25464755989E+02 -0.16181113581E+02 -0.14235506564E+02  0.33360633709E+02  0.00000000000E+00 0. -1.
</event>
<event>
 7    1  0.4630495E-010  0.4778726E+02  0.7816164E-02  0.1312668E+00
        -11   -1    0    0    0    0  0.00000000000E+00  0.00000000000E+00  0.45593999997E+02  0.45594000000E+02  0.51100000000E-03 0.  1.
         11   -1    0    0    0    0 -0.00000000000E+00 -0.00000000000E+00 -0.45593999997E+02  0.45594000000E+02  0.51100000000E-03 0. -1.
    9900012    2    1    2    0    0 -0.93121532877E+01 -0.22823350081E+02 -0.35721178063E+02  0.47787261872E+02  0.19999958181E+02 0.  0.
        -12    1    1    2    0    0  0.93121532877E+01  0.22823350081E+02  0.35721178063E+02  0.43400738128E+02  0.00000000000E+00 0.  1.
         11    1    3    3    0    0 -0.13462769196E+02 -0.15448938116E+02 -0.18961752234E+02  0.27918880554E+02  0.51100000000E-03 0. -1.
        -11    1    3    3    0    0 -0.69701662774E+00  0.70981005999E+00 -0.60333240754E+00  0.11634744328E+01  0.51100000000E-03 0.  1.
        -12    1    3    3    0    0  0.48476325358E+01 -0.80842220253E+01 -0.16156093422E+02  0.18704906886E+02  0.00000000000E+00 0.  1.
</event>
<event>
 7    1  0.4630495E-010  0.4778727E+02  0.7816164E-02  0.1312668E+00
        -11   -1    0    0    0    0  0.00000000000E+00  0.00000000000E+00  0.45593999997E+02  0.45594000000E+02  0.51100000000E-03 0.  1.
         11   -1    0    0    0    0 -0.00000000000E+00 -0.00000000000E+00 -0.45593999997E+02  0.45594000000E+02  0.51100000000E-03 0. -1.
    9900012    2    1    2    0    0  0.16769110959E+01  0.24175872068E+02 -0.36004702446E+02  0.47787269369E+02  0.19999992363E+02 0.  0.
        -12    1    1    2    0    0 -0.16769110959E+01 -0.24175872068E+02  0.36004702446E+02  0.43400730631E+02  0.00000000000E+00 0.  1.
         11    1    3    3    0    0  0.19722351398E+01  0.18792355127E+01  0.42858975136E+00  0.27577032101E+01  0.51100000000E-03 0. -1.
        -11    1    3    3    0    0  0.23922081832E+01  0.11841958317E+02 -0.76770918791E+01  0.14314062203E+02  0.51100000000E-03 0.  1.
         12    1    3    3    0    0 -0.26875322271E+01  0.10454678238E+02 -0.28756200318E+02  0.30715503956E+02  0.00000000000E+00 0. -1.
</event>
<event>
 7    1  0.4630495E-010  0.4778727E+02  0.7816164E-02  0.1312668E+00
        -11   -1    0    0    0    0  0.00000000000E+00  0.00000000000E+00  0.45593999997E+02  0.45594000000E+02  0.51100000000E-03 0. -1.
         11   -1    0    0    0    0 -0.00000000000E+00 -0.00000000000E+00 -0.45593999997E+02  0.45594000000E+02  0.51100000000E-03 0.  1.
    9900012    2    1    2    0    0  0.11094620881E+02 -0.30231168723E+02  0.29096551058E+02  0.47787268919E+02  0.19999990311E+02 0.  0.
        -12    1    1    2    0    0 -0.11094620881E+02  0.30231168723E+02 -0.29096551058E+02  0.43400731081E+02  0.00000000000E+00 0.  1.
         11    1    3    3    0    0 -0.18402932117E+01 -0.17594227911E+01  0.82493734565E+01  0.86333313586E+01  0.51100000000E-03 0. -1.
        -11    1    3    3    0    0  0.40686687290E+01 -0.23777697153E+01  0.19720970673E+00  0.47166456274E+01  0.51100000000E-03 0.  1.
        -12    1    3    3    0    0  0.88662453635E+01 -0.26093976217E+02  0.20649967894E+02  0.34437291933E+02  0.00000000000E+00 0.  1.
</event>
<event>
 7    1  0.4630495E-010  0.4778727E+02  0.7816164E-02  0.1312668E+00
        -11   -1    0    0    0    0  0.00000000000E+00  0.00000000000E+00  0.45593999997E+02  0.45594000000E+02  0.51100000000E-03 0.  1.
         11   -1    0    0    0    0 -0.00000000000E+00 -0.00000000000E+00 -0.45593999997E+02  0.45594000000E+02  0.51100000000E-03 0. -1.
    9900012    2    1    2    0    0  0.18741675847E+02 -0.26093405137E+02 -0.29180589301E+02  0.47787274232E+02  0.20000014534E+02 0.  0.
        -12    1    1    2    0    0 -0.18741675847E+02  0.26093405137E+02  0.29180589301E+02  0.43400725768E+02  0.00000000000E+00 0.  1.
         11    1    3    3    0    0  0.10976509952E+02 -0.16205662738E+02 -0.17452675011E+02  0.26224094661E+02  0.51100000000E-03 0. -1.
        -11    1    3    3    0    0  0.83069529333E+00 -0.25087839707E+01 -0.11108193703E+02  0.11418231881E+02  0.51100000000E-03 0.  1.
         12    1    3    3    0    0  0.69344706020E+01 -0.73789584283E+01 -0.61972058659E+00  0.10144947689E+02  0.00000000000E+00 0. -1.
</event>
<event>
 7    1  0.4630495E-010  0.4778729E+02  0.7816164E-02  0.1312668E+00
        -11   -1    0    0    0    0  0.00000000000E+00  0.00000000000E+00  0.45593999997E+02  0.45594000000E+02  0.51100000000E-03 0. -1.
         11   -1    0    0    0    0 -0.00000000000E+00 -0.00000000000E+00 -0.45593999997E+02  0.45594000000E+02  0.51100000000E-03 0.  1.
    9900012    2    1    2    0    0 -0.33234516351E+02 -0.26490745582E+02  0.87936999513E+01  0.47787287593E+02  0.20000075451E+02 0.  0.
        -12    1    1    2    0    0  0.33234516351E+02  0.26490745582E+02 -0.87936999513E+01  0.43400712407E+02  0.00000000000E+00 0.  1.
         11    1    3    3    0    0 -0.11187776423E+02 -0.11264028376E+02  0.13050836427E+01  0.15929467038E+02  0.51100000000E-03 0. -1.
        -11    1    3    3    0    0 -0.94358655942E+01 -0.10087245763E+02  0.11155522401E+02  0.17754823764E+02  0.51100000000E-03 0.  1.
        -12    1    3    3    0    0 -0.12610874334E+02 -0.51394714437E+01 -0.36669060925E+01  0.14102996790E+02  0.00000000000E+00 0.  1.
</event>
<event>
 7    1  0.4630495E-010  0.4778727E+02  0.7816164E-02  0.1312668E+00
        -11   -1    0    0    0    0  0.00000000000E+00  0.00000000000E+00  0.45593999997E+02  0.45594000000E+02  0.51100000000E-03 0.  1.
         11   -1    0    0    0    0 -0.00000000000E+00 -0.00000000000E+00 -0.45593999997E+02  0.45594000000E+02  0.51100000000E-03 0. -1.
    9900012    2    1    2    0    0 -0.18131617102E+02 -0.37435182177E+02  0.12388497138E+02  0.47787271151E+02  0.20000000484E+02 0.  0.
        -12    1    1    2    0    0  0.18131617102E+02  0.37435182177E+02 -0.12388497138E+02  0.43400728849E+02  0.00000000000E+00 0.  1.
         11    1    3    3    0    0  0.14612438040E+01 -0.30568322981E+01 -0.11032465878E+01  0.35632303389E+01  0.51100000000E-03 0. -1.
        -11    1    3    3    0    0  0.19721192536E+01 -0.85860120643E+00  0.18854564806E-01  0.21510011943E+01  0.51100000000E-03 0.  1.
         12    1    3    3    0    0 -0.21564980159E+02 -0.33519748672E+02  0.13472889161E+02  0.42073039617E+02  0.00000000000E+00 0. -1.
</event>
<event>
 7    1  0.4630495E-010  0.4778728E+02  0.7816164E-02  0.1312668E+00
        -11   -1    0    0    0    0  0.00000000000E+00  0.00000000000E+00  0.45593999997E+02  0.45594000000E+02  0.51100000000E-03 0. -1.
         11   -1    0    0    0    0 -0.00000000000E+00 -0.00000000000E+00 -0.45593999997E+02  0.45594000000E+02  0.51100000000E-03 0.  1.
    9900012    2    1    2    0    0 -0.28691925519E+02  0.29467885648E+02 -0.13857834837E+02  0.47787280410E+02  0.20000042701E+02 0.  0.
        -12    1    1    2    0    0  0.28691925519E+02 -0.29467885648E+02  0.13857834837E+02  0.43400719590E+02  0.00000000000E+00 0.  1.
         11    1    3    3    0    0 -0.13725181223E+02  0.13796157280E+02  0.19361629873E+01  0.19556668496E+02  0.51100000000E-03 0. -1.
        -11    1    3    3    0    0  0.10888778025E+01  0.92599507074E+00 -0.23607761040E+00  0.14487424337E+01  0.51100000000E-03 0.  1.
        -12    1    3    3    0    0 -0.16055622098E+02  0.14745733298E+02 -0.15557920214E+02  0.26781869480E+02  0.00000000000E+00 0.  1.
</event>
<event>
 7    1  0.4630495E-010  0.4778727E+02  0.7816164E-02  0.1312668E+00
        -11   -1    0    0    0    0  0.00000000000E+00  0.00000000000E+00  0.45593999997E+02  0.45594000000E+02  0.51100000000E-03 0.  1.
         11   -1    0    0    0    0 -0.00000000000E+00 -0.00000000000E+00 -0.45593999997E+02  0.45594000000E+02  0.51100000000E-03 0. -1.
    9900012    2    1    2    0    0 -0.10117309545E+02  0.14201556451E+02 -0.39743919311E+02  0.47787270971E+02  0.19999999664E+02 0.  0.
        -12    1    1    2    0    0  0.10117309545E+02 -0.14201556451E+02  0.39743919311E+02  0.43400729029E+02  0.00000000000E+00 0.  1.
         11    1    3    3    0    0 -0.46220590349E+01 -0.15013870963E+01 -0.94957318858E+01  0.10667076321E+02  0.51100000000E-03 0. -1.
        -11    1    3    3    0    0 -0.60110909619E+01  0.74193526826E+01 -0.55047792821E+01  0.11021914715E+02  0.51100000000E-03 0.  1.
         12    1    3    3    0    0  0.51584045196E+00  0.82835908646E+01 -0.24743408143E+02  0.26098279934E+02  0.00000000000E+00 0. -1.
</event>
<event>
 7    1  0.4630495E-010  0.4778727E+02  0.7816164E-02  0.1312668E+00
        -11   -1    0    0    0    0  0.00000000000E+00  0.00000000000E+00  0.45593999997E+02  0.45594000000E+02  0.51100000000E-03 0. -1.
         11   -1    0    0    0    0 -0.00000000000E+00 -0.00000000000E+00 -0.45593999997E+02  0.45594000000E+02  0.51100000000E-03 0.  1.
    9900012    2    1    2    0    0 -0.13335032168E+02 -0.29604660854E+02  0.28798686386E+02  0.47787269997E+02  0.19999995224E+02 0.  0.
        -12    1    1    2    0    0  0.13335032168E+02  0.29604660854E+02 -0.28798686386E+02  0.43400730003E+02  0.00000000000E+00 0.  1.
         11    1    3    3    0    0 -0.17844959937E+01 -0.57752168971E+01  0.57338415842E+00  0.60717646376E+01  0.51100000000E-03 0. -1.
        -11    1    3    3    0    0 -0.95476456315E+01 -0.12481207438E+02  0.62684467796E+01  0.16918377627E+02  0.51100000000E-03 0.  1.
         12    1    3    3    0    0 -0.20028905427E+01 -0.11348236519E+02  0.21956855448E+02  0.24797127733E+02  0.00000000000E+00 0. -1.
</event>
<event>
 7    1  0.4630495E-010  0.4778727E+02  0.7816164E-02  0.1312668E+00
        -11   -1    0    0    0    0  0.00000000000E+00  0.00000000000E+00  0.45593999997E+02  0.45594000000E+02  0.51100000000E-03 0.  1.
         11   -1    0    0    0    0 -0.00000000000E+00 -0.00000000000E+00 -0.45593999997E+02  0.45594000000E+02  0.51100000000E-03 0. -1.
    9900012    2    1    2    0    0 -0.10821204454E+02 -0.71304376895E+01 -0.41420789325E+02  0.47787269640E+02  0.19999993598E+02 0.  0.
        -12    1    1    2    0    0  0.10821204454E+02  0.71304376895E+01  0.41420789325E+02  0.43400730360E+02  0.00000000000E+00 0.  1.
         11    1    3    3    0    0  0.85762427120E+00 -0.33587223433E+01 -0.49110884892E+01  0.60112665537E+01  0.51100000000E-03 0. -1.
        -11    1    3    3    0    0 -0.59531674958E+01 -0.90618801523E+01 -0.12575273315E+02  0.16604077039E+02  0.51100000000E-03 0.  1.
         12    1    3    3    0    0 -0.57256612289E+01  0.52901648060E+01 -0.23934427521E+02  0.25171926047E+02  0.00000000000E+00 0. -1.
</event>
<event>
 7    1  0.4630495E-010  0.4778727E+02  0.7816164E-02  0.1312668E+00
        -11   -1    0    0    0    0  0.00000000000E+00  0.00000000000E+00  0.45593999997E+02  0.45594000000E+02  0.51100000000E-03 0. -1.
         11   -1    0    0    0    0 -0.00000000000E+00 -0.00000000000E+00 -0.45593999997E+02  0.45594000000E+02  0.51100000000E-03 0.  1.
    9900012    2    1    2    0    0 -0.41771851128E+02 -0.10394905327E+02  0.55391193320E+01  0.47787269057E+02  0.19999990938E+02 0.  0.
        -12    1    1    2    0    0  0.41771851128E+02  0.10394905327E+02 -0.55391193320E+01  0.43400730943E+02  0.00000000000E+00 0.  1.
         11    1    3    3    0    0 -0.14498928415E+02 -0.66164118370E+01 -0.25194285447E+00  0.15939237945E+02  0.51100000000E-03 0. -1.
        -11    1    3    3    0    0 -0.73259807180E+01 -0.62159564437E+01  0.67307188548E+01  0.11730758055E+02  0.51100000000E-03 0.  1.
         12    1    3    3    0    0 -0.19946941995E+02  0.24374629533E+01 -0.93965666835E+00  0.20117273057E+02  0.00000000000E+00 0. -1.
</event>
<event>
 7    1  0.4630495E-010  0.4778727E+02  0.7816164E-02  0.1312668E+00
        -11   -1    0    0    0    0  0.00000000000E+00  0.00000000000E+00  0.45593999997E+02  0.45594000000E+02  0.51100000000E-03 0.  1.
         11   -1    0    0    0    0 -0.00000000000E+00 -0.00000000000E+00 -0.45593999997E+02  0.45594000000E+02  0.51100000000E-03 0. -1.
    9900012    2    1    2    0    0 -0.41095156900E+02 -0.35842280445E+01  0.13489438195E+02  0.47787267816E+02  0.19999985279E+02 0.  0.
        -12    1    1    2    0    0  0.41095156900E+02  0.35842280445E+01 -0.13489438195E+02  0.43400732184E+02  0.00000000000E+00 0.  1.
         11    1    3    3    0    0 -0.88864180270E+01  0.67514730405E+01  0.64259854870E+01  0.12878047341E+02  0.51100000000E-03 0. -1.
        -11    1    3    3    0    0 -0.98371372381E+00 -0.76742368599E+00  0.11957610851E+01  0.17281425398E+01  0.51100000000E-03 0.  1.
         12    1    3    3    0    0 -0.31225025149E+02 -0.95682773990E+01  0.58676916226E+01  0.33181077935E+02  0.00000000000E+00 0. -1.
</event>
<event>
 7    1  0.4630495E-010  0.4778727E+02  0.7816164E-02  0.1312668E+00
        -11   -1    0    0    0    0  0.00000000000E+00  0.00000000000E+00  0.45593999997E+02  0.45594000000E+02  0.51100000000E-03 0. -1.
         11   -1    0    0    0    0 -0.00000000000E+00 -0.00000000000E+00 -0.45593999997E+02  0.45594000000E+02  0.51100000000E-03 0.  1.
    9900012    2    1    2    0    0  0.11340632938E+02  0.37549248814E+02  0.18575988069E+02  0.47787269884E+02  0.19999994708E+02 0.  0.
        -12    1    1    2    0    0 -0.11340632938E+02 -0.37549248814E+02 -0.18575988069E+02  0.43400730116E+02  0.00000000000E+00 0.  1.
         11    1    3    3    0    0 -0.51455714724E+00  0.68133359314E+01 -0.12948989554E+01  0.69543568457E+01  0.51100000000E-03 0. -1.
        -11    1    3    3    0    0  0.23048958304E+01  0.52066814042E+00 -0.13248714879E+01  0.27090450018E+01  0.51100000000E-03 0.  1.
         12    1    3    3    0    0  0.95502942545E+01  0.30215244742E+02  0.21195758512E+02  0.38123868036E+02  0.00000000000E+00 0. -1.
</event>
<event>
 7    1  0.4630495E-010  0.4778727E+02  0.7816164E-02  0.1312668E+00
        -11   -1    0    0    0    0  0.00000000000E+00  0.00000000000E+00  0.45593999997E+02  0.45594000000E+02  0.51100000000E-03 0.  1.
         11   -1    0    0    0    0 -0.00000000000E+00 -0.00000000000E+00 -0.45593999997E+02  0.45594000000E+02  0.51100000000E-03 0. -1.
    9900012    2    1    2    0    0 -0.31594683519E+00 -0.32977190359E+01 -0.43274108460E+02  0.47787271478E+02  0.20000001977E+02 0.  0.
        -12    1    1    2    0    0  0.31594683519E+00  0.32977190359E+01  0.43274108460E+02  0.43400728522E+02  0.00000000000E+00 0.  1.
         11    1    3    3    0    0 -0.17111287040E+01 -0.43952911909E+01 -0.31858394184E+01  0.56917588807E+01  0.51100000000E-03 0.  1.
        -11    1    3    3    0    0  0.18973770521E+00 -0.19778988550E+01 -0.38276432406E+02  0.38327971017E+02  0.51100000000E-03 0. -1.
         12    1    3    3    0    0  0.12054441637E+01  0.30754710101E+01 -0.18118366352E+01  0.37675415802E+01  0.00000000000E+00 0. -1.
</event>
<event>
 7    1  0.4630495E-010  0.4778727E+02  0.7816164E-02  0.1312668E+00
        -11   -1    0    0    0    0  0.00000000000E+00  0.00000000000E+00  0.45593999997E+02  0.45594000000E+02  0.51100000000E-03 0.  1.
         11   -1    0    0    0    0 -0.00000000000E+00 -0.00000000000E+00 -0.45593999997E+02  0.45594000000E+02  0.51100000000E-03 0. -1.
    9900012    2    1    2    0    0  0.16776834571E+02  0.30968377190E+02 -0.25359825070E+02  0.47787270840E+02  0.19999999069E+02 0.  0.
        -12    1    1    2    0    0 -0.16776834571E+02 -0.30968377190E+02  0.25359825070E+02  0.43400729160E+02  0.00000000000E+00 0.  1.
         11    1    3    3    0    0  0.12035782092E+02  0.15027936159E+02 -0.12166820000E+02  0.22775654215E+02  0.51100000000E-03 0. -1.
        -11    1    3    3    0    0  0.23378187127E+01  0.14097489466E+02 -0.15590690328E+02  0.21148858852E+02  0.51100000000E-03 0.  1.
        -12    1    3    3    0    0  0.24032337672E+01  0.18429515655E+01  0.23976852589E+01  0.38627577731E+01  0.00000000000E+00 0.  1.
</event>
<event>
 7    1  0.4630495E-010  0.4778727E+02  0.7816164E-02  0.1312668E+00
        -11   -1    0    0    0    0  0.00000000000E+00  0.00000000000E+00  0.45593999997E+02  0.45594000000E+02  0.51100000000E-03 0.  1.
         11   -1    0    0    0    0 -0.00000000000E+00 -0.00000000000E+00 -0.45593999997E+02  0.45594000000E+02  0.51100000000E-03 0. -1.
    9900012    2    1    2    0    0 -0.20901021908E+02  0.37956720222E+02 -0.24613821630E+01  0.47787265802E+02  0.19999976096E+02 0.  0.
        -12    1    1    2    0    0  0.20901021908E+02 -0.37956720222E+02  0.24613821630E+01  0.43400734198E+02  0.00000000000E+00 0.  1.
         11    1    3    3    0    0  0.18501640467E+01  0.33256291783E+01 -0.23477539132E+01  0.44715618221E+01  0.51100000000E-03 0. -1.
        -11    1    3    3    0    0 -0.66752926606E+01  0.21328043988E+01 -0.79174946167E+00  0.70523226088E+01  0.51100000000E-03 0.  1.
         12    1    3    3    0    0 -0.16075893294E+02  0.32498286645E+02  0.67812121194E+00  0.36263381371E+02  0.00000000000E+00 0. -1.
</event>
<event>
 7    1  0.4630495E-010  0.4778726E+02  0.7816164E-02  0.1312668E+00
        -11   -1    0    0    0    0  0.00000000000E+00  0.00000000000E+00  0.45593999997E+02  0.45594000000E+02  0.51100000000E-03 0.  1.
         11   -1    0    0    0    0 -0.00000000000E+00 -0.00000000000E+00 -0.45593999997E+02  0.45594000000E+02  0.51100000000E-03 0. -1.
    9900012    2    1    2    0    0  0.34015418531E+02  0.20336241093E+02 -0.17692169597E+02  0.47787259630E+02  0.19999947955E+02 0.  0.
        -12    1    1    2    0    0 -0.34015418531E+02 -0.20336241093E+02  0.17692169597E+02  0.43400740370E+02  0.00000000000E+00 0.  1.
         11    1    3    3    0    0  0.38488711471E+01 -0.44758926145E+00 -0.17681817871E+01  0.42591797740E+01  0.51100000000E-03 0. -1.
        -11    1    3    3    0    0  0.17716321724E+02  0.25250631827E+01 -0.10589555094E+02  0.20793813427E+02  0.51100000000E-03 0.  1.
         12    1    3    3    0    0  0.12450225660E+02  0.18258767172E+02 -0.53344327151E+01  0.22734266428E+02  0.00000000000E+00 0. -1.
</event>
<event>
 7    1  0.4630495E-010  0.4778727E+02  0.7816164E-02  0.1312668E+00
        -11   -1    0    0    0    0  0.00000000000E+00  0.00000000000E+00  0.45593999997E+02  0.45594000000E+02  0.51100000000E-03 0.  1.
         11   -1    0    0    0    0 -0.00000000000E+00 -0.00000000000E+00 -0.45593999997E+02  0.45594000000E+02  0.51100000000E-03 0. -1.
    9900012    2    1    2    0    0  0.26035568575E+02  0.27782982924E+01 -0.34612906796E+02  0.47787273171E+02  0.20000009694E+02 0.  0.
        -12    1    1    2    0    0 -0.26035568575E+02 -0.27782982924E+01  0.34612906796E+02  0.43400726829E+02  0.00000000000E+00 0.  1.
         11    1    3    3    0    0  0.32352195286E+01 -0.30631500106E+01 -0.10457422324E+02  0.11366935177E+02  0.51100000000E-03 0. -1.
        -11    1    3    3    0    0  0.24488312286E+01 -0.26580898747E+01  0.12764669776E+00  0.36164222802E+01  0.51100000000E-03 0.  1.
         12    1    3    3    0    0  0.20351517818E+02  0.84995381777E+01 -0.24283131170E+02  0.32803915714E+02  0.00000000000E+00 0. -1.
</event>
<event>
 7    1  0.7927790E-010  0.4778727E+02  0.7816164E-02  0.1312668E+00
        -11   -1    0    0    0    0  0.00000000000E+00  0.00000000000E+00  0.45593999997E+02  0.45594000000E+02  0.51100000000E-03 0. -1.
         11   -1    0    0    0    0 -0.00000000000E+00 -0.00000000000E+00 -0.45593999997E+02  0.45594000000E+02  0.51100000000E-03 0.  1.
    9900012    2    1    2    0    0 -0.14686381843E+02 -0.39089214353E+02  0.11830754439E+02  0.47787271423E+02  0.20000001726E+02 0.  0.
        -12    1    1    2    0    0  0.14686381843E+02  0.39089214353E+02 -0.11830754439E+02  0.43400728577E+02  0.00000000000E+00 0.  1.
         11    1    3    3    0    0 -0.46668029371E+01 -0.24408654575E+01 -0.71946463742E+00  0.53154965395E+01  0.51100000000E-03 0. -1.
        -11    1    3    3    0    0  0.36548614703E+00 -0.27292008396E+01  0.57180093571E+01  0.63464752907E+01  0.51100000000E-03 0.  1.
         12    1    3    3    0    0 -0.10385065053E+02 -0.33919148056E+02  0.68322097196E+01  0.36125299593E+02  0.00000000000E+00 0. -1.
</event>
<event>
 7    1  0.4630495E-010  0.4778727E+02  0.7816164E-02  0.1312668E+00
        -11   -1    0    0    0    0  0.00000000000E+00  0.00000000000E+00  0.45593999997E+02  0.45594000000E+02  0.51100000000E-03 0.  1.
         11   -1    0    0    0    0 -0.00000000000E+00 -0.00000000000E+00 -0.45593999997E+02  0.45594000000E+02  0.51100000000E-03 0. -1.
    9900012    2    1    2    0    0 -0.96167905296E+01 -0.96455126656E+01 -0.41208067048E+02  0.47787270001E+02  0.19999995241E+02 0.  0.
        -12    1    1    2    0    0  0.96167905296E+01  0.96455126656E+01  0.41208067048E+02  0.43400729999E+02  0.00000000000E+00 0.  1.
         11    1    3    3    0    0 -0.65343372848E+01 -0.12656210085E+02 -0.23954732539E+02  0.27869453327E+02  0.51100000000E-03 0. -1.
        -11    1    3    3    0    0 -0.21091321264E+01 -0.81256386170E+00 -0.42550604633E-01  0.22606435303E+01  0.51100000000E-03 0.  1.
        -12    1    3    3    0    0 -0.97332111839E+00  0.38232612814E+01 -0.17210783904E+02  0.17657173143E+02  0.00000000000E+00 0.  1.
</event>
<event>
 7    1  0.4630495E-010  0.4778727E+02  0.7816164E-02  0.1312668E+00
        -11   -1    0    0    0    0  0.00000000000E+00  0.00000000000E+00  0.45593999997E+02  0.45594000000E+02  0.51100000000E-03 0.  1.
         11   -1    0    0    0    0 -0.00000000000E+00 -0.00000000000E+00 -0.45593999997E+02  0.45594000000E+02  0.51100000000E-03 0. -1.
    9900012    2    1    2    0    0 -0.24221242462E+02  0.16641772583E+02 -0.31937531241E+02  0.47787273245E+02  0.20000010034E+02 0.  0.
        -12    1    1    2    0    0  0.24221242462E+02 -0.16641772583E+02  0.31937531241E+02  0.43400726755E+02  0.00000000000E+00 0.  1.
         11    1    3    3    0    0 -0.64503527628E+01  0.45943895453E+01 -0.31567989896E+01  0.85253062221E+01  0.51100000000E-03 0. -1.
        -11    1    3    3    0    0  0.30160579931E+01  0.15056467147E+01 -0.30703532808E+01  0.45596762360E+01  0.51100000000E-03 0.  1.
         12    1    3    3    0    0 -0.20786947692E+02  0.10541736323E+02 -0.25710378970E+02  0.34702290787E+02  0.00000000000E+00 0. -1.
</event>
<event>
 7    1  0.4630495E-010  0.4778726E+02  0.7816164E-02  0.1312668E+00
        -11   -1    0    0    0    0  0.00000000000E+00  0.00000000000E+00  0.45593999997E+02  0.45594000000E+02  0.51100000000E-03 0.  1.
         11   -1    0    0    0    0 -0.00000000000E+00 -0.00000000000E+00 -0.45593999997E+02  0.45594000000E+02  0.51100000000E-03 0. -1.
    9900012    2    1    2    0    0 -0.33576388045E+02 -0.27265825982E+02  0.35811806992E+01  0.47787263188E+02  0.19999964179E+02 0.  0.
        -12    1    1    2    0    0  0.33576388045E+02  0.27265825982E+02 -0.35811806992E+01  0.43400736812E+02  0.00000000000E+00 0.  1.
         11    1    3    3    0    0 -0.13919680041E+02 -0.11419994382E+02 -0.33322200453E+01  0.18310583137E+02  0.51100000000E-03 0. -1.
        -11    1    3    3    0    0 -0.14926662056E+02 -0.15583737019E+02  0.60501943818E+00  0.21587592464E+02  0.51100000000E-03 0.  1.
        -12    1    3    3    0    0 -0.47300459479E+01 -0.26209458074E+00  0.63083813063E+01  0.78890875863E+01  0.00000000000E+00 0.  1.
</event>
<event>
 7    1  0.4630495E-010  0.4778727E+02  0.7816164E-02  0.1312668E+00
        -11   -1    0    0    0    0  0.00000000000E+00  0.00000000000E+00  0.45593999997E+02  0.45594000000E+02  0.51100000000E-03 0. -1.
         11   -1    0    0    0    0 -0.00000000000E+00 -0.00000000000E+00 -0.45593999997E+02  0.45594000000E+02  0.51100000000E-03 0.  1.
    9900012    2    1    2    0    0 -0.18595392711E+02  0.37073108653E+02  0.12783554214E+02  0.47787271048E+02  0.20000000014E+02 0.  0.
        -12    1    1    2    0    0  0.18595392711E+02 -0.37073108653E+02 -0.12783554214E+02  0.43400728952E+02  0.00000000000E+00 0.  1.
         11    1    3    3    0    0 -0.84041674433E+00  0.59564215042E+01 -0.12801806756E+01  0.61501317273E+01  0.51100000000E-03 0. -1.
        -11    1    3    3    0    0 -0.11695725809E+02  0.71178864486E+01  0.12047429497E+01  0.13744297564E+02  0.51100000000E-03 0.  1.
         12    1    3    3    0    0 -0.60592501573E+01  0.23998800700E+02  0.12858991940E+02  0.27892841756E+02  0.00000000000E+00 0. -1.
</event>
<event>
 7    1  0.4630495E-010  0.4778728E+02  0.7816164E-02  0.1312668E+00
        -11   -1    0    0    0    0  0.00000000000E+00  0.00000000000E+00  0.45593999997E+02  0.45594000000E+02  0.51100000000E-03 0.  1.
         11   -1    0    0    0    0 -0.00000000000E+00 -0.00000000000E+00 -0.45593999997E+02  0.45594000000E+02  0.51100000000E-03 0. -1.
    9900012    2    1    2    0    0  0.23471450078E+02  0.10659232910E+02 -0.34915524865E+02  0.47787284665E+02  0.20000062102E+02 0.  0.
        -12    1    1    2    0    0 -0.23471450078E+02 -0.10659232910E+02  0.34915524865E+02  0.43400715335E+02  0.00000000000E+00 0.  1.
         11    1    3    3    0    0  0.28748766554E+01  0.80715473749E+00 -0.49726659723E+01  0.58003294464E+01  0.51100000000E-03 0. -1.
        -11    1    3    3    0    0  0.65819244627E+01  0.11007401653E+02 -0.58630066140E+01  0.14101754061E+02  0.51100000000E-03 0.  1.
        -12    1    3    3    0    0  0.14014648960E+02 -0.11553234809E+01 -0.24079852279E+02  0.27885201157E+02  0.00000000000E+00 0.  1.
</event>
<event>
 7    1  0.4630495E-010  0.4778729E+02  0.7816164E-02  0.1312668E+00
        -11   -1    0    0    0    0  0.00000000000E+00  0.00000000000E+00  0.45593999997E+02  0.45594000000E+02  0.51100000000E-03 0.  1.
         11   -1    0    0    0    0 -0.00000000000E+00 -0.00000000000E+00 -0.45593999997E+02  0.45594000000E+02  0.51100000000E-03 0. -1.
    9900012    2    1    2    0    0  0.36032381642E+02  0.39375939071E+01 -0.23870165714E+02  0.47787285907E+02  0.20000067764E+02 0.  0.
        -12    1    1    2    0    0 -0.36032381642E+02 -0.39375939071E+01  0.23870165714E+02  0.43400714093E+02  0.00000000000E+00 0.  1.
         11    1    3    3    0    0  0.25533310545E+02  0.50750274588E+01 -0.66960618274E+01  0.26880161743E+02  0.51100000000E-03 0. -1.
        -11    1    3    3    0    0  0.69538076441E+01  0.15347938304E+01 -0.79679088185E+01  0.10686374692E+02  0.51100000000E-03 0.  1.
         12    1    3    3    0    0  0.35452634532E+01 -0.26722273821E+01 -0.92061950678E+01  0.10220749472E+02  0.00000000000E+00 0. -1.
</event>
<event>
 7    1  0.4630495E-010  0.4778727E+02  0.7816164E-02  0.1312668E+00
        -11   -1    0    0    0    0  0.00000000000E+00  0.00000000000E+00  0.45593999997E+02  0.45594000000E+02  0.51100000000E-03 0. -1.
         11   -1    0    0    0    0 -0.00000000000E+00 -0.00000000000E+00 -0.45593999997E+02  0.45594000000E+02  0.51100000000E-03 0.  1.
    9900012    2    1    2    0    0 -0.24496452074E+02  0.29503458021E+02  0.20324697984E+02  0.47787267891E+02  0.19999985624E+02 0.  0.
        -12    1    1    2    0    0  0.24496452074E+02 -0.29503458021E+02 -0.20324697984E+02  0.43400732109E+02  0.00000000000E+00 0.  1.
         11    1    3    3    0    0  0.30874417897E-01 -0.17080152451E+01 -0.12060875167E+01  0.20911519951E+01  0.51100000000E-03 0.  1.
        -11    1    3    3    0    0 -0.37363911849E+01  0.19400956943E+01  0.37169694513E+01  0.56160887237E+01  0.51100000000E-03 0. -1.
        -12    1    3    3    0    0 -0.20790935307E+02  0.29271377572E+02  0.17813816049E+02  0.40080027173E+02  0.00000000000E+00 0.  1.
</event>
<event>
 7    1  0.4630495E-010  0.4778727E+02  0.7816164E-02  0.1312668E+00
        -11   -1    0    0    0    0  0.00000000000E+00  0.00000000000E+00  0.45593999997E+02  0.45594000000E+02  0.51100000000E-03 0. -1.
         11   -1    0    0    0    0 -0.00000000000E+00 -0.00000000000E+00 -0.45593999997E+02  0.45594000000E+02  0.51100000000E-03 0.  1.
    9900012    2    1    2    0    0 -0.68192183870E+00  0.19513978538E+02  0.38760324865E+02  0.47787272363E+02  0.20000006012E+02 0.  0.
        -12    1    1    2    0    0  0.68192183870E+00 -0.19513978538E+02 -0.38760324865E+02  0.43400727637E+02  0.00000000000E+00 0.  1.
         11    1    3    3    0    0  0.12231714949E+01 -0.12597996403E+01 -0.42173469656E+00  0.18058527224E+01  0.51100000000E-03 0. -1.
        -11    1    3    3    0    0 -0.52351601643E+01  0.44975176405E+01  0.16329819649E+02  0.17728439776E+02  0.51100000000E-03 0.  1.
         12    1    3    3    0    0  0.33300668306E+01  0.16276260538E+02  0.22852239913E+02  0.28252979864E+02  0.00000000000E+00 0. -1.
</event>
<event>
 7    1  0.4630495E-010  0.4778727E+02  0.7816164E-02  0.1312668E+00
        -11   -1    0    0    0    0  0.00000000000E+00  0.00000000000E+00  0.45593999997E+02  0.45594000000E+02  0.51100000000E-03 0.  1.
         11   -1    0    0    0    0 -0.00000000000E+00 -0.00000000000E+00 -0.45593999997E+02  0.45594000000E+02  0.51100000000E-03 0. -1.
    9900012    2    1    2    0    0  0.18932336629E+02  0.12760516838E+02 -0.36910152186E+02  0.47787268501E+02  0.19999988405E+02 0.  0.
        -12    1    1    2    0    0 -0.18932336629E+02 -0.12760516838E+02  0.36910152186E+02  0.43400731499E+02  0.00000000000E+00 0.  1.
         11    1    3    3    0    0  0.14123450946E+02  0.52031728030E+01 -0.27105815061E+02  0.31004355891E+02  0.51100000000E-03 0. -1.
        -11    1    3    3    0    0  0.58093692904E+01  0.37975886125E+00 -0.20571359416E+01  0.61745280700E+01  0.51100000000E-03 0.  1.
         12    1    3    3    0    0 -0.10004836069E+01  0.71775851735E+01 -0.77472011832E+01  0.10608384540E+02  0.00000000000E+00 0. -1.
</event>
<event>
 7    1  0.4630495E-010  0.4778727E+02  0.7816164E-02  0.1312668E+00
        -11   -1    0    0    0    0  0.00000000000E+00  0.00000000000E+00  0.45593999997E+02  0.45594000000E+02  0.51100000000E-03 0.  1.
         11   -1    0    0    0    0 -0.00000000000E+00 -0.00000000000E+00 -0.45593999997E+02  0.45594000000E+02  0.51100000000E-03 0. -1.
    9900012    2    1    2    0    0 -0.24828567605E+02  0.29890009419E+02 -0.19332681319E+02  0.47787274207E+02  0.20000014419E+02 0.  0.
        -12    1    1    2    0    0  0.24828567605E+02 -0.29890009419E+02  0.19332681319E+02  0.43400725793E+02  0.00000000000E+00 0.  1.
         11    1    3    3    0    0 -0.20402004865E+02  0.25289168470E+02 -0.10086530434E+02  0.34022374122E+02  0.51100000000E-03 0. -1.
        -11    1    3    3    0    0 -0.62209819573E+01  0.18515936673E+01 -0.41539552199E+01  0.77061248272E+01  0.51100000000E-03 0.  1.
        -12    1    3    3    0    0  0.17944192171E+01  0.27492472818E+01 -0.50921956646E+01  0.60587752583E+01  0.00000000000E+00 0.  1.
</event>
<event>
 7    1  0.4630495E-010  0.4778730E+02  0.7816164E-02  0.1312668E+00
        -11   -1    0    0    0    0  0.00000000000E+00  0.00000000000E+00  0.45593999997E+02  0.45594000000E+02  0.51100000000E-03 0.  1.
         11   -1    0    0    0    0 -0.00000000000E+00 -0.00000000000E+00 -0.45593999997E+02  0.45594000000E+02  0.51100000000E-03 0. -1.
    9900012    2    1    2    0    0 -0.33248642933E+02  0.14625278699E+02 -0.23753948864E+02  0.47787295852E+02  0.20000113108E+02 0.  0.
        -12    1    1    2    0    0  0.33248642933E+02 -0.14625278699E+02  0.23753948864E+02  0.43400704148E+02  0.00000000000E+00 0.  1.
         11    1    3    3    0    0 -0.56708883252E+00  0.27075694874E+01 -0.18482207615E+01  0.33269268879E+01  0.51100000000E-03 0. -1.
        -11    1    3    3    0    0 -0.17674730889E+02  0.32215591176E+01 -0.20198039201E+02  0.27032116880E+02  0.51100000000E-03 0.  1.
         12    1    3    3    0    0 -0.15006823211E+02  0.86961500942E+01 -0.17076889013E+01  0.17428252085E+02  0.00000000000E+00 0. -1.
</event>
<event>
 7    1  0.4630495E-010  0.4778727E+02  0.7816164E-02  0.1312668E+00
        -11   -1    0    0    0    0  0.00000000000E+00  0.00000000000E+00  0.45593999997E+02  0.45594000000E+02  0.51100000000E-03 0.  1.
         11   -1    0    0    0    0 -0.00000000000E+00 -0.00000000000E+00 -0.45593999997E+02  0.45594000000E+02  0.51100000000E-03 0. -1.
    9900012    2    1    2    0    0  0.31068659021E+02  0.20223235022E+02 -0.22569504867E+02  0.47787270074E+02  0.19999995575E+02 0.  0.
        -12    1    1    2    0    0 -0.31068659021E+02 -0.20223235022E+02  0.22569504867E+02  0.43400729926E+02  0.00000000000E+00 0.  1.
         11    1    3    3    0    0  0.20623414187E+02  0.13908283037E+02 -0.19697218784E+02  0.31729260594E+02  0.51100000000E-03 0.  1.
        -11    1    3    3    0    0  0.46497532001E+01  0.54645636407E-01 -0.54326553954E+01  0.71510094304E+01  0.51100000000E-03 0. -1.
        -12    1    3    3    0    0  0.57954916348E+01  0.62603063485E+01  0.25603693123E+01  0.89070000495E+01  0.00000000000E+00 0.  1.
</event>
<event>
 7    1  0.4630495E-010  0.4778727E+02  0.7816164E-02  0.1312668E+00
        -11   -1    0    0    0    0  0.00000000000E+00  0.00000000000E+00  0.45593999997E+02  0.45594000000E+02  0.51100000000E-03 0. -1.
         11   -1    0    0    0    0 -0.00000000000E+00 -0.00000000000E+00 -0.45593999997E+02  0.45594000000E+02  0.51100000000E-03 0.  1.
    9900012    2    1    2    0    0 -0.96018525701E+01 -0.12254795109E+02  0.40512312787E+02  0.47787273470E+02  0.20000011060E+02 0.  0.
        -12    1    1    2    0    0  0.96018525701E+01  0.12254795109E+02 -0.40512312787E+02  0.43400726530E+02  0.00000000000E+00 0.  1.
         11    1    3    3    0    0 -0.42006203823E+01 -0.14409180443E+01  0.44955731539E+01  0.63191482535E+01  0.51100000000E-03 0. -1.
        -11    1    3    3    0    0 -0.22440550172E+01  0.21171746168E+01  0.15780424109E-01  0.30852002465E+01  0.51100000000E-03 0.  1.
         12    1    3    3    0    0 -0.31571771705E+01 -0.12931051682E+02  0.36000959209E+02  0.38382924970E+02  0.00000000000E+00 0. -1.
</event>
<event>
 7    1  0.4630495E-010  0.4778727E+02  0.7816164E-02  0.1312668E+00
        -11   -1    0    0    0    0  0.00000000000E+00  0.00000000000E+00  0.45593999997E+02  0.45594000000E+02  0.51100000000E-03 0. -1.
         11   -1    0    0    0    0 -0.00000000000E+00 -0.00000000000E+00 -0.45593999997E+02  0.45594000000E+02  0.51100000000E-03 0.  1.
    9900012    2    1    2    0    0  0.45414427528E+01  0.27110536861E+02  0.33585971384E+02  0.47787269764E+02  0.19999994162E+02 0.  0.
        -12    1    1    2    0    0 -0.45414427528E+01 -0.27110536861E+02 -0.33585971384E+02  0.43400730236E+02  0.00000000000E+00 0.  1.
         11    1    3    3    0    0  0.33598491095E+01  0.21978660551E+02  0.19100432632E+02  0.29311714939E+02  0.51100000000E-03 0. -1.
        -11    1    3    3    0    0  0.31442099371E+01  0.64029950445E+01  0.14475016843E+02  0.16137239991E+02  0.51100000000E-03 0.  1.
         12    1    3    3    0    0 -0.19626162937E+01 -0.12711187347E+01  0.10521909944E-01  0.23383148344E+01  0.00000000000E+00 0. -1.
</event>
<event>
 7    1  0.4630495E-010  0.4778727E+02  0.7816164E-02  0.1312668E+00
        -11   -1    0    0    0    0  0.00000000000E+00  0.00000000000E+00  0.45593999997E+02  0.45594000000E+02  0.51100000000E-03 0.  1.
         11   -1    0    0    0    0 -0.00000000000E+00 -0.00000000000E+00 -0.45593999997E+02  0.45594000000E+02  0.51100000000E-03 0. -1.
    9900012    2    1    2    0    0 -0.19244074608E+02 -0.38673145794E+02 -0.42043685046E+01  0.47787270425E+02  0.19999997177E+02 0.  0.
        -12    1    1    2    0    0  0.19244074608E+02  0.38673145794E+02  0.42043685046E+01  0.43400729575E+02  0.00000000000E+00 0.  1.
         11    1    3    3    0    0 -0.23248956448E+01 -0.12744044199E+02  0.78263837246E+00  0.12977993889E+02  0.51100000000E-03 0. -1.
        -11    1    3    3    0    0 -0.69180048682E+01 -0.22140597987E+02 -0.47317733026E+00  0.23201051003E+02  0.51100000000E-03 0.  1.
        -12    1    3    3    0    0 -0.10001174095E+02 -0.37885036080E+01 -0.45138295468E+01  0.11608225533E+02  0.00000000000E+00 0.  1.
</event>
<event>
 7    1  0.4630495E-010  0.4778727E+02  0.7816164E-02  0.1312668E+00
        -11   -1    0    0    0    0  0.00000000000E+00  0.00000000000E+00  0.45593999997E+02  0.45594000000E+02  0.51100000000E-03 0. -1.
         11   -1    0    0    0    0 -0.00000000000E+00 -0.00000000000E+00 -0.45593999997E+02  0.45594000000E+02  0.51100000000E-03 0.  1.
    9900012    2    1    2    0    0  0.42661253044E+01 -0.43120155189E+02  0.24648374182E+01  0.47787273829E+02  0.20000012696E+02 0.  0.
        -12    1    1    2    0    0 -0.42661253044E+01  0.43120155189E+02 -0.24648374182E+01  0.43400726171E+02  0.00000000000E+00 0.  1.
         11    1    3    3    0    0 -0.39254566597E+01 -0.35794618033E+02  0.20858932643E+01  0.36069583323E+02  0.51100000000E-03 0. -1.
        -11    1    3    3    0    0  0.12825856512E+01 -0.16409231945E+01  0.16809647569E+01  0.26764337574E+01  0.51100000000E-03 0.  1.
         12    1    3    3    0    0  0.69089963130E+01 -0.56846139620E+01 -0.13020206031E+01  0.90412567490E+01  0.00000000000E+00 0. -1.
</event>
<event>
 7    1  0.4630495E-010  0.4778728E+02  0.7816164E-02  0.1312668E+00
        -11   -1    0    0    0    0  0.00000000000E+00  0.00000000000E+00  0.45593999997E+02  0.45594000000E+02  0.51100000000E-03 0.  1.
         11   -1    0    0    0    0 -0.00000000000E+00 -0.00000000000E+00 -0.45593999997E+02  0.45594000000E+02  0.51100000000E-03 0. -1.
    9900012    2    1    2    0    0 -0.17328587154E+02 -0.39765996116E+02 -0.14171792809E+01  0.47787276769E+02  0.20000026101E+02 0.  0.
        -12    1    1    2    0    0  0.17328587154E+02  0.39765996116E+02  0.14171792809E+01  0.43400723231E+02  0.00000000000E+00 0.  1.
         11    1    3    3    0    0 -0.14785742318E+02 -0.21513955291E+02 -0.18253895102E+01  0.26168693037E+02  0.51100000000E-03 0. -1.
        -11    1    3    3    0    0 -0.39895094234E+01 -0.73491395992E+01  0.49520459789E+01  0.97184771403E+01  0.51100000000E-03 0.  1.
        -12    1    3    3    0    0  0.14466645876E+01 -0.10902901226E+02 -0.45438357496E+01  0.11900106591E+02  0.00000000000E+00 0.  1.
</event>
<event>
 7    1  0.4630495E-010  0.4778728E+02  0.7816164E-02  0.1312668E+00
        -11   -1    0    0    0    0  0.00000000000E+00  0.00000000000E+00  0.45593999997E+02  0.45594000000E+02  0.51100000000E-03 0.  1.
         11   -1    0    0    0    0 -0.00000000000E+00 -0.00000000000E+00 -0.45593999997E+02  0.45594000000E+02  0.51100000000E-03 0. -1.
    9900012    2    1    2    0    0 -0.15696542646E+02  0.35375701938E+02 -0.19641822337E+02  0.47787275083E+02  0.20000018414E+02 0.  0.
        -12    1    1    2    0    0  0.15696542646E+02 -0.35375701938E+02  0.19641822337E+02  0.43400724917E+02  0.00000000000E+00 0.  1.
         11    1    3    3    0    0 -0.41565018280E+01  0.39506476556E+01 -0.56124675259E+01  0.80239588942E+01  0.51100000000E-03 0.  1.
        -11    1    3    3    0    0 -0.11316111788E+02  0.31822492588E+02 -0.93268988062E+01  0.35038785112E+02  0.51100000000E-03 0. -1.
         12    1    3    3    0    0 -0.22392902931E+00 -0.39743830635E+00 -0.47024560047E+01  0.47245310766E+01  0.00000000000E+00 0. -1.
</event>
<event>
 7    1  0.4630495E-010  0.4778727E+02  0.7816164E-02  0.1312668E+00
        -11   -1    0    0    0    0  0.00000000000E+00  0.00000000000E+00  0.45593999997E+02  0.45594000000E+02  0.51100000000E-03 0.  1.
         11   -1    0    0    0    0 -0.00000000000E+00 -0.00000000000E+00 -0.45593999997E+02  0.45594000000E+02  0.51100000000E-03 0. -1.
    9900012    2    1    2    0    0 -0.25455554403E+02  0.25177361113E+02 -0.24530355952E+02  0.47787272752E+02  0.20000007784E+02 0.  0.
        -12    1    1    2    0    0  0.25455554403E+02 -0.25177361113E+02  0.24530355952E+02  0.43400727248E+02  0.00000000000E+00 0.  1.
         11    1    3    3    0    0 -0.22454610475E+02  0.17230478322E+02 -0.11985843905E+02  0.30736938188E+02  0.51100000000E-03 0. -1.
        -11    1    3    3    0    0 -0.46963305633E+01  0.57521763378E+01 -0.48450762911E+01  0.88666689297E+01  0.51100000000E-03 0.  1.
        -12    1    3    3    0    0  0.16953866348E+01  0.21947064528E+01 -0.76994357557E+01  0.81836656342E+01  0.00000000000E+00 0.  1.
</event>
<event>
 7    1  0.4630495E-010  0.4778726E+02  0.7816164E-02  0.1312668E+00
        -11   -1    0    0    0    0  0.00000000000E+00  0.00000000000E+00  0.45593999997E+02  0.45594000000E+02  0.51100000000E-03 0.  1.
         11   -1    0    0    0    0 -0.00000000000E+00 -0.00000000000E+00 -0.45593999997E+02  0.45594000000E+02  0.51100000000E-03 0. -1.
    9900012    2    1    2    0    0  0.30382164414E+01  0.19279597048E+02 -0.38764547968E+02  0.47787264975E+02  0.19999972329E+02 0.  0.
        -12    1    1    2    0    0 -0.30382164414E+01 -0.19279597048E+02  0.38764547968E+02  0.43400735025E+02  0.00000000000E+00 0.  1.
         11    1    3    3    0    0 -0.26406817262E+01  0.18401730073E+02 -0.23753536327E+02  0.30163344608E+02  0.51100000000E-03 0. -1.
        -11    1    3    3    0    0 -0.16123967496E+01 -0.72465710250E+00 -0.27628588288E+01  0.32799909090E+01  0.51100000000E-03 0.  1.
        -12    1    3    3    0    0  0.72912949171E+01  0.16025240781E+01 -0.12248152812E+02  0.14343929458E+02  0.00000000000E+00 0.  1.
</event>
<event>
 7    1  0.4630495E-010  0.4778727E+02  0.7816164E-02  0.1312668E+00
        -11   -1    0    0    0    0  0.00000000000E+00  0.00000000000E+00  0.45593999997E+02  0.45594000000E+02  0.51100000000E-03 0.  1.
         11   -1    0    0    0    0 -0.00000000000E+00 -0.00000000000E+00 -0.45593999997E+02  0.45594000000E+02  0.51100000000E-03 0. -1.
    9900012    2    1    2    0    0 -0.37040209938E+02 -0.18035871653E+02 -0.13651148122E+02  0.47787266555E+02  0.19999979532E+02 0.  0.
        -12    1    1    2    0    0  0.37040209938E+02  0.18035871653E+02  0.13651148122E+02  0.43400733445E+02  0.00000000000E+00 0.  1.
         11    1    3    3    0    0 -0.26171480288E+02 -0.90662270949E+01 -0.24877840102E+01  0.27808846142E+02  0.51100000000E-03 0. -1.
        -11    1    3    3    0    0 -0.11795191254E+02 -0.59514629864E+01 -0.10157220801E+02  0.16664800721E+02  0.51100000000E-03 0.  1.
        -12    1    3    3    0    0  0.92646160462E+00 -0.30181815718E+01 -0.10061433098E+01  0.33136196923E+01  0.00000000000E+00 0.  1.
</event>
<event>
 7    1  0.4630495E-010  0.4778728E+02  0.7816164E-02  0.1312668E+00
        -11   -1    0    0    0    0  0.00000000000E+00  0.00000000000E+00  0.45593999997E+02  0.45594000000E+02  0.51100000000E-03 0.  1.
         11   -1    0    0    0    0 -0.00000000000E+00 -0.00000000000E+00 -0.45593999997E+02  0.45594000000E+02  0.51100000000E-03 0. -1.
    9900012    2    1    2    0    0 -0.55040748974E+01 -0.43048181594E+02 -0.42609175945E+00  0.47787281882E+02  0.20000049411E+02 0.  0.
        -12    1    1    2    0    0  0.55040748974E+01  0.43048181594E+02  0.42609175945E+00  0.43400718118E+02  0.00000000000E+00 0.  1.
         11    1    3    3    0    0 -0.41761123983E+01 -0.10519118934E+02  0.43301146833E+01  0.12117824530E+02  0.51100000000E-03 0. -1.
        -11    1    3    3    0    0 -0.35771454835E+01 -0.18481173617E+02  0.36068977448E+01  0.19166623586E+02  0.51100000000E-03 0.  1.
         12    1    3    3    0    0  0.22491829844E+01 -0.14047889043E+02 -0.83631041875E+01  0.16502833766E+02  0.00000000000E+00 0. -1.
</event>
<event>
 7    1  0.4630495E-010  0.4778727E+02  0.7816164E-02  0.1312668E+00
        -11   -1    0    0    0    0  0.00000000000E+00  0.00000000000E+00  0.45593999997E+02  0.45594000000E+02  0.51100000000E-03 0.  1.
         11   -1    0    0    0    0 -0.00000000000E+00 -0.00000000000E+00 -0.45593999997E+02  0.45594000000E+02  0.51100000000E-03 0. -1.
    9900012    2    1    2    0    0 -0.27380856757E+02  0.30934294421E+02 -0.13303440200E+02  0.47787269485E+02  0.19999992889E+02 0.  0.
        -12    1    1    2    0    0  0.27380856757E+02 -0.30934294421E+02  0.13303440200E+02  0.43400730515E+02  0.00000000000E+00 0.  1.
         11    1    3    3    0    0 -0.11930934108E+02  0.76081098988E+01 -0.98319621595E+01  0.17230728513E+02  0.51100000000E-03 0.  1.
        -11    1    3    3    0    0 -0.11239773429E+02  0.75160664573E+01  0.11082346272E+01  0.13566574585E+02  0.51100000000E-03 0. -1.
         12    1    3    3    0    0 -0.42101492197E+01  0.15810118065E+02 -0.45797126679E+01  0.16989966387E+02  0.00000000000E+00 0. -1.
</event>
<event>
 7    1  0.4630495E-010  0.4778727E+02  0.7816164E-02  0.1312668E+00
        -11   -1    0    0    0    0  0.00000000000E+00  0.00000000000E+00  0.45593999997E+02  0.45594000000E+02  0.51100000000E-03 0. -1.
         11   -1    0    0    0    0 -0.00000000000E+00 -0.00000000000E+00 -0.45593999997E+02  0.45594000000E+02  0.51100000000E-03 0.  1.
    9900012    2    1    2    0    0 -0.15739993650E+02 -0.27147427821E+02  0.29981544470E+02  0.47787271363E+02  0.20000001452E+02 0.  0.
        -12    1    1    2    0    0  0.15739993650E+02  0.27147427821E+02 -0.29981544470E+02  0.43400728637E+02  0.00000000000E+00 0.  1.
         11    1    3    3    0    0  0.43899885983E+00 -0.10257224125E+02  0.44533679694E+01  0.11190882596E+02  0.51100000000E-03 0.  1.
        -11    1    3    3    0    0 -0.11829042181E+01 -0.72433473765E+01  0.12564264970E+02  0.14550810908E+02  0.51100000000E-03 0. -1.
        -12    1    3    3    0    0 -0.14996088292E+02 -0.96468563197E+01  0.12963911531E+02  0.22045577858E+02  0.00000000000E+00 0.  1.
</event>
<event>
 7    1  0.4630495E-010  0.4778727E+02  0.7816164E-02  0.1312668E+00
        -11   -1    0    0    0    0  0.00000000000E+00  0.00000000000E+00  0.45593999997E+02  0.45594000000E+02  0.51100000000E-03 0.  1.
         11   -1    0    0    0    0 -0.00000000000E+00 -0.00000000000E+00 -0.45593999997E+02  0.45594000000E+02  0.51100000000E-03 0. -1.
    9900012    2    1    2    0    0 -0.63424114890E+01  0.34003218127E+02 -0.26214083600E+02  0.47787271832E+02  0.20000003593E+02 0.  0.
        -12    1    1    2    0    0  0.63424114890E+01 -0.34003218127E+02  0.26214083600E+02  0.43400728168E+02  0.00000000000E+00 0.  1.
         11    1    3    3    0    0 -0.36168833584E+01  0.43479918392E+00 -0.39621537523E+00  0.36644075160E+01  0.51100000000E-03 0. -1.
        -11    1    3    3    0    0  0.13030471832E+00  0.84992735873E+01 -0.71365553167E+00  0.85301779178E+01  0.51100000000E-03 0.  1.
        -12    1    3    3    0    0 -0.28558328489E+01  0.25069145356E+02 -0.25104212693E+02  0.35592686399E+02  0.00000000000E+00 0.  1.
</event>
<event>
 7    1  0.4630495E-010  0.4778725E+02  0.7816164E-02  0.1312668E+00
        -11   -1    0    0    0    0  0.00000000000E+00  0.00000000000E+00  0.45593999997E+02  0.45594000000E+02  0.51100000000E-03 0.  1.
         11   -1    0    0    0    0 -0.00000000000E+00 -0.00000000000E+00 -0.45593999997E+02  0.45594000000E+02  0.51100000000E-03 0. -1.
    9900012    2    1    2    0    0  0.35702020770E+02 -0.18523032886E+02 -0.16306083110E+02  0.47787246772E+02  0.19999889334E+02 0.  0.
        -12    1    1    2    0    0 -0.35702020770E+02  0.18523032886E+02  0.16306083110E+02  0.43400753228E+02  0.00000000000E+00 0.  1.
         11    1    3    3    0    0  0.89759942086E+01 -0.61141630198E+01  0.26363171416E+01  0.11175939773E+02  0.51100000000E-03 0.  1.
        -11    1    3    3    0    0  0.20821038420E+02 -0.46129213499E+01 -0.10904030471E+02  0.23951880198E+02  0.51100000000E-03 0. -1.
         12    1    3    3    0    0  0.59049881413E+01 -0.77959485163E+01 -0.80383697808E+01  0.12659426802E+02  0.00000000000E+00 0. -1.
</event>
<event>
 7    1  0.4630495E-010  0.4778726E+02  0.7816164E-02  0.1312668E+00
        -11   -1    0    0    0    0  0.00000000000E+00  0.00000000000E+00  0.45593999997E+02  0.45594000000E+02  0.51100000000E-03 0.  1.
         11   -1    0    0    0    0 -0.00000000000E+00 -0.00000000000E+00 -0.45593999997E+02  0.45594000000E+02  0.51100000000E-03 0. -1.
    9900012    2    1    2    0    0  0.23195749410E+02 -0.10940678556E+02 -0.35012608179E+02  0.47787263031E+02  0.19999963465E+02 0.  0.
        -12    1    1    2    0    0 -0.23195749410E+02  0.10940678556E+02  0.35012608179E+02  0.43400736969E+02  0.00000000000E+00 0.  1.
         11    1    3    3    0    0  0.14242046024E+02 -0.71948299201E+01 -0.23275222240E+02  0.28219451148E+02  0.51100000000E-03 0. -1.
        -11    1    3    3    0    0  0.53265971257E+01 -0.81653649441E+01 -0.58923247133E+01  0.11391457870E+02  0.51100000000E-03 0.  1.
         12    1    3    3    0    0  0.36271062599E+01  0.44195163083E+01 -0.58450612260E+01  0.81763540136E+01  0.00000000000E+00 0. -1.
</event>
<event>
 7    1  0.4630495E-010  0.4778727E+02  0.7816164E-02  0.1312668E+00
        -11   -1    0    0    0    0  0.00000000000E+00  0.00000000000E+00  0.45593999997E+02  0.45594000000E+02  0.51100000000E-03 0.  1.
         11   -1    0    0    0    0 -0.00000000000E+00 -0.00000000000E+00 -0.45593999997E+02  0.45594000000E+02  0.51100000000E-03 0. -1.
    9900012    2    1    2    0    0  0.42376078399E+02  0.28885630676E+01  0.89189357553E+01  0.47787271526E+02  0.20000002194E+02 0.  0.
        -12    1    1    2    0    0 -0.42376078399E+02 -0.28885630676E+01 -0.89189357553E+01  0.43400728474E+02  0.00000000000E+00 0.  1.
         11    1    3    3    0    0  0.11807871262E+02  0.79044779341E+01 -0.15917169119E+01  0.14298257172E+02  0.51100000000E-03 0. -1.
        -11    1    3    3    0    0  0.11531308576E+01 -0.61926956018E+00  0.22805409906E+01  0.26294624991E+01  0.51100000000E-03 0.  1.
         12    1    3    3    0    0  0.29415076279E+02 -0.43966453063E+01  0.82301116766E+01  0.30859551855E+02  0.00000000000E+00 0. -1.
</event>
<event>
 7    1  0.4630495E-010  0.4778727E+02  0.7816164E-02  0.1312668E+00
        -11   -1    0    0    0    0  0.00000000000E+00  0.00000000000E+00  0.45593999997E+02  0.45594000000E+02  0.51100000000E-03 0. -1.
         11   -1    0    0    0    0 -0.00000000000E+00 -0.00000000000E+00 -0.45593999997E+02  0.45594000000E+02  0.51100000000E-03 0.  1.
    9900012    2    1    2    0    0  0.36994497740E+02  0.46004773227E+01  0.22223098747E+02  0.47787269907E+02  0.19999994816E+02 0.  0.
        -12    1    1    2    0    0 -0.36994497740E+02 -0.46004773227E+01 -0.22223098747E+02  0.43400730093E+02  0.00000000000E+00 0.  1.
         11    1    3    3    0    0  0.32627848263E+01 -0.39003818582E+01  0.72750698897E+01  0.88761132048E+01  0.51100000000E-03 0. -1.
        -11    1    3    3    0    0  0.26965784249E+01 -0.93537992223E+00  0.34911265660E+01  0.45093719919E+01  0.51100000000E-03 0.  1.
        -12    1    3    3    0    0  0.31035134489E+02  0.94362391032E+01  0.11456902291E+02  0.34401784711E+02  0.00000000000E+00 0.  1.
</event>
<event>
 7    1  0.4630495E-010  0.4778727E+02  0.7816164E-02  0.1312668E+00
        -11   -1    0    0    0    0  0.00000000000E+00  0.00000000000E+00  0.45593999997E+02  0.45594000000E+02  0.51100000000E-03 0. -1.
         11   -1    0    0    0    0 -0.00000000000E+00 -0.00000000000E+00 -0.45593999997E+02  0.45594000000E+02  0.51100000000E-03 0.  1.
    9900012    2    1    2    0    0 -0.16601321123E+02  0.27214254926E+02  0.29451724601E+02  0.47787267101E+02  0.19999982021E+02 0.  0.
        -12    1    1    2    0    0  0.16601321123E+02 -0.27214254926E+02 -0.29451724601E+02  0.43400732899E+02  0.00000000000E+00 0.  1.
         11    1    3    3    0    0 -0.14547434886E+02  0.12661635839E+02  0.13116412651E+02  0.23323489555E+02  0.51100000000E-03 0. -1.
        -11    1    3    3    0    0 -0.44438554315E+01  0.15114212293E+02  0.14249068475E+02  0.21242015371E+02  0.51100000000E-03 0.  1.
        -12    1    3    3    0    0  0.23899691953E+01 -0.56159320620E+00  0.20862434744E+01  0.32217621759E+01  0.00000000000E+00 0.  1.
</event>
<event>
 7    1  0.4630495E-010  0.4778727E+02  0.7816164E-02  0.1312668E+00
        -11   -1    0    0    0    0  0.00000000000E+00  0.00000000000E+00  0.45593999997E+02  0.45594000000E+02  0.51100000000E-03 0.  1.
         11   -1    0    0    0    0 -0.00000000000E+00 -0.00000000000E+00 -0.45593999997E+02  0.45594000000E+02  0.51100000000E-03 0. -1.
    9900012    2    1    2    0    0 -0.29077783702E+02  0.21822926724E+02 -0.23703702482E+02  0.47787272504E+02  0.20000006656E+02 0.  0.
        -12    1    1    2    0    0  0.29077783702E+02 -0.21822926724E+02  0.23703702482E+02  0.43400727496E+02  0.00000000000E+00 0.  1.
         11    1    3    3    0    0 -0.10667135454E+02 -0.14801864753E+01 -0.72413758666E+01  0.12977528867E+02  0.51100000000E-03 0.  1.
        -11    1    3    3    0    0 -0.34947787327E+01  0.14203074562E+01 -0.41386536052E+01  0.55999290697E+01  0.51100000000E-03 0. -1.
        -12    1    3    3    0    0 -0.14915869515E+02  0.21882805744E+02 -0.12323673010E+02  0.29209814567E+02  0.00000000000E+00 0.  1.
</event>
<event>
 7    1  0.4630495E-010  0.4778726E+02  0.7816164E-02  0.1312668E+00
        -11   -1    0    0    0    0  0.00000000000E+00  0.00000000000E+00  0.45593999997E+02  0.45594000000E+02  0.51100000000E-03 0.  1.
         11   -1    0    0    0    0 -0.00000000000E+00 -0.00000000000E+00 -0.45593999997E+02  0.45594000000E+02  0.51100000000E-03 0. -1.
    9900012    2    1    2    0    0  0.39009122900E+02 -0.78442365338E+01 -0.17331498365E+02  0.47787256322E+02  0.19999932873E+02 0.  0.
        -12    1    1    2    0    0 -0.39009122900E+02  0.78442365338E+01  0.17331498365E+02  0.43400743678E+02  0.00000000000E+00 0.  1.
         11    1    3    3    0    0  0.15029071629E+01  0.94972146955E+00  0.24548799300E+01  0.30310289576E+01  0.51100000000E-03 0. -1.
        -11    1    3    3    0    0  0.41932847922E+01 -0.18020099790E+01 -0.70791031729E+01  0.84228605181E+01  0.51100000000E-03 0.  1.
         12    1    3    3    0    0  0.33312930945E+02 -0.69919480244E+01 -0.12707275122E+02  0.36333366846E+02  0.00000000000E+00 0. -1.
</event>
<event>
 7    1  0.4630495E-010  0.4778727E+02  0.7816164E-02  0.1312668E+00
        -11   -1    0    0    0    0  0.00000000000E+00  0.00000000000E+00  0.45593999997E+02  0.45594000000E+02  0.51100000000E-03 0. -1.
         11   -1    0    0    0    0 -0.00000000000E+00 -0.00000000000E+00 -0.45593999997E+02  0.45594000000E+02  0.51100000000E-03 0.  1.
    9900012    2    1    2    0    0 -0.30237447174E+02  0.22970509982E+02 -0.21016084227E+02  0.47787270321E+02  0.19999996703E+02 0.  0.
        -12    1    1    2    0    0  0.30237447174E+02 -0.22970509982E+02  0.21016084227E+02  0.43400729679E+02  0.00000000000E+00 0.  1.
         11    1    3    3    0    0 -0.82796806412E+01  0.11359691130E+02 -0.21820299070E+01  0.14225222279E+02  0.51100000000E-03 0. -1.
        -11    1    3    3    0    0 -0.88585252517E+01  0.22521407727E+01 -0.48706065792E+00  0.91532964576E+01  0.51100000000E-03 0.  1.
         12    1    3    3    0    0 -0.13099241281E+02  0.93586780788E+01 -0.18346993662E+02  0.24408751585E+02  0.00000000000E+00 0. -1.
</event>
<event>
 7    1  0.4630495E-010  0.4778727E+02  0.7816164E-02  0.1312668E+00
        -11   -1    0    0    0    0  0.00000000000E+00  0.00000000000E+00  0.45593999997E+02  0.45594000000E+02  0.51100000000E-03 0. -1.
         11   -1    0    0    0    0 -0.00000000000E+00 -0.00000000000E+00 -0.45593999997E+02  0.45594000000E+02  0.51100000000E-03 0.  1.
    9900012    2    1    2    0    0 -0.11740831623E+01  0.35656673247E+02  0.24715303255E+02  0.47787273816E+02  0.20000012638E+02 0.  0.
        -12    1    1    2    0    0  0.11740831623E+01 -0.35656673247E+02 -0.24715303255E+02  0.43400726184E+02  0.00000000000E+00 0.  1.
         11    1    3    3    0    0 -0.48393220907E+01  0.10183977782E+02  0.21568511716E+01  0.11479740807E+02  0.51100000000E-03 0. -1.
        -11    1    3    3    0    0  0.26044761061E+01 -0.17692583661E+00  0.33404517059E+01  0.42394830345E+01  0.51100000000E-03 0.  1.
        -12    1    3    3    0    0  0.10607628222E+01  0.25649621301E+02  0.19218000378E+02  0.32068049974E+02  0.00000000000E+00 0.  1.
</event>
<event>
 7    1  0.4630495E-010  0.4778727E+02  0.7816164E-02  0.1312668E+00
        -11   -1    0    0    0    0  0.00000000000E+00  0.00000000000E+00  0.45593999997E+02  0.45594000000E+02  0.51100000000E-03 0.  1.
         11   -1    0    0    0    0 -0.00000000000E+00 -0.00000000000E+00 -0.45593999997E+02  0.45594000000E+02  0.51100000000E-03 0. -1.
    9900012    2    1    2    0    0 -0.21318691042E+02 -0.14842075919E+02 -0.34768513975E+02  0.47787269944E+02  0.19999994984E+02 0.  0.
        -12    1    1    2    0    0  0.21318691042E+02  0.14842075919E+02  0.34768513975E+02  0.43400730056E+02  0.00000000000E+00 0.  1.
         11    1    3    3    0    0 -0.10981579864E+01 -0.43386991539E+01 -0.49533475419E+01  0.66757706254E+01  0.51100000000E-03 0. -1.
        -11    1    3    3    0    0 -0.15020238148E+02 -0.52705754900E+01 -0.74771141433E+01  0.17586749450E+02  0.51100000000E-03 0.  1.
         12    1    3    3    0    0 -0.52002949067E+01 -0.52328012754E+01 -0.22338052290E+02  0.23524749869E+02  0.00000000000E+00 0. -1.
</event>
<event>
 7    1  0.4630495E-010  0.4778727E+02  0.7816164E-02  0.1312668E+00
        -11   -1    0    0    0    0  0.00000000000E+00  0.00000000000E+00  0.45593999997E+02  0.45594000000E+02  0.51100000000E-03 0.  1.
         11   -1    0    0    0    0 -0.00000000000E+00 -0.00000000000E+00 -0.45593999997E+02  0.45594000000E+02  0.51100000000E-03 0. -1.
    9900012    2    1    2    0    0  0.15864455850E+02 -0.39180161997E+02 -0.98416163009E+01  0.47787268843E+02  0.19999989964E+02 0.  0.
        -12    1    1    2    0    0 -0.15864455850E+02  0.39180161997E+02  0.98416163009E+01  0.43400731157E+02  0.00000000000E+00 0.  1.
         11    1    3    3    0    0  0.11810619502E+01  0.10340502030E+00 -0.12135047843E+01  0.16965241086E+01  0.51100000000E-03 0. -1.
        -11    1    3    3    0    0  0.93274809092E+01 -0.17332389460E+02  0.41744884593E+01  0.20120635642E+02  0.51100000000E-03 0.  1.
         12    1    3    3    0    0  0.53559129909E+01 -0.21951177557E+02 -0.12802599976E+02  0.25970109092E+02  0.00000000000E+00 0. -1.
</event>
<event>
 7    1  0.4630495E-010  0.4778729E+02  0.7816164E-02  0.1312668E+00
        -11   -1    0    0    0    0  0.00000000000E+00  0.00000000000E+00  0.45593999997E+02  0.45594000000E+02  0.51100000000E-03 0. -1.
         11   -1    0    0    0    0 -0.00000000000E+00 -0.00000000000E+00 -0.45593999997E+02  0.45594000000E+02  0.51100000000E-03 0.  1.
    9900012    2    1    2    0    0  0.39919260969E+02 -0.11583232945E+02  0.12486119795E+02  0.47787287226E+02  0.20000073777E+02 0.  0.
        -12    1    1    2    0    0 -0.39919260969E+02  0.11583232945E+02 -0.12486119795E+02  0.43400712774E+02  0.00000000000E+00 0.  1.
         11    1    3    3    0    0  0.19020978781E+02 -0.92658603633E+01  0.56208256069E+01  0.21891721788E+02  0.51100000000E-03 0. -1.
        -11    1    3    3    0    0  0.88518321060E+01 -0.48564560567E+01 -0.25302887863E+01  0.10408768355E+02  0.51100000000E-03 0.  1.
        -12    1    3    3    0    0  0.12046450082E+02  0.25390834752E+01  0.93955829741E+01  0.15486797083E+02  0.00000000000E+00 0.  1.
</event>
<event>
 7    1  0.4630495E-010  0.4778727E+02  0.7816164E-02  0.1312668E+00
        -11   -1    0    0    0    0  0.00000000000E+00  0.00000000000E+00  0.45593999997E+02  0.45594000000E+02  0.51100000000E-03 0.  1.
         11   -1    0    0    0    0 -0.00000000000E+00 -0.00000000000E+00 -0.45593999997E+02  0.45594000000E+02  0.51100000000E-03 0. -1.
    9900012    2    1    2    0    0 -0.41693350294E+01 -0.30174174528E+01 -0.43094490196E+02  0.47787271343E+02  0.20000001361E+02 0.  0.
        -12    1    1    2    0    0  0.41693350294E+01  0.30174174528E+01  0.43094490196E+02  0.43400728657E+02  0.00000000000E+00 0.  1.
         11    1    3    3    0    0 -0.32992838002E+01 -0.15290129243E+01 -0.10230110523E+02  0.10857178073E+02  0.51100000000E-03 0. -1.
        -11    1    3    3    0    0  0.79491331690E+01 -0.82078021044E+00 -0.14981545988E+02  0.16979667804E+02  0.51100000000E-03 0.  1.
        -12    1    3    3    0    0 -0.88191843982E+01 -0.66762431809E+00 -0.17882833685E+02  0.19950425466E+02  0.00000000000E+00 0.  1.
</event>
<event>
 7    1  0.4630495E-010  0.4778728E+02  0.7816164E-02  0.1312668E+00
        -11   -1    0    0    0    0  0.00000000000E+00  0.00000000000E+00  0.45593999997E+02  0.45594000000E+02  0.51100000000E-03 0.  1.
         11   -1    0    0    0    0 -0.00000000000E+00 -0.00000000000E+00 -0.45593999997E+02  0.45594000000E+02  0.51100000000E-03 0. -1.
    9900012    2    1    2    0    0  0.12385212267E+02 -0.18355784681E+02 -0.37326859301E+02  0.47787277201E+02  0.20000028070E+02 0.  0.
        -12    1    1    2    0    0 -0.12385212267E+02  0.18355784681E+02  0.37326859301E+02  0.43400722799E+02  0.00000000000E+00 0.  1.
         11    1    3    3    0    0  0.12725803710E+01 -0.54461884991E+01 -0.19428442422E+02  0.20217438145E+02  0.51100000000E-03 0. -1.
        -11    1    3    3    0    0  0.56926604371E+01  0.65096131958E+00 -0.83315147258E+01  0.10111590942E+02  0.51100000000E-03 0.  1.
         12    1    3    3    0    0  0.54199714591E+01 -0.13560557502E+02 -0.95669021540E+01  0.17458248114E+02  0.00000000000E+00 0. -1.
</event>
<event>
 7    1  0.4630495E-010  0.4778727E+02  0.7816164E-02  0.1312668E+00
        -11   -1    0    0    0    0  0.00000000000E+00  0.00000000000E+00  0.45593999997E+02  0.45594000000E+02  0.51100000000E-03 0.  1.
         11   -1    0    0    0    0 -0.00000000000E+00 -0.00000000000E+00 -0.45593999997E+02  0.45594000000E+02  0.51100000000E-03 0. -1.
    9900012    2    1    2    0    0  0.41356426128E+02  0.99226628926E+01  0.86492817593E+01  0.47787270790E+02  0.19999998841E+02 0.  0.
        -12    1    1    2    0    0 -0.41356426128E+02 -0.99226628926E+01 -0.86492817593E+01  0.43400729210E+02  0.00000000000E+00 0.  1.
         11    1    3    3    0    0  0.22645896159E+02  0.37877409854E+01  0.95543330227E+01  0.24869034448E+02  0.51100000000E-03 0. -1.
        -11    1    3    3    0    0  0.47338474761E+01 -0.34797485014E+01  0.49612187818E+00  0.58961087795E+01  0.51100000000E-03 0.  1.
        -12    1    3    3    0    0  0.13976682494E+02  0.96146704086E+01 -0.14011731416E+01  0.17022127563E+02  0.00000000000E+00 0.  1.
</event>
<event>
 7    1  0.4630495E-010  0.4778729E+02  0.7816164E-02  0.1312668E+00
        -11   -1    0    0    0    0  0.00000000000E+00  0.00000000000E+00  0.45593999997E+02  0.45594000000E+02  0.51100000000E-03 0.  1.
         11   -1    0    0    0    0 -0.00000000000E+00 -0.00000000000E+00 -0.45593999997E+02  0.45594000000E+02  0.51100000000E-03 0. -1.
    9900012    2    1    2    0    0  0.28069513691E+02  0.19403613899E+02 -0.26818352775E+02  0.47787287139E+02  0.20000073384E+02 0.  0.
        -12    1    1    2    0    0 -0.28069513691E+02 -0.19403613899E+02  0.26818352775E+02  0.43400712861E+02  0.00000000000E+00 0.  1.
         11    1    3    3    0    0  0.53641542260E+01  0.85147908822E+01 -0.12560853298E+02  0.16095056700E+02  0.51100000000E-03 0. -1.
        -11    1    3    3    0    0  0.64833391835E+01  0.91145596203E+01 -0.21933033934E+01  0.11398221970E+02  0.51100000000E-03 0.  1.
        -12    1    3    3    0    0  0.16222020282E+02  0.17742633969E+01 -0.12064196084E+02  0.20294008470E+02  0.00000000000E+00 0.  1.
</event>
<event>
 7    1  0.4630495E-010  0.4778728E+02  0.7816164E-02  0.1312668E+00
        -11   -1    0    0    0    0  0.00000000000E+00  0.00000000000E+00  0.45593999997E+02  0.45594000000E+02  0.51100000000E-03 0. -1.
         11   -1    0    0    0    0 -0.00000000000E+00 -0.00000000000E+00 -0.45593999997E+02  0.45594000000E+02  0.51100000000E-03 0.  1.
    9900012    2    1    2    0    0  0.39327621119E+02 -0.10689880434E+02  0.14922699240E+02  0.47787282504E+02  0.20000052248E+02 0.  0.
        -12    1    1    2    0    0 -0.39327621119E+02  0.10689880434E+02 -0.14922699240E+02  0.43400717496E+02  0.00000000000E+00 0.  1.
         11    1    3    3    0    0  0.20307569937E+02 -0.88611091812E+01  0.16254698632E+02  0.27479663036E+02  0.51100000000E-03 0. -1.
        -11    1    3    3    0    0  0.31364890718E+01  0.20611652494E+01  0.73540249452E+00  0.38244977412E+01  0.51100000000E-03 0.  1.
         12    1    3    3    0    0  0.15883562110E+02 -0.38899365025E+01 -0.20674018867E+01  0.16483121727E+02  0.00000000000E+00 0. -1.
</event>
<event>
 7    1  0.4630495E-010  0.4778727E+02  0.7816164E-02  0.1312668E+00
        -11   -1    0    0    0    0  0.00000000000E+00  0.00000000000E+00  0.45593999997E+02  0.45594000000E+02  0.51100000000E-03 0. -1.
         11   -1    0    0    0    0 -0.00000000000E+00 -0.00000000000E+00 -0.45593999997E+02  0.45594000000E+02  0.51100000000E-03 0.  1.
    9900012    2    1    2    0    0  0.10645857523E+02 -0.34330861665E+02  0.24324493887E+02  0.47787270192E+02  0.19999996113E+02 0.  0.
        -12    1    1    2    0    0 -0.10645857523E+02  0.34330861665E+02 -0.24324493887E+02  0.43400729808E+02  0.00000000000E+00 0.  1.
         11    1    3    3    0    0 -0.85532290902E+00 -0.10275478953E+02  0.31535873274E+01  0.10782493139E+02  0.51100000000E-03 0. -1.
        -11    1    3    3    0    0 -0.12278799380E+01 -0.74262754555E+01  0.44396491398E+00  0.75401831138E+01  0.51100000000E-03 0.  1.
         12    1    3    3    0    0  0.12729060371E+02 -0.16629107256E+02  0.20726941645E+02  0.29464593939E+02  0.00000000000E+00 0. -1.
</event>
<event>
 7    1  0.4630495E-010  0.4778727E+02  0.7816164E-02  0.1312668E+00
        -11   -1    0    0    0    0  0.00000000000E+00  0.00000000000E+00  0.45593999997E+02  0.45594000000E+02  0.51100000000E-03 0.  1.
         11   -1    0    0    0    0 -0.00000000000E+00 -0.00000000000E+00 -0.45593999997E+02  0.45594000000E+02  0.51100000000E-03 0. -1.
    9900012    2    1    2    0    0 -0.73685072632E+01  0.42514218132E+02  0.46764948146E+01  0.47787271361E+02  0.20000001441E+02 0.  0.
        -12    1    1    2    0    0  0.73685072632E+01 -0.42514218132E+02 -0.46764948146E+01  0.43400728639E+02  0.00000000000E+00 0.  1.
         11    1    3    3    0    0 -0.15972886487E+01  0.37924736777E+01 -0.21392984506E+01  0.46379721588E+01  0.51100000000E-03 0. -1.
        -11    1    3    3    0    0  0.10825788429E+00 -0.12457720650E+01 -0.14499522887E+01  0.19146878879E+01  0.51100000000E-03 0.  1.
         12    1    3    3    0    0 -0.58794764987E+01  0.39967516520E+02  0.82657455539E+01  0.41234611314E+02  0.00000000000E+00 0. -1.
</event>
<event>
 7    1  0.4630495E-010  0.4778727E+02  0.7816164E-02  0.1312668E+00
        -11   -1    0    0    0    0  0.00000000000E+00  0.00000000000E+00  0.45593999997E+02  0.45594000000E+02  0.51100000000E-03 0.  1.
         11   -1    0    0    0    0 -0.00000000000E+00 -0.00000000000E+00 -0.45593999997E+02  0.45594000000E+02  0.51100000000E-03 0. -1.
    9900012    2    1    2    0    0 -0.24223085297E+02  0.64274612846E+01 -0.35433785325E+02  0.47787271178E+02  0.20000000607E+02 0.  0.
        -12    1    1    2    0    0  0.24223085297E+02 -0.64274612846E+01  0.35433785325E+02  0.43400728822E+02  0.00000000000E+00 0.  1.
         11    1    3    3    0    0 -0.17087538068E+01  0.24873106047E+01 -0.76267766386E+01  0.82020897199E+01  0.51100000000E-03 0. -1.
        -11    1    3    3    0    0 -0.89546051353E+01  0.94926876697E+01 -0.95261099041E+01  0.16156820309E+02  0.51100000000E-03 0.  1.
         12    1    3    3    0    0 -0.13559726355E+02 -0.55525369899E+01 -0.18280898782E+02  0.23428361149E+02  0.00000000000E+00 0. -1.
</event>
<event>
 7    1  0.4630495E-010  0.4778727E+02  0.7816164E-02  0.1312668E+00
        -11   -1    0    0    0    0  0.00000000000E+00  0.00000000000E+00  0.45593999997E+02  0.45594000000E+02  0.51100000000E-03 0.  1.
         11   -1    0    0    0    0 -0.00000000000E+00 -0.00000000000E+00 -0.45593999997E+02  0.45594000000E+02  0.51100000000E-03 0. -1.
    9900012    2    1    2    0    0  0.11199436787E+02 -0.30582278685E+02 -0.28686588413E+02  0.47787268340E+02  0.19999987668E+02 0.  0.
        -12    1    1    2    0    0 -0.11199436787E+02  0.30582278685E+02  0.28686588413E+02  0.43400731660E+02  0.00000000000E+00 0.  1.
         11    1    3    3    0    0  0.47816754136E+01 -0.32739862474E+01 -0.29982958645E+01  0.65248129522E+01  0.51100000000E-03 0. -1.
        -11    1    3    3    0    0  0.21382849224E+01 -0.75203242792E+01  0.87096214704E+00  0.78667728451E+01  0.51100000000E-03 0.  1.
        -12    1    3    3    0    0  0.42794764511E+01 -0.19787968158E+02 -0.26559254695E+02  0.33395682542E+02  0.00000000000E+00 0.  1.
</event>
<event>
 7    1  0.4630495E-010  0.4778727E+02  0.7816164E-02  0.1312668E+00
        -11   -1    0    0    0    0  0.00000000000E+00  0.00000000000E+00  0.45593999997E+02  0.45594000000E+02  0.51100000000E-03 0.  1.
         11   -1    0    0    0    0 -0.00000000000E+00 -0.00000000000E+00 -0.45593999997E+02  0.45594000000E+02  0.51100000000E-03 0. -1.
    9900012    2    1    2    0    0  0.73434056246E+01  0.90718299590E+01 -0.41801907333E+02  0.47787272337E+02  0.20000005893E+02 0.  0.
        -12    1    1    2    0    0 -0.73434056246E+01 -0.90718299590E+01  0.41801907333E+02  0.43400727663E+02  0.00000000000E+00 0.  1.
         11    1    3    3    0    0 -0.20623156845E+01  0.12830589329E+01 -0.18710594746E+02  0.18867584430E+02  0.51100000000E-03 0. -1.
        -11    1    3    3    0    0  0.83234384852E+01  0.24296453043E+01 -0.21565643822E+02  0.23243489374E+02  0.51100000000E-03 0.  1.
        -12    1    3    3    0    0  0.10822828239E+01  0.53591257218E+01 -0.15256687651E+01  0.56761985337E+01  0.00000000000E+00 0.  1.
</event>
<event>
 7    1  0.4630495E-010  0.4778727E+02  0.7816164E-02  0.1312668E+00
        -11   -1    0    0    0    0  0.00000000000E+00  0.00000000000E+00  0.45593999997E+02  0.45594000000E+02  0.51100000000E-03 0.  1.
         11   -1    0    0    0    0 -0.00000000000E+00 -0.00000000000E+00 -0.45593999997E+02  0.45594000000E+02  0.51100000000E-03 0. -1.
    9900012    2    1    2    0    0  0.21628896719E+02  0.65289012892E+01 -0.37056547364E+02  0.47787269270E+02  0.19999991912E+02 0.  0.
        -12    1    1    2    0    0 -0.21628896719E+02 -0.65289012892E+01  0.37056547364E+02  0.43400730730E+02  0.00000000000E+00 0.  1.
         11    1    3    3    0    0 -0.89523117869E+00 -0.12885208397E+01 -0.48383415781E+01  0.50863812583E+01  0.51100000000E-03 0.  1.
        -11    1    3    3    0    0  0.12602461658E+02  0.10613837938E+02 -0.25623268470E+02  0.30463543507E+02  0.51100000000E-03 0. -1.
         12    1    3    3    0    0  0.99216662396E+01 -0.27964158093E+01 -0.65949373156E+01  0.12237344505E+02  0.00000000000E+00 0. -1.
</event>
<event>
 7    1  0.4630495E-010  0.4778727E+02  0.7816164E-02  0.1312668E+00
        -11   -1    0    0    0    0  0.00000000000E+00  0.00000000000E+00  0.45593999997E+02  0.45594000000E+02  0.51100000000E-03 0.  1.
         11   -1    0    0    0    0 -0.00000000000E+00 -0.00000000000E+00 -0.45593999997E+02  0.45594000000E+02  0.51100000000E-03 0. -1.
    9900012    2    1    2    0    0 -0.28054083026E+02  0.54723770310E+01 -0.32659524432E+02  0.47787273959E+02  0.20000013286E+02 0.  0.
        -12    1    1    2    0    0  0.28054083026E+02 -0.54723770310E+01  0.32659524432E+02  0.43400726041E+02  0.00000000000E+00 0.  1.
         11    1    3    3    0    0 -0.34134339656E+01 -0.14594887340E+01  0.35886282773E+00  0.37296677590E+01  0.51100000000E-03 0. -1.
        -11    1    3    3    0    0 -0.37255942108E+00  0.32810547077E+01 -0.53382245615E+00  0.33450092964E+01  0.51100000000E-03 0.  1.
         12    1    3    3    0    0 -0.24268089639E+02  0.36508110572E+01 -0.32484564804E+02  0.40712596903E+02  0.00000000000E+00 0. -1.
</event>
<event>
 7    1  0.4630495E-010  0.4778727E+02  0.7816164E-02  0.1312668E+00
        -11   -1    0    0    0    0  0.00000000000E+00  0.00000000000E+00  0.45593999997E+02  0.45594000000E+02  0.51100000000E-03 0.  1.
         11   -1    0    0    0    0 -0.00000000000E+00 -0.00000000000E+00 -0.45593999997E+02  0.45594000000E+02  0.51100000000E-03 0. -1.
    9900012    2    1    2    0    0 -0.42451311149E+02 -0.78318401008E+01 -0.44912585580E+01  0.47787274878E+02  0.20000017481E+02 0.  0.
        -12    1    1    2    0    0  0.42451311149E+02  0.78318401008E+01  0.44912585580E+01  0.43400725122E+02  0.00000000000E+00 0.  1.
         11    1    3    3    0    0 -0.13615043085E+02 -0.49135369285E+01  0.32849752310E+00  0.14478264891E+02  0.51100000000E-03 0.  1.
        -11    1    3    3    0    0 -0.10723982270E+02 -0.75412599993E+01  0.22919730678E+01  0.13308927038E+02  0.51100000000E-03 0. -1.
         12    1    3    3    0    0 -0.18112285794E+02  0.46229568269E+01 -0.71117291488E+01  0.20000082950E+02  0.00000000000E+00 0. -1.
</event>
<event>
 7    1  0.4630495E-010  0.4778726E+02  0.7816164E-02  0.1312668E+00
        -11   -1    0    0    0    0  0.00000000000E+00  0.00000000000E+00  0.45593999997E+02  0.45594000000E+02  0.51100000000E-03 0.  1.
         11   -1    0    0    0    0 -0.00000000000E+00 -0.00000000000E+00 -0.45593999997E+02  0.45594000000E+02  0.51100000000E-03 0. -1.
    9900012    2    1    2    0    0 -0.14702926424E+02  0.14556724982E+02 -0.38151671221E+02  0.47787259170E+02  0.19999945860E+02 0.  0.
        -12    1    1    2    0    0  0.14702926424E+02 -0.14556724982E+02  0.38151671221E+02  0.43400740830E+02  0.00000000000E+00 0.  1.
         11    1    3    3    0    0  0.88296807113E+00  0.87222105226E+01 -0.15882559639E+02  0.18141452256E+02  0.51100000000E-03 0. -1.
        -11    1    3    3    0    0  0.12308986588E+01  0.15982309638E+01 -0.11619700292E+01  0.23280095214E+01  0.51100000000E-03 0.  1.
        -12    1    3    3    0    0 -0.16816793154E+02  0.42362834958E+01 -0.21107141552E+02  0.27317797392E+02  0.00000000000E+00 0.  1.
</event>
<event>
 7    1  0.4630495E-010  0.4778727E+02  0.7816164E-02  0.1312668E+00
        -11   -1    0    0    0    0  0.00000000000E+00  0.00000000000E+00  0.45593999997E+02  0.45594000000E+02  0.51100000000E-03 0. -1.
         11   -1    0    0    0    0 -0.00000000000E+00 -0.00000000000E+00 -0.45593999997E+02  0.45594000000E+02  0.51100000000E-03 0.  1.
    9900012    2    1    2    0    0 -0.29661582307E+02 -0.13043971240E+02  0.28873319199E+02  0.47787271754E+02  0.20000003237E+02 0.  0.
        -12    1    1    2    0    0  0.29661582307E+02  0.13043971240E+02 -0.28873319199E+02  0.43400728246E+02  0.00000000000E+00 0.  1.
         11    1    3    3    0    0 -0.27597974538E+01  0.62807731044E+00 -0.11976560277E+01  0.30733277267E+01  0.51100000000E-03 0. -1.
        -11    1    3    3    0    0  0.91551921688E+00  0.47559107575E+00 -0.39099243199E+00  0.11032849364E+01  0.51100000000E-03 0.  1.
         12    1    3    3    0    0 -0.27817304071E+02 -0.14147639626E+02  0.30461967659E+02  0.43610659091E+02  0.00000000000E+00 0. -1.
</event>
<event>
 7    1  0.4630495E-010  0.4778729E+02  0.7816164E-02  0.1312668E+00
        -11   -1    0    0    0    0  0.00000000000E+00  0.00000000000E+00  0.45593999997E+02  0.45594000000E+02  0.51100000000E-03 0. -1.
         11   -1    0    0    0    0 -0.00000000000E+00 -0.00000000000E+00 -0.45593999997E+02  0.45594000000E+02  0.51100000000E-03 0.  1.
    9900012    2    1    2    0    0 -0.26216836740E+02  0.19014320872E+02  0.28892124868E+02  0.47787287952E+02  0.20000077086E+02 0.  0.
        -12    1    1    2    0    0  0.26216836740E+02 -0.19014320872E+02 -0.28892124868E+02  0.43400712048E+02  0.00000000000E+00 0.  1.
         11    1    3    3    0    0 -0.76904689741E+01  0.12914091289E+02  0.12158101330E+02  0.19332265648E+02  0.51100000000E-03 0. -1.
        -11    1    3    3    0    0 -0.40283166958E+01  0.68014423685E+01  0.91034426785E+01  0.12056517845E+02  0.51100000000E-03 0.  1.
         12    1    3    3    0    0 -0.14498051071E+02 -0.70121278568E+00  0.76305808599E+01  0.16398504458E+02  0.00000000000E+00 0. -1.
</event>
<event>
 7    1  0.4630495E-010  0.4778727E+02  0.7816164E-02  0.1312668E+00
        -11   -1    0    0    0    0  0.00000000000E+00  0.00000000000E+00  0.45593999997E+02  0.45594000000E+02  0.51100000000E-03 0. -1.
         11   -1    0    0    0    0 -0.00000000000E+00 -0.00000000000E+00 -0.45593999997E+02  0.45594000000E+02  0.51100000000E-03 0.  1.
    9900012    2    1    2    0    0  0.30388784894E+02 -0.30662159256E+02  0.44695575437E+01  0.47787271870E+02  0.20000003764E+02 0.  0.
        -12    1    1    2    0    0 -0.30388784894E+02  0.30662159256E+02 -0.44695575437E+01  0.43400728130E+02  0.00000000000E+00 0.  1.
         11    1    3    3    0    0  0.12162097104E+01  0.18137160789E+01 -0.10731617185E+01  0.24331889383E+01  0.51100000000E-03 0. -1.
        -11    1    3    3    0    0  0.20108767557E+01 -0.86585795066E+01  0.10760665513E+01  0.89539122110E+01  0.51100000000E-03 0.  1.
         12    1    3    3    0    0  0.27161698428E+02 -0.23817295828E+02  0.44666527109E+01  0.36400170721E+02  0.00000000000E+00 0. -1.
</event>
<event>
 7    1  0.4630495E-010  0.4778727E+02  0.7816164E-02  0.1312668E+00
        -11   -1    0    0    0    0  0.00000000000E+00  0.00000000000E+00  0.45593999997E+02  0.45594000000E+02  0.51100000000E-03 0.  1.
         11   -1    0    0    0    0 -0.00000000000E+00 -0.00000000000E+00 -0.45593999997E+02  0.45594000000E+02  0.51100000000E-03 0. -1.
    9900012    2    1    2    0    0 -0.43281202445E+02 -0.22061853909E+01  0.23438317662E+01  0.47787270900E+02  0.19999999344E+02 0.  0.
        -12    1    1    2    0    0  0.43281202445E+02  0.22061853909E+01 -0.23438317662E+01  0.43400729100E+02  0.00000000000E+00 0.  1.
         11    1    3    3    0    0 -0.22525838261E+02  0.14830540420E+01  0.63557765818E+01  0.23452265027E+02  0.51100000000E-03 0. -1.
        -11    1    3    3    0    0 -0.21184431647E+02 -0.26771150624E+01 -0.12812340977E+01  0.21391321846E+02  0.51100000000E-03 0.  1.
         12    1    3    3    0    0  0.42906746340E+00 -0.10121243705E+01 -0.27307107179E+01  0.29436840277E+01  0.00000000000E+00 0. -1.
</event>
<event>
 7    1  0.4630495E-010  0.4778727E+02  0.7816164E-02  0.1312668E+00
        -11   -1    0    0    0    0  0.00000000000E+00  0.00000000000E+00  0.45593999997E+02  0.45594000000E+02  0.51100000000E-03 0.  1.
         11   -1    0    0    0    0 -0.00000000000E+00 -0.00000000000E+00 -0.45593999997E+02  0.45594000000E+02  0.51100000000E-03 0. -1.
    9900012    2    1    2    0    0 -0.95040077711E+01  0.94296656835E+01 -0.41284121893E+02  0.47787268680E+02  0.19999989219E+02 0.  0.
        -12    1    1    2    0    0  0.95040077711E+01 -0.94296656835E+01  0.41284121893E+02  0.43400731320E+02  0.00000000000E+00 0.  1.
         11    1    3    3    0    0 -0.72320070967E+00  0.50735806536E+01 -0.29425892019E+02  0.29868835954E+02  0.51100000000E-03 0. -1.
        -11    1    3    3    0    0 -0.52384978602E+01  0.58431868877E+01 -0.11681277600E+02  0.14072559805E+02  0.51100000000E-03 0.  1.
        -12    1    3    3    0    0 -0.35423092012E+01 -0.14871018577E+01 -0.17695227460E+00  0.38458729203E+01  0.00000000000E+00 0.  1.
</event>
<event>
 7    1  0.4630495E-010  0.4778726E+02  0.7816164E-02  0.1312668E+00
        -11   -1    0    0    0    0  0.00000000000E+00  0.00000000000E+00  0.45593999997E+02  0.45594000000E+02  0.51100000000E-03 0.  1.
         11   -1    0    0    0    0 -0.00000000000E+00 -0.00000000000E+00 -0.45593999997E+02  0.45594000000E+02  0.51100000000E-03 0. -1.
    9900012    2    1    2    0    0 -0.21455000260E+02 -0.28570283046E+02  0.24638312453E+02  0.47787256343E+02  0.19999932968E+02 0.  0.
        -12    1    1    2    0    0  0.21455000260E+02  0.28570283046E+02 -0.24638312453E+02  0.43400743657E+02  0.00000000000E+00 0.  1.
         11    1    3    3    0    0 -0.60393061608E+01 -0.18251503716E+02  0.82480611431E+01  0.20919395777E+02  0.51100000000E-03 0. -1.
        -11    1    3    3    0    0 -0.46719142767E+00 -0.54681691578E+01  0.32185037023E+01  0.63622250912E+01  0.51100000000E-03 0.  1.
        -12    1    3    3    0    0 -0.14948502672E+02 -0.48506101722E+01  0.13171747608E+02  0.20505635474E+02  0.00000000000E+00 0.  1.
</event>
<event>
 7    1  0.4630495E-010  0.4778727E+02  0.7816164E-02  0.1312668E+00
        -11   -1    0    0    0    0  0.00000000000E+00  0.00000000000E+00  0.45593999997E+02  0.45594000000E+02  0.51100000000E-03 0. -1.
         11   -1    0    0    0    0 -0.00000000000E+00 -0.00000000000E+00 -0.45593999997E+02  0.45594000000E+02  0.51100000000E-03 0.  1.
    9900012    2    1    2    0    0  0.96866970050E+01 -0.31523763081E+02  0.28214243417E+02  0.47787271098E+02  0.20000000243E+02 0.  0.
        -12    1    1    2    0    0 -0.96866970050E+01  0.31523763081E+02 -0.28214243417E+02  0.43400728902E+02  0.00000000000E+00 0.  1.
         11    1    3    3    0    0 -0.35017056861E+00 -0.34922997420E+01 -0.73305862108E+00  0.35855476734E+01  0.51100000000E-03 0.  1.
        -11    1    3    3    0    0 -0.26586060525E+01 -0.11656824739E+02  0.15188953089E+02  0.19330133092E+02  0.51100000000E-03 0. -1.
         12    1    3    3    0    0  0.12695473626E+02 -0.16374638600E+02  0.13758348949E+02  0.24871590333E+02  0.00000000000E+00 0. -1.
</event>
<event>
 7    1  0.4630495E-010  0.4778727E+02  0.7816164E-02  0.1312668E+00
        -11   -1    0    0    0    0  0.00000000000E+00  0.00000000000E+00  0.45593999997E+02  0.45594000000E+02  0.51100000000E-03 0. -1.
         11   -1    0    0    0    0 -0.00000000000E+00 -0.00000000000E+00 -0.45593999997E+02  0.45594000000E+02  0.51100000000E-03 0.  1.
    9900012    2    1    2    0    0 -0.68049687502E+01  0.34665697671E+02  0.25211207799E+02  0.47787271971E+02  0.20000004225E+02 0.  0.
        -12    1    1    2    0    0  0.68049687502E+01 -0.34665697671E+02 -0.25211207799E+02  0.43400728029E+02  0.00000000000E+00 0.  1.
         11    1    3    3    0    0 -0.57276110560E+01  0.28659786772E+02  0.12583967717E+02  0.31820514609E+02  0.51100000000E-03 0. -1.
        -11    1    3    3    0    0 -0.13030539730E+01  0.95805021162E+00 -0.66331466837E+00  0.17480836579E+01  0.51100000000E-03 0.  1.
        -12    1    3    3    0    0  0.22569627884E+00  0.50478606881E+01  0.13290554751E+02  0.14218673705E+02  0.00000000000E+00 0.  1.
</event>
<event>
 7    1  0.4630495E-010  0.4778727E+02  0.7816164E-02  0.1312668E+00
        -11   -1    0    0    0    0  0.00000000000E+00  0.00000000000E+00  0.45593999997E+02  0.45594000000E+02  0.51100000000E-03 0.  1.
         11   -1    0    0    0    0 -0.00000000000E+00 -0.00000000000E+00 -0.45593999997E+02  0.45594000000E+02  0.51100000000E-03 0. -1.
    9900012    2    1    2    0    0  0.28811941238E+02 -0.17798502050E+00 -0.32457104622E+02  0.47787271009E+02  0.19999999837E+02 0.  0.
        -12    1    1    2    0    0 -0.28811941238E+02  0.17798502050E+00  0.32457104622E+02  0.43400728991E+02  0.00000000000E+00 0.  1.
         11    1    3    3    0    0  0.16874517585E+02  0.46534333760E+01 -0.12796433516E+02  0.21683000182E+02  0.51100000000E-03 0. -1.
        -11    1    3    3    0    0  0.13677123937E+02 -0.35043966844E+01 -0.13373488806E+02  0.19447229068E+02  0.51100000000E-03 0.  1.
        -12    1    3    3    0    0 -0.17397002844E+01 -0.13270217121E+01 -0.62871822995E+01  0.66570417583E+01  0.00000000000E+00 0.  1.
</event>
<event>
 7    1  0.4630495E-010  0.4778726E+02  0.7816164E-02  0.1312668E+00
        -11   -1    0    0    0    0  0.00000000000E+00  0.00000000000E+00  0.45593999997E+02  0.45594000000E+02  0.51100000000E-03 0.  1.
         11   -1    0    0    0    0 -0.00000000000E+00 -0.00000000000E+00 -0.45593999997E+02  0.45594000000E+02  0.51100000000E-03 0. -1.
    9900012    2    1    2    0    0 -0.18561174501E+01  0.79309730501E+01 -0.42629547208E+02  0.47787264976E+02  0.19999972331E+02 0.  0.
        -12    1    1    2    0    0  0.18561174501E+01 -0.79309730501E+01  0.42629547208E+02  0.43400735024E+02  0.00000000000E+00 0.  1.
         11    1    3    3    0    0 -0.14712572124E+01  0.24162602386E+01 -0.19547866270E+02  0.19751505950E+02  0.51100000000E-03 0. -1.
        -11    1    3    3    0    0 -0.14147878532E+00  0.84443024747E+01 -0.23586606179E+02  0.25053028796E+02  0.51100000000E-03 0.  1.
        -12    1    3    3    0    0 -0.24338145242E+00 -0.29295896632E+01  0.50492524148E+00  0.29827302301E+01  0.00000000000E+00 0.  1.
</event>
<event>
 7    1  0.4630495E-010  0.4778727E+02  0.7816164E-02  0.1312668E+00
        -11   -1    0    0    0    0  0.00000000000E+00  0.00000000000E+00  0.45593999997E+02  0.45594000000E+02  0.51100000000E-03 0.  1.
         11   -1    0    0    0    0 -0.00000000000E+00 -0.00000000000E+00 -0.45593999997E+02  0.45594000000E+02  0.51100000000E-03 0. -1.
    9900012    2    1    2    0    0  0.15986199017E+02 -0.54343621234E+01 -0.39981650647E+02  0.47787271445E+02  0.20000001824E+02 0.  0.
        -12    1    1    2    0    0 -0.15986199017E+02  0.54343621234E+01  0.39981650647E+02  0.43400728555E+02  0.00000000000E+00 0.  1.
         11    1    3    3    0    0  0.33528851269E+01 -0.10301195191E+01 -0.18650048387E+02  0.18977020051E+02  0.51100000000E-03 0. -1.
        -11    1    3    3    0    0 -0.29182149225E+00 -0.50803737012E+01 -0.11438805336E+02  0.12519649536E+02  0.51100000000E-03 0.  1.
        -12    1    3    3    0    0  0.12925135383E+02  0.67613109690E+00 -0.98927969235E+01  0.16290601858E+02  0.00000000000E+00 0.  1.
</event>
<event>
 7    1  0.4630495E-010  0.4778727E+02  0.7816164E-02  0.1312668E+00
        -11   -1    0    0    0    0  0.00000000000E+00  0.00000000000E+00  0.45593999997E+02  0.45594000000E+02  0.51100000000E-03 0.  1.
         11   -1    0    0    0    0 -0.00000000000E+00 -0.00000000000E+00 -0.45593999997E+02  0.45594000000E+02  0.51100000000E-03 0. -1.
    9900012    2    1    2    0    0  0.79183182073E+00  0.28898579804E+02 -0.32370797465E+02  0.47787269120E+02  0.19999991227E+02 0.  0.
        -12    1    1    2    0    0 -0.79183182073E+00 -0.28898579804E+02  0.32370797465E+02  0.43400730880E+02  0.00000000000E+00 0.  1.
         11    1    3    3    0    0  0.61113144626E-01  0.34209296817E+01 -0.98875740248E+01  0.10462820607E+02  0.51100000000E-03 0. -1.
        -11    1    3    3    0    0 -0.68138178025E+01  0.68971888294E+01 -0.82878262701E+01  0.12754896759E+02  0.51100000000E-03 0.  1.
         12    1    3    3    0    0  0.75445364786E+01  0.18580461293E+02 -0.14195397171E+02  0.24569551754E+02  0.00000000000E+00 0. -1.
</event>
<event>
 7    1  0.4630495E-010  0.4778726E+02  0.7816164E-02  0.1312668E+00
        -11   -1    0    0    0    0  0.00000000000E+00  0.00000000000E+00  0.45593999997E+02  0.45594000000E+02  0.51100000000E-03 0.  1.
         11   -1    0    0    0    0 -0.00000000000E+00 -0.00000000000E+00 -0.45593999997E+02  0.45594000000E+02  0.51100000000E-03 0. -1.
    9900012    2    1    2    0    0 -0.26603897916E+02 -0.19709877348E+02 -0.28060249165E+02  0.47787260000E+02  0.19999949643E+02 0.  0.
        -12    1    1    2    0    0  0.26603897916E+02  0.19709877348E+02  0.28060249165E+02  0.43400740000E+02  0.00000000000E+00 0.  1.
         11    1    3    3    0    0 -0.68059895986E+01 -0.81489032997E+01 -0.49888944317E+01  0.11730949975E+02  0.51100000000E-03 0. -1.
        -11    1    3    3    0    0 -0.73349756666E+01 -0.10540408258E+02 -0.43800884041E+01  0.13567875625E+02  0.51100000000E-03 0.  1.
        -12    1    3    3    0    0 -0.12462932650E+02 -0.10205657895E+01 -0.18691266329E+02  0.22488434400E+02  0.00000000000E+00 0.  1.
</event>
<event>
 7    1  0.4630495E-010  0.4778727E+02  0.7816164E-02  0.1312668E+00
        -11   -1    0    0    0    0  0.00000000000E+00  0.00000000000E+00  0.45593999997E+02  0.45594000000E+02  0.51100000000E-03 0.  1.
         11   -1    0    0    0    0 -0.00000000000E+00 -0.00000000000E+00 -0.45593999997E+02  0.45594000000E+02  0.51100000000E-03 0. -1.
    9900012    2    1    2    0    0 -0.17735198707E+02  0.39459210582E+02 -0.34722617034E+01  0.47787272192E+02  0.20000005230E+02 0.  0.
        -12    1    1    2    0    0  0.17735198707E+02 -0.39459210582E+02  0.34722617034E+01  0.43400727808E+02  0.00000000000E+00 0.  1.
         11    1    3    3    0    0 -0.17612173649E+02  0.29392198943E+02 -0.36968956190E+01  0.34463851451E+02  0.51100000000E-03 0. -1.
        -11    1    3    3    0    0 -0.10371011223E+01  0.10717668627E+02 -0.18873662207E+01  0.10931886893E+02  0.51100000000E-03 0.  1.
        -12    1    3    3    0    0  0.91407606489E+00 -0.65065698733E+00  0.21120001362E+01  0.23915338473E+01  0.00000000000E+00 0.  1.
</event>
<event>
 7    1  0.4630495E-010  0.4778729E+02  0.7816164E-02  0.1312668E+00
        -11   -1    0    0    0    0  0.00000000000E+00  0.00000000000E+00  0.45593999997E+02  0.45594000000E+02  0.51100000000E-03 0. -1.
         11   -1    0    0    0    0 -0.00000000000E+00 -0.00000000000E+00 -0.45593999997E+02  0.45594000000E+02  0.51100000000E-03 0.  1.
    9900012    2    1    2    0    0  0.49933041837E+01 -0.35543647687E+02  0.24399546962E+02  0.47787287223E+02  0.20000073765E+02 0.  0.
        -12    1    1    2    0    0 -0.49933041837E+01  0.35543647687E+02 -0.24399546962E+02  0.43400712777E+02  0.00000000000E+00 0.  1.
         11    1    3    3    0    0 -0.28820451955E+01 -0.16732296783E+02  0.18385095466E+01  0.17077940677E+02  0.51100000000E-03 0. -1.
        -11    1    3    3    0    0  0.28653284653E+01 -0.29936472822E+01  0.33787624394E+01  0.53467810079E+01  0.51100000000E-03 0.  1.
         12    1    3    3    0    0  0.50100209140E+01 -0.15817703621E+02  0.19182274976E+02  0.25362565538E+02  0.00000000000E+00 0. -1.
</event>
<event>
 7    1  0.5394306E-010  0.4778726E+02  0.7816164E-02  0.1312668E+00
        -11   -1    0    0    0    0  0.00000000000E+00  0.00000000000E+00  0.45593999997E+02  0.45594000000E+02  0.51100000000E-03 0. -1.
         11   -1    0    0    0    0 -0.00000000000E+00 -0.00000000000E+00 -0.45593999997E+02  0.45594000000E+02  0.51100000000E-03 0.  1.
    9900012    2    1    2    0    0 -0.13169587806E+02  0.30875347057E+02 -0.27511802789E+02  0.47787258168E+02  0.19999941291E+02 0.  0.
        -12    1    1    2    0    0  0.13169587806E+02 -0.30875347057E+02  0.27511802789E+02  0.43400741832E+02  0.00000000000E+00 0.  1.
         11    1    3    3    0    0 -0.96045145771E+01  0.10000875172E+02 -0.12484994441E+02  0.18658491121E+02  0.51100000000E-03 0. -1.
        -11    1    3    3    0    0  0.22651336590E+01  0.48273365068E+01  0.13180705018E+01  0.54928424656E+01  0.51100000000E-03 0.  1.
         12    1    3    3    0    0 -0.58302068882E+01  0.16047135378E+02 -0.16344878849E+02  0.23635924581E+02  0.00000000000E+00 0. -1.
</event>
<event>
 7    1  0.4630495E-010  0.4778727E+02  0.7816164E-02  0.1312668E+00
        -11   -1    0    0    0    0  0.00000000000E+00  0.00000000000E+00  0.45593999997E+02  0.45594000000E+02  0.51100000000E-03 0.  1.
         11   -1    0    0    0    0 -0.00000000000E+00 -0.00000000000E+00 -0.45593999997E+02  0.45594000000E+02  0.51100000000E-03 0. -1.
    9900012    2    1    2    0    0  0.27249263284E+02  0.77839966396E+01 -0.32871117359E+02  0.47787270632E+02  0.19999998120E+02 0.  0.
        -12    1    1    2    0    0 -0.27249263284E+02 -0.77839966396E+01  0.32871117359E+02  0.43400729368E+02  0.00000000000E+00 0.  1.
         11    1    3    3    0    0  0.84876339486E+01  0.69947002277E+01 -0.14221562545E+02  0.17978281419E+02  0.51100000000E-03 0. -1.
        -11    1    3    3    0    0  0.12897343524E+02 -0.15939755489E+01 -0.36038681229E+01  0.13485922058E+02  0.51100000000E-03 0.  1.
        -12    1    3    3    0    0  0.58642858112E+01  0.23832719609E+01 -0.15045686692E+02  0.16323067155E+02  0.00000000000E+00 0.  1.
</event>
<event>
 7    1  0.4630495E-010  0.4778727E+02  0.7816164E-02  0.1312668E+00
        -11   -1    0    0    0    0  0.00000000000E+00  0.00000000000E+00  0.45593999997E+02  0.45594000000E+02  0.51100000000E-03 0. -1.
         11   -1    0    0    0    0 -0.00000000000E+00 -0.00000000000E+00 -0.45593999997E+02  0.45594000000E+02  0.51100000000E-03 0.  1.
    9900012    2    1    2    0    0  0.18736678158E+02 -0.38854840388E+02  0.47813621978E+01  0.47787272420E+02  0.20000006274E+02 0.  0.
        -12    1    1    2    0    0 -0.18736678158E+02  0.38854840388E+02 -0.47813621978E+01  0.43400727580E+02  0.00000000000E+00 0.  1.
         11    1    3    3    0    0  0.39826296919E+01 -0.35769127164E+01  0.97926865576E-01  0.53539923212E+01  0.51100000000E-03 0. -1.
        -11    1    3    3    0    0  0.65280117665E+01 -0.32994072080E+02  0.39440049997E+01  0.33864124169E+02  0.51100000000E-03 0.  1.
        -12    1    3    3    0    0  0.82260366991E+01 -0.22838555919E+01  0.73943033256E+00  0.85691559302E+01  0.00000000000E+00 0.  1.
</event>
<event>
 7    1  0.4630495E-010  0.4778727E+02  0.7816164E-02  0.1312668E+00
        -11   -1    0    0    0    0  0.00000000000E+00  0.00000000000E+00  0.45593999997E+02  0.45594000000E+02  0.51100000000E-03 0. -1.
         11   -1    0    0    0    0 -0.00000000000E+00 -0.00000000000E+00 -0.45593999997E+02  0.45594000000E+02  0.51100000000E-03 0.  1.
    9900012    2    1    2    0    0  0.42756111246E+02  0.62093137086E+01  0.41210498967E+01  0.47787266390E+02  0.19999978780E+02 0.  0.
        -12    1    1    2    0    0 -0.42756111246E+02 -0.62093137086E+01 -0.41210498967E+01  0.43400733610E+02  0.00000000000E+00 0.  1.
         11    1    3    3    0    0  0.44757021072E+01  0.35877757715E+00 -0.22742003775E+01  0.50331519270E+01  0.51100000000E-03 0. -1.
        -11    1    3    3    0    0  0.14105325938E+02  0.37097327072E+01  0.10721647089E+02  0.18101824580E+02  0.51100000000E-03 0.  1.
         12    1    3    3    0    0  0.24175083201E+02  0.21408034242E+01 -0.43263968148E+01  0.24652289883E+02  0.00000000000E+00 0. -1.
</event>
<event>
 7    1  0.6279146E-010  0.4778727E+02  0.7816164E-02  0.1312668E+00
        -11   -1    0    0    0    0  0.00000000000E+00  0.00000000000E+00  0.45593999997E+02  0.45594000000E+02  0.51100000000E-03 0. -1.
         11   -1    0    0    0    0 -0.00000000000E+00 -0.00000000000E+00 -0.45593999997E+02  0.45594000000E+02  0.51100000000E-03 0.  1.
    9900012    2    1    2    0    0 -0.30475392599E+02  0.22349005690E+02  0.21340003348E+02  0.47787270141E+02  0.19999995881E+02 0.  0.
        -12    1    1    2    0    0  0.30475392599E+02 -0.22349005690E+02 -0.21340003348E+02  0.43400729859E+02  0.00000000000E+00 0.  1.
         11    1    3    3    0    0 -0.47094965364E+01  0.88124682794E+01  0.81087814386E+01  0.12868227985E+02  0.51100000000E-03 0. -1.
        -11    1    3    3    0    0 -0.55971051794E+01  0.51805411217E+01 -0.24826619142E+01  0.80205488056E+01  0.51100000000E-03 0.  1.
         12    1    3    3    0    0 -0.20168790884E+02  0.83559962890E+01  0.15713883823E+02  0.26898493350E+02  0.00000000000E+00 0. -1.
</event>
<event>
 7    1  0.4630495E-010  0.4778729E+02  0.7816164E-02  0.1312668E+00
        -11   -1    0    0    0    0  0.00000000000E+00  0.00000000000E+00  0.45593999997E+02  0.45594000000E+02  0.51100000000E-03 0.  1.
         11   -1    0    0    0    0 -0.00000000000E+00 -0.00000000000E+00 -0.45593999997E+02  0.45594000000E+02  0.51100000000E-03 0. -1.
    9900012    2    1    2    0    0  0.38900051655E+02 -0.52352966877E+01 -0.18520250036E+02  0.47787285587E+02  0.20000066305E+02 0.  0.
        -12    1    1    2    0    0 -0.38900051655E+02  0.52352966877E+01  0.18520250036E+02  0.43400714413E+02  0.00000000000E+00 0.  1.
         11    1    3    3    0    0  0.73906908108E+01  0.38457409064E+01 -0.98181869711E+00  0.83890405885E+01  0.51100000000E-03 0. -1.
        -11    1    3    3    0    0 -0.19377324266E+00  0.17058643342E+01 -0.14445690510E+01  0.22437248495E+01  0.51100000000E-03 0.  1.
         12    1    3    3    0    0  0.31703134087E+02 -0.10786901928E+02 -0.16093862288E+02  0.37154520149E+02  0.00000000000E+00 0. -1.
</event>
<event>
 7    1  0.4630495E-010  0.4778725E+02  0.7816164E-02  0.1312668E+00
        -11   -1    0    0    0    0  0.00000000000E+00  0.00000000000E+00  0.45593999997E+02  0.45594000000E+02  0.51100000000E-03 0. -1.
         11   -1    0    0    0    0 -0.00000000000E+00 -0.00000000000E+00 -0.45593999997E+02  0.45594000000E+02  0.51100000000E-03 0.  1.
    9900012    2    1    2    0    0 -0.42684345575E+02 -0.19233926922E+01 -0.76139743979E+01  0.47787246519E+02  0.19999888177E+02 0.  0.
        -12    1    1    2    0    0  0.42684345575E+02  0.19233926922E+01  0.76139743979E+01  0.43400753481E+02  0.00000000000E+00 0.  1.
         11    1    3    3    0    0 -0.41226476005E+02 -0.12491420928E+01 -0.61437053353E+01  0.41700453178E+02  0.51100000000E-03 0. -1.
        -11    1    3    3    0    0 -0.27245074397E+01 -0.15138204805E+01  0.92407832120E+00  0.32509251361E+01  0.51100000000E-03 0.  1.
        -12    1    3    3    0    0  0.12666378696E+01  0.83956988112E+00 -0.23943473838E+01  0.28358682043E+01  0.00000000000E+00 0.  1.
</event>
<event>
 7    1  0.4630495E-010  0.4778727E+02  0.7816164E-02  0.1312668E+00
        -11   -1    0    0    0    0  0.00000000000E+00  0.00000000000E+00  0.45593999997E+02  0.45594000000E+02  0.51100000000E-03 0.  1.
         11   -1    0    0    0    0 -0.00000000000E+00 -0.00000000000E+00 -0.45593999997E+02  0.45594000000E+02  0.51100000000E-03 0. -1.
    9900012    2    1    2    0    0 -0.16561919120E+02  0.39664035726E+02 -0.60075222722E+01  0.47787271678E+02  0.20000002890E+02 0.  0.
        -12    1    1    2    0    0  0.16561919120E+02 -0.39664035726E+02  0.60075222722E+01  0.43400728322E+02  0.00000000000E+00 0.  1.
         11    1    3    3    0    0 -0.27345049054E+00  0.76794310120E+01 -0.44201600131E+01  0.88648886424E+01  0.51100000000E-03 0. -1.
        -11    1    3    3    0    0 -0.26265076194E+01  0.65216193137E+01 -0.65426778128E+01  0.96039936470E+01  0.51100000000E-03 0.  1.
         12    1    3    3    0    0 -0.13661961010E+02  0.25462985400E+02  0.49553155537E+01  0.29318389389E+02  0.00000000000E+00 0. -1.
</event>
<event>
 7    1  0.4630495E-010  0.4778727E+02  0.7816164E-02  0.1312668E+00
        -11   -1    0    0    0    0  0.00000000000E+00  0.00000000000E+00  0.45593999997E+02  0.45594000000E+02  0.51100000000E-03 0.  1.
         11   -1    0    0    0    0 -0.00000000000E+00 -0.00000000000E+00 -0.45593999997E+02  0.45594000000E+02  0.51100000000E-03 0. -1.
    9900012    2    1    2    0    0 -0.68068961445E+01 -0.42814947922E+02  0.20420564684E+01  0.47787267342E+02  0.19999983118E+02 0.  0.
        -12    1    1    2    0    0  0.68068961445E+01  0.42814947922E+02 -0.20420564684E+01  0.43400732658E+02  0.00000000000E+00 0.  1.
         11    1    3    3    0    0 -0.44456689351E+01 -0.10568879772E+02  0.47328635251E+00  0.11475591145E+02  0.51100000000E-03 0. -1.
        -11    1    3    3    0    0 -0.25791767306E+01 -0.17633176993E+02  0.89465866590E+01  0.19940473831E+02  0.51100000000E-03 0.  1.
         12    1    3    3    0    0  0.21794952123E+00 -0.14612891157E+02 -0.73778165431E+01  0.16371202366E+02  0.00000000000E+00 0. -1.
</event>
<event>
 7    1  0.4630495E-010  0.4778727E+02  0.7816164E-02  0.1312668E+00
        -11   -1    0    0    0    0  0.00000000000E+00  0.00000000000E+00  0.45593999997E+02  0.45594000000E+02  0.51100000000E-03 0. -1.
         11   -1    0    0    0    0 -0.00000000000E+00 -0.00000000000E+00 -0.45593999997E+02  0.45594000000E+02  0.51100000000E-03 0.  1.
    9900012    2    1    2    0    0 -0.33134026938E+02  0.20473039255E+02  0.19147170529E+02  0.47787271703E+02  0.20000003001E+02 0.  0.
        -12    1    1    2    0    0  0.33134026938E+02 -0.20473039255E+02 -0.19147170529E+02  0.43400728297E+02  0.00000000000E+00 0.  1.
         11    1    3    3    0    0 -0.73149816537E+00  0.53403832131E+01  0.42463189090E+01  0.68619244361E+01  0.51100000000E-03 0. -1.
        -11    1    3    3    0    0 -0.10599469177E+02  0.11544398053E+02  0.34885595939E+01  0.16055899898E+02  0.51100000000E-03 0.  1.
        -12    1    3    3    0    0 -0.21803059596E+02  0.35882579896E+01  0.11412292026E+02  0.24869447369E+02  0.00000000000E+00 0.  1.
</event>
<event>
 7    1  0.4630495E-010  0.4778727E+02  0.7816164E-02  0.1312668E+00
        -11   -1    0    0    0    0  0.00000000000E+00  0.00000000000E+00  0.45593999997E+02  0.45594000000E+02  0.51100000000E-03 0.  1.
         11   -1    0    0    0    0 -0.00000000000E+00 -0.00000000000E+00 -0.45593999997E+02  0.45594000000E+02  0.51100000000E-03 0. -1.
    9900012    2    1    2    0    0 -0.45269541290E+01 -0.20632051105E+02 -0.37913697903E+02  0.47787270339E+02  0.19999996782E+02 0.  0.
        -12    1    1    2    0    0  0.45269541290E+01  0.20632051105E+02  0.37913697903E+02  0.43400729661E+02  0.00000000000E+00 0.  1.
         11    1    3    3    0    0 -0.93991180577E+01 -0.49801691424E+01 -0.11894207565E+02  0.15956743991E+02  0.51100000000E-03 0. -1.
        -11    1    3    3    0    0 -0.12574786401E+01 -0.73558964034E+01 -0.14894678724E+02  0.16659589400E+02  0.51100000000E-03 0.  1.
        -12    1    3    3    0    0  0.61296425687E+01 -0.82959855590E+01 -0.11124811614E+02  0.15170936947E+02  0.00000000000E+00 0.  1.
</event>
<event>
 7    1  0.4630495E-010  0.4778727E+02  0.7816164E-02  0.1312668E+00
        -11   -1    0    0    0    0  0.00000000000E+00  0.00000000000E+00  0.45593999997E+02  0.45594000000E+02  0.51100000000E-03 0. -1.
         11   -1    0    0    0    0 -0.00000000000E+00 -0.00000000000E+00 -0.45593999997E+02  0.45594000000E+02  0.51100000000E-03 0.  1.
    9900012    2    1    2    0    0 -0.32854627332E+02  0.24968961202E+02  0.13444255093E+02  0.47787267799E+02  0.19999985201E+02 0.  0.
        -12    1    1    2    0    0  0.32854627332E+02 -0.24968961202E+02 -0.13444255093E+02  0.43400732201E+02  0.00000000000E+00 0.  1.
         11    1    3    3    0    0 -0.17350510024E+02  0.15341011054E+02  0.57439256545E+01  0.23861674301E+02  0.51100000000E-03 0. -1.
        -11    1    3    3    0    0 -0.17272880580E+02  0.93908886792E+01  0.43597753936E+01  0.20138243108E+02  0.51100000000E-03 0.  1.
        -12    1    3    3    0    0  0.17687632721E+01  0.23706146892E+00  0.33405540451E+01  0.37873503906E+01  0.00000000000E+00 0.  1.
</event>
<event>
 7    1  0.4630495E-010  0.4778727E+02  0.7816164E-02  0.1312668E+00
        -11   -1    0    0    0    0  0.00000000000E+00  0.00000000000E+00  0.45593999997E+02  0.45594000000E+02  0.51100000000E-03 0.  1.
         11   -1    0    0    0    0 -0.00000000000E+00 -0.00000000000E+00 -0.45593999997E+02  0.45594000000E+02  0.51100000000E-03 0. -1.
    9900012    2    1    2    0    0 -0.73239366891E+01  0.21145013095E+02 -0.37186981442E+02  0.47787271709E+02  0.20000003032E+02 0.  0.
        -12    1    1    2    0    0  0.73239366891E+01 -0.21145013095E+02  0.37186981442E+02  0.43400728291E+02  0.00000000000E+00 0.  1.
         11    1    3    3    0    0 -0.21819432584E+01  0.10775750093E+01 -0.16299965388E+02  0.16480622446E+02  0.51100000000E-03 0. -1.
        -11    1    3    3    0    0  0.33558462823E+01  0.55834773724E+01 -0.63154992222E+01  0.90731722415E+01  0.51100000000E-03 0.  1.
         12    1    3    3    0    0 -0.84978397130E+01  0.14483960713E+02 -0.14571516831E+02  0.22233477022E+02  0.00000000000E+00 0. -1.
</event>
<event>
 7    1  0.4630495E-010  0.4778722E+02  0.7816164E-02  0.1312668E+00
        -11   -1    0    0    0    0  0.00000000000E+00  0.00000000000E+00  0.45593999997E+02  0.45594000000E+02  0.51100000000E-03 0. -1.
         11   -1    0    0    0    0 -0.00000000000E+00 -0.00000000000E+00 -0.45593999997E+02  0.45594000000E+02  0.51100000000E-03 0.  1.
    9900012    2    1    2    0    0  0.37622911935E+02 -0.15545475655E+02  0.15049323732E+02  0.47787222811E+02  0.19999780083E+02 0.  0.
        -12    1    1    2    0    0 -0.37622911935E+02  0.15545475655E+02 -0.15049323732E+02  0.43400777189E+02  0.00000000000E+00 0.  1.
         11    1    3    3    0    0  0.69369985798E+01 -0.32289470593E+01  0.27708689438E+01  0.81379213177E+01  0.51100000000E-03 0. -1.
        -11    1    3    3    0    0  0.15696925397E+02  0.20630213932E+01  0.10065240993E+02  0.18760559712E+02  0.51100000000E-03 0.  1.
        -12    1    3    3    0    0  0.14988987958E+02 -0.14379549989E+02  0.22132137947E+01  0.20888741781E+02  0.00000000000E+00 0.  1.
</event>
<event>
 7    1  0.4630495E-010  0.4778721E+02  0.7816164E-02  0.1312668E+00
        -11   -1    0    0    0    0  0.00000000000E+00  0.00000000000E+00  0.45593999997E+02  0.45594000000E+02  0.51100000000E-03 0.  1.
         11   -1    0    0    0    0 -0.00000000000E+00 -0.00000000000E+00 -0.45593999997E+02  0.45594000000E+02  0.51100000000E-03 0. -1.
    9900012    2    1    2    0    0 -0.41146081022E+02 -0.82012562700E+01 -0.11107100725E+02  0.47787213436E+02  0.19999737338E+02 0.  0.
        -12    1    1    2    0    0  0.41146081022E+02  0.82012562700E+01  0.11107100725E+02  0.43400786564E+02  0.00000000000E+00 0.  1.
         11    1    3    3    0    0 -0.15289885114E+02 -0.53003081758E+01 -0.59637866773E+01  0.17246466460E+02  0.51100000000E-03 0. -1.
        -11    1    3    3    0    0 -0.31741064203E+01 -0.48758056908E+01  0.27609516178E+01  0.64398204011E+01  0.51100000000E-03 0.  1.
         12    1    3    3    0    0 -0.22682089488E+02  0.19748575966E+01 -0.79042656653E+01  0.24100926575E+02  0.00000000000E+00 0. -1.
</event>
<event>
 7    1  0.4630495E-010  0.4778727E+02  0.7816164E-02  0.1312668E+00
        -11   -1    0    0    0    0  0.00000000000E+00  0.00000000000E+00  0.45593999997E+02  0.45594000000E+02  0.51100000000E-03 0.  1.
         11   -1    0    0    0    0 -0.00000000000E+00 -0.00000000000E+00 -0.45593999997E+02  0.45594000000E+02  0.51100000000E-03 0. -1.
    9900012    2    1    2    0    0  0.76632494579E+01  0.17774689589E+02 -0.38845310814E+02  0.47787272420E+02  0.20000006271E+02 0.  0.
        -12    1    1    2    0    0 -0.76632494579E+01 -0.17774689589E+02  0.38845310814E+02  0.43400727580E+02  0.00000000000E+00 0.  1.
         11    1    3    3    0    0 -0.90267543044E-01 -0.31141395048E+00  0.23553849057E+00  0.40075618466E+00  0.51100000000E-03 0. -1.
        -11    1    3    3    0    0  0.10239965835E+02  0.42809188299E+01 -0.93483732815E+01  0.14511211170E+02  0.51100000000E-03 0.  1.
         12    1    3    3    0    0 -0.24864488344E+01  0.13805184710E+02 -0.29732476023E+02  0.32875305065E+02  0.00000000000E+00 0. -1.
</event>
<event>
 7    1  0.4630495E-010  0.4778727E+02  0.7816164E-02  0.1312668E+00
        -11   -1    0    0    0    0  0.00000000000E+00  0.00000000000E+00  0.45593999997E+02  0.45594000000E+02  0.51100000000E-03 0.  1.
         11   -1    0    0    0    0 -0.00000000000E+00 -0.00000000000E+00 -0.45593999997E+02  0.45594000000E+02  0.51100000000E-03 0. -1.
    9900012    2    1    2    0    0 -0.40251638056E+02  0.63766898003E+01  0.14925372396E+02  0.47787270972E+02  0.19999999671E+02 0.  0.
        -12    1    1    2    0    0  0.40251638056E+02 -0.63766898003E+01 -0.14925372396E+02  0.43400729028E+02  0.00000000000E+00 0.  1.
         11    1    3    3    0    0 -0.19298274164E+02  0.38182327928E+01  0.11654721090E+02  0.22865581369E+02  0.51100000000E-03 0. -1.
        -11    1    3    3    0    0 -0.15513385623E+01 -0.33385683585E+00  0.49840591660E+01  0.52305791030E+01  0.51100000000E-03 0.  1.
         12    1    3    3    0    0 -0.19402025329E+02  0.28923138434E+01 -0.17134078603E+01  0.19691110500E+02  0.00000000000E+00 0. -1.
</event>
<event>
 7    1  0.4630495E-010  0.4778727E+02  0.7816164E-02  0.1312668E+00
        -11   -1    0    0    0    0  0.00000000000E+00  0.00000000000E+00  0.45593999997E+02  0.45594000000E+02  0.51100000000E-03 0.  1.
         11   -1    0    0    0    0 -0.00000000000E+00 -0.00000000000E+00 -0.45593999997E+02  0.45594000000E+02  0.51100000000E-03 0. -1.
    9900012    2    1    2    0    0  0.77211333913E+01  0.24833838608E+02 -0.34746050907E+02  0.47787268503E+02  0.19999988411E+02 0.  0.
        -12    1    1    2    0    0 -0.77211333913E+01 -0.24833838608E+02  0.34746050907E+02  0.43400731497E+02  0.00000000000E+00 0.  1.
         11    1    3    3    0    0  0.14463931775E+01  0.17036934938E+01  0.10785461984E+01  0.24815089981E+01  0.51100000000E-03 0. -1.
        -11    1    3    3    0    0 -0.28424173075E+01  0.32976949907E+01 -0.13063256194E+02  0.13769632931E+02  0.51100000000E-03 0.  1.
         12    1    3    3    0    0  0.91171575213E+01  0.19832450124E+02 -0.22761340912E+02  0.31536126574E+02  0.00000000000E+00 0. -1.
</event>
<event>
 7    1  0.4630495E-010  0.4778727E+02  0.7816164E-02  0.1312668E+00
        -11   -1    0    0    0    0  0.00000000000E+00  0.00000000000E+00  0.45593999997E+02  0.45594000000E+02  0.51100000000E-03 0.  1.
         11   -1    0    0    0    0 -0.00000000000E+00 -0.00000000000E+00 -0.45593999997E+02  0.45594000000E+02  0.51100000000E-03 0. -1.
    9900012    2    1    2    0    0 -0.22515736720E+02 -0.85904762631E+01 -0.36095270260E+02  0.47787271693E+02  0.20000002957E+02 0.  0.
        -12    1    1    2    0    0  0.22515736720E+02  0.85904762631E+01  0.36095270260E+02  0.43400728307E+02  0.00000000000E+00 0.  1.
         11    1    3    3    0    0 -0.86972423494E+01 -0.38031285377E+01 -0.95920653863E+01  0.13494944601E+02  0.51100000000E-03 0. -1.
        -11    1    3    3    0    0 -0.83479100678E+01  0.31129679737E+01 -0.21888390302E+02  0.23632177267E+02  0.51100000000E-03 0.  1.
        -12    1    3    3    0    0 -0.54705843023E+01 -0.79003156991E+01 -0.46148145719E+01  0.10660149825E+02  0.00000000000E+00 0.  1.
</event>
<event>
 7    1  0.4630495E-010  0.4778727E+02  0.7816164E-02  0.1312668E+00
        -11   -1    0    0    0    0  0.00000000000E+00  0.00000000000E+00  0.45593999997E+02  0.45594000000E+02  0.51100000000E-03 0. -1.
         11   -1    0    0    0    0 -0.00000000000E+00 -0.00000000000E+00 -0.45593999997E+02  0.45594000000E+02  0.51100000000E-03 0.  1.
    9900012    2    1    2    0    0  0.35149234015E+02  0.23936469137E+02 -0.86717926654E+01  0.47787271957E+02  0.20000004162E+02 0.  0.
        -12    1    1    2    0    0 -0.35149234015E+02 -0.23936469137E+02  0.86717926654E+01  0.43400728043E+02  0.00000000000E+00 0.  1.
         11    1    3    3    0    0  0.18387475901E+02  0.14275291414E+02 -0.35564790991E+01  0.23548498016E+02  0.51100000000E-03 0. -1.
        -11    1    3    3    0    0  0.13026048201E+02  0.64588720325E+01  0.29075106472E+01  0.14827291664E+02  0.51100000000E-03 0.  1.
        -12    1    3    3    0    0  0.37357099126E+01  0.32023056911E+01 -0.80228242135E+01  0.94114822770E+01  0.00000000000E+00 0.  1.
</event>
<event>
 7    1  0.4630495E-010  0.4778727E+02  0.7816164E-02  0.1312668E+00
        -11   -1    0    0    0    0  0.00000000000E+00  0.00000000000E+00  0.45593999997E+02  0.45594000000E+02  0.51100000000E-03 0.  1.
         11   -1    0    0    0    0 -0.00000000000E+00 -0.00000000000E+00 -0.45593999997E+02  0.45594000000E+02  0.51100000000E-03 0. -1.
    9900012    2    1    2    0    0  0.14548635319E+02  0.24981992133E+02 -0.32370674989E+02  0.47787270515E+02  0.19999997587E+02 0.  0.
        -12    1    1    2    0    0 -0.14548635319E+02 -0.24981992133E+02  0.32370674989E+02  0.43400729485E+02  0.00000000000E+00 0.  1.
         11    1    3    3    0    0  0.83795792384E+00  0.16143367566E+02 -0.15893832618E+02  0.22669900868E+02  0.51100000000E-03 0. -1.
        -11    1    3    3    0    0 -0.12645088341E+00 -0.64772224808E+00  0.79880307680E+00  0.10361566258E+01  0.51100000000E-03 0.  1.
         12    1    3    3    0    0  0.13837128279E+02  0.94863468151E+01 -0.17275645448E+02  0.24081213021E+02  0.00000000000E+00 0. -1.
</event>
<event>
 7    1  0.5290542E-010  0.4778727E+02  0.7816164E-02  0.1312668E+00
        -11   -1    0    0    0    0  0.00000000000E+00  0.00000000000E+00  0.45593999997E+02  0.45594000000E+02  0.51100000000E-03 0.  1.
         11   -1    0    0    0    0 -0.00000000000E+00 -0.00000000000E+00 -0.45593999997E+02  0.45594000000E+02  0.51100000000E-03 0. -1.
    9900012    2    1    2    0    0  0.28988569300E+02 -0.24497766987E+02 -0.21051020382E+02  0.47787271935E+02  0.20000004063E+02 0.  0.
        -12    1    1    2    0    0 -0.28988569300E+02  0.24497766987E+02  0.21051020382E+02  0.43400728065E+02  0.00000000000E+00 0.  1.
         11    1    3    3    0    0  0.17354721019E+02 -0.95875985424E+01 -0.92555508828E+01  0.21880896002E+02  0.51100000000E-03 0.  1.
        -11    1    3    3    0    0  0.24935042919E+01  0.14240018626E+01  0.12078961265E+01  0.31151819003E+01  0.51100000000E-03 0. -1.
         12    1    3    3    0    0  0.91403439899E+01 -0.16334170307E+02 -0.13003365626E+02  0.22791194033E+02  0.00000000000E+00 0. -1.
</event>
<event>
 7    1  0.4630495E-010  0.4778727E+02  0.7816164E-02  0.1312668E+00
        -11   -1    0    0    0    0  0.00000000000E+00  0.00000000000E+00  0.45593999997E+02  0.45594000000E+02  0.51100000000E-03 0. -1.
         11   -1    0    0    0    0 -0.00000000000E+00 -0.00000000000E+00 -0.45593999997E+02  0.45594000000E+02  0.51100000000E-03 0.  1.
    9900012    2    1    2    0    0 -0.18882702169E+02  0.37489871476E+00  0.39075902705E+02  0.47787272328E+02  0.20000005853E+02 0.  0.
        -12    1    1    2    0    0  0.18882702169E+02 -0.37489871476E+00 -0.39075902705E+02  0.43400727672E+02  0.00000000000E+00 0.  1.
         11    1    3    3    0    0 -0.33071396792E+01 -0.65072296390E+01  0.12925711755E+02  0.14844367116E+02  0.51100000000E-03 0. -1.
        -11    1    3    3    0    0 -0.30778122999E+00 -0.21188517771E+00  0.86549178355E+01  0.86629802964E+01  0.51100000000E-03 0.  1.
        -12    1    3    3    0    0 -0.15267781260E+02  0.70940135314E+01  0.17495273114E+02  0.24279924916E+02  0.00000000000E+00 0.  1.
</event>
<event>
 7    1  0.4630495E-010  0.4778728E+02  0.7816164E-02  0.1312668E+00
        -11   -1    0    0    0    0  0.00000000000E+00  0.00000000000E+00  0.45593999997E+02  0.45594000000E+02  0.51100000000E-03 0.  1.
         11   -1    0    0    0    0 -0.00000000000E+00 -0.00000000000E+00 -0.45593999997E+02  0.45594000000E+02  0.51100000000E-03 0. -1.
    9900012    2    1    2    0    0  0.57355770868E+01 -0.42914767030E+02  0.30081035976E+01  0.47787276953E+02  0.20000026939E+02 0.  0.
        -12    1    1    2    0    0 -0.57355770868E+01  0.42914767030E+02 -0.30081035976E+01  0.43400723047E+02  0.00000000000E+00 0.  1.
         11    1    3    3    0    0 -0.21072839136E+01 -0.53227608453E+01 -0.80495159254E+00  0.57810358792E+01  0.51100000000E-03 0. -1.
        -11    1    3    3    0    0  0.75328280327E+01 -0.31750698012E+02  0.93568623905E+01  0.33947035165E+02  0.51100000000E-03 0.  1.
        -12    1    3    3    0    0  0.31003296775E+00 -0.58413081727E+01 -0.55438072003E+01  0.80592059090E+01  0.00000000000E+00 0.  1.
</event>
<event>
 7    1  0.4630495E-010  0.4778727E+02  0.7816164E-02  0.1312668E+00
        -11   -1    0    0    0    0  0.00000000000E+00  0.00000000000E+00  0.45593999997E+02  0.45594000000E+02  0.51100000000E-03 0. -1.
         11   -1    0    0    0    0 -0.00000000000E+00 -0.00000000000E+00 -0.45593999997E+02  0.45594000000E+02  0.51100000000E-03 0.  1.
    9900012    2    1    2    0    0  0.20714734129E+02 -0.19612272130E+02  0.32709047929E+02  0.47787271382E+02  0.20000001540E+02 0.  0.
        -12    1    1    2    0    0 -0.20714734129E+02  0.19612272130E+02 -0.32709047929E+02  0.43400728618E+02  0.00000000000E+00 0.  1.
         11    1    3    3    0    0  0.58390238585E+01 -0.10323973800E+02  0.22092263869E+02  0.25074823185E+02  0.51100000000E-03 0. -1.
        -11    1    3    3    0    0  0.87585505456E+01 -0.76936033899E+01  0.11444996944E+02  0.16336820257E+02  0.51100000000E-03 0.  1.
        -12    1    3    3    0    0  0.61171597253E+01 -0.15946949401E+01 -0.82821288431E+00  0.63756279408E+01  0.00000000000E+00 0.  1.
</event>
<event>
 7    1  0.4630495E-010  0.4778727E+02  0.7816164E-02  0.1312668E+00
        -11   -1    0    0    0    0  0.00000000000E+00  0.00000000000E+00  0.45593999997E+02  0.45594000000E+02  0.51100000000E-03 0.  1.
         11   -1    0    0    0    0 -0.00000000000E+00 -0.00000000000E+00 -0.45593999997E+02  0.45594000000E+02  0.51100000000E-03 0. -1.
    9900012    2    1    2    0    0 -0.67299712347E+01 -0.42575118001E+01 -0.42663852091E+02  0.47787271956E+02  0.20000004155E+02 0.  0.
        -12    1    1    2    0    0  0.67299712347E+01  0.42575118001E+01  0.42663852091E+02  0.43400728044E+02  0.00000000000E+00 0.  1.
         11    1    3    3    0    0 -0.68994532517E+00  0.73867001711E+00 -0.18729604013E+02  0.18756858071E+02  0.51100000000E-03 0. -1.
        -11    1    3    3    0    0  0.38034863702E+01 -0.30685917744E+01 -0.14341374723E+02  0.15151164749E+02  0.51100000000E-03 0.  1.
        -12    1    3    3    0    0 -0.98435122798E+01 -0.19275900428E+01 -0.95928733544E+01  0.13879249136E+02  0.00000000000E+00 0.  1.
</event>
<event>
 7    1  0.4630495E-010  0.4778727E+02  0.7816164E-02  0.1312668E+00
        -11   -1    0    0    0    0  0.00000000000E+00  0.00000000000E+00  0.45593999997E+02  0.45594000000E+02  0.51100000000E-03 0. -1.
         11   -1    0    0    0    0 -0.00000000000E+00 -0.00000000000E+00 -0.45593999997E+02  0.45594000000E+02  0.51100000000E-03 0.  1.
    9900012    2    1    2    0    0 -0.21574362338E+02  0.36802780155E+02  0.79828443881E+01  0.47787267956E+02  0.19999985918E+02 0.  0.
        -12    1    1    2    0    0  0.21574362338E+02 -0.36802780155E+02 -0.79828443881E+01  0.43400732044E+02  0.00000000000E+00 0.  1.
         11    1    3    3    0    0 -0.14855567526E+02  0.22763519466E+02  0.72121536480E+01  0.28122604174E+02  0.51100000000E-03 0. -1.
        -11    1    3    3    0    0 -0.37972901137E+01  0.15791192584E+02  0.53959003931E+00  0.16250302554E+02  0.51100000000E-03 0.  1.
        -12    1    3    3    0    0 -0.29215046978E+01 -0.17519318944E+01  0.23110070079E+00  0.34143612281E+01  0.00000000000E+00 0.  1.
</event>
<event>
 7    1  0.4630495E-010  0.4778728E+02  0.7816164E-02  0.1312668E+00
        -11   -1    0    0    0    0  0.00000000000E+00  0.00000000000E+00  0.45593999997E+02  0.45594000000E+02  0.51100000000E-03 0.  1.
         11   -1    0    0    0    0 -0.00000000000E+00 -0.00000000000E+00 -0.45593999997E+02  0.45594000000E+02  0.51100000000E-03 0. -1.
    9900012    2    1    2    0    0  0.21453210262E+02 -0.21375434159E+02 -0.31088152748E+02  0.47787278148E+02  0.20000032387E+02 0.  0.
        -12    1    1    2    0    0 -0.21453210262E+02  0.21375434159E+02  0.31088152748E+02  0.43400721852E+02  0.00000000000E+00 0.  1.
         11    1    3    3    0    0  0.17512353347E+02 -0.14010084885E+02 -0.11967702121E+02  0.25420285061E+02  0.51100000000E-03 0. -1.
        -11    1    3    3    0    0  0.35253918428E+00 -0.11422609558E+01  0.62961505510E+00  0.13510956096E+01  0.51100000000E-03 0.  1.
        -12    1    3    3    0    0  0.35883177312E+01 -0.62230883173E+01 -0.19750065682E+02  0.21015897478E+02  0.00000000000E+00 0.  1.
</event>
<event>
 7    1  0.4630495E-010  0.4778727E+02  0.7816164E-02  0.1312668E+00
        -11   -1    0    0    0    0  0.00000000000E+00  0.00000000000E+00  0.45593999997E+02  0.45594000000E+02  0.51100000000E-03 0. -1.
         11   -1    0    0    0    0 -0.00000000000E+00 -0.00000000000E+00 -0.45593999997E+02  0.45594000000E+02  0.51100000000E-03 0.  1.
    9900012    2    1    2    0    0  0.40517594635E+02 -0.49898711003E+01  0.14732583380E+02  0.47787270724E+02  0.19999998539E+02 0.  0.
        -12    1    1    2    0    0 -0.40517594635E+02  0.49898711003E+01 -0.14732583380E+02  0.43400729276E+02  0.00000000000E+00 0.  1.
         11    1    3    3    0    0  0.17908439949E+02  0.14667925120E+01  0.76530444893E+01  0.19530304450E+02  0.51100000000E-03 0. -1.
        -11    1    3    3    0    0  0.10341278454E+02 -0.33246811653E+01  0.10535423136E+02  0.15132438198E+02  0.51100000000E-03 0.  1.
        -12    1    3    3    0    0  0.12267876232E+02 -0.31319824470E+01 -0.34558842448E+01  0.13124528076E+02  0.00000000000E+00 0.  1.
</event>
<event>
 7    1  0.4630495E-010  0.4778727E+02  0.7816164E-02  0.1312668E+00
        -11   -1    0    0    0    0  0.00000000000E+00  0.00000000000E+00  0.45593999997E+02  0.45594000000E+02  0.51100000000E-03 0.  1.
         11   -1    0    0    0    0 -0.00000000000E+00 -0.00000000000E+00 -0.45593999997E+02  0.45594000000E+02  0.51100000000E-03 0. -1.
    9900012    2    1    2    0    0  0.74176284303E+01 -0.35519203167E+02 -0.23811514714E+02  0.47787271457E+02  0.20000001879E+02 0.  0.
        -12    1    1    2    0    0 -0.74176284303E+01  0.35519203167E+02  0.23811514714E+02  0.43400728543E+02  0.00000000000E+00 0.  1.
         11    1    3    3    0    0  0.87666069697E+01 -0.12253027553E+02 -0.67742090472E+01  0.16519079589E+02  0.51100000000E-03 0. -1.
        -11    1    3    3    0    0  0.52018593612E+01 -0.10930999762E+02 -0.62710011935E+01  0.13633471782E+02  0.51100000000E-03 0.  1.
         12    1    3    3    0    0 -0.65508379005E+01 -0.12335175852E+02 -0.10766304473E+02  0.17634720086E+02  0.00000000000E+00 0. -1.
</event>
<event>
 7    1  0.4630495E-010  0.4778728E+02  0.7816164E-02  0.1312668E+00
        -11   -1    0    0    0    0  0.00000000000E+00  0.00000000000E+00  0.45593999997E+02  0.45594000000E+02  0.51100000000E-03 0.  1.
         11   -1    0    0    0    0 -0.00000000000E+00 -0.00000000000E+00 -0.45593999997E+02  0.45594000000E+02  0.51100000000E-03 0. -1.
    9900012    2    1    2    0    0  0.32779251994E+02  0.23684769372E+02 -0.15753557569E+02  0.47787282983E+02  0.20000054434E+02 0.  0.
        -12    1    1    2    0    0 -0.32779251994E+02 -0.23684769372E+02  0.15753557569E+02  0.43400717017E+02  0.00000000000E+00 0.  1.
         11    1    3    3    0    0  0.70489212007E+01 -0.27320709469E+01 -0.10582515750E+00  0.75606018926E+01  0.51100000000E-03 0.  1.
        -11    1    3    3    0    0  0.37154002122E+01  0.58274981082E+01 -0.26689355151E+01  0.74085862337E+01  0.51100000000E-03 0. -1.
        -12    1    3    3    0    0  0.22014930581E+02  0.20589342211E+02 -0.12978796897E+02  0.32818094857E+02  0.00000000000E+00 0.  1.
</event>
<event>
 7    1  0.4630495E-010  0.4778727E+02  0.7816164E-02  0.1312668E+00
        -11   -1    0    0    0    0  0.00000000000E+00  0.00000000000E+00  0.45593999997E+02  0.45594000000E+02  0.51100000000E-03 0.  1.
         11   -1    0    0    0    0 -0.00000000000E+00 -0.00000000000E+00 -0.45593999997E+02  0.45594000000E+02  0.51100000000E-03 0. -1.
    9900012    2    1    2    0    0  0.10117505786E+02 -0.11632453661E+02 -0.40570254736E+02  0.47787268776E+02  0.19999989657E+02 0.  0.
        -12    1    1    2    0    0 -0.10117505786E+02  0.11632453661E+02  0.40570254736E+02  0.43400731224E+02  0.00000000000E+00 0.  1.
         11    1    3    3    0    0  0.48090200476E+01  0.30714967808E+01 -0.71929704377E+01  0.91814808321E+01  0.51100000000E-03 0. -1.
        -11    1    3    3    0    0  0.55880413917E+01 -0.36355587157E+01 -0.20835549918E+02  0.21876097331E+02  0.51100000000E-03 0.  1.
        -12    1    3    3    0    0 -0.27955565374E+00 -0.11068391726E+02 -0.12541734380E+02  0.16729690613E+02  0.00000000000E+00 0.  1.
</event>
<event>
 7    1  0.4630495E-010  0.4778727E+02  0.7816164E-02  0.1312668E+00
        -11   -1    0    0    0    0  0.00000000000E+00  0.00000000000E+00  0.45593999997E+02  0.45594000000E+02  0.51100000000E-03 0.  1.
         11   -1    0    0    0    0 -0.00000000000E+00 -0.00000000000E+00 -0.45593999997E+02  0.45594000000E+02  0.51100000000E-03 0. -1.
    9900012    2    1    2    0    0 -0.17157149608E+02  0.27584564341E+02 -0.28781020259E+02  0.47787273050E+02  0.20000009145E+02 0.  0.
        -12    1    1    2    0    0  0.17157149608E+02 -0.27584564341E+02  0.28781020259E+02  0.43400726950E+02  0.00000000000E+00 0.  1.
         11    1    3    3    0    0 -0.89776416760E+01  0.74390283301E+01 -0.10495027396E+02  0.15687026260E+02  0.51100000000E-03 0. -1.
        -11    1    3    3    0    0  0.12965966103E+01  0.15978217095E+02 -0.11088414161E+02  0.19491985871E+02  0.51100000000E-03 0.  1.
        -12    1    3    3    0    0 -0.94761045427E+01  0.41673189160E+01 -0.71975787025E+01  0.12608260920E+02  0.00000000000E+00 0.  1.
</event>
<event>
 7    1  0.4630495E-010  0.4778727E+02  0.7816164E-02  0.1312668E+00
        -11   -1    0    0    0    0  0.00000000000E+00  0.00000000000E+00  0.45593999997E+02  0.45594000000E+02  0.51100000000E-03 0.  1.
         11   -1    0    0    0    0 -0.00000000000E+00 -0.00000000000E+00 -0.45593999997E+02  0.45594000000E+02  0.51100000000E-03 0. -1.
    9900012    2    1    2    0    0 -0.23711487042E+02 -0.31755587808E+02 -0.17690990883E+02  0.47787272665E+02  0.20000007390E+02 0.  0.
        -12    1    1    2    0    0  0.23711487042E+02  0.31755587808E+02  0.17690990883E+02  0.43400727335E+02  0.00000000000E+00 0.  1.
         11    1    3    3    0    0 -0.10074830789E+02 -0.14707963355E+02 -0.67058138175E+01  0.19047160961E+02  0.51100000000E-03 0. -1.
        -11    1    3    3    0    0 -0.13588604359E+02 -0.19632291923E+02 -0.10611367574E+02  0.26128110851E+02  0.51100000000E-03 0.  1.
        -12    1    3    3    0    0 -0.48051894613E-01  0.25846674708E+01 -0.37380949175E+00  0.26120008528E+01  0.00000000000E+00 0.  1.
</event>
<event>
 7    1  0.4630495E-010  0.4778726E+02  0.7816164E-02  0.1312668E+00
        -11   -1    0    0    0    0  0.00000000000E+00  0.00000000000E+00  0.45593999997E+02  0.45594000000E+02  0.51100000000E-03 0.  1.
         11   -1    0    0    0    0 -0.00000000000E+00 -0.00000000000E+00 -0.45593999997E+02  0.45594000000E+02  0.51100000000E-03 0. -1.
    9900012    2    1    2    0    0 -0.20751560594E+02  0.51744183602E+01 -0.37765358710E+02  0.47787260480E+02  0.19999951830E+02 0.  0.
        -12    1    1    2    0    0  0.20751560594E+02 -0.51744183602E+01  0.37765358710E+02  0.43400739520E+02  0.00000000000E+00 0.  1.
         11    1    3    3    0    0 -0.89178027384E+01  0.71171267713E-03 -0.76312914378E+01  0.11737283138E+02  0.51100000000E-03 0. -1.
        -11    1    3    3    0    0 -0.89278111872E+01  0.36882529827E+01 -0.53309008717E+01  0.11033019851E+02  0.51100000000E-03 0.  1.
         12    1    3    3    0    0 -0.29059466682E+01  0.14854536648E+01 -0.24803166400E+02  0.25016957491E+02  0.00000000000E+00 0. -1.
</event>
<event>
 7    1  0.4630495E-010  0.4778727E+02  0.7816164E-02  0.1312668E+00
        -11   -1    0    0    0    0  0.00000000000E+00  0.00000000000E+00  0.45593999997E+02  0.45594000000E+02  0.51100000000E-03 0.  1.
         11   -1    0    0    0    0 -0.00000000000E+00 -0.00000000000E+00 -0.45593999997E+02  0.45594000000E+02  0.51100000000E-03 0. -1.
    9900012    2    1    2    0    0  0.92461884901E+01 -0.52215186341E+01 -0.42081672753E+02  0.47787269129E+02  0.19999991267E+02 0.  0.
        -12    1    1    2    0    0 -0.92461884901E+01  0.52215186341E+01  0.42081672753E+02  0.43400730871E+02  0.00000000000E+00 0.  1.
         11    1    3    3    0    0  0.91074140786E+01  0.25098057059E+01 -0.17896811937E+02  0.20237094496E+02  0.51100000000E-03 0. -1.
        -11    1    3    3    0    0  0.37801310044E+01  0.55821982771E+00 -0.10179601976E+02  0.10873145655E+02  0.51100000000E-03 0.  1.
        -12    1    3    3    0    0 -0.36413565929E+01 -0.82895441678E+01 -0.14005258841E+02  0.16677028978E+02  0.00000000000E+00 0.  1.
</event>
<event>
 7    1  0.4630495E-010  0.4778727E+02  0.7816164E-02  0.1312668E+00
        -11   -1    0    0    0    0  0.00000000000E+00  0.00000000000E+00  0.45593999997E+02  0.45594000000E+02  0.51100000000E-03 0.  1.
         11   -1    0    0    0    0 -0.00000000000E+00 -0.00000000000E+00 -0.45593999997E+02  0.45594000000E+02  0.51100000000E-03 0. -1.
    9900012    2    1    2    0    0 -0.10567717023E+02  0.19017099165E+02 -0.37553913195E+02  0.47787273048E+02  0.20000009133E+02 0.  0.
        -12    1    1    2    0    0  0.10567717023E+02 -0.19017099165E+02  0.37553913195E+02  0.43400726952E+02  0.00000000000E+00 0.  1.
         11    1    3    3    0    0 -0.79816812253E+01  0.75091152768E+01 -0.23328995030E+02  0.25774717395E+02  0.51100000000E-03 0. -1.
        -11    1    3    3    0    0 -0.19986135979E+01  0.94161422939E+01 -0.16350116388E+02  0.18973257447E+02  0.51100000000E-03 0.  1.
        -12    1    3    3    0    0 -0.58742220013E+00  0.20918415945E+01  0.21251982224E+01  0.30392982055E+01  0.00000000000E+00 0.  1.
</event>
<event>
 7    1  0.4630495E-010  0.4778727E+02  0.7816164E-02  0.1312668E+00
        -11   -1    0    0    0    0  0.00000000000E+00  0.00000000000E+00  0.45593999997E+02  0.45594000000E+02  0.51100000000E-03 0.  1.
         11   -1    0    0    0    0 -0.00000000000E+00 -0.00000000000E+00 -0.45593999997E+02  0.45594000000E+02  0.51100000000E-03 0. -1.
    9900012    2    1    2    0    0 -0.30245832245E+02  0.81930821080E+01 -0.30028095223E+02  0.47787268839E+02  0.19999989943E+02 0.  0.
        -12    1    1    2    0    0  0.30245832245E+02 -0.81930821080E+01  0.30028095223E+02  0.43400731161E+02  0.00000000000E+00 0.  1.
         11    1    3    3    0    0 -0.19558049555E+02  0.20419293840E+01 -0.25169272953E+02  0.31940242317E+02  0.51100000000E-03 0. -1.
        -11    1    3    3    0    0  0.10969679349E+01  0.35841648433E+00 -0.21483877634E+01  0.24387232868E+01  0.51100000000E-03 0.  1.
        -12    1    3    3    0    0 -0.11784750625E+02  0.57927362396E+01 -0.27104345066E+01  0.13408303235E+02  0.00000000000E+00 0.  1.
</event>
<event>
 7    1  0.4630495E-010  0.4778727E+02  0.7816164E-02  0.1312668E+00
        -11   -1    0    0    0    0  0.00000000000E+00  0.00000000000E+00  0.45593999997E+02  0.45594000000E+02  0.51100000000E-03 0.  1.
         11   -1    0    0    0    0 -0.00000000000E+00 -0.00000000000E+00 -0.45593999997E+02  0.45594000000E+02  0.51100000000E-03 0. -1.
    9900012    2    1    2    0    0 -0.81851648084E+01  0.42008971982E+02 -0.72022538925E+01  0.47787272920E+02  0.20000008551E+02 0.  0.
        -12    1    1    2    0    0  0.81851648084E+01 -0.42008971982E+02  0.72022538925E+01  0.43400727080E+02  0.00000000000E+00 0.  1.
         11    1    3    3    0    0 -0.78887337956E+01  0.31942044515E+02 -0.28357319083E+01  0.33023744554E+02  0.51100000000E-03 0. -1.
        -11    1    3    3    0    0  0.47933722510E+00  0.91888187896E+01  0.10138969566E+01  0.92570050352E+01  0.51100000000E-03 0.  1.
        -12    1    3    3    0    0 -0.77576823799E+00  0.87810867801E+00 -0.53804189408E+01  0.55065233304E+01  0.00000000000E+00 0.  1.
</event>
<event>
 7    1  0.4630495E-010  0.4778727E+02  0.7816164E-02  0.1312668E+00
        -11   -1    0    0    0    0  0.00000000000E+00  0.00000000000E+00  0.45593999997E+02  0.45594000000E+02  0.51100000000E-03 0.  1.
         11   -1    0    0    0    0 -0.00000000000E+00 -0.00000000000E+00 -0.45593999997E+02  0.45594000000E+02  0.51100000000E-03 0. -1.
    9900012    2    1    2    0    0  0.33779139959E+02  0.14333179355E+02 -0.23176559219E+02  0.47787271618E+02  0.20000002617E+02 0.  0.
        -12    1    1    2    0    0 -0.33779139959E+02 -0.14333179355E+02  0.23176559219E+02  0.43400728382E+02  0.00000000000E+00 0.  1.
         11    1    3    3    0    0  0.15387151090E+02  0.27381374575E+00 -0.18314521318E+02  0.23921979099E+02  0.51100000000E-03 0. -1.
        -11    1    3    3    0    0  0.45159955961E+01  0.30241361096E+01 -0.24899528268E+01  0.59782506449E+01  0.51100000000E-03 0.  1.
         12    1    3    3    0    0  0.13875993273E+02  0.11035229500E+02 -0.23720850744E+01  0.17887041875E+02  0.00000000000E+00 0. -1.
</event>
<event>
 7    1  0.4630495E-010  0.4778725E+02  0.7816164E-02  0.1312668E+00
        -11   -1    0    0    0    0  0.00000000000E+00  0.00000000000E+00  0.45593999997E+02  0.45594000000E+02  0.51100000000E-03 0. -1.
         11   -1    0    0    0    0 -0.00000000000E+00 -0.00000000000E+00 -0.45593999997E+02  0.45594000000E+02  0.51100000000E-03 0.  1.
    9900012    2    1    2    0    0 -0.26563153751E+02 -0.34258975388E+02  0.20847862547E+01  0.47787252708E+02  0.19999916395E+02 0.  0.
        -12    1    1    2    0    0  0.26563153751E+02  0.34258975388E+02 -0.20847862547E+01  0.43400747292E+02  0.00000000000E+00 0.  1.
         11    1    3    3    0    0 -0.76391747264E-01  0.17568977665E+00 -0.65768962946E+00  0.68502445685E+00  0.51100000000E-03 0. -1.
        -11    1    3    3    0    0 -0.65981687663E+01  0.30366046296E-01 -0.23098810565E+01  0.69908729013E+01  0.51100000000E-03 0.  1.
         12    1    3    3    0    0 -0.19888593237E+02 -0.34465031211E+02  0.50523569406E+01  0.40111355349E+02  0.00000000000E+00 0. -1.
</event>
<event>
 7    1  0.4630495E-010  0.4778729E+02  0.7816164E-02  0.1312668E+00
        -11   -1    0    0    0    0  0.00000000000E+00  0.00000000000E+00  0.45593999997E+02  0.45594000000E+02  0.51100000000E-03 0.  1.
         11   -1    0    0    0    0 -0.00000000000E+00 -0.00000000000E+00 -0.45593999997E+02  0.45594000000E+02  0.51100000000E-03 0. -1.
    9900012    2    1    2    0    0 -0.39299441628E+02  0.17701725053E+02 -0.50817716706E+01  0.47787290496E+02  0.20000088686E+02 0.  0.
        -12    1    1    2    0    0  0.39299441628E+02 -0.17701725053E+02  0.50817716706E+01  0.43400709504E+02  0.00000000000E+00 0.  1.
         11    1    3    3    0    0 -0.22492760290E+02  0.10587376518E+02 -0.10066519609E+02  0.26820731241E+02  0.51100000000E-03 0. -1.
        -11    1    3    3    0    0  0.53135117416E+00 -0.95554662891E+00  0.88816463035E+00  0.14086305769E+01  0.51100000000E-03 0.  1.
        -12    1    3    3    0    0 -0.17338032513E+02  0.80698951635E+01  0.40965833084E+01  0.19557928678E+02  0.00000000000E+00 0.  1.
</event>
<event>
 7    1  0.4630495E-010  0.4778727E+02  0.7816164E-02  0.1312668E+00
        -11   -1    0    0    0    0  0.00000000000E+00  0.00000000000E+00  0.45593999997E+02  0.45594000000E+02  0.51100000000E-03 0.  1.
         11   -1    0    0    0    0 -0.00000000000E+00 -0.00000000000E+00 -0.45593999997E+02  0.45594000000E+02  0.51100000000E-03 0. -1.
    9900012    2    1    2    0    0 -0.88183007742E+01  0.88556550432E+01 -0.41562461986E+02  0.47787270731E+02  0.19999998570E+02 0.  0.
        -12    1    1    2    0    0  0.88183007742E+01 -0.88556550432E+01  0.41562461986E+02  0.43400729269E+02  0.00000000000E+00 0.  1.
         11    1    3    3    0    0 -0.85485877820E+01  0.29292243589E+01 -0.24555802190E+02  0.26165743442E+02  0.51100000000E-03 0. -1.
        -11    1    3    3    0    0 -0.32604574286E+01  0.44122038466E+00 -0.14535121969E+02  0.14902853049E+02  0.51100000000E-03 0.  1.
        -12    1    3    3    0    0  0.29907444364E+01  0.54852102996E+01 -0.24715378262E+01  0.67186742398E+01  0.00000000000E+00 0.  1.
</event>
<event>
 7    1  0.4630495E-010  0.4778728E+02  0.7816164E-02  0.1312668E+00
        -11   -1    0    0    0    0  0.00000000000E+00  0.00000000000E+00  0.45593999997E+02  0.45594000000E+02  0.51100000000E-03 0.  1.
         11   -1    0    0    0    0 -0.00000000000E+00 -0.00000000000E+00 -0.45593999997E+02  0.45594000000E+02  0.51100000000E-03 0. -1.
    9900012    2    1    2    0    0 -0.27466769562E+02  0.23440977369E+01 -0.33521693321E+02  0.47787284021E+02  0.20000059165E+02 0.  0.
        -12    1    1    2    0    0  0.27466769562E+02 -0.23440977369E+01  0.33521693321E+02  0.43400715979E+02  0.00000000000E+00 0.  1.
         11    1    3    3    0    0 -0.20540153477E+02  0.44932477968E+01 -0.16025841542E+02  0.26436996388E+02  0.51100000000E-03 0. -1.
        -11    1    3    3    0    0 -0.11927589921E+01  0.30170152135E+01 -0.14677959713E+01  0.35608257590E+01  0.51100000000E-03 0.  1.
         12    1    3    3    0    0 -0.57338570928E+01 -0.51661652733E+01 -0.16028055807E+02  0.17789461874E+02  0.00000000000E+00 0. -1.
</event>
<event>
 7    1  0.4630495E-010  0.4778728E+02  0.7816164E-02  0.1312668E+00
        -11   -1    0    0    0    0  0.00000000000E+00  0.00000000000E+00  0.45593999997E+02  0.45594000000E+02  0.51100000000E-03 0. -1.
         11   -1    0    0    0    0 -0.00000000000E+00 -0.00000000000E+00 -0.45593999997E+02  0.45594000000E+02  0.51100000000E-03 0.  1.
    9900012    2    1    2    0    0  0.20839475205E+02  0.29706028249E+02  0.23809462962E+02  0.47787281484E+02  0.20000047597E+02 0.  0.
        -12    1    1    2    0    0 -0.20839475205E+02 -0.29706028249E+02 -0.23809462962E+02  0.43400718516E+02  0.00000000000E+00 0.  1.
         11    1    3    3    0    0  0.71038341032E+01  0.40580551579E+01  0.48387332801E+01  0.95050308073E+01  0.51100000000E-03 0. -1.
        -11    1    3    3    0    0  0.65461433198E+01  0.28426106361E+01  0.10932154984E+02  0.13055437199E+02  0.51100000000E-03 0.  1.
         12    1    3    3    0    0  0.71894977823E+01  0.22805362455E+02  0.80385746979E+01  0.25226813478E+02  0.00000000000E+00 0. -1.
</event>
<event>
 7    1  0.4630495E-010  0.4778727E+02  0.7816164E-02  0.1312668E+00
        -11   -1    0    0    0    0  0.00000000000E+00  0.00000000000E+00  0.45593999997E+02  0.45594000000E+02  0.51100000000E-03 0.  1.
         11   -1    0    0    0    0 -0.00000000000E+00 -0.00000000000E+00 -0.45593999997E+02  0.45594000000E+02  0.51100000000E-03 0. -1.
    9900012    2    1    2    0    0 -0.21278123198E+02  0.15173697726E+02 -0.34650012746E+02  0.47787274052E+02  0.20000013714E+02 0.  0.
        -12    1    1    2    0    0  0.21278123198E+02 -0.15173697726E+02  0.34650012746E+02  0.43400725948E+02  0.00000000000E+00 0.  1.
         11    1    3    3    0    0 -0.12250946825E+02  0.71532245850E+01 -0.17521356490E+02  0.22544450616E+02  0.51100000000E-03 0. -1.
        -11    1    3    3    0    0 -0.26409734031E+01  0.11061662520E+02 -0.11788618656E+02  0.16380068629E+02  0.51100000000E-03 0.  1.
        -12    1    3    3    0    0 -0.63862029695E+01 -0.30411893784E+01 -0.53400375998E+01  0.88627548071E+01  0.00000000000E+00 0.  1.
</event>
<event>
 7    1  0.4630495E-010  0.4778728E+02  0.7816164E-02  0.1312668E+00
        -11   -1    0    0    0    0  0.00000000000E+00  0.00000000000E+00  0.45593999997E+02  0.45594000000E+02  0.51100000000E-03 0.  1.
         11   -1    0    0    0    0 -0.00000000000E+00 -0.00000000000E+00 -0.45593999997E+02  0.45594000000E+02  0.51100000000E-03 0. -1.
    9900012    2    1    2    0    0 -0.28130194524E+02  0.31386681095E+02 -0.10353304202E+02  0.47787279937E+02  0.20000040543E+02 0.  0.
        -12    1    1    2    0    0  0.28130194524E+02 -0.31386681095E+02  0.10353304202E+02  0.43400720063E+02  0.00000000000E+00 0.  1.
         11    1    3    3    0    0 -0.11305397971E+02  0.12882963829E+02 -0.48767940851E+01  0.17820378815E+02  0.51100000000E-03 0. -1.
        -11    1    3    3    0    0 -0.67065058286E+01  0.12068801976E+02  0.43368190952E+01  0.14472083530E+02  0.51100000000E-03 0.  1.
        -12    1    3    3    0    0 -0.10118290724E+02  0.64349152904E+01 -0.98133292125E+01  0.15494817592E+02  0.00000000000E+00 0.  1.
</event>
<event>
 7    1  0.4630495E-010  0.4778727E+02  0.7816164E-02  0.1312668E+00
        -11   -1    0    0    0    0  0.00000000000E+00  0.00000000000E+00  0.45593999997E+02  0.45594000000E+02  0.51100000000E-03 0.  1.
         11   -1    0    0    0    0 -0.00000000000E+00 -0.00000000000E+00 -0.45593999997E+02  0.45594000000E+02  0.51100000000E-03 0. -1.
    9900012    2    1    2    0    0 -0.38692642319E+02  0.37639674401E+01 -0.19295994222E+02  0.47787269435E+02  0.19999992663E+02 0.  0.
        -12    1    1    2    0    0  0.38692642319E+02 -0.37639674401E+01  0.19295994222E+02  0.43400730565E+02  0.00000000000E+00 0.  1.
         11    1    3    3    0    0  0.24124816698E+00 -0.14348136001E+01  0.65405564883E+00  0.15952052526E+01  0.51100000000E-03 0. -1.
        -11    1    3    3    0    0 -0.19422292971E+02 -0.41528839893E+01 -0.75090755260E+01  0.21233420007E+02  0.51100000000E-03 0.  1.
         12    1    3    3    0    0 -0.19511597515E+02  0.93516650295E+01 -0.12440974345E+02  0.24958644175E+02  0.00000000000E+00 0. -1.
</event>
<event>
 7    1  0.4630495E-010  0.4778727E+02  0.7816164E-02  0.1312668E+00
        -11   -1    0    0    0    0  0.00000000000E+00  0.00000000000E+00  0.45593999997E+02  0.45594000000E+02  0.51100000000E-03 0.  1.
         11   -1    0    0    0    0 -0.00000000000E+00 -0.00000000000E+00 -0.45593999997E+02  0.45594000000E+02  0.51100000000E-03 0. -1.
    9900012    2    1    2    0    0  0.97393601401E+01 -0.91095451018E+01 -0.41301144435E+02  0.47787268675E+02  0.19999989196E+02 0.  0.
        -12    1    1    2    0    0 -0.97393601401E+01  0.91095451018E+01  0.41301144435E+02  0.43400731325E+02  0.00000000000E+00 0.  1.
         11    1    3    3    0    0  0.21696139464E+01 -0.33433909120E+01 -0.31177296671E+01  0.50602100752E+01  0.51100000000E-03 0. -1.
        -11    1    3    3    0    0 -0.27386015416E+01 -0.71420436518E+01 -0.23648369198E+02  0.24854659361E+02  0.51100000000E-03 0.  1.
         12    1    3    3    0    0  0.10308347735E+02  0.13758894620E+01 -0.14535045570E+02  0.17872399239E+02  0.00000000000E+00 0. -1.
</event>
<event>
 7    1  0.4630495E-010  0.4778721E+02  0.7816164E-02  0.1312668E+00
        -11   -1    0    0    0    0  0.00000000000E+00  0.00000000000E+00  0.45593999997E+02  0.45594000000E+02  0.51100000000E-03 0.  1.
         11   -1    0    0    0    0 -0.00000000000E+00 -0.00000000000E+00 -0.45593999997E+02  0.45594000000E+02  0.51100000000E-03 0. -1.
    9900012    2    1    2    0    0 -0.62974405626E+01  0.44976445866E+01 -0.42705297116E+02  0.47787205465E+02  0.19999700997E+02 0.  0.
        -12    1    1    2    0    0  0.62974405626E+01 -0.44976445866E+01  0.42705297116E+02  0.43400794535E+02  0.00000000000E+00 0.  1.
         11    1    3    3    0    0 -0.12979618926E+01  0.28926033208E+01 -0.10953492744E+02  0.11403107585E+02  0.51100000000E-03 0. -1.
        -11    1    3    3    0    0 -0.80418404908E+01 -0.36194752000E+01 -0.27790348742E+02  0.29156050532E+02  0.51100000000E-03 0.  1.
        -12    1    3    3    0    0  0.30423618208E+01  0.52245164658E+01 -0.39614556300E+01  0.72280473475E+01  0.00000000000E+00 0.  1.
</event>
<event>
 7    1  0.4630495E-010  0.4778727E+02  0.7816164E-02  0.1312668E+00
        -11   -1    0    0    0    0  0.00000000000E+00  0.00000000000E+00  0.45593999997E+02  0.45594000000E+02  0.51100000000E-03 0. -1.
         11   -1    0    0    0    0 -0.00000000000E+00 -0.00000000000E+00 -0.45593999997E+02  0.45594000000E+02  0.51100000000E-03 0.  1.
    9900012    2    1    2    0    0 -0.15000326427E+01 -0.34796586065E+02  0.25895388382E+02  0.47787266836E+02  0.19999980812E+02 0.  0.
        -12    1    1    2    0    0  0.15000326427E+01  0.34796586065E+02 -0.25895388382E+02  0.43400733164E+02  0.00000000000E+00 0.  1.
         11    1    3    3    0    0 -0.15355843116E+01 -0.12340969162E+02  0.91508560114E+01  0.15440068168E+02  0.51100000000E-03 0. -1.
        -11    1    3    3    0    0  0.11875242596E+01 -0.14189910901E+01  0.10082431125E+02  0.10250813003E+02  0.51100000000E-03 0.  1.
        -12    1    3    3    0    0 -0.11519725908E+01 -0.21036625813E+02  0.66621012465E+01  0.22096385665E+02  0.00000000000E+00 0.  1.
</event>
<event>
 7    1  0.4630495E-010  0.4778725E+02  0.7816164E-02  0.1312668E+00
        -11   -1    0    0    0    0  0.00000000000E+00  0.00000000000E+00  0.45593999997E+02  0.45594000000E+02  0.51100000000E-03 0.  1.
         11   -1    0    0    0    0 -0.00000000000E+00 -0.00000000000E+00 -0.45593999997E+02  0.45594000000E+02  0.51100000000E-03 0. -1.
    9900012    2    1    2    0    0  0.72592925864E+01 -0.27316445601E+02 -0.32935391331E+02  0.47787245038E+02  0.19999881427E+02 0.  0.
        -12    1    1    2    0    0 -0.72592925864E+01  0.27316445601E+02  0.32935391331E+02  0.43400754962E+02  0.00000000000E+00 0.  1.
         11    1    3    3    0    0  0.16334722281E+01 -0.52244652027E+01 -0.99987598793E+01  0.11399055556E+02  0.51100000000E-03 0. -1.
        -11    1    3    3    0    0  0.79370689567E+01 -0.11116323919E+02 -0.37515051786E+01  0.14164868954E+02  0.51100000000E-03 0.  1.
        -12    1    3    3    0    0 -0.23112485984E+01 -0.10975656478E+02 -0.19185126273E+02  0.22223320529E+02  0.00000000000E+00 0.  1.
</event>
<event>
 7    1  0.4630495E-010  0.4778727E+02  0.7816164E-02  0.1312668E+00
        -11   -1    0    0    0    0  0.00000000000E+00  0.00000000000E+00  0.45593999997E+02  0.45594000000E+02  0.51100000000E-03 0. -1.
         11   -1    0    0    0    0 -0.00000000000E+00 -0.00000000000E+00 -0.45593999997E+02  0.45594000000E+02  0.51100000000E-03 0.  1.
    9900012    2    1    2    0    0  0.41361818784E+02  0.38312903373E+01  0.12575560008E+02  0.47787267883E+02  0.19999985588E+02 0.  0.
        -12    1    1    2    0    0 -0.41361818784E+02 -0.38312903373E+01 -0.12575560008E+02  0.43400732117E+02  0.00000000000E+00 0.  1.
         11    1    3    3    0    0  0.30940390787E+02  0.55398466397E+01  0.91133332427E+01  0.32726908285E+02  0.51100000000E-03 0. -1.
        -11    1    3    3    0    0  0.10693052118E+02  0.98683077366E+00  0.95329707274E-01  0.10738914591E+02  0.51100000000E-03 0.  1.
        -12    1    3    3    0    0 -0.27162412167E+00 -0.26953870761E+01  0.33668970577E+01  0.43214450073E+01  0.00000000000E+00 0.  1.
</event>
<event>
 7    1  0.4630495E-010  0.4778727E+02  0.7816164E-02  0.1312668E+00
        -11   -1    0    0    0    0  0.00000000000E+00  0.00000000000E+00  0.45593999997E+02  0.45594000000E+02  0.51100000000E-03 0.  1.
         11   -1    0    0    0    0 -0.00000000000E+00 -0.00000000000E+00 -0.45593999997E+02  0.45594000000E+02  0.51100000000E-03 0. -1.
    9900012    2    1    2    0    0 -0.36771445829E+02 -0.20107847808E+02 -0.11276446189E+02  0.47787274079E+02  0.20000013836E+02 0.  0.
        -12    1    1    2    0    0  0.36771445829E+02  0.20107847808E+02  0.11276446189E+02  0.43400725921E+02  0.00000000000E+00 0.  1.
         11    1    3    3    0    0 -0.18111120397E+02 -0.67039015113E+01 -0.97352060480E+01  0.21627048217E+02  0.51100000000E-03 0. -1.
        -11    1    3    3    0    0 -0.16924526185E+02 -0.56908355647E+01 -0.30422263550E+01  0.18112988088E+02  0.51100000000E-03 0.  1.
         12    1    3    3    0    0 -0.17357992470E+01 -0.77131107315E+01  0.15009862140E+01  0.80472377744E+01  0.00000000000E+00 0. -1.
</event>
<event>
 7    1  0.4630495E-010  0.4778727E+02  0.7816164E-02  0.1312668E+00
        -11   -1    0    0    0    0  0.00000000000E+00  0.00000000000E+00  0.45593999997E+02  0.45594000000E+02  0.51100000000E-03 0. -1.
         11   -1    0    0    0    0 -0.00000000000E+00 -0.00000000000E+00 -0.45593999997E+02  0.45594000000E+02  0.51100000000E-03 0.  1.
    9900012    2    1    2    0    0 -0.26260810442E+02 -0.22177548869E+02  0.26498099981E+02  0.47787272569E+02  0.20000006953E+02 0.  0.
        -12    1    1    2    0    0  0.26260810442E+02  0.22177548869E+02 -0.26498099981E+02  0.43400727431E+02  0.00000000000E+00 0.  1.
         11    1    3    3    0    0 -0.23863063352E+01 -0.26555613238E+01 -0.16820334672E+01  0.39466062276E+01  0.51100000000E-03 0. -1.
        -11    1    3    3    0    0 -0.62940505633E+00 -0.66110382197E+01  0.32582116585E+01  0.73971562468E+01  0.51100000000E-03 0.  1.
         12    1    3    3    0    0 -0.23245099051E+02 -0.12910949326E+02  0.24921921789E+02  0.36443510095E+02  0.00000000000E+00 0. -1.
</event>
<event>
 7    1  0.4630495E-010  0.4778728E+02  0.7816164E-02  0.1312668E+00
        -11   -1    0    0    0    0  0.00000000000E+00  0.00000000000E+00  0.45593999997E+02  0.45594000000E+02  0.51100000000E-03 0. -1.
         11   -1    0    0    0    0 -0.00000000000E+00 -0.00000000000E+00 -0.45593999997E+02  0.45594000000E+02  0.51100000000E-03 0.  1.
    9900012    2    1    2    0    0 -0.40600898579E+01 -0.18330738596E+02  0.39129558872E+02  0.47787277833E+02  0.20000030950E+02 0.  0.
        -12    1    1    2    0    0  0.40600898579E+01  0.18330738596E+02 -0.39129558872E+02  0.43400722167E+02  0.00000000000E+00 0.  1.
         11    1    3    3    0    0  0.33655326661E+01 -0.71604571887E+01  0.15923305484E+02  0.17780624710E+02  0.51100000000E-03 0. -1.
        -11    1    3    3    0    0 -0.33316744344E+00 -0.44007119609E+01 -0.41364780533E+00  0.44326483141E+01  0.51100000000E-03 0.  1.
        -12    1    3    3    0    0 -0.70924550806E+01 -0.67695694464E+01  0.23619901194E+02  0.25574004809E+02  0.00000000000E+00 0.  1.
</event>
<event>
 7    1  0.5589811E-010  0.4778728E+02  0.7816164E-02  0.1312668E+00
        -11   -1    0    0    0    0  0.00000000000E+00  0.00000000000E+00  0.45593999997E+02  0.45594000000E+02  0.51100000000E-03 0. -1.
         11   -1    0    0    0    0 -0.00000000000E+00 -0.00000000000E+00 -0.45593999997E+02  0.45594000000E+02  0.51100000000E-03 0.  1.
    9900012    2    1    2    0    0 -0.35742001927E+02 -0.23393411572E+02 -0.76733393483E+01  0.47787279459E+02  0.20000038366E+02 0.  0.
        -12    1    1    2    0    0  0.35742001927E+02  0.23393411572E+02  0.76733393483E+01  0.43400720541E+02  0.00000000000E+00 0.  1.
         11    1    3    3    0    0 -0.14998423704E+02 -0.93496851245E+01  0.81699173710E+00  0.17692846049E+02  0.51100000000E-03 0. -1.
        -11    1    3    3    0    0 -0.59643665878E+01  0.15868544609E+01  0.15375976717E+01  0.63605017676E+01  0.51100000000E-03 0.  1.
         12    1    3    3    0    0 -0.14779211635E+02 -0.15630580908E+02 -0.10027928757E+02  0.23733931643E+02  0.00000000000E+00 0. -1.
</event>
<event>
 7    1  0.4630495E-010  0.4778727E+02  0.7816164E-02  0.1312668E+00
        -11   -1    0    0    0    0  0.00000000000E+00  0.00000000000E+00  0.45593999997E+02  0.45594000000E+02  0.51100000000E-03 0. -1.
         11   -1    0    0    0    0 -0.00000000000E+00 -0.00000000000E+00 -0.45593999997E+02  0.45594000000E+02  0.51100000000E-03 0.  1.
    9900012    2    1    2    0    0  0.20991366254E+02 -0.74511976331E+00  0.37979342916E+02  0.47787272483E+02  0.20000006559E+02 0.  0.
        -12    1    1    2    0    0 -0.20991366254E+02  0.74511976331E+00 -0.37979342916E+02  0.43400727517E+02  0.00000000000E+00 0.  1.
         11    1    3    3    0    0  0.92636567654E+01 -0.71954941550E+00  0.18058436053E+02  0.20308623808E+02  0.51100000000E-03 0. -1.
        -11    1    3    3    0    0  0.16387784069E-01 -0.58248310423E+01  0.69120741617E+01  0.90391202397E+01  0.51100000000E-03 0.  1.
        -12    1    3    3    0    0  0.11711321705E+02  0.57992606945E+01  0.13008832702E+02  0.18439528436E+02  0.00000000000E+00 0.  1.
</event>
<event>
 7    1  0.4630495E-010  0.4778727E+02  0.7816164E-02  0.1312668E+00
        -11   -1    0    0    0    0  0.00000000000E+00  0.00000000000E+00  0.45593999997E+02  0.45594000000E+02  0.51100000000E-03 0. -1.
         11   -1    0    0    0    0 -0.00000000000E+00 -0.00000000000E+00 -0.45593999997E+02  0.45594000000E+02  0.51100000000E-03 0.  1.
    9900012    2    1    2    0    0  0.15340357717E+02 -0.38454143989E+02  0.13022128174E+02  0.47787267437E+02  0.19999983552E+02 0.  0.
        -12    1    1    2    0    0 -0.15340357717E+02  0.38454143989E+02 -0.13022128174E+02  0.43400732563E+02  0.00000000000E+00 0.  1.
         11    1    3    3    0    0  0.95178109901E+01 -0.10033872753E+02  0.56228195470E+01  0.14929280907E+02  0.51100000000E-03 0. -1.
        -11    1    3    3    0    0  0.70773998137E+01 -0.63703962011E+01 -0.13364392444E+00  0.95230980695E+01  0.51100000000E-03 0.  1.
         12    1    3    3    0    0 -0.12548530869E+01 -0.22049875035E+02  0.75329525516E+01  0.23334888461E+02  0.00000000000E+00 0. -1.
</event>
<event>
 7    1  0.4630495E-010  0.4778726E+02  0.7816164E-02  0.1312668E+00
        -11   -1    0    0    0    0  0.00000000000E+00  0.00000000000E+00  0.45593999997E+02  0.45594000000E+02  0.51100000000E-03 0. -1.
         11   -1    0    0    0    0 -0.00000000000E+00 -0.00000000000E+00 -0.45593999997E+02  0.45594000000E+02  0.51100000000E-03 0.  1.
    9900012    2    1    2    0    0 -0.31329165914E+02 -0.11056527034E+02  0.27925983875E+02  0.47787262652E+02  0.19999961738E+02 0.  0.
        -12    1    1    2    0    0  0.31329165914E+02  0.11056527034E+02 -0.27925983875E+02  0.43400737348E+02  0.00000000000E+00 0.  1.
         11    1    3    3    0    0 -0.85706556915E+01 -0.52881494859E+01  0.39295599448E+01  0.10810277776E+02  0.51100000000E-03 0. -1.
        -11    1    3    3    0    0 -0.20001897835E+02 -0.62354577043E+01  0.10961409965E+02  0.23645493407E+02  0.51100000000E-03 0.  1.
         12    1    3    3    0    0 -0.27566123874E+01  0.46708015642E+00  0.13035013965E+02  0.13331491470E+02  0.00000000000E+00 0. -1.
</event>
<event>
 7    1  0.4630495E-010  0.4778726E+02  0.7816164E-02  0.1312668E+00
        -11   -1    0    0    0    0  0.00000000000E+00  0.00000000000E+00  0.45593999997E+02  0.45594000000E+02  0.51100000000E-03 0. -1.
         11   -1    0    0    0    0 -0.00000000000E+00 -0.00000000000E+00 -0.45593999997E+02  0.45594000000E+02  0.51100000000E-03 0.  1.
    9900012    2    1    2    0    0 -0.30624956950E+02 -0.11381690610E+01  0.30731752591E+02  0.47787262284E+02  0.19999960057E+02 0.  0.
        -12    1    1    2    0    0  0.30624956950E+02  0.11381690610E+01 -0.30731752591E+02  0.43400737716E+02  0.00000000000E+00 0.  1.
         11    1    3    3    0    0 -0.10265702657E+02  0.45673115082E+01  0.31903677611E+01  0.11680044185E+02  0.51100000000E-03 0. -1.
        -11    1    3    3    0    0 -0.77311567787E+01 -0.39470372094E+01  0.45097788128E+01  0.97820239762E+01  0.51100000000E-03 0.  1.
        -12    1    3    3    0    0 -0.12628097514E+02 -0.17584433598E+01  0.23031606017E+02  0.26325194123E+02  0.00000000000E+00 0.  1.
</event>
<event>
 7    1  0.4630495E-010  0.4778727E+02  0.7816164E-02  0.1312668E+00
        -11   -1    0    0    0    0  0.00000000000E+00  0.00000000000E+00  0.45593999997E+02  0.45594000000E+02  0.51100000000E-03 0. -1.
         11   -1    0    0    0    0 -0.00000000000E+00 -0.00000000000E+00 -0.45593999997E+02  0.45594000000E+02  0.51100000000E-03 0.  1.
    9900012    2    1    2    0    0  0.17410032563E+01 -0.26874603496E+02  0.34034507913E+02  0.47787272653E+02  0.20000007333E+02 0.  0.
        -12    1    1    2    0    0 -0.17410032563E+01  0.26874603496E+02 -0.34034507913E+02  0.43400727347E+02  0.00000000000E+00 0.  1.
         11    1    3    3    0    0  0.14131088301E+01 -0.76497682580E+01  0.19042618936E+02  0.20570298179E+02  0.51100000000E-03 0. -1.
        -11    1    3    3    0    0  0.28958456292E+01  0.26032174573E+00  0.30785345370E+01  0.42345087644E+01  0.51100000000E-03 0.  1.
         12    1    3    3    0    0 -0.25679512030E+01 -0.19485156984E+02  0.11913354439E+02  0.22982465709E+02  0.00000000000E+00 0. -1.
</event>
<event>
 7    1  0.4630495E-010  0.4778728E+02  0.7816164E-02  0.1312668E+00
        -11   -1    0    0    0    0  0.00000000000E+00  0.00000000000E+00  0.45593999997E+02  0.45594000000E+02  0.51100000000E-03 0.  1.
         11   -1    0    0    0    0 -0.00000000000E+00 -0.00000000000E+00 -0.45593999997E+02  0.45594000000E+02  0.51100000000E-03 0. -1.
    9900012    2    1    2    0    0 -0.41685335495E+02  0.11180063857E+02 -0.45783759083E+01  0.47787279393E+02  0.20000038066E+02 0.  0.
        -12    1    1    2    0    0  0.41685335495E+02 -0.11180063857E+02  0.45783759083E+01  0.43400720607E+02  0.00000000000E+00 0.  1.
         11    1    3    3    0    0 -0.10666975330E+02  0.86797808208E+01 -0.48725343317E+01  0.14589878302E+02  0.51100000000E-03 0. -1.
        -11    1    3    3    0    0 -0.76015101799E+00  0.17234030437E+01 -0.21166062954E+01  0.28333672709E+01  0.51100000000E-03 0.  1.
        -12    1    3    3    0    0 -0.30258209148E+02  0.77687999266E+00  0.24107647187E+01  0.30364033821E+02  0.00000000000E+00 0.  1.
</event>
<event>
 7    1  0.4630495E-010  0.4778727E+02  0.7816164E-02  0.1312668E+00
        -11   -1    0    0    0    0  0.00000000000E+00  0.00000000000E+00  0.45593999997E+02  0.45594000000E+02  0.51100000000E-03 0.  1.
         11   -1    0    0    0    0 -0.00000000000E+00 -0.00000000000E+00 -0.45593999997E+02  0.45594000000E+02  0.51100000000E-03 0. -1.
    9900012    2    1    2    0    0  0.20026127440E+02  0.72793215227E+01 -0.37809905470E+02  0.47787271277E+02  0.20000001059E+02 0.  0.
        -12    1    1    2    0    0 -0.20026127440E+02 -0.72793215227E+01  0.37809905470E+02  0.43400728723E+02  0.00000000000E+00 0.  1.
         11    1    3    3    0    0  0.18246316630E+00 -0.13747389793E+01 -0.38571842531E+01  0.40989109153E+01  0.51100000000E-03 0.  1.
        -11    1    3    3    0    0  0.12743040127E+02  0.10638870306E+02 -0.11870476251E+02  0.20407813203E+02  0.51100000000E-03 0. -1.
         12    1    3    3    0    0  0.71006241469E+01 -0.19848098043E+01 -0.22082244966E+02  0.23280547158E+02  0.00000000000E+00 0. -1.
</event>
<event>
 7    1  0.4630495E-010  0.4778727E+02  0.7816164E-02  0.1312668E+00
        -11   -1    0    0    0    0  0.00000000000E+00  0.00000000000E+00  0.45593999997E+02  0.45594000000E+02  0.51100000000E-03 0.  1.
         11   -1    0    0    0    0 -0.00000000000E+00 -0.00000000000E+00 -0.45593999997E+02  0.45594000000E+02  0.51100000000E-03 0. -1.
    9900012    2    1    2    0    0  0.14224863175E+01  0.28035078035E+02 -0.33100367032E+02  0.47787269990E+02  0.19999995192E+02 0.  0.
        -12    1    1    2    0    0 -0.14224863175E+01 -0.28035078035E+02  0.33100367032E+02  0.43400730010E+02  0.00000000000E+00 0.  1.
         11    1    3    3    0    0 -0.13080362220E+01  0.55312014221E+01 -0.11192181420E+02  0.12552691868E+02  0.51100000000E-03 0. -1.
        -11    1    3    3    0    0  0.48420447070E+01  0.17397720610E+02 -0.70571004970E+01  0.19388882047E+02  0.51100000000E-03 0.  1.
        -12    1    3    3    0    0 -0.21115221675E+01  0.51061560031E+01 -0.14851085115E+02  0.15845696075E+02  0.00000000000E+00 0.  1.
</event>
<event>
 7    1  0.4630495E-010  0.4778728E+02  0.7816164E-02  0.1312668E+00
        -11   -1    0    0    0    0  0.00000000000E+00  0.00000000000E+00  0.45593999997E+02  0.45594000000E+02  0.51100000000E-03 0.  1.
         11   -1    0    0    0    0 -0.00000000000E+00 -0.00000000000E+00 -0.45593999997E+02  0.45594000000E+02  0.51100000000E-03 0. -1.
    9900012    2    1    2    0    0 -0.66621026112E+01 -0.32619817496E+02 -0.27842175758E+02  0.47787275863E+02  0.20000021970E+02 0.  0.
        -12    1    1    2    0    0  0.66621026112E+01  0.32619817496E+02  0.27842175758E+02  0.43400724137E+02  0.00000000000E+00 0.  1.
         11    1    3    3    0    0  0.76517423732E+00 -0.81927794983E+01 -0.66688085267E+01  0.10591512401E+02  0.51100000000E-03 0. -1.
        -11    1    3    3    0    0 -0.10334745457E+02 -0.14089718596E+02 -0.57363485274E+01  0.18391107321E+02  0.51100000000E-03 0.  1.
         12    1    3    3    0    0  0.29074686088E+01 -0.10337319401E+02 -0.15437018704E+02  0.18804656141E+02  0.00000000000E+00 0. -1.
</event>
<event>
 7    1  0.4630495E-010  0.4778727E+02  0.7816164E-02  0.1312668E+00
        -11   -1    0    0    0    0  0.00000000000E+00  0.00000000000E+00  0.45593999997E+02  0.45594000000E+02  0.51100000000E-03 0.  1.
         11   -1    0    0    0    0 -0.00000000000E+00 -0.00000000000E+00 -0.45593999997E+02  0.45594000000E+02  0.51100000000E-03 0. -1.
    9900012    2    1    2    0    0 -0.27979563053E+02  0.22967807046E+02 -0.23942575420E+02  0.47787273890E+02  0.20000012973E+02 0.  0.
        -12    1    1    2    0    0  0.27979563053E+02 -0.22967807046E+02  0.23942575420E+02  0.43400726110E+02  0.00000000000E+00 0.  1.
         11    1    3    3    0    0 -0.25070969301E+01  0.18507319474E+01  0.19040342313E+01  0.36518612204E+01  0.51100000000E-03 0. -1.
        -11    1    3    3    0    0 -0.14054671619E+02  0.16798019450E+02 -0.98557346139E+01  0.24017551016E+02  0.51100000000E-03 0.  1.
        -12    1    3    3    0    0 -0.11417794504E+02  0.43190556479E+01 -0.15990875038E+02  0.20117861653E+02  0.00000000000E+00 0.  1.
</event>
<event>
 7    1  0.4630495E-010  0.4778727E+02  0.7816164E-02  0.1312668E+00
        -11   -1    0    0    0    0  0.00000000000E+00  0.00000000000E+00  0.45593999997E+02  0.45594000000E+02  0.51100000000E-03 0.  1.
         11   -1    0    0    0    0 -0.00000000000E+00 -0.00000000000E+00 -0.45593999997E+02  0.45594000000E+02  0.51100000000E-03 0. -1.
    9900012    2    1    2    0    0  0.15843889724E+02  0.35544133910E+02 -0.19214802581E+02  0.47787274946E+02  0.20000017787E+02 0.  0.
        -12    1    1    2    0    0 -0.15843889724E+02 -0.35544133910E+02  0.19214802581E+02  0.43400725054E+02  0.00000000000E+00 0.  1.
         11    1    3    3    0    0  0.39219168072E+01  0.61542639111E+01 -0.79205499411E+01  0.10769935346E+02  0.51100000000E-03 0. -1.
        -11    1    3    3    0    0 -0.18276230952E+00  0.93712342459E+00  0.28570024952E+01  0.30123190225E+01  0.51100000000E-03 0.  1.
         12    1    3    3    0    0  0.12104735227E+02  0.28452746574E+02 -0.14151255135E+02  0.34005020577E+02  0.00000000000E+00 0. -1.
</event>
<event>
 7    1  0.4630495E-010  0.4778728E+02  0.7816164E-02  0.1312668E+00
        -11   -1    0    0    0    0  0.00000000000E+00  0.00000000000E+00  0.45593999997E+02  0.45594000000E+02  0.51100000000E-03 0.  1.
         11   -1    0    0    0    0 -0.00000000000E+00 -0.00000000000E+00 -0.45593999997E+02  0.45594000000E+02  0.51100000000E-03 0. -1.
    9900012    2    1    2    0    0  0.56314049418E+01 -0.20762512838E+02 -0.37693874474E+02  0.47787276114E+02  0.20000023115E+02 0.  0.
        -12    1    1    2    0    0 -0.56314049418E+01  0.20762512838E+02  0.37693874474E+02  0.43400723886E+02  0.00000000000E+00 0.  1.
         11    1    3    3    0    0 -0.21164215530E+01 -0.23111551867E+01 -0.45899708272E+00  0.31672317677E+01  0.51100000000E-03 0. -1.
        -11    1    3    3    0    0 -0.37805788659E+01 -0.35770076002E+01 -0.12498791659E+02  0.13539111977E+02  0.51100000000E-03 0.  1.
         12    1    3    3    0    0  0.11528405361E+02 -0.14874350051E+02 -0.24736085733E+02  0.31080932370E+02  0.00000000000E+00 0. -1.
</event>
<event>
 7    1  0.4630495E-010  0.4778727E+02  0.7816164E-02  0.1312668E+00
        -11   -1    0    0    0    0  0.00000000000E+00  0.00000000000E+00  0.45593999997E+02  0.45594000000E+02  0.51100000000E-03 0.  1.
         11   -1    0    0    0    0 -0.00000000000E+00 -0.00000000000E+00 -0.45593999997E+02  0.45594000000E+02  0.51100000000E-03 0. -1.
    9900012    2    1    2    0    0 -0.19330461557E+02  0.90742250158E+00 -0.38847562076E+02  0.47787271448E+02  0.20000001840E+02 0.  0.
        -12    1    1    2    0    0  0.19330461557E+02 -0.90742250158E+00  0.38847562076E+02  0.43400728552E+02  0.00000000000E+00 0.  1.
         11    1    3    3    0    0 -0.67838908548E+01  0.51486066997E+01 -0.12956799923E+02  0.15505095633E+02  0.51100000000E-03 0. -1.
        -11    1    3    3    0    0  0.12513436464E+01 -0.10490495146E+01  0.98233802713E+00  0.19056112054E+01  0.51100000000E-03 0.  1.
         12    1    3    3    0    0 -0.13797914348E+02 -0.31921346835E+01 -0.26873100180E+02  0.30376564610E+02  0.00000000000E+00 0. -1.
</event>
<event>
 7    1  0.4630495E-010  0.4778727E+02  0.7816164E-02  0.1312668E+00
        -11   -1    0    0    0    0  0.00000000000E+00  0.00000000000E+00  0.45593999997E+02  0.45594000000E+02  0.51100000000E-03 0.  1.
         11   -1    0    0    0    0 -0.00000000000E+00 -0.00000000000E+00 -0.45593999997E+02  0.45594000000E+02  0.51100000000E-03 0. -1.
    9900012    2    1    2    0    0  0.12042510644E+02  0.19910862001E+01 -0.41648970037E+02  0.47787271987E+02  0.20000004300E+02 0.  0.
        -12    1    1    2    0    0 -0.12042510644E+02 -0.19910862001E+01  0.41648970037E+02  0.43400728013E+02  0.00000000000E+00 0.  1.
         11    1    3    3    0    0  0.21896978537E+01  0.40683585684E+01 -0.16378874762E+02  0.17018045036E+02  0.51100000000E-03 0. -1.
        -11    1    3    3    0    0  0.20887415950E+01  0.59673662478E+01 -0.10287489902E+02  0.12074963774E+02  0.51100000000E-03 0.  1.
         12    1    3    3    0    0  0.77640711953E+01 -0.80446386160E+01 -0.14982605373E+02  0.18694263177E+02  0.00000000000E+00 0. -1.
</event>
<event>
 7    1  0.4630495E-010  0.4778727E+02  0.7816164E-02  0.1312668E+00
        -11   -1    0    0    0    0  0.00000000000E+00  0.00000000000E+00  0.45593999997E+02  0.45594000000E+02  0.51100000000E-03 0.  1.
         11   -1    0    0    0    0 -0.00000000000E+00 -0.00000000000E+00 -0.45593999997E+02  0.45594000000E+02  0.51100000000E-03 0. -1.
    9900012    2    1    2    0    0 -0.29668428494E+02 -0.29815594498E+02 -0.10697568653E+02  0.47787270747E+02  0.19999998646E+02 0.  0.
        -12    1    1    2    0    0  0.29668428494E+02  0.29815594498E+02  0.10697568653E+02  0.43400729253E+02  0.00000000000E+00 0.  1.
         11    1    3    3    0    0 -0.18199472915E+02 -0.16692784275E+02 -0.13865400559E+02  0.28321708885E+02  0.51100000000E-03 0. -1.
        -11    1    3    3    0    0 -0.84356755666E+01 -0.56910463990E+01 -0.13330901703E+01  0.10262833967E+02  0.51100000000E-03 0.  1.
        -12    1    3    3    0    0 -0.30332800122E+01 -0.74317638241E+01  0.45009220766E+01  0.92027278950E+01  0.00000000000E+00 0.  1.
</event>
<event>
 7    1  0.4630495E-010  0.4778728E+02  0.7816164E-02  0.1312668E+00
        -11   -1    0    0    0    0  0.00000000000E+00  0.00000000000E+00  0.45593999997E+02  0.45594000000E+02  0.51100000000E-03 0. -1.
         11   -1    0    0    0    0 -0.00000000000E+00 -0.00000000000E+00 -0.45593999997E+02  0.45594000000E+02  0.51100000000E-03 0.  1.
    9900012    2    1    2    0    0 -0.74261524899E+01  0.25658507193E+02  0.34206959268E+02  0.47787276567E+02  0.20000025178E+02 0.  0.
        -12    1    1    2    0    0  0.74261524899E+01 -0.25658507193E+02 -0.34206959268E+02  0.43400723433E+02  0.00000000000E+00 0.  1.
         11    1    3    3    0    0 -0.36561479828E+01  0.67397415005E+01  0.18065646326E+02  0.19625470976E+02  0.51100000000E-03 0. -1.
        -11    1    3    3    0    0  0.23228162652E+01  0.17856625711E+01  0.74537612198E+01  0.80089089646E+01  0.51100000000E-03 0.  1.
         12    1    3    3    0    0 -0.60928207723E+01  0.17133103121E+02  0.86875517223E+01  0.20152896627E+02  0.00000000000E+00 0. -1.
</event>
<event>
 7    1  0.4630495E-010  0.4778727E+02  0.7816164E-02  0.1312668E+00
        -11   -1    0    0    0    0  0.00000000000E+00  0.00000000000E+00  0.45593999997E+02  0.45594000000E+02  0.51100000000E-03 0.  1.
         11   -1    0    0    0    0 -0.00000000000E+00 -0.00000000000E+00 -0.45593999997E+02  0.45594000000E+02  0.51100000000E-03 0. -1.
    9900012    2    1    2    0    0 -0.23357332725E+02  0.14753696120E+02 -0.33472175463E+02  0.47787273377E+02  0.20000010634E+02 0.  0.
        -12    1    1    2    0    0  0.23357332725E+02 -0.14753696120E+02  0.33472175463E+02  0.43400726623E+02  0.00000000000E+00 0.  1.
         11    1    3    3    0    0 -0.49477131143E+01  0.88550004371E+01 -0.15874102341E+02  0.18838206475E+02  0.51100000000E-03 0. -1.
        -11    1    3    3    0    0 -0.14338754528E+02  0.60795288079E+01 -0.60586619189E+01  0.16711311632E+02  0.51100000000E-03 0.  1.
         12    1    3    3    0    0 -0.40708650827E+01 -0.18083312543E+00 -0.11539411203E+02  0.12237755270E+02  0.00000000000E+00 0. -1.
</event>
<event>
 7    1  0.4630495E-010  0.4778728E+02  0.7816164E-02  0.1312668E+00
        -11   -1    0    0    0    0  0.00000000000E+00  0.00000000000E+00  0.45593999997E+02  0.45594000000E+02  0.51100000000E-03 0.  1.
         11   -1    0    0    0    0 -0.00000000000E+00 -0.00000000000E+00 -0.45593999997E+02  0.45594000000E+02  0.51100000000E-03 0. -1.
    9900012    2    1    2    0    0  0.13871276665E+02  0.77906489552E+01 -0.40379652757E+02  0.47787275534E+02  0.20000020468E+02 0.  0.
        -12    1    1    2    0    0 -0.13871276665E+02 -0.77906489552E+01  0.40379652757E+02  0.43400724466E+02  0.00000000000E+00 0.  1.
         11    1    3    3    0    0  0.10372971180E+02 -0.25288146187E+01 -0.12963635339E+02  0.16794322729E+02  0.51100000000E-03 0. -1.
        -11    1    3    3    0    0  0.65252955856E+01  0.55866411640E+01 -0.19265209642E+02  0.21093561690E+02  0.51100000000E-03 0.  1.
        -12    1    3    3    0    0 -0.30269901005E+01  0.47328224099E+01 -0.81508077756E+01  0.98993911140E+01  0.00000000000E+00 0.  1.
</event>
<event>
 7    1  0.4630495E-010  0.4778727E+02  0.7816164E-02  0.1312668E+00
        -11   -1    0    0    0    0  0.00000000000E+00  0.00000000000E+00  0.45593999997E+02  0.45594000000E+02  0.51100000000E-03 0.  1.
         11   -1    0    0    0    0 -0.00000000000E+00 -0.00000000000E+00 -0.45593999997E+02  0.45594000000E+02  0.51100000000E-03 0. -1.
    9900012    2    1    2    0    0 -0.82879806449E+01  0.29475689498E+02 -0.30759005468E+02  0.47787270606E+02  0.19999998003E+02 0.  0.
        -12    1    1    2    0    0  0.82879806449E+01 -0.29475689498E+02  0.30759005468E+02  0.43400729394E+02  0.00000000000E+00 0.  1.
         11    1    3    3    0    0 -0.42245708955E+01  0.13749495172E+02 -0.59793466582E+01  0.15577169302E+02  0.51100000000E-03 0. -1.
        -11    1    3    3    0    0 -0.27004655543E+00  0.46766860230E+01  0.14144220616E+00  0.46866110846E+01  0.51100000000E-03 0.  1.
        -12    1    3    3    0    0 -0.37933631940E+01  0.11049508303E+02 -0.24921101015E+02  0.27523490220E+02  0.00000000000E+00 0.  1.
</event>
<event>
 7    1  0.4630495E-010  0.4778726E+02  0.7816164E-02  0.1312668E+00
        -11   -1    0    0    0    0  0.00000000000E+00  0.00000000000E+00  0.45593999997E+02  0.45594000000E+02  0.51100000000E-03 0.  1.
         11   -1    0    0    0    0 -0.00000000000E+00 -0.00000000000E+00 -0.45593999997E+02  0.45594000000E+02  0.51100000000E-03 0. -1.
    9900012    2    1    2    0    0 -0.11641381205E+02  0.38937309802E+02  0.15231170813E+02  0.47787257894E+02  0.19999940043E+02 0.  0.
        -12    1    1    2    0    0  0.11641381205E+02 -0.38937309802E+02 -0.15231170813E+02  0.43400742106E+02  0.00000000000E+00 0.  1.
         11    1    3    3    0    0 -0.43594674423E+01  0.65411540190E+01  0.48750040418E+01  0.92497198309E+01  0.51100000000E-03 0.  1.
        -11    1    3    3    0    0 -0.25598475356E+01  0.29088764248E+02  0.13273396841E+02  0.32076347810E+02  0.51100000000E-03 0. -1.
         12    1    3    3    0    0 -0.47220662266E+01  0.33073915357E+01 -0.29172300693E+01  0.64611902538E+01  0.00000000000E+00 0. -1.
</event>
<event>
 7    1  0.4630495E-010  0.4778727E+02  0.7816164E-02  0.1312668E+00
        -11   -1    0    0    0    0  0.00000000000E+00  0.00000000000E+00  0.45593999997E+02  0.45594000000E+02  0.51100000000E-03 0.  1.
         11   -1    0    0    0    0 -0.00000000000E+00 -0.00000000000E+00 -0.45593999997E+02  0.45594000000E+02  0.51100000000E-03 0. -1.
    9900012    2    1    2    0    0  0.44237064847E+01  0.18420173468E+02 -0.39048065902E+02  0.47787269357E+02  0.19999992304E+02 0.  0.
        -12    1    1    2    0    0 -0.44237064847E+01 -0.18420173468E+02  0.39048065902E+02  0.43400730643E+02  0.00000000000E+00 0.  1.
         11    1    3    3    0    0  0.45390631953E+01 -0.26312567130E+01 -0.76730687215E+01  0.92952993737E+01  0.51100000000E-03 0.  1.
        -11    1    3    3    0    0  0.14141246048E+01  0.49983469314E+00 -0.36536592537E+01  0.39495327979E+01  0.51100000000E-03 0. -1.
         12    1    3    3    0    0 -0.15294813153E+01  0.20551595488E+02 -0.27721337927E+02  0.34542437185E+02  0.00000000000E+00 0. -1.
</event>
<event>
 7    1  0.4630495E-010  0.4778727E+02  0.7816164E-02  0.1312668E+00
        -11   -1    0    0    0    0  0.00000000000E+00  0.00000000000E+00  0.45593999997E+02  0.45594000000E+02  0.51100000000E-03 0. -1.
         11   -1    0    0    0    0 -0.00000000000E+00 -0.00000000000E+00 -0.45593999997E+02  0.45594000000E+02  0.51100000000E-03 0.  1.
    9900012    2    1    2    0    0  0.21965311115E+02 -0.37427269706E+02 -0.58960874314E+00  0.47787273641E+02  0.20000011839E+02 0.  0.
        -12    1    1    2    0    0 -0.21965311115E+02  0.37427269706E+02  0.58960874314E+00  0.43400726359E+02  0.00000000000E+00 0.  1.
         11    1    3    3    0    0 -0.10155750896E+00 -0.95599138586E+01 -0.37669849228E+01  0.10275818341E+02  0.51100000000E-03 0. -1.
        -11    1    3    3    0    0  0.82555566267E+01 -0.19412398173E+02  0.52174188804E+00  0.21101365665E+02  0.51100000000E-03 0.  1.
         12    1    3    3    0    0  0.13811311997E+02 -0.84549576743E+01  0.26556342917E+01  0.16410089635E+02  0.00000000000E+00 0. -1.
</event>
<event>
 7    1  0.4630495E-010  0.4778727E+02  0.7816164E-02  0.1312668E+00
        -11   -1    0    0    0    0  0.00000000000E+00  0.00000000000E+00  0.45593999997E+02  0.45594000000E+02  0.51100000000E-03 0.  1.
         11   -1    0    0    0    0 -0.00000000000E+00 -0.00000000000E+00 -0.45593999997E+02  0.45594000000E+02  0.51100000000E-03 0. -1.
    9900012    2    1    2    0    0 -0.81618932057E+01  0.29556242168E+02 -0.30715387602E+02  0.47787274345E+02  0.20000015050E+02 0.  0.
        -12    1    1    2    0    0  0.81618932057E+01 -0.29556242168E+02  0.30715387602E+02  0.43400725655E+02  0.00000000000E+00 0.  1.
         11    1    3    3    0    0 -0.25852614083E+01  0.28546151950E+02 -0.28682643705E+02  0.40549481105E+02  0.51100000000E-03 0. -1.
        -11    1    3    3    0    0 -0.16596699430E+01  0.22607040938E+01 -0.49485605892E+00  0.28478360380E+01  0.51100000000E-03 0.  1.
         12    1    3    3    0    0 -0.39169618544E+01 -0.12506138757E+01 -0.15378878382E+01  0.43899572023E+01  0.00000000000E+00 0. -1.
</event>
<event>
 7    1  0.4630495E-010  0.4778727E+02  0.7816164E-02  0.1312668E+00
        -11   -1    0    0    0    0  0.00000000000E+00  0.00000000000E+00  0.45593999997E+02  0.45594000000E+02  0.51100000000E-03 0.  1.
         11   -1    0    0    0    0 -0.00000000000E+00 -0.00000000000E+00 -0.45593999997E+02  0.45594000000E+02  0.51100000000E-03 0. -1.
    9900012    2    1    2    0    0  0.77675742432E+01 -0.26956231135E+02 -0.33115705628E+02  0.47787267680E+02  0.19999984662E+02 0.  0.
        -12    1    1    2    0    0 -0.77675742432E+01  0.26956231135E+02  0.33115705628E+02  0.43400732320E+02  0.00000000000E+00 0.  1.
         11    1    3    3    0    0  0.32235798908E+01 -0.50147135978E+01 -0.45151713300E+01  0.74783415394E+01  0.51100000000E-03 0. -1.
        -11    1    3    3    0    0  0.64167368717E+01 -0.41919315042E+01 -0.14243755144E+01  0.77958737602E+01  0.51100000000E-03 0.  1.
         12    1    3    3    0    0 -0.18727425193E+01 -0.17749586033E+02 -0.27176158784E+02  0.32513052381E+02  0.00000000000E+00 0. -1.
</event>
<event>
 7    1  0.4630495E-010  0.4778727E+02  0.7816164E-02  0.1312668E+00
        -11   -1    0    0    0    0  0.00000000000E+00  0.00000000000E+00  0.45593999997E+02  0.45594000000E+02  0.51100000000E-03 0. -1.
         11   -1    0    0    0    0 -0.00000000000E+00 -0.00000000000E+00 -0.45593999997E+02  0.45594000000E+02  0.51100000000E-03 0.  1.
    9900012    2    1    2    0    0 -0.30555941216E+02  0.78216460711E+01  0.29812410162E+02  0.47787268548E+02  0.19999988620E+02 0.  0.
        -12    1    1    2    0    0  0.30555941216E+02 -0.78216460711E+01 -0.29812410162E+02  0.43400731452E+02  0.00000000000E+00 0.  1.
         11    1    3    3    0    0 -0.31345318716E+01  0.41154829295E+01  0.55035263836E+01  0.75532306143E+01  0.51100000000E-03 0. -1.
        -11    1    3    3    0    0 -0.11121802693E+02  0.80147748585E+01  0.49795385836E+01  0.14585160813E+02  0.51100000000E-03 0.  1.
         12    1    3    3    0    0 -0.16299606651E+02 -0.43086117169E+01  0.19329345195E+02  0.25648877121E+02  0.00000000000E+00 0. -1.
</event>
<event>
 7    1  0.4630495E-010  0.4778727E+02  0.7816164E-02  0.1312668E+00
        -11   -1    0    0    0    0  0.00000000000E+00  0.00000000000E+00  0.45593999997E+02  0.45594000000E+02  0.51100000000E-03 0.  1.
         11   -1    0    0    0    0 -0.00000000000E+00 -0.00000000000E+00 -0.45593999997E+02  0.45594000000E+02  0.51100000000E-03 0. -1.
    9900012    2    1    2    0    0 -0.22563351039E+02 -0.30862515288E+02 -0.20543220838E+02  0.47787267489E+02  0.19999983791E+02 0.  0.
        -12    1    1    2    0    0  0.22563351039E+02  0.30862515288E+02  0.20543220838E+02  0.43400732511E+02  0.00000000000E+00 0.  1.
         11    1    3    3    0    0 -0.24886153476E+00 -0.58623647484E+01 -0.72979376409E+01  0.93642483189E+01  0.51100000000E-03 0.  1.
        -11    1    3    3    0    0 -0.98664743924E+01 -0.19133902215E+02 -0.11895724598E+02  0.24595971111E+02  0.51100000000E-03 0. -1.
        -12    1    3    3    0    0 -0.12448015112E+02 -0.58662483255E+01 -0.13495585992E+01  0.13827048060E+02  0.00000000000E+00 0.  1.
</event>
<event>
 7    1  0.4630495E-010  0.4778727E+02  0.7816164E-02  0.1312668E+00
        -11   -1    0    0    0    0  0.00000000000E+00  0.00000000000E+00  0.45593999997E+02  0.45594000000E+02  0.51100000000E-03 0.  1.
         11   -1    0    0    0    0 -0.00000000000E+00 -0.00000000000E+00 -0.45593999997E+02  0.45594000000E+02  0.51100000000E-03 0. -1.
    9900012    2    1    2    0    0  0.14525176157E+01 -0.62398007495E+01 -0.42925266612E+02  0.47787269194E+02  0.19999991563E+02 0.  0.
        -12    1    1    2    0    0 -0.14525176157E+01  0.62398007495E+01  0.42925266612E+02  0.43400730806E+02  0.00000000000E+00 0.  1.
         11    1    3    3    0    0  0.33885556355E+01 -0.26592939265E+01 -0.17655690262E+02  0.18173539897E+02  0.51100000000E-03 0. -1.
        -11    1    3    3    0    0  0.37275591179E+01 -0.63526425643E+01 -0.20269499008E+02  0.21566255003E+02  0.51100000000E-03 0.  1.
        -12    1    3    3    0    0 -0.56635971377E+01  0.27721357412E+01 -0.50000773408E+01  0.80474742945E+01  0.00000000000E+00 0.  1.
</event>
<event>
 7    1  0.4630495E-010  0.4778731E+02  0.7816164E-02  0.1312668E+00
        -11   -1    0    0    0    0  0.00000000000E+00  0.00000000000E+00  0.45593999997E+02  0.45594000000E+02  0.51100000000E-03 0.  1.
         11   -1    0    0    0    0 -0.00000000000E+00 -0.00000000000E+00 -0.45593999997E+02  0.45594000000E+02  0.51100000000E-03 0. -1.
    9900012    2    1    2    0    0  0.66508344421E+01 -0.83580394227E+01 -0.42065775131E+02  0.47787310384E+02  0.20000179366E+02 0.  0.
        -12    1    1    2    0    0 -0.66508344421E+01  0.83580394227E+01  0.42065775131E+02  0.43400689616E+02  0.00000000000E+00 0.  1.
         11    1    3    3    0    0  0.11200970174E+02 -0.15698312459E+01 -0.24880434158E+02  0.27330607515E+02  0.51100000000E-03 0. -1.
        -11    1    3    3    0    0 -0.38754997104E+00 -0.35460328503E+01 -0.13642988389E+02  0.14101619637E+02  0.51100000000E-03 0.  1.
        -12    1    3    3    0    0 -0.41625857605E+01 -0.32421753265E+01 -0.35423525834E+01  0.63550832320E+01  0.00000000000E+00 0.  1.
</event>
<event>
 7    1  0.4630495E-010  0.4778727E+02  0.7816164E-02  0.1312668E+00
        -11   -1    0    0    0    0  0.00000000000E+00  0.00000000000E+00  0.45593999997E+02  0.45594000000E+02  0.51100000000E-03 0.  1.
         11   -1    0    0    0    0 -0.00000000000E+00 -0.00000000000E+00 -0.45593999997E+02  0.45594000000E+02  0.51100000000E-03 0. -1.
    9900012    2    1    2    0    0 -0.31292677758E+02  0.93386263981E+00 -0.30058599475E+02  0.47787272090E+02  0.20000004767E+02 0.  0.
        -12    1    1    2    0    0  0.31292677758E+02 -0.93386263981E+00  0.30058599475E+02  0.43400727910E+02  0.00000000000E+00 0.  1.
         11    1    3    3    0    0 -0.92917395278E+01 -0.34818754849E+01 -0.11017271352E+02  0.14827007407E+02  0.51100000000E-03 0. -1.
        -11    1    3    3    0    0 -0.40176892773E+01  0.22627602428E+01 -0.13117661991E+02  0.13904494505E+02  0.51100000000E-03 0.  1.
         12    1    3    3    0    0 -0.17983248953E+02  0.21529778820E+01 -0.59236661324E+01  0.19055770179E+02  0.00000000000E+00 0. -1.
</event>
<event>
 7    1  0.4630495E-010  0.4778727E+02  0.7816164E-02  0.1312668E+00
        -11   -1    0    0    0    0  0.00000000000E+00  0.00000000000E+00  0.45593999997E+02  0.45594000000E+02  0.51100000000E-03 0. -1.
         11   -1    0    0    0    0 -0.00000000000E+00 -0.00000000000E+00 -0.45593999997E+02  0.45594000000E+02  0.51100000000E-03 0.  1.
    9900012    2    1    2    0    0 -0.23645248089E+02 -0.77508415290E+01  0.35559105330E+02  0.47787271049E+02  0.20000000021E+02 0.  0.
        -12    1    1    2    0    0  0.23645248089E+02  0.77508415290E+01 -0.35559105330E+02  0.43400728951E+02  0.00000000000E+00 0.  1.
         11    1    3    3    0    0 -0.92336149417E+01 -0.47468082478E+00  0.18867509393E+02  0.21011136993E+02  0.51100000000E-03 0. -1.
        -11    1    3    3    0    0 -0.15795045935E+02 -0.27730745004E+01  0.14330896232E+02  0.21506929240E+02  0.51100000000E-03 0.  1.
        -12    1    3    3    0    0  0.13834127873E+01 -0.45030862038E+01  0.23606997056E+01  0.52692048165E+01  0.00000000000E+00 0.  1.
</event>
<event>
 7    1  0.4630495E-010  0.4778727E+02  0.7816164E-02  0.1312668E+00
        -11   -1    0    0    0    0  0.00000000000E+00  0.00000000000E+00  0.45593999997E+02  0.45594000000E+02  0.51100000000E-03 0.  1.
         11   -1    0    0    0    0 -0.00000000000E+00 -0.00000000000E+00 -0.45593999997E+02  0.45594000000E+02  0.51100000000E-03 0. -1.
    9900012    2    1    2    0    0 -0.14771793176E+02 -0.14822889362E+02  0.38022354119E+02  0.47787270335E+02  0.19999996767E+02 0.  0.
        -12    1    1    2    0    0  0.14771793176E+02  0.14822889362E+02 -0.38022354119E+02  0.43400729665E+02  0.00000000000E+00 0.  1.
         11    1    3    3    0    0  0.25265936969E+00 -0.51747115147E+01  0.66972346241E+01  0.84672562196E+01  0.51100000000E-03 0. -1.
        -11    1    3    3    0    0 -0.72288416402E+01 -0.24567283738E+01  0.26662868909E+02  0.27734459513E+02  0.51100000000E-03 0.  1.
        -12    1    3    3    0    0 -0.77956109060E+01 -0.71914494737E+01  0.46622505862E+01  0.11585554603E+02  0.00000000000E+00 0.  1.
</event>
<event>
 7    1  0.4630495E-010  0.4778727E+02  0.7816164E-02  0.1312668E+00
        -11   -1    0    0    0    0  0.00000000000E+00  0.00000000000E+00  0.45593999997E+02  0.45594000000E+02  0.51100000000E-03 0. -1.
         11   -1    0    0    0    0 -0.00000000000E+00 -0.00000000000E+00 -0.45593999997E+02  0.45594000000E+02  0.51100000000E-03 0.  1.
    9900012    2    1    2    0    0  0.39080653962E+02  0.15056657837E+02  0.11385186556E+02  0.47787274980E+02  0.20000017946E+02 0.  0.
        -12    1    1    2    0    0 -0.39080653962E+02 -0.15056657837E+02 -0.11385186556E+02  0.43400725020E+02  0.00000000000E+00 0.  1.
         11    1    3    3    0    0  0.27071826276E+02  0.12201357397E+02  0.80130459525E+01  0.30756557121E+02  0.51100000000E-03 0. -1.
        -11    1    3    3    0    0  0.67491372565E+01  0.36118549771E+01  0.71785973498E+01  0.10494217944E+02  0.51100000000E-03 0.  1.
         12    1    3    3    0    0  0.52596904295E+01 -0.75655453674E+00 -0.38064567466E+01  0.65364999155E+01  0.00000000000E+00 0. -1.
</event>
<event>
 7    1  0.4630495E-010  0.4778727E+02  0.7816164E-02  0.1312668E+00
        -11   -1    0    0    0    0  0.00000000000E+00  0.00000000000E+00  0.45593999997E+02  0.45594000000E+02  0.51100000000E-03 0.  1.
         11   -1    0    0    0    0 -0.00000000000E+00 -0.00000000000E+00 -0.45593999997E+02  0.45594000000E+02  0.51100000000E-03 0. -1.
    9900012    2    1    2    0    0 -0.39615081603E+02  0.97717088159E+01 -0.14791295476E+02  0.47787269528E+02  0.19999993087E+02 0.  0.
        -12    1    1    2    0    0  0.39615081603E+02 -0.97717088159E+01  0.14791295476E+02  0.43400730472E+02  0.00000000000E+00 0.  1.
         11    1    3    3    0    0 -0.12786841059E+02  0.30325680471E+01 -0.26443336498E+01  0.13404934686E+02  0.51100000000E-03 0. -1.
        -11    1    3    3    0    0 -0.60332161903E+01  0.87915782374E+01 -0.10277264941E+01  0.10712038439E+02  0.51100000000E-03 0.  1.
        -12    1    3    3    0    0 -0.20795024355E+02 -0.20524374687E+01 -0.11119235332E+02  0.23670296404E+02  0.00000000000E+00 0.  1.
</event>
<event>
 7    1  0.4630495E-010  0.4778727E+02  0.7816164E-02  0.1312668E+00
        -11   -1    0    0    0    0  0.00000000000E+00  0.00000000000E+00  0.45593999997E+02  0.45594000000E+02  0.51100000000E-03 0.  1.
         11   -1    0    0    0    0 -0.00000000000E+00 -0.00000000000E+00 -0.45593999997E+02  0.45594000000E+02  0.51100000000E-03 0. -1.
    9900012    2    1    2    0    0  0.40284853198E+02 -0.10498145402E+02 -0.12269595016E+02  0.47787269408E+02  0.19999992537E+02 0.  0.
        -12    1    1    2    0    0 -0.40284853198E+02  0.10498145402E+02  0.12269595016E+02  0.43400730592E+02  0.00000000000E+00 0.  1.
         11    1    3    3    0    0  0.19704981315E+02 -0.95567411469E+00 -0.82317594204E+01  0.21376657013E+02  0.51100000000E-03 0. -1.
        -11    1    3    3    0    0  0.21750479114E+02 -0.10073237993E+02 -0.20684749871E+01  0.24058928787E+02  0.51100000000E-03 0.  1.
         12    1    3    3    0    0 -0.11706072302E+01  0.53076670573E+00 -0.19693606086E+01  0.23516836075E+01  0.00000000000E+00 0. -1.
</event>
<event>
 7    1  0.4630495E-010  0.4778727E+02  0.7816164E-02  0.1312668E+00
        -11   -1    0    0    0    0  0.00000000000E+00  0.00000000000E+00  0.45593999997E+02  0.45594000000E+02  0.51100000000E-03 0. -1.
         11   -1    0    0    0    0 -0.00000000000E+00 -0.00000000000E+00 -0.45593999997E+02  0.45594000000E+02  0.51100000000E-03 0.  1.
    9900012    2    1    2    0    0  0.36125517440E+02  0.18955506281E+02  0.14807411531E+02  0.47787266539E+02  0.19999979458E+02 0.  0.
        -12    1    1    2    0    0 -0.36125517440E+02 -0.18955506281E+02 -0.14807411531E+02  0.43400733461E+02  0.00000000000E+00 0.  1.
         11    1    3    3    0    0 -0.13814121989E+01 -0.73792450858E+00  0.93264443690E+00  0.18228159947E+01  0.51100000000E-03 0. -1.
        -11    1    3    3    0    0  0.19285957353E+00  0.27342041021E+01  0.16837934823E+00  0.27461643711E+01  0.51100000000E-03 0.  1.
         12    1    3    3    0    0  0.37314070066E+02  0.16959226688E+02  0.13706387746E+02  0.43218286173E+02  0.00000000000E+00 0. -1.
</event>
<event>
 7    1  0.4630495E-010  0.4778727E+02  0.7816164E-02  0.1312668E+00
        -11   -1    0    0    0    0  0.00000000000E+00  0.00000000000E+00  0.45593999997E+02  0.45594000000E+02  0.51100000000E-03 0.  1.
         11   -1    0    0    0    0 -0.00000000000E+00 -0.00000000000E+00 -0.45593999997E+02  0.45594000000E+02  0.51100000000E-03 0. -1.
    9900012    2    1    2    0    0 -0.22318061205E+01  0.43211188950E+02  0.33816217178E+01  0.47787272189E+02  0.20000005219E+02 0.  0.
        -12    1    1    2    0    0  0.22318061205E+01 -0.43211188950E+02 -0.33816217178E+01  0.43400727811E+02  0.00000000000E+00 0.  1.
         11    1    3    3    0    0 -0.83951021018E-01  0.26818302970E+02  0.69110868323E-01  0.26818523422E+02  0.51100000000E-03 0. -1.
        -11    1    3    3    0    0  0.10380830891E+01  0.16918246660E+02  0.44851765391E+01  0.17533439348E+02  0.51100000000E-03 0.  1.
        -12    1    3    3    0    0 -0.31859381886E+01 -0.52536067892E+00 -0.11726656896E+01  0.34353094190E+01  0.00000000000E+00 0.  1.
</event>
<event>
 7    1  0.4705828E-010  0.4778727E+02  0.7816164E-02  0.1312668E+00
        -11   -1    0    0    0    0  0.00000000000E+00  0.00000000000E+00  0.45593999997E+02  0.45594000000E+02  0.51100000000E-03 0.  1.
         11   -1    0    0    0    0 -0.00000000000E+00 -0.00000000000E+00 -0.45593999997E+02  0.45594000000E+02  0.51100000000E-03 0. -1.
    9900012    2    1    2    0    0  0.42112764750E+01 -0.43000907455E+02  0.41000640083E+01  0.47787269403E+02  0.19999992517E+02 0.  0.
        -12    1    1    2    0    0 -0.42112764750E+01  0.43000907455E+02 -0.41000640083E+01  0.43400730597E+02  0.00000000000E+00 0.  1.
         11    1    3    3    0    0 -0.22140794887E+01 -0.12890009843E+01 -0.21932481227E+01  0.33725374881E+01  0.51100000000E-03 0. -1.
        -11    1    3    3    0    0 -0.98723662963E-01 -0.29711338695E+00  0.22757262986E+01  0.22971619824E+01  0.51100000000E-03 0.  1.
         12    1    3    3    0    0  0.65240796266E+01 -0.41414793083E+02  0.40175858323E+01  0.42117569933E+02  0.00000000000E+00 0. -1.
</event>
<event>
 7    1  0.4630495E-010  0.4778727E+02  0.7816164E-02  0.1312668E+00
        -11   -1    0    0    0    0  0.00000000000E+00  0.00000000000E+00  0.45593999997E+02  0.45594000000E+02  0.51100000000E-03 0.  1.
         11   -1    0    0    0    0 -0.00000000000E+00 -0.00000000000E+00 -0.45593999997E+02  0.45594000000E+02  0.51100000000E-03 0. -1.
    9900012    2    1    2    0    0  0.27811300320E+02 -0.24699644865E+02  0.22362519275E+02  0.47787272468E+02  0.20000006493E+02 0.  0.
        -12    1    1    2    0    0 -0.27811300320E+02  0.24699644865E+02 -0.22362519275E+02  0.43400727532E+02  0.00000000000E+00 0.  1.
         11    1    3    3    0    0  0.13605032802E+02 -0.38219465543E+01  0.75877547314E+01  0.16039894486E+02  0.51100000000E-03 0. -1.
        -11    1    3    3    0    0  0.32131883245E+01 -0.47738827477E+01  0.10213016491E+02  0.11722638006E+02  0.51100000000E-03 0.  1.
        -12    1    3    3    0    0  0.10993079194E+02 -0.16103815563E+02  0.45617480522E+01  0.20024739977E+02  0.00000000000E+00 0.  1.
</event>
<event>
 7    1  0.4630495E-010  0.4778727E+02  0.7816164E-02  0.1312668E+00
        -11   -1    0    0    0    0  0.00000000000E+00  0.00000000000E+00  0.45593999997E+02  0.45594000000E+02  0.51100000000E-03 0.  1.
         11   -1    0    0    0    0 -0.00000000000E+00 -0.00000000000E+00 -0.45593999997E+02  0.45594000000E+02  0.51100000000E-03 0. -1.
    9900012    2    1    2    0    0 -0.19322282497E+02 -0.34104366737E+02 -0.18632362113E+02  0.47787270175E+02  0.19999996037E+02 0.  0.
        -12    1    1    2    0    0  0.19322282497E+02  0.34104366737E+02  0.18632362113E+02  0.43400729825E+02  0.00000000000E+00 0.  1.
         11    1    3    3    0    0 -0.11993815000E+02 -0.17284857650E+02 -0.58414289567E+01  0.21834381025E+02  0.51100000000E-03 0. -1.
        -11    1    3    3    0    0 -0.87745573112E+01 -0.72993826480E+01 -0.21728400957E+01  0.11618738201E+02  0.51100000000E-03 0.  1.
        -12    1    3    3    0    0  0.14460898150E+01 -0.95201264391E+01 -0.10618093061E+02  0.14334150949E+02  0.00000000000E+00 0.  1.
</event>
<event>
 7    1  0.4630495E-010  0.4778727E+02  0.7816164E-02  0.1312668E+00
        -11   -1    0    0    0    0  0.00000000000E+00  0.00000000000E+00  0.45593999997E+02  0.45594000000E+02  0.51100000000E-03 0.  1.
         11   -1    0    0    0    0 -0.00000000000E+00 -0.00000000000E+00 -0.45593999997E+02  0.45594000000E+02  0.51100000000E-03 0. -1.
    9900012    2    1    2    0    0 -0.21643873697E+02  0.71910786497E+01 -0.36924980098E+02  0.47787273784E+02  0.20000012492E+02 0.  0.
        -12    1    1    2    0    0  0.21643873697E+02 -0.71910786497E+01  0.36924980098E+02  0.43400726216E+02  0.00000000000E+00 0.  1.
         11    1    3    3    0    0 -0.19415649917E+02  0.79441434481E+01 -0.18596544027E+02  0.28034056554E+02  0.51100000000E-03 0. -1.
        -11    1    3    3    0    0 -0.21664054907E+01 -0.19994480580E+01 -0.24707910267E+01  0.38465457030E+01  0.51100000000E-03 0.  1.
         12    1    3    3    0    0 -0.61818289434E-01  0.12463832595E+01 -0.15857645044E+02  0.15906671528E+02  0.00000000000E+00 0. -1.
</event>
<event>
 7    1  0.4630495E-010  0.4778727E+02  0.7816164E-02  0.1312668E+00
        -11   -1    0    0    0    0  0.00000000000E+00  0.00000000000E+00  0.45593999997E+02  0.45594000000E+02  0.51100000000E-03 0. -1.
         11   -1    0    0    0    0 -0.00000000000E+00 -0.00000000000E+00 -0.45593999997E+02  0.45594000000E+02  0.51100000000E-03 0.  1.
    9900012    2    1    2    0    0 -0.17283218440E+02  0.39638551558E+02  0.37011973180E+01  0.47787271079E+02  0.20000000159E+02 0.  0.
        -12    1    1    2    0    0  0.17283218440E+02 -0.39638551558E+02 -0.37011973180E+01  0.43400728921E+02  0.00000000000E+00 0.  1.
         11    1    3    3    0    0  0.30867645343E+01  0.68114397456E+01  0.99898600678E+00  0.75446537363E+01  0.51100000000E-03 0. -1.
        -11    1    3    3    0    0 -0.72995251116E+01  0.93920100036E+01  0.57946465615E+01  0.13231434079E+02  0.51100000000E-03 0.  1.
        -12    1    3    3    0    0 -0.13070457862E+02  0.23435101809E+02 -0.30924352503E+01  0.27011183264E+02  0.00000000000E+00 0.  1.
</event>
<event>
 7    1  0.4630495E-010  0.4778728E+02  0.7816164E-02  0.1312668E+00
        -11   -1    0    0    0    0  0.00000000000E+00  0.00000000000E+00  0.45593999997E+02  0.45594000000E+02  0.51100000000E-03 0.  1.
         11   -1    0    0    0    0 -0.00000000000E+00 -0.00000000000E+00 -0.45593999997E+02  0.45594000000E+02  0.51100000000E-03 0. -1.
    9900012    2    1    2    0    0 -0.29875892786E+02 -0.31429032308E+02 -0.18080961168E+01  0.47787282804E+02  0.20000053617E+02 0.  0.
        -12    1    1    2    0    0  0.29875892786E+02  0.31429032308E+02  0.18080961168E+01  0.43400717196E+02  0.00000000000E+00 0.  1.
         11    1    3    3    0    0 -0.28512471343E+02 -0.27763704820E+02 -0.44693011239E+01  0.40046959688E+02  0.51100000000E-03 0. -1.
        -11    1    3    3    0    0  0.32277671471E+00 -0.14665346860E+01 -0.18888046249E+01  0.24129840375E+01  0.51100000000E-03 0.  1.
         12    1    3    3    0    0 -0.16861981570E+01 -0.21987928019E+01  0.45500096320E+01  0.53273390789E+01  0.00000000000E+00 0. -1.
</event>
<event>
 7    1  0.4630495E-010  0.4778727E+02  0.7816164E-02  0.1312668E+00
        -11   -1    0    0    0    0  0.00000000000E+00  0.00000000000E+00  0.45593999997E+02  0.45594000000E+02  0.51100000000E-03 0.  1.
         11   -1    0    0    0    0 -0.00000000000E+00 -0.00000000000E+00 -0.45593999997E+02  0.45594000000E+02  0.51100000000E-03 0. -1.
    9900012    2    1    2    0    0  0.36956397696E+00 -0.16232144352E+02 -0.40249271919E+02  0.47787274455E+02  0.20000015551E+02 0.  0.
        -12    1    1    2    0    0 -0.36956397696E+00  0.16232144352E+02  0.40249271919E+02  0.43400725545E+02  0.00000000000E+00 0.  1.
         11    1    3    3    0    0 -0.38393630116E+01  0.20028530516E+01 -0.85893460696E+01  0.96191992830E+01  0.51100000000E-03 0. -1.
        -11    1    3    3    0    0 -0.25522582114E+01 -0.91623436964E+00 -0.45133651971E+01  0.52653559292E+01  0.51100000000E-03 0.  1.
        -12    1    3    3    0    0  0.67611852000E+01 -0.17318763034E+02 -0.27146560653E+02  0.32902719243E+02  0.00000000000E+00 0.  1.
</event>
<event>
 7    1  0.4630495E-010  0.4778727E+02  0.7816164E-02  0.1312668E+00
        -11   -1    0    0    0    0  0.00000000000E+00  0.00000000000E+00  0.45593999997E+02  0.45594000000E+02  0.51100000000E-03 0.  1.
         11   -1    0    0    0    0 -0.00000000000E+00 -0.00000000000E+00 -0.45593999997E+02  0.45594000000E+02  0.51100000000E-03 0. -1.
    9900012    2    1    2    0    0 -0.30615369812E+02  0.24311639812E+02 -0.18848517813E+02  0.47787270481E+02  0.19999997430E+02 0.  0.
        -12    1    1    2    0    0  0.30615369812E+02 -0.24311639812E+02  0.18848517813E+02  0.43400729519E+02  0.00000000000E+00 0.  1.
         11    1    3    3    0    0 -0.37413773771E+01  0.10685079609E+02 -0.66478809101E+01  0.13128714780E+02  0.51100000000E-03 0. -1.
        -11    1    3    3    0    0  0.11474874520E+01 -0.13721593202E+00 -0.45886148567E-01  0.11565731556E+01  0.51100000000E-03 0.  1.
         12    1    3    3    0    0 -0.28021479887E+02  0.13763776135E+02 -0.12154750755E+02  0.33501982545E+02  0.00000000000E+00 0. -1.
</event>
<event>
 7    1  0.4630495E-010  0.4778727E+02  0.7816164E-02  0.1312668E+00
        -11   -1    0    0    0    0  0.00000000000E+00  0.00000000000E+00  0.45593999997E+02  0.45594000000E+02  0.51100000000E-03 0.  1.
         11   -1    0    0    0    0 -0.00000000000E+00 -0.00000000000E+00 -0.45593999997E+02  0.45594000000E+02  0.51100000000E-03 0. -1.
    9900012    2    1    2    0    0  0.38181056901E+02 -0.65185843170E+01 -0.19579020445E+02  0.47787273173E+02  0.20000009704E+02 0.  0.
        -12    1    1    2    0    0 -0.38181056901E+02  0.65185843170E+01  0.19579020445E+02  0.43400726827E+02  0.00000000000E+00 0.  1.
         11    1    3    3    0    0  0.24474354529E+02 -0.49782657990E+01 -0.59292856900E+01  0.25669701771E+02  0.51100000000E-03 0. -1.
        -11    1    3    3    0    0  0.12510558811E+01 -0.34853290665E+01 -0.23750770776E+00  0.37106697093E+01  0.51100000000E-03 0.  1.
        -12    1    3    3    0    0  0.12455646491E+02  0.19450105485E+01 -0.13412227047E+02  0.18406901692E+02  0.00000000000E+00 0.  1.
</event>
<event>
 7    1  0.4630495E-010  0.4778729E+02  0.7816164E-02  0.1312668E+00
        -11   -1    0    0    0    0  0.00000000000E+00  0.00000000000E+00  0.45593999997E+02  0.45594000000E+02  0.51100000000E-03 0.  1.
         11   -1    0    0    0    0 -0.00000000000E+00 -0.00000000000E+00 -0.45593999997E+02  0.45594000000E+02  0.51100000000E-03 0. -1.
    9900012    2    1    2    0    0 -0.41564993926E+02 -0.51149801581E+01 -0.11393410322E+02  0.47787291010E+02  0.20000091031E+02 0.  0.
        -12    1    1    2    0    0  0.41564993926E+02  0.51149801581E+01  0.11393410322E+02  0.43400708990E+02  0.00000000000E+00 0.  1.
         11    1    3    3    0    0 -0.38060504622E+01 -0.10448660218E+01  0.21838094280E+01  0.45107415137E+01  0.51100000000E-03 0. -1.
        -11    1    3    3    0    0 -0.12092517881E+02 -0.24109322223E+00  0.30278868681E+01  0.12468168020E+02  0.51100000000E-03 0.  1.
         12    1    3    3    0    0 -0.25666425583E+02 -0.38290209141E+01 -0.16605106618E+02  0.30808381476E+02  0.00000000000E+00 0. -1.
</event>
<event>
 7    1  0.4630495E-010  0.4778727E+02  0.7816164E-02  0.1312668E+00
        -11   -1    0    0    0    0  0.00000000000E+00  0.00000000000E+00  0.45593999997E+02  0.45594000000E+02  0.51100000000E-03 0. -1.
         11   -1    0    0    0    0 -0.00000000000E+00 -0.00000000000E+00 -0.45593999997E+02  0.45594000000E+02  0.51100000000E-03 0.  1.
    9900012    2    1    2    0    0  0.20390440118E+02 -0.74733627510E+01  0.37576618210E+02  0.47787269187E+02  0.19999991531E+02 0.  0.
        -12    1    1    2    0    0 -0.20390440118E+02  0.74733627510E+01 -0.37576618210E+02  0.43400730813E+02  0.00000000000E+00 0.  1.
         11    1    3    3    0    0  0.15374424200E+02 -0.19160751846E+01  0.13748222052E+02  0.20713712208E+02  0.51100000000E-03 0. -1.
        -11    1    3    3    0    0  0.58846052637E+01 -0.25836800334E+01  0.54224761847E+01  0.84087591153E+01  0.51100000000E-03 0.  1.
        -12    1    3    3    0    0 -0.86858934613E+00 -0.29736075329E+01  0.18405919974E+02  0.18664797863E+02  0.00000000000E+00 0.  1.
</event>
<event>
 7    1  0.4630495E-010  0.4778727E+02  0.7816164E-02  0.1312668E+00
        -11   -1    0    0    0    0  0.00000000000E+00  0.00000000000E+00  0.45593999997E+02  0.45594000000E+02  0.51100000000E-03 0.  1.
         11   -1    0    0    0    0 -0.00000000000E+00 -0.00000000000E+00 -0.45593999997E+02  0.45594000000E+02  0.51100000000E-03 0. -1.
    9900012    2    1    2    0    0 -0.21153546957E+02 -0.37533490822E+00 -0.37894724914E+02  0.47787267271E+02  0.19999982794E+02 0.  0.
        -12    1    1    2    0    0  0.21153546957E+02  0.37533490822E+00  0.37894724914E+02  0.43400732729E+02  0.00000000000E+00 0.  1.
         11    1    3    3    0    0  0.14379146516E+01  0.13826430203E+01 -0.27538810334E+01  0.34004648615E+01  0.51100000000E-03 0. -1.
        -11    1    3    3    0    0 -0.41389750663E+00 -0.52883521895E-01  0.14813359420E+01  0.15389815616E+01  0.51100000000E-03 0.  1.
         12    1    3    3    0    0 -0.22177564102E+02 -0.17050944066E+01 -0.36622179822E+02  0.42847820847E+02  0.00000000000E+00 0. -1.
</event>
<event>
 7    1  0.4630495E-010  0.4778727E+02  0.7816164E-02  0.1312668E+00
        -11   -1    0    0    0    0  0.00000000000E+00  0.00000000000E+00  0.45593999997E+02  0.45594000000E+02  0.51100000000E-03 0.  1.
         11   -1    0    0    0    0 -0.00000000000E+00 -0.00000000000E+00 -0.45593999997E+02  0.45594000000E+02  0.51100000000E-03 0. -1.
    9900012    2    1    2    0    0  0.20694201885E+01  0.13982934207E+02 -0.41034351267E+02  0.47787274973E+02  0.20000017912E+02 0.  0.
        -12    1    1    2    0    0 -0.20694201885E+01 -0.13982934207E+02  0.41034351267E+02  0.43400725027E+02  0.00000000000E+00 0.  1.
         11    1    3    3    0    0 -0.40946418276E+01  0.92190284073E+01 -0.68738754332E+01  0.12206831702E+02  0.51100000000E-03 0.  1.
        -11    1    3    3    0    0  0.45211652427E+01  0.59878014413E+01 -0.21890846629E+02  0.23140956498E+02  0.51100000000E-03 0. -1.
        -12    1    3    3    0    0  0.16428967734E+01 -0.12238956413E+01 -0.12269629205E+02  0.12439486773E+02  0.00000000000E+00 0.  1.
</event>
<event>
 7    1  0.4630495E-010  0.4778727E+02  0.7816164E-02  0.1312668E+00
        -11   -1    0    0    0    0  0.00000000000E+00  0.00000000000E+00  0.45593999997E+02  0.45594000000E+02  0.51100000000E-03 0.  1.
         11   -1    0    0    0    0 -0.00000000000E+00 -0.00000000000E+00 -0.45593999997E+02  0.45594000000E+02  0.51100000000E-03 0. -1.
    9900012    2    1    2    0    0 -0.17359683532E+02  0.22409651705E+02 -0.32864453678E+02  0.47787269391E+02  0.19999992461E+02 0.  0.
        -12    1    1    2    0    0  0.17359683532E+02 -0.22409651705E+02  0.32864453678E+02  0.43400730609E+02  0.00000000000E+00 0.  1.
         11    1    3    3    0    0 -0.34044229492E+01  0.11599952531E+02 -0.12151947056E+02  0.17141143832E+02  0.51100000000E-03 0. -1.
        -11    1    3    3    0    0 -0.22961950478E-02  0.47683785338E+01 -0.12470869094E+02  0.13351404994E+02  0.51100000000E-03 0.  1.
         12    1    3    3    0    0 -0.13952964387E+02  0.60413206397E+01 -0.82416375279E+01  0.17294720565E+02  0.00000000000E+00 0. -1.
</event>
<event>
 7    1  0.4630495E-010  0.4778727E+02  0.7816164E-02  0.1312668E+00
        -11   -1    0    0    0    0  0.00000000000E+00  0.00000000000E+00  0.45593999997E+02  0.45594000000E+02  0.51100000000E-03 0.  1.
         11   -1    0    0    0    0 -0.00000000000E+00 -0.00000000000E+00 -0.45593999997E+02  0.45594000000E+02  0.51100000000E-03 0. -1.
    9900012    2    1    2    0    0  0.23575631501E+01  0.33219591356E+02 -0.27830264879E+02  0.47787274233E+02  0.20000014537E+02 0.  0.
        -12    1    1    2    0    0 -0.23575631501E+01 -0.33219591356E+02  0.27830264879E+02  0.43400725767E+02  0.00000000000E+00 0.  1.
         11    1    3    3    0    0  0.43273478741E+01  0.23225263996E+02 -0.16987053445E+02  0.29098089496E+02  0.51100000000E-03 0. -1.
        -11    1    3    3    0    0 -0.27308250323E+01  0.93870808194E+01 -0.13033331767E+02  0.16292404024E+02  0.51100000000E-03 0.  1.
        -12    1    3    3    0    0  0.76104030822E+00  0.60724654044E+00  0.21901203330E+01  0.23967807127E+01  0.00000000000E+00 0.  1.
</event>
<event>
 7    1  0.4630495E-010  0.4778727E+02  0.7816164E-02  0.1312668E+00
        -11   -1    0    0    0    0  0.00000000000E+00  0.00000000000E+00  0.45593999997E+02  0.45594000000E+02  0.51100000000E-03 0.  1.
         11   -1    0    0    0    0 -0.00000000000E+00 -0.00000000000E+00 -0.45593999997E+02  0.45594000000E+02  0.51100000000E-03 0. -1.
    9900012    2    1    2    0    0  0.32227118663E+02  0.21549207342E+02 -0.19510713525E+02  0.47787268939E+02  0.19999990400E+02 0.  0.
        -12    1    1    2    0    0 -0.32227118663E+02 -0.21549207342E+02  0.19510713525E+02  0.43400731061E+02  0.00000000000E+00 0.  1.
         11    1    3    3    0    0  0.23698110513E+02  0.18722367972E+02 -0.16340419931E+02  0.34338561824E+02  0.51100000000E-03 0. -1.
        -11    1    3    3    0    0  0.63386532689E+01  0.54488743568E+01  0.57585266112E+00  0.83785657226E+01  0.51100000000E-03 0.  1.
        -12    1    3    3    0    0  0.21903548813E+01 -0.26220349865E+01 -0.37461462545E+01  0.50701413921E+01  0.00000000000E+00 0.  1.
</event>
<event>
 7    1  0.4630495E-010  0.4778727E+02  0.7816164E-02  0.1312668E+00
        -11   -1    0    0    0    0  0.00000000000E+00  0.00000000000E+00  0.45593999997E+02  0.45594000000E+02  0.51100000000E-03 0.  1.
         11   -1    0    0    0    0 -0.00000000000E+00 -0.00000000000E+00 -0.45593999997E+02  0.45594000000E+02  0.51100000000E-03 0. -1.
    9900012    2    1    2    0    0  0.24238184839E+02  0.10877334317E+02 -0.34319344095E+02  0.47787269761E+02  0.19999994149E+02 0.  0.
        -12    1    1    2    0    0 -0.24238184839E+02 -0.10877334317E+02  0.34319344095E+02  0.43400730239E+02  0.00000000000E+00 0.  1.
         11    1    3    3    0    0  0.56963772526E+01  0.91643060168E+01 -0.44907115999E+01  0.11687587840E+02  0.51100000000E-03 0.  1.
        -11    1    3    3    0    0  0.47485520939E+01  0.40548982757E+01 -0.76208747506E+01  0.98523438450E+01  0.51100000000E-03 0. -1.
        -12    1    3    3    0    0  0.13793255493E+02 -0.23418699754E+01 -0.22207757744E+02  0.26247338077E+02  0.00000000000E+00 0.  1.
</event>
<event>
 7    1  0.4630495E-010  0.4778727E+02  0.7816164E-02  0.1312668E+00
        -11   -1    0    0    0    0  0.00000000000E+00  0.00000000000E+00  0.45593999997E+02  0.45594000000E+02  0.51100000000E-03 0. -1.
         11   -1    0    0    0    0 -0.00000000000E+00 -0.00000000000E+00 -0.45593999997E+02  0.45594000000E+02  0.51100000000E-03 0.  1.
    9900012    2    1    2    0    0  0.31328798376E+02 -0.14090452609E+02  0.26525248296E+02  0.47787271209E+02  0.20000000750E+02 0.  0.
        -12    1    1    2    0    0 -0.31328798376E+02  0.14090452609E+02 -0.26525248296E+02  0.43400728791E+02  0.00000000000E+00 0.  1.
         11    1    3    3    0    0  0.91873504501E+01  0.29430552410E+01  0.84896973140E+01  0.12850834338E+02  0.51100000000E-03 0. -1.
        -11    1    3    3    0    0  0.38403836974E+01 -0.19590745697E+01 -0.11210651235E+01  0.44545827397E+01  0.51100000000E-03 0.  1.
         12    1    3    3    0    0  0.18301064229E+02 -0.15074433281E+02  0.19156616106E+02  0.30481854131E+02  0.00000000000E+00 0. -1.
</event>
<event>
 7    1  0.4630495E-010  0.4778733E+02  0.7816164E-02  0.1312667E+00
        -11   -1    0    0    0    0  0.00000000000E+00  0.00000000000E+00  0.45593999997E+02  0.45594000000E+02  0.51100000000E-03 0.  1.
         11   -1    0    0    0    0 -0.00000000000E+00 -0.00000000000E+00 -0.45593999997E+02  0.45594000000E+02  0.51100000000E-03 0. -1.
    9900012    2    1    2    0    0 -0.43356371307E+02  0.95393684615E+00 -0.17126403485E+01  0.47787331050E+02  0.20000273586E+02 0.  0.
        -12    1    1    2    0    0  0.43356371307E+02 -0.95393684615E+00  0.17126403485E+01  0.43400668950E+02  0.00000000000E+00 0.  1.
         11    1    3    3    0    0 -0.15300655156E+02 -0.12102420782E+01  0.53404978757E+00  0.15357732369E+02  0.51100000000E-03 0.  1.
        -11    1    3    3    0    0 -0.80498428801E+01  0.46239220290E+01  0.55521023454E+01  0.10816952715E+02  0.51100000000E-03 0. -1.
        -12    1    3    3    0    0 -0.20005873270E+02 -0.24597431046E+01 -0.77987924815E+01  0.21612645965E+02  0.00000000000E+00 0.  1.
</event>
<event>
 7    1  0.4630495E-010  0.4778727E+02  0.7816164E-02  0.1312668E+00
        -11   -1    0    0    0    0  0.00000000000E+00  0.00000000000E+00  0.45593999997E+02  0.45594000000E+02  0.51100000000E-03 0.  1.
         11   -1    0    0    0    0 -0.00000000000E+00 -0.00000000000E+00 -0.45593999997E+02  0.45594000000E+02  0.51100000000E-03 0. -1.
    9900012    2    1    2    0    0  0.27636115211E+02  0.33422959865E+02 -0.16656341340E+01  0.47787269048E+02  0.19999990899E+02 0.  0.
        -12    1    1    2    0    0 -0.27636115211E+02 -0.33422959865E+02  0.16656341340E+01  0.43400730952E+02  0.00000000000E+00 0.  1.
         11    1    3    3    0    0  0.58154001197E+01  0.64543622761E+01 -0.52201211952E+01  0.10135449497E+02  0.51100000000E-03 0. -1.
        -11    1    3    3    0    0  0.10984465126E+02  0.85020812301E+01 -0.47594376677E+01  0.14683191292E+02  0.51100000000E-03 0.  1.
        -12    1    3    3    0    0  0.10836249965E+02  0.18466516359E+02  0.83139247289E+01  0.22968628260E+02  0.00000000000E+00 0.  1.
</event>
<event>
 7    1  0.4630495E-010  0.4778726E+02  0.7816164E-02  0.1312668E+00
        -11   -1    0    0    0    0  0.00000000000E+00  0.00000000000E+00  0.45593999997E+02  0.45594000000E+02  0.51100000000E-03 0.  1.
         11   -1    0    0    0    0 -0.00000000000E+00 -0.00000000000E+00 -0.45593999997E+02  0.45594000000E+02  0.51100000000E-03 0. -1.
    9900012    2    1    2    0    0 -0.28365744093E+02  0.18039168564E+02 -0.27451718764E+02  0.47787263790E+02  0.19999966926E+02 0.  0.
        -12    1    1    2    0    0  0.28365744093E+02 -0.18039168564E+02  0.27451718764E+02  0.43400736210E+02  0.00000000000E+00 0.  1.
         11    1    3    3    0    0 -0.95553789954E-01  0.16823417022E-01 -0.20041912891E+01  0.20065384468E+01  0.51100000000E-03 0. -1.
        -11    1    3    3    0    0 -0.27337526382E+02  0.12153118469E+02 -0.14324660391E+02  0.33169783430E+02  0.51100000000E-03 0.  1.
        -12    1    3    3    0    0 -0.93266392100E+00  0.58692266781E+01 -0.11122867084E+02  0.12610941914E+02  0.00000000000E+00 0.  1.
</event>
<event>
 7    1  0.4630495E-010  0.4778726E+02  0.7816164E-02  0.1312668E+00
        -11   -1    0    0    0    0  0.00000000000E+00  0.00000000000E+00  0.45593999997E+02  0.45594000000E+02  0.51100000000E-03 0. -1.
         11   -1    0    0    0    0 -0.00000000000E+00 -0.00000000000E+00 -0.45593999997E+02  0.45594000000E+02  0.51100000000E-03 0.  1.
    9900012    2    1    2    0    0  0.32099980275E+02 -0.20394129889E+02  0.20911606949E+02  0.47787256081E+02  0.19999931776E+02 0.  0.
        -12    1    1    2    0    0 -0.32099980275E+02  0.20394129889E+02 -0.20911606949E+02  0.43400743919E+02  0.00000000000E+00 0.  1.
         11    1    3    3    0    0  0.21632930713E+02 -0.98097475442E+01  0.12666173694E+02  0.26919264374E+02  0.51100000000E-03 0. -1.
        -11    1    3    3    0    0  0.42240801406E+01  0.16552013871E+01  0.49972844261E+01  0.67494737990E+01  0.51100000000E-03 0.  1.
        -12    1    3    3    0    0  0.62429694207E+01 -0.12239583731E+02  0.32481488280E+01  0.14118517908E+02  0.00000000000E+00 0.  1.
</event>
<event>
 7    1  0.4630495E-010  0.4778727E+02  0.7816164E-02  0.1312668E+00
        -11   -1    0    0    0    0  0.00000000000E+00  0.00000000000E+00  0.45593999997E+02  0.45594000000E+02  0.51100000000E-03 0.  1.
         11   -1    0    0    0    0 -0.00000000000E+00 -0.00000000000E+00 -0.45593999997E+02  0.45594000000E+02  0.51100000000E-03 0. -1.
    9900012    2    1    2    0    0 -0.16314738192E+02 -0.39621368998E+02  0.68992359166E+01  0.47787273971E+02  0.20000013345E+02 0.  0.
        -12    1    1    2    0    0  0.16314738192E+02  0.39621368998E+02 -0.68992359166E+01  0.43400726029E+02  0.00000000000E+00 0.  1.
         11    1    3    3    0    0 -0.51282337271E+01 -0.36850736731E+01  0.14532445131E+01  0.64800053250E+01  0.51100000000E-03 0.  1.
        -11    1    3    3    0    0 -0.35263516985E+01 -0.15288266922E+02 -0.56128791954E+01  0.16663453271E+02  0.51100000000E-03 0. -1.
         12    1    3    3    0    0 -0.76601527665E+01 -0.20648028403E+02  0.11058870599E+02  0.24643815376E+02  0.00000000000E+00 0. -1.
</event>
<event>
 7    1  0.4630495E-010  0.4778727E+02  0.7816164E-02  0.1312668E+00
        -11   -1    0    0    0    0  0.00000000000E+00  0.00000000000E+00  0.45593999997E+02  0.45594000000E+02  0.51100000000E-03 0.  1.
         11   -1    0    0    0    0 -0.00000000000E+00 -0.00000000000E+00 -0.45593999997E+02  0.45594000000E+02  0.51100000000E-03 0. -1.
    9900012    2    1    2    0    0  0.20373728114E+02 -0.24450269210E+02 -0.29507943049E+02  0.47787272303E+02  0.20000005737E+02 0.  0.
        -12    1    1    2    0    0 -0.20373728114E+02  0.24450269210E+02  0.29507943049E+02  0.43400727697E+02  0.00000000000E+00 0.  1.
         11    1    3    3    0    0  0.10296366035E+02 -0.75124343176E+01 -0.91085245288E+01  0.15665792104E+02  0.51100000000E-03 0. -1.
        -11    1    3    3    0    0  0.10915037341E+02 -0.16422105209E+02 -0.22429998658E+02  0.29865170679E+02  0.51100000000E-03 0.  1.
        -12    1    3    3    0    0 -0.83767526175E+00 -0.51572968321E+00  0.20305801379E+01  0.22563095193E+01  0.00000000000E+00 0.  1.
</event>
<event>
 7    1  0.4630495E-010  0.4778727E+02  0.7816164E-02  0.1312668E+00
        -11   -1    0    0    0    0  0.00000000000E+00  0.00000000000E+00  0.45593999997E+02  0.45594000000E+02  0.51100000000E-03 0.  1.
         11   -1    0    0    0    0 -0.00000000000E+00 -0.00000000000E+00 -0.45593999997E+02  0.45594000000E+02  0.51100000000E-03 0. -1.
    9900012    2    1    2    0    0  0.25812318046E+02 -0.16817432497E+02 -0.30569945218E+02  0.47787270175E+02  0.19999996038E+02 0.  0.
        -12    1    1    2    0    0 -0.25812318046E+02  0.16817432497E+02  0.30569945218E+02  0.43400729825E+02  0.00000000000E+00 0.  1.
         11    1    3    3    0    0  0.71734950976E+01 -0.57623539440E+01 -0.55044985786E+01  0.10722092135E+02  0.51100000000E-03 0. -1.
        -11    1    3    3    0    0  0.39839172415E+01 -0.42109623551E+01 -0.18877647430E+02  0.19747642221E+02  0.51100000000E-03 0.  1.
        -12    1    3    3    0    0  0.14654905706E+02 -0.68441161978E+01 -0.61877992096E+01  0.17317535819E+02  0.00000000000E+00 0.  1.
</event>
<event>
 7    1  0.4630495E-010  0.4778722E+02  0.7816164E-02  0.1312668E+00
        -11   -1    0    0    0    0  0.00000000000E+00  0.00000000000E+00  0.45593999997E+02  0.45594000000E+02  0.51100000000E-03 0. -1.
         11   -1    0    0    0    0 -0.00000000000E+00 -0.00000000000E+00 -0.45593999997E+02  0.45594000000E+02  0.51100000000E-03 0.  1.
    9900012    2    1    2    0    0  0.39887953634E+02  0.13497514771E+02  0.10506928902E+02  0.47787224603E+02  0.19999788253E+02 0.  0.
        -12    1    1    2    0    0 -0.39887953634E+02 -0.13497514771E+02 -0.10506928902E+02  0.43400775397E+02  0.00000000000E+00 0.  1.
         11    1    3    3    0    0  0.25654927640E+01  0.29583360185E+01  0.42247176002E+01  0.57603597268E+01  0.51100000000E-03 0. -1.
        -11    1    3    3    0    0  0.62695828979E+01  0.16161128006E+00  0.68413647493E+01  0.92810591967E+01  0.51100000000E-03 0.  1.
         12    1    3    3    0    0  0.31052877972E+02  0.10377567473E+02 -0.55915344767E+00  0.32745805679E+02  0.00000000000E+00 0. -1.
</event>
<event>
 7    1  0.4630495E-010  0.4778727E+02  0.7816164E-02  0.1312668E+00
        -11   -1    0    0    0    0  0.00000000000E+00  0.00000000000E+00  0.45593999997E+02  0.45594000000E+02  0.51100000000E-03 0.  1.
         11   -1    0    0    0    0 -0.00000000000E+00 -0.00000000000E+00 -0.45593999997E+02  0.45594000000E+02  0.51100000000E-03 0. -1.
    9900012    2    1    2    0    0 -0.55703050390E+01  0.23130474863E+02 -0.36298427631E+02  0.47787274037E+02  0.20000013644E+02 0.  0.
        -12    1    1    2    0    0  0.55703050390E+01 -0.23130474863E+02  0.36298427631E+02  0.43400725963E+02  0.00000000000E+00 0.  1.
         11    1    3    3    0    0 -0.54060549541E+01  0.14648677840E+02 -0.12798161499E+02  0.20189158740E+02  0.51100000000E-03 0. -1.
        -11    1    3    3    0    0 -0.46515113685E+01 -0.19961292173E+00 -0.66233911455E+01  0.80960307470E+01  0.51100000000E-03 0.  1.
         12    1    3    3    0    0  0.44872612837E+01  0.86814099448E+01 -0.16876874987E+02  0.19502084549E+02  0.00000000000E+00 0. -1.
</event>
<event>
 7    1  0.4630495E-010  0.4778727E+02  0.7816164E-02  0.1312668E+00
        -11   -1    0    0    0    0  0.00000000000E+00  0.00000000000E+00  0.45593999997E+02  0.45594000000E+02  0.51100000000E-03 0. -1.
         11   -1    0    0    0    0 -0.00000000000E+00 -0.00000000000E+00 -0.45593999997E+02  0.45594000000E+02  0.51100000000E-03 0.  1.
    9900012    2    1    2    0    0 -0.30701846578E+02  0.10268410686E+02  0.28906393633E+02  0.47787271502E+02  0.20000002085E+02 0.  0.
        -12    1    1    2    0    0  0.30701846578E+02 -0.10268410686E+02 -0.28906393633E+02  0.43400728498E+02  0.00000000000E+00 0.  1.
         11    1    3    3    0    0 -0.26910416723E+02  0.76198529164E+01  0.24819483295E+02  0.37393039967E+02  0.51100000000E-03 0. -1.
        -11    1    3    3    0    0 -0.31522068275E+01 -0.95519873639E+00  0.55490557225E+01  0.64529708028E+01  0.51100000000E-03 0.  1.
        -12    1    3    3    0    0 -0.63922302754E+00  0.36037565056E+01 -0.14621453848E+01  0.39412607319E+01  0.00000000000E+00 0.  1.
</event>
<event>
 7    1  0.4630495E-010  0.4778728E+02  0.7816164E-02  0.1312668E+00
        -11   -1    0    0    0    0  0.00000000000E+00  0.00000000000E+00  0.45593999997E+02  0.45594000000E+02  0.51100000000E-03 0.  1.
         11   -1    0    0    0    0 -0.00000000000E+00 -0.00000000000E+00 -0.45593999997E+02  0.45594000000E+02  0.51100000000E-03 0. -1.
    9900012    2    1    2    0    0 -0.33436485959E+02 -0.27649381798E+02  0.10657503014E+01  0.47787277301E+02  0.20000028526E+02 0.  0.
        -12    1    1    2    0    0  0.33436485959E+02  0.27649381798E+02 -0.10657503014E+01  0.43400722699E+02  0.00000000000E+00 0.  1.
         11    1    3    3    0    0 -0.33837517115E-02  0.43093257496E+00 -0.38610685048E+00  0.57861307888E+00  0.51100000000E-03 0.  1.
        -11    1    3    3    0    0 -0.26953961303E+02 -0.29984500659E+02  0.85441647604E-01  0.40318650899E+02  0.51100000000E-03 0. -1.
         12    1    3    3    0    0 -0.64791409040E+01  0.19041862867E+01  0.13664155043E+01  0.68900133235E+01  0.00000000000E+00 0. -1.
</event>
<event>
 7    1  0.4959190E-010  0.4778727E+02  0.7816164E-02  0.1312668E+00
        -11   -1    0    0    0    0  0.00000000000E+00  0.00000000000E+00  0.45593999997E+02  0.45594000000E+02  0.51100000000E-03 0. -1.
         11   -1    0    0    0    0 -0.00000000000E+00 -0.00000000000E+00 -0.45593999997E+02  0.45594000000E+02  0.51100000000E-03 0.  1.
    9900012    2    1    2    0    0  0.23386404136E+02  0.34301263159E+02  0.12653948116E+02  0.47787274710E+02  0.20000016715E+02 0.  0.
        -12    1    1    2    0    0 -0.23386404136E+02 -0.34301263159E+02 -0.12653948116E+02  0.43400725290E+02  0.00000000000E+00 0.  1.
         11    1    3    3    0    0  0.18142297530E+01  0.37828488688E+01  0.64373336289E+01  0.76837907098E+01  0.51100000000E-03 0. -1.
        -11    1    3    3    0    0  0.13388481231E+02  0.13225967190E+02 -0.26718234555E+01  0.19008321300E+02  0.51100000000E-03 0.  1.
         12    1    3    3    0    0  0.81836931518E+01  0.17292447100E+02  0.88884379422E+01  0.21095162701E+02  0.00000000000E+00 0. -1.
</event>
<event>
 7    1  0.4630495E-010  0.4778728E+02  0.7816164E-02  0.1312668E+00
        -11   -1    0    0    0    0  0.00000000000E+00  0.00000000000E+00  0.45593999997E+02  0.45594000000E+02  0.51100000000E-03 0.  1.
         11   -1    0    0    0    0 -0.00000000000E+00 -0.00000000000E+00 -0.45593999997E+02  0.45594000000E+02  0.51100000000E-03 0. -1.
    9900012    2    1    2    0    0 -0.33512058231E+02  0.39549344751E+01 -0.27293273685E+02  0.47787281780E+02  0.20000048949E+02 0.  0.
        -12    1    1    2    0    0  0.33512058231E+02 -0.39549344751E+01  0.27293273685E+02  0.43400718220E+02  0.00000000000E+00 0.  1.
         11    1    3    3    0    0 -0.14931408934E+02 -0.22476966039E+01 -0.87020883312E+01  0.17427720860E+02  0.51100000000E-03 0. -1.
        -11    1    3    3    0    0 -0.19004830413E+02  0.34221234296E+01 -0.10909392598E+02  0.22179029620E+02  0.51100000000E-03 0.  1.
        -12    1    3    3    0    0  0.42418111616E+00  0.27805076493E+01 -0.76817927562E+01  0.81805313004E+01  0.00000000000E+00 0.  1.
</event>
<event>
 7    1  0.4630495E-010  0.4778727E+02  0.7816164E-02  0.1312668E+00
        -11   -1    0    0    0    0  0.00000000000E+00  0.00000000000E+00  0.45593999997E+02  0.45594000000E+02  0.51100000000E-03 0.  1.
         11   -1    0    0    0    0 -0.00000000000E+00 -0.00000000000E+00 -0.45593999997E+02  0.45594000000E+02  0.51100000000E-03 0. -1.
    9900012    2    1    2    0    0  0.13727042256E+02  0.77548122471E+01 -0.40435808545E+02  0.47787269421E+02  0.19999992600E+02 0.  0.
        -12    1    1    2    0    0 -0.13727042256E+02 -0.77548122471E+01  0.40435808545E+02  0.43400730579E+02  0.00000000000E+00 0.  1.
         11    1    3    3    0    0  0.25471208417E+01 -0.85145363984E+00 -0.39623514113E+01  0.47867553573E+01  0.51100000000E-03 0. -1.
        -11    1    3    3    0    0 -0.12892205126E+01 -0.34910294965E+01 -0.14601780886E+02  0.15068556061E+02  0.51100000000E-03 0.  1.
         12    1    3    3    0    0  0.12469141927E+02  0.12097295383E+02 -0.21871676248E+02  0.27931958003E+02  0.00000000000E+00 0. -1.
</event>
<event>
 7    1  0.4630495E-010  0.4778727E+02  0.7816164E-02  0.1312668E+00
        -11   -1    0    0    0    0  0.00000000000E+00  0.00000000000E+00  0.45593999997E+02  0.45594000000E+02  0.51100000000E-03 0.  1.
         11   -1    0    0    0    0 -0.00000000000E+00 -0.00000000000E+00 -0.45593999997E+02  0.45594000000E+02  0.51100000000E-03 0. -1.
    9900012    2    1    2    0    0 -0.32084488939E+01  0.31256506161E+02 -0.29939268055E+02  0.47787273124E+02  0.20000009481E+02 0.  0.
        -12    1    1    2    0    0  0.32084488939E+01 -0.31256506161E+02  0.29939268055E+02  0.43400726876E+02  0.00000000000E+00 0.  1.
         11    1    3    3    0    0 -0.94999625348E+00  0.12079856978E+02 -0.86074756649E+01  0.14863178499E+02  0.51100000000E-03 0. -1.
        -11    1    3    3    0    0  0.89114284143E+00  0.11784092847E+02 -0.21882492883E+02  0.24869709987E+02  0.51100000000E-03 0.  1.
        -12    1    3    3    0    0 -0.31495954818E+01  0.73925563354E+01  0.55070049253E+00  0.80543846384E+01  0.00000000000E+00 0.  1.
</event>
<event>
 7    1  0.4630495E-010  0.4778727E+02  0.7816164E-02  0.1312668E+00
        -11   -1    0    0    0    0  0.00000000000E+00  0.00000000000E+00  0.45593999997E+02  0.45594000000E+02  0.51100000000E-03 0.  1.
         11   -1    0    0    0    0 -0.00000000000E+00 -0.00000000000E+00 -0.45593999997E+02  0.45594000000E+02  0.51100000000E-03 0. -1.
    9900012    2    1    2    0    0 -0.13573054572E+02 -0.21224168592E+02 -0.35340210483E+02  0.47787267059E+02  0.19999981830E+02 0.  0.
        -12    1    1    2    0    0  0.13573054572E+02  0.21224168592E+02  0.35340210483E+02  0.43400732941E+02  0.00000000000E+00 0.  1.
         11    1    3    3    0    0 -0.24935634295E+00 -0.50256999367E+01 -0.28213628173E+01  0.57688757005E+01  0.51100000000E-03 0. -1.
        -11    1    3    3    0    0 -0.63949068594E+01 -0.33059380092E+01 -0.10013968153E+01  0.72682085623E+01  0.51100000000E-03 0.  1.
         12    1    3    3    0    0 -0.69287913695E+01 -0.12892530646E+02 -0.31517450850E+02  0.34750182796E+02  0.00000000000E+00 0. -1.
</event>
<event>
 7    1  0.4630495E-010  0.4778727E+02  0.7816164E-02  0.1312668E+00
        -11   -1    0    0    0    0  0.00000000000E+00  0.00000000000E+00  0.45593999997E+02  0.45594000000E+02  0.51100000000E-03 0.  1.
         11   -1    0    0    0    0 -0.00000000000E+00 -0.00000000000E+00 -0.45593999997E+02  0.45594000000E+02  0.51100000000E-03 0. -1.
    9900012    2    1    2    0    0  0.26567264233E+02  0.11909653030E+01 -0.34298471816E+02  0.47787273093E+02  0.20000009339E+02 0.  0.
        -12    1    1    2    0    0 -0.26567264233E+02 -0.11909653030E+01  0.34298471816E+02  0.43400726907E+02  0.00000000000E+00 0.  1.
         11    1    3    3    0    0  0.85277597695E+01 -0.24937957610E+01 -0.52412999257E+01  0.10315664261E+02  0.51100000000E-03 0. -1.
        -11    1    3    3    0    0  0.47274416105E+01 -0.26008049520E+01 -0.59587684152E+00  0.54284399278E+01  0.51100000000E-03 0.  1.
         12    1    3    3    0    0  0.13312062853E+02  0.62855660160E+01 -0.28461295048E+02  0.32043168904E+02  0.00000000000E+00 0. -1.
</event>
<event>
 7    1  0.4630495E-010  0.4778727E+02  0.7816164E-02  0.1312668E+00
        -11   -1    0    0    0    0  0.00000000000E+00  0.00000000000E+00  0.45593999997E+02  0.45594000000E+02  0.51100000000E-03 0.  1.
         11   -1    0    0    0    0 -0.00000000000E+00 -0.00000000000E+00 -0.45593999997E+02  0.45594000000E+02  0.51100000000E-03 0. -1.
    9900012    2    1    2    0    0  0.80919913212E+01 -0.25263960987E+02 -0.34349318469E+02  0.47787265818E+02  0.19999976171E+02 0.  0.
        -12    1    1    2    0    0 -0.80919913212E+01  0.25263960987E+02  0.34349318469E+02  0.43400734182E+02  0.00000000000E+00 0.  1.
         11    1    3    3    0    0 -0.38443639903E+01 -0.73505064213E+01 -0.19850003474E+02  0.21513524057E+02  0.51100000000E-03 0. -1.
        -11    1    3    3    0    0  0.18999963673E+01 -0.14011225256E+01 -0.50204473981E+00  0.24135409069E+01  0.51100000000E-03 0.  1.
        -12    1    3    3    0    0  0.10036358944E+02 -0.16512332040E+02 -0.13997270254E+02  0.23860200855E+02  0.00000000000E+00 0.  1.
</event>
<event>
 7    1  0.4630495E-010  0.4778727E+02  0.7816164E-02  0.1312668E+00
        -11   -1    0    0    0    0  0.00000000000E+00  0.00000000000E+00  0.45593999997E+02  0.45594000000E+02  0.51100000000E-03 0. -1.
         11   -1    0    0    0    0 -0.00000000000E+00 -0.00000000000E+00 -0.45593999997E+02  0.45594000000E+02  0.51100000000E-03 0.  1.
    9900012    2    1    2    0    0 -0.36671797808E+02  0.16321609952E+02  0.16504781898E+02  0.47787268078E+02  0.19999986474E+02 0.  0.
        -12    1    1    2    0    0  0.36671797808E+02 -0.16321609952E+02 -0.16504781898E+02  0.43400731922E+02  0.00000000000E+00 0.  1.
         11    1    3    3    0    0 -0.15872319982E+02  0.72953536796E+01  0.10644462378E+02  0.20456229039E+02  0.51100000000E-03 0. -1.
        -11    1    3    3    0    0 -0.15637188019E+02  0.12325073275E+02  0.69891952665E+01  0.21101609681E+02  0.51100000000E-03 0.  1.
        -12    1    3    3    0    0 -0.51622898070E+01 -0.32988170032E+01 -0.11288757469E+01  0.62294293578E+01  0.00000000000E+00 0.  1.
</event>
<event>
 7    1  0.4630495E-010  0.4778727E+02  0.7816164E-02  0.1312668E+00
        -11   -1    0    0    0    0  0.00000000000E+00  0.00000000000E+00  0.45593999997E+02  0.45594000000E+02  0.51100000000E-03 0.  1.
         11   -1    0    0    0    0 -0.00000000000E+00 -0.00000000000E+00 -0.45593999997E+02  0.45594000000E+02  0.51100000000E-03 0. -1.
    9900012    2    1    2    0    0  0.22560619162E+02 -0.24368332701E+02 -0.27943268399E+02  0.47787269310E+02  0.19999992092E+02 0.  0.
        -12    1    1    2    0    0 -0.22560619162E+02  0.24368332701E+02  0.27943268399E+02  0.43400730690E+02  0.00000000000E+00 0.  1.
         11    1    3    3    0    0  0.10171552964E+02 -0.21198371974E+02 -0.13427752401E+02  0.27076484240E+02  0.51100000000E-03 0. -1.
        -11    1    3    3    0    0  0.50056190314E+01 -0.32610425427E+01 -0.22296036107E+01  0.63766568729E+01  0.51100000000E-03 0.  1.
         12    1    3    3    0    0  0.73834471670E+01  0.91081814844E-01 -0.12285912388E+02  0.14334128197E+02  0.00000000000E+00 0. -1.
</event>
<event>
 7    1  0.4630495E-010  0.4778730E+02  0.7816164E-02  0.1312668E+00
        -11   -1    0    0    0    0  0.00000000000E+00  0.00000000000E+00  0.45593999997E+02  0.45594000000E+02  0.51100000000E-03 0.  1.
         11   -1    0    0    0    0 -0.00000000000E+00 -0.00000000000E+00 -0.45593999997E+02  0.45594000000E+02  0.51100000000E-03 0. -1.
    9900012    2    1    2    0    0  0.29417711255E+02 -0.31375727166E+02 -0.58122645442E+01  0.47787304041E+02  0.20000150442E+02 0.  0.
        -12    1    1    2    0    0 -0.29417711255E+02  0.31375727166E+02  0.58122645442E+01  0.43400695959E+02  0.00000000000E+00 0.  1.
         11    1    3    3    0    0  0.19380852471E+02 -0.12382540775E+02 -0.32561062460E+01  0.23228150737E+02  0.51100000000E-03 0. -1.
        -11    1    3    3    0    0  0.12497309361E+02 -0.15992498940E+02 -0.83342104116E+00  0.20313477164E+02  0.51100000000E-03 0.  1.
         12    1    3    3    0    0 -0.24604505770E+01 -0.30006874509E+01 -0.17227372570E+01  0.42456761389E+01  0.00000000000E+00 0. -1.
</event>
<event>
 7    1  0.4630495E-010  0.4778728E+02  0.7816164E-02  0.1312668E+00
        -11   -1    0    0    0    0  0.00000000000E+00  0.00000000000E+00  0.45593999997E+02  0.45594000000E+02  0.51100000000E-03 0. -1.
         11   -1    0    0    0    0 -0.00000000000E+00 -0.00000000000E+00 -0.45593999997E+02  0.45594000000E+02  0.51100000000E-03 0.  1.
    9900012    2    1    2    0    0 -0.22156826627E+01 -0.13051285015E+02  0.41332518395E+02  0.47787281491E+02  0.20000047630E+02 0.  0.
        -12    1    1    2    0    0  0.22156826627E+01  0.13051285015E+02 -0.41332518395E+02  0.43400718509E+02  0.00000000000E+00 0.  1.
         11    1    3    3    0    0 -0.17372284798E+01 -0.30835933816E+01  0.26753430650E+01  0.44366622264E+01  0.51100000000E-03 0. -1.
        -11    1    3    3    0    0 -0.26803189914E+01  0.41236411889E+01  0.63221017005E+01  0.80098374967E+01  0.51100000000E-03 0.  1.
        -12    1    3    3    0    0  0.22018648084E+01 -0.14091332822E+02  0.32335073630E+02  0.35340781768E+02  0.00000000000E+00 0.  1.
</event>
<event>
 7    1  0.4630495E-010  0.4778727E+02  0.7816164E-02  0.1312668E+00
        -11   -1    0    0    0    0  0.00000000000E+00  0.00000000000E+00  0.45593999997E+02  0.45594000000E+02  0.51100000000E-03 0. -1.
         11   -1    0    0    0    0 -0.00000000000E+00 -0.00000000000E+00 -0.45593999997E+02  0.45594000000E+02  0.51100000000E-03 0.  1.
    9900012    2    1    2    0    0 -0.16040081555E+02 -0.39825883648E+02 -0.63433448258E+01  0.47787271340E+02  0.20000001346E+02 0.  0.
        -12    1    1    2    0    0  0.16040081555E+02  0.39825883648E+02  0.63433448258E+01  0.43400728660E+02  0.00000000000E+00 0.  1.
         11    1    3    3    0    0 -0.15261391296E+02 -0.18064591808E+02 -0.19750107892E+01  0.23730575411E+02  0.51100000000E-03 0. -1.
        -11    1    3    3    0    0 -0.18484127010E+01 -0.65505500621E+01 -0.55222420468E+01  0.87647871117E+01  0.51100000000E-03 0.  1.
        -12    1    3    3    0    0  0.10697224423E+01 -0.15210741779E+02  0.11539080103E+01  0.15291908817E+02  0.00000000000E+00 0.  1.
</event>
<event>
 7    1  0.4630495E-010  0.4778725E+02  0.7816164E-02  0.1312668E+00
        -11   -1    0    0    0    0  0.00000000000E+00  0.00000000000E+00  0.45593999997E+02  0.45594000000E+02  0.51100000000E-03 0. -1.
         11   -1    0    0    0    0 -0.00000000000E+00 -0.00000000000E+00 -0.45593999997E+02  0.45594000000E+02  0.51100000000E-03 0.  1.
    9900012    2    1    2    0    0  0.16966648040E+02 -0.91595599550E+00  0.39936432116E+02  0.47787254255E+02  0.19999923450E+02 0.  0.
        -12    1    1    2    0    0 -0.16966648040E+02  0.91595599550E+00 -0.39936432116E+02  0.43400745745E+02  0.00000000000E+00 0.  1.
         11    1    3    3    0    0  0.10389656954E+02 -0.46609120591E+01  0.62714249461E+01  0.12999993999E+02  0.51100000000E-03 0. -1.
        -11    1    3    3    0    0  0.93029115885E+00  0.14443896476E+01  0.25130575122E+01  0.30442012770E+01  0.51100000000E-03 0.  1.
         12    1    3    3    0    0  0.56466999270E+01  0.23005664160E+01  0.31151949657E+02  0.31743058979E+02  0.00000000000E+00 0. -1.
</event>
<event>
 7    1  0.4630495E-010  0.4778727E+02  0.7816164E-02  0.1312668E+00
        -11   -1    0    0    0    0  0.00000000000E+00  0.00000000000E+00  0.45593999997E+02  0.45594000000E+02  0.51100000000E-03 0.  1.
         11   -1    0    0    0    0 -0.00000000000E+00 -0.00000000000E+00 -0.45593999997E+02  0.45594000000E+02  0.51100000000E-03 0. -1.
    9900012    2    1    2    0    0  0.37754173845E+02 -0.29729345217E+01 -0.21199229791E+02  0.47787270442E+02  0.19999997255E+02 0.  0.
        -12    1    1    2    0    0 -0.37754173845E+02  0.29729345217E+01  0.21199229791E+02  0.43400729558E+02  0.00000000000E+00 0.  1.
         11    1    3    3    0    0  0.10727134201E+02  0.20100282325E+01 -0.72811032504E+01  0.13119683170E+02  0.51100000000E-03 0. -1.
        -11    1    3    3    0    0  0.12636525835E+01 -0.35590952883E+01 -0.69994859303E+01  0.79534131461E+01  0.51100000000E-03 0.  1.
        -12    1    3    3    0    0  0.25763387060E+02 -0.14238674659E+01 -0.69186406105E+01  0.26714174126E+02  0.00000000000E+00 0.  1.
</event>
<event>
 7    1  0.4630495E-010  0.4778727E+02  0.7816164E-02  0.1312668E+00
        -11   -1    0    0    0    0  0.00000000000E+00  0.00000000000E+00  0.45593999997E+02  0.45594000000E+02  0.51100000000E-03 0.  1.
         11   -1    0    0    0    0 -0.00000000000E+00 -0.00000000000E+00 -0.45593999997E+02  0.45594000000E+02  0.51100000000E-03 0. -1.
    9900012    2    1    2    0    0  0.10245078124E+02  0.36038630094E+02 -0.21906136608E+02  0.47787270676E+02  0.19999998318E+02 0.  0.
        -12    1    1    2    0    0 -0.10245078124E+02 -0.36038630094E+02  0.21906136608E+02  0.43400729324E+02  0.00000000000E+00 0.  1.
         11    1    3    3    0    0  0.88149580057E+01  0.13429214495E+02 -0.17678761421E+02  0.23886939784E+02  0.51100000000E-03 0. -1.
        -11    1    3    3    0    0  0.11819944880E+00  0.15792174183E+01 -0.22295710813E+01  0.27347552416E+01  0.51100000000E-03 0.  1.
        -12    1    3    3    0    0  0.13119206696E+01  0.21030198181E+02 -0.19978041057E+01  0.21165575650E+02  0.00000000000E+00 0.  1.
</event>
<event>
 7    1  0.4630495E-010  0.4778727E+02  0.7816164E-02  0.1312668E+00
        -11   -1    0    0    0    0  0.00000000000E+00  0.00000000000E+00  0.45593999997E+02  0.45594000000E+02  0.51100000000E-03 0.  1.
         11   -1    0    0    0    0 -0.00000000000E+00 -0.00000000000E+00 -0.45593999997E+02  0.45594000000E+02  0.51100000000E-03 0. -1.
    9900012    2    1    2    0    0 -0.48284586943E+01 -0.21159480457E+02 -0.37584381054E+02  0.47787270447E+02  0.19999997274E+02 0.  0.
        -12    1    1    2    0    0  0.48284586943E+01  0.21159480457E+02  0.37584381054E+02  0.43400729553E+02  0.00000000000E+00 0.  1.
         11    1    3    3    0    0  0.29181899502E+01 -0.63279116080E+01 -0.71424539421E+01  0.99786244783E+01  0.51100000000E-03 0. -1.
        -11    1    3    3    0    0 -0.45336142610E+01 -0.10722171691E+02 -0.30442346480E+02  0.32592254962E+02  0.51100000000E-03 0.  1.
        -12    1    3    3    0    0 -0.32130343834E+01 -0.41093971583E+01  0.41936847838E-03  0.52163910062E+01  0.00000000000E+00 0.  1.
</event>
<event>
 7    1  0.4630495E-010  0.4778727E+02  0.7816164E-02  0.1312668E+00
        -11   -1    0    0    0    0  0.00000000000E+00  0.00000000000E+00  0.45593999997E+02  0.45594000000E+02  0.51100000000E-03 0.  1.
         11   -1    0    0    0    0 -0.00000000000E+00 -0.00000000000E+00 -0.45593999997E+02  0.45594000000E+02  0.51100000000E-03 0. -1.
    9900012    2    1    2    0    0 -0.41659738300E+02 -0.73404469263E+01 -0.97060343521E+01  0.47787273518E+02  0.20000011278E+02 0.  0.
        -12    1    1    2    0    0  0.41659738300E+02  0.73404469263E+01  0.97060343521E+01  0.43400726482E+02  0.00000000000E+00 0.  1.
         11    1    3    3    0    0 -0.17113398323E+02 -0.75957597372E+01 -0.89545525998E+01  0.20754468933E+02  0.51100000000E-03 0. -1.
        -11    1    3    3    0    0 -0.14842549566E+02  0.28458969900E+01 -0.52890867214E+01  0.16011709650E+02  0.51100000000E-03 0.  1.
         12    1    3    3    0    0 -0.97037904106E+01 -0.25905841791E+01  0.45376049691E+01  0.11021094935E+02  0.00000000000E+00 0. -1.
</event>
<event>
 7    1  0.4630495E-010  0.4778727E+02  0.7816164E-02  0.1312668E+00
        -11   -1    0    0    0    0  0.00000000000E+00  0.00000000000E+00  0.45593999997E+02  0.45594000000E+02  0.51100000000E-03 0.  1.
         11   -1    0    0    0    0 -0.00000000000E+00 -0.00000000000E+00 -0.45593999997E+02  0.45594000000E+02  0.51100000000E-03 0. -1.
    9900012    2    1    2    0    0 -0.18852899081E+02 -0.43773563741E+01 -0.38846235199E+02  0.47787273719E+02  0.20000012195E+02 0.  0.
        -12    1    1    2    0    0  0.18852899081E+02  0.43773563741E+01  0.38846235199E+02  0.43400726281E+02  0.00000000000E+00 0.  1.
         11    1    3    3    0    0 -0.85709274252E+01 -0.61241511708E+01 -0.74717021719E+01  0.12914811578E+02  0.51100000000E-03 0. -1.
        -11    1    3    3    0    0 -0.12115270352E+02 -0.29069934418E+00 -0.22139620623E+02  0.25239395464E+02  0.51100000000E-03 0.  1.
         12    1    3    3    0    0  0.18332986965E+01  0.20374941409E+01 -0.92349124045E+01  0.96330666770E+01  0.00000000000E+00 0. -1.
</event>
<event>
 7    1  0.4630495E-010  0.4778727E+02  0.7816164E-02  0.1312668E+00
        -11   -1    0    0    0    0  0.00000000000E+00  0.00000000000E+00  0.45593999997E+02  0.45594000000E+02  0.51100000000E-03 0.  1.
         11   -1    0    0    0    0 -0.00000000000E+00 -0.00000000000E+00 -0.45593999997E+02  0.45594000000E+02  0.51100000000E-03 0. -1.
    9900012    2    1    2    0    0 -0.23202157844E+02 -0.29948446673E+02  0.21174837761E+02  0.47787270272E+02  0.19999996476E+02 0.  0.
        -12    1    1    2    0    0  0.23202157844E+02  0.29948446673E+02 -0.21174837761E+02  0.43400729728E+02  0.00000000000E+00 0.  1.
         11    1    3    3    0    0 -0.32755244121E+01 -0.12019503515E+02  0.26354087110E+00  0.12460617118E+02  0.51100000000E-03 0. -1.
        -11    1    3    3    0    0 -0.29397405691E+01 -0.81708206423E+01  0.84035255788E+01  0.12084023626E+02  0.51100000000E-03 0.  1.
        -12    1    3    3    0    0 -0.16986892863E+02 -0.97581225163E+01  0.12507771311E+02  0.23242629527E+02  0.00000000000E+00 0.  1.
</event>
<event>
 7    1  0.4630495E-010  0.4778728E+02  0.7816164E-02  0.1312668E+00
        -11   -1    0    0    0    0  0.00000000000E+00  0.00000000000E+00  0.45593999997E+02  0.45594000000E+02  0.51100000000E-03 0.  1.
         11   -1    0    0    0    0 -0.00000000000E+00 -0.00000000000E+00 -0.45593999997E+02  0.45594000000E+02  0.51100000000E-03 0. -1.
    9900012    2    1    2    0    0 -0.33225417206E+02 -0.49497907259E+01 -0.27480785422E+02  0.47787281755E+02  0.20000048835E+02 0.  0.
        -12    1    1    2    0    0  0.33225417206E+02  0.49497907259E+01  0.27480785422E+02  0.43400718245E+02  0.00000000000E+00 0.  1.
         11    1    3    3    0    0 -0.25133040017E+02 -0.49281863553E+01 -0.12032608912E+02  0.28297356745E+02  0.51100000000E-03 0. -1.
        -11    1    3    3    0    0 -0.97024128634E+01 -0.64757290530E+00 -0.10807498060E+02  0.14538162904E+02  0.51100000000E-03 0.  1.
        -12    1    3    3    0    0  0.16100356746E+01  0.62596853469E+00 -0.46406784506E+01  0.49517621067E+01  0.00000000000E+00 0.  1.
</event>
<event>
 7    1  0.4630495E-010  0.4778733E+02  0.7816164E-02  0.1312668E+00
        -11   -1    0    0    0    0  0.00000000000E+00  0.00000000000E+00  0.45593999997E+02  0.45594000000E+02  0.51100000000E-03 0. -1.
         11   -1    0    0    0    0 -0.00000000000E+00 -0.00000000000E+00 -0.45593999997E+02  0.45594000000E+02  0.51100000000E-03 0.  1.
    9900012    2    1    2    0    0 -0.67762485884E+01  0.41089410461E+02  0.12221339596E+02  0.47787327903E+02  0.20000259240E+02 0.  0.
        -12    1    1    2    0    0  0.67762485884E+01 -0.41089410461E+02 -0.12221339596E+02  0.43400672097E+02  0.00000000000E+00 0.  1.
         11    1    3    3    0    0  0.50158166646E+01  0.13477996633E+02  0.91672829310E+01  0.17054438914E+02  0.51100000000E-03 0. -1.
        -11    1    3    3    0    0 -0.10014897052E+01  0.85737086710E+01 -0.40183733078E-01  0.86320957477E+01  0.51100000000E-03 0.  1.
         12    1    3    3    0    0 -0.10790575548E+02  0.19037705156E+02  0.30942403983E+01  0.22100793242E+02  0.00000000000E+00 0. -1.
</event>
<event>
 7    1  0.4630495E-010  0.4778726E+02  0.7816164E-02  0.1312668E+00
        -11   -1    0    0    0    0  0.00000000000E+00  0.00000000000E+00  0.45593999997E+02  0.45594000000E+02  0.51100000000E-03 0.  1.
         11   -1    0    0    0    0 -0.00000000000E+00 -0.00000000000E+00 -0.45593999997E+02  0.45594000000E+02  0.51100000000E-03 0. -1.
    9900012    2    1    2    0    0 -0.25417428659E+02 -0.14866816440E+02 -0.31883473855E+02  0.47787264802E+02  0.19999971539E+02 0.  0.
        -12    1    1    2    0    0  0.25417428659E+02  0.14866816440E+02  0.31883473855E+02  0.43400735198E+02  0.00000000000E+00 0.  1.
         11    1    3    3    0    0 -0.58177819715E+01  0.68247368213E+00 -0.10148801489E+02  0.11717957557E+02  0.51100000000E-03 0. -1.
        -11    1    3    3    0    0 -0.84073820231E+00 -0.48875218130E+01 -0.10790100048E+02  0.11875225030E+02  0.51100000000E-03 0.  1.
        -12    1    3    3    0    0 -0.18758908485E+02 -0.10661768309E+02 -0.10944572318E+02  0.24194082215E+02  0.00000000000E+00 0.  1.
</event>
<event>
 7    1  0.4630495E-010  0.4778727E+02  0.7816164E-02  0.1312668E+00
        -11   -1    0    0    0    0  0.00000000000E+00  0.00000000000E+00  0.45593999997E+02  0.45594000000E+02  0.51100000000E-03 0.  1.
         11   -1    0    0    0    0 -0.00000000000E+00 -0.00000000000E+00 -0.45593999997E+02  0.45594000000E+02  0.51100000000E-03 0. -1.
    9900012    2    1    2    0    0 -0.14121684614E+02  0.40236224896E+02  0.80775893150E+01  0.47787271672E+02  0.20000002863E+02 0.  0.
        -12    1    1    2    0    0  0.14121684614E+02 -0.40236224896E+02 -0.80775893150E+01  0.43400728328E+02  0.00000000000E+00 0.  1.
         11    1    3    3    0    0  0.24160592983E+00 -0.15812455114E+00  0.33597736194E+00  0.44300998618E+00  0.51100000000E-03 0. -1.
        -11    1    3    3    0    0 -0.27365501465E+00  0.23447873953E+02  0.93550121019E+01  0.25246661792E+02  0.51100000000E-03 0.  1.
         12    1    3    3    0    0 -0.14089635529E+02  0.16946475495E+02 -0.16134001489E+01  0.22097599894E+02  0.00000000000E+00 0. -1.
</event>
<event>
 7    1  0.4630495E-010  0.4778727E+02  0.7816164E-02  0.1312668E+00
        -11   -1    0    0    0    0  0.00000000000E+00  0.00000000000E+00  0.45593999997E+02  0.45594000000E+02  0.51100000000E-03 0.  1.
         11   -1    0    0    0    0 -0.00000000000E+00 -0.00000000000E+00 -0.45593999997E+02  0.45594000000E+02  0.51100000000E-03 0. -1.
    9900012    2    1    2    0    0  0.20328194693E+02  0.72544630620E+01 -0.37653161156E+02  0.47787270987E+02  0.19999999740E+02 0.  0.
        -12    1    1    2    0    0 -0.20328194693E+02 -0.72544630620E+01  0.37653161156E+02  0.43400729013E+02  0.00000000000E+00 0.  1.
         11    1    3    3    0    0  0.19804213586E+01  0.30387815136E+01 -0.14889958085E+02  0.15325374837E+02  0.51100000000E-03 0. -1.
        -11    1    3    3    0    0  0.59739160131E+01  0.74928631728E+01 -0.57659905609E+01  0.11183797140E+02  0.51100000000E-03 0.  1.
         12    1    3    3    0    0  0.12373857321E+02 -0.32771816244E+01 -0.16997212510E+02  0.21278099011E+02  0.00000000000E+00 0. -1.
</event>
<event>
 7    1  0.4630495E-010  0.4778727E+02  0.7816164E-02  0.1312668E+00
        -11   -1    0    0    0    0  0.00000000000E+00  0.00000000000E+00  0.45593999997E+02  0.45594000000E+02  0.51100000000E-03 0.  1.
         11   -1    0    0    0    0 -0.00000000000E+00 -0.00000000000E+00 -0.45593999997E+02  0.45594000000E+02  0.51100000000E-03 0. -1.
    9900012    2    1    2    0    0 -0.69891721942E+01 -0.39551515066E+02 -0.16445439266E+02  0.47787270230E+02  0.19999996286E+02 0.  0.
        -12    1    1    2    0    0  0.69891721942E+01  0.39551515066E+02  0.16445439266E+02  0.43400729770E+02  0.00000000000E+00 0.  1.
         11    1    3    3    0    0 -0.48799875136E+01 -0.15709104906E+02 -0.78866516617E+01  0.18242519830E+02  0.51100000000E-03 0. -1.
        -11    1    3    3    0    0  0.48120888891E+01 -0.31790066590E+01  0.81086665860E+00  0.58240696952E+01  0.51100000000E-03 0.  1.
        -12    1    3    3    0    0 -0.69212735697E+01 -0.20663403501E+02 -0.93696542626E+01  0.23720680704E+02  0.00000000000E+00 0.  1.
</event>
<event>
 7    1  0.4630495E-010  0.4778727E+02  0.7816164E-02  0.1312668E+00
        -11   -1    0    0    0    0  0.00000000000E+00  0.00000000000E+00  0.45593999997E+02  0.45594000000E+02  0.51100000000E-03 0.  1.
         11   -1    0    0    0    0 -0.00000000000E+00 -0.00000000000E+00 -0.45593999997E+02  0.45594000000E+02  0.51100000000E-03 0. -1.
    9900012    2    1    2    0    0 -0.11988537855E+02 -0.10006927123E+02 -0.40493947558E+02  0.47787269371E+02  0.19999992370E+02 0.  0.
        -12    1    1    2    0    0  0.11988537855E+02  0.10006927123E+02  0.40493947558E+02  0.43400730629E+02  0.00000000000E+00 0.  1.
         11    1    3    3    0    0 -0.56051848867E+00  0.45385168286E+00 -0.13870959962E+01  0.15633930696E+01  0.51100000000E-03 0. -1.
        -11    1    3    3    0    0 -0.64471419063E+01  0.25337630766E-03 -0.11639204552E+01  0.65513624470E+01  0.51100000000E-03 0.  1.
         12    1    3    3    0    0 -0.49808774595E+01 -0.10461032182E+02 -0.37942931106E+02  0.39672513854E+02  0.00000000000E+00 0. -1.
</event>
<event>
 7    1  0.4630495E-010  0.4778726E+02  0.7816164E-02  0.1312668E+00
        -11   -1    0    0    0    0  0.00000000000E+00  0.00000000000E+00  0.45593999997E+02  0.45594000000E+02  0.51100000000E-03 0. -1.
         11   -1    0    0    0    0 -0.00000000000E+00 -0.00000000000E+00 -0.45593999997E+02  0.45594000000E+02  0.51100000000E-03 0.  1.
    9900012    2    1    2    0    0 -0.11882411405E+02  0.18761448409E+02  0.37288613908E+02  0.47787258366E+02  0.19999942196E+02 0.  0.
        -12    1    1    2    0    0  0.11882411405E+02 -0.18761448409E+02 -0.37288613908E+02  0.43400741634E+02  0.00000000000E+00 0.  1.
         11    1    3    3    0    0 -0.61268801653E+01  0.20832834990E+01  0.35831940664E+01  0.73971623394E+01  0.51100000000E-03 0. -1.
        -11    1    3    3    0    0 -0.16561029394E+01 -0.10694835473E+01 -0.11683656303E+00  0.19748729193E+01  0.51100000000E-03 0.  1.
         12    1    3    3    0    0 -0.40994283002E+01  0.17747648457E+02  0.33822256404E+02  0.38415223108E+02  0.00000000000E+00 0. -1.
</event>
<event>
 7    1  0.5649245E-010  0.4778728E+02  0.7816164E-02  0.1312668E+00
        -11   -1    0    0    0    0  0.00000000000E+00  0.00000000000E+00  0.45593999997E+02  0.45594000000E+02  0.51100000000E-03 0.  1.
         11   -1    0    0    0    0 -0.00000000000E+00 -0.00000000000E+00 -0.45593999997E+02  0.45594000000E+02  0.51100000000E-03 0. -1.
    9900012    2    1    2    0    0  0.89320905262E+00  0.40020494622E+02 -0.16768561992E+02  0.47787280150E+02  0.20000041515E+02 0.  0.
        -12    1    1    2    0    0 -0.89320905262E+00 -0.40020494622E+02  0.16768561992E+02  0.43400719850E+02  0.00000000000E+00 0.  1.
         11    1    3    3    0    0  0.42056754972E+01  0.35885859419E+01 -0.16832338024E+01  0.57791808887E+01  0.51100000000E-03 0. -1.
        -11    1    3    3    0    0 -0.36932357090E+01  0.32315786106E+01 -0.56650959247E+01  0.74950918884E+01  0.51100000000E-03 0.  1.
         12    1    3    3    0    0  0.38076926448E+00  0.33200330070E+02 -0.94202322651E+01  0.34513007373E+02  0.00000000000E+00 0. -1.
</event>
<event>
 7    1  0.4630495E-010  0.4778727E+02  0.7816164E-02  0.1312668E+00
        -11   -1    0    0    0    0  0.00000000000E+00  0.00000000000E+00  0.45593999997E+02  0.45594000000E+02  0.51100000000E-03 0.  1.
         11   -1    0    0    0    0 -0.00000000000E+00 -0.00000000000E+00 -0.45593999997E+02  0.45594000000E+02  0.51100000000E-03 0. -1.
    9900012    2    1    2    0    0 -0.42220059622E+02  0.94205020455E+01 -0.35134248232E+01  0.47787269047E+02  0.19999990892E+02 0.  0.
        -12    1    1    2    0    0  0.42220059622E+02 -0.94205020455E+01  0.35134248232E+01  0.43400730953E+02  0.00000000000E+00 0.  1.
         11    1    3    3    0    0 -0.13212303891E+01 -0.25782362854E+01 -0.42358295275E+01  0.51317837183E+01  0.51100000000E-03 0.  1.
        -11    1    3    3    0    0 -0.90514343195E+01  0.20129443967E+01  0.65561670845E-01  0.92727939144E+01  0.51100000000E-03 0. -1.
        -12    1    3    3    0    0 -0.31847394914E+02  0.99857939342E+01  0.65684303347E+00  0.33382691414E+02  0.00000000000E+00 0.  1.
</event>
<event>
 7    1  0.4630495E-010  0.4778727E+02  0.7816164E-02  0.1312668E+00
        -11   -1    0    0    0    0  0.00000000000E+00  0.00000000000E+00  0.45593999997E+02  0.45594000000E+02  0.51100000000E-03 0. -1.
         11   -1    0    0    0    0 -0.00000000000E+00 -0.00000000000E+00 -0.45593999997E+02  0.45594000000E+02  0.51100000000E-03 0.  1.
    9900012    2    1    2    0    0 -0.42688120764E+02 -0.77432786115E+01  0.11787228221E+01  0.47787269528E+02  0.19999993087E+02 0.  0.
        -12    1    1    2    0    0  0.42688120764E+02  0.77432786115E+01 -0.11787228221E+01  0.43400730472E+02  0.00000000000E+00 0.  1.
         11    1    3    3    0    0 -0.22029272989E+01 -0.54317300439E+01  0.51241279021E+00  0.58838037937E+01  0.51100000000E-03 0. -1.
        -11    1    3    3    0    0 -0.13114458006E+02 -0.57333226476E+01  0.62721834720E-01  0.14313068562E+02  0.51100000000E-03 0.  1.
         12    1    3    3    0    0 -0.27370735459E+02  0.34217740801E+01  0.60358819712E+00  0.27590397172E+02  0.00000000000E+00 0. -1.
</event>
<event>
 7    1  0.4630495E-010  0.4778727E+02  0.7816164E-02  0.1312668E+00
        -11   -1    0    0    0    0  0.00000000000E+00  0.00000000000E+00  0.45593999997E+02  0.45594000000E+02  0.51100000000E-03 0.  1.
         11   -1    0    0    0    0 -0.00000000000E+00 -0.00000000000E+00 -0.45593999997E+02  0.45594000000E+02  0.51100000000E-03 0. -1.
    9900012    2    1    2    0    0  0.15576640197E+02  0.15854211862E+02 -0.37277811381E+02  0.47787274488E+02  0.20000015702E+02 0.  0.
        -12    1    1    2    0    0 -0.15576640197E+02 -0.15854211862E+02  0.37277811381E+02  0.43400725512E+02  0.00000000000E+00 0.  1.
         11    1    3    3    0    0 -0.19790306075E+01 -0.26984257649E+01 -0.35935859156E+01  0.49103893683E+01  0.51100000000E-03 0. -1.
        -11    1    3    3    0    0 -0.45196669959E+00  0.19452703912E+01 -0.31659609395E+01  0.37432151587E+01  0.51100000000E-03 0.  1.
         12    1    3    3    0    0  0.18007637504E+02  0.16607367236E+02 -0.30518264526E+02  0.39133669961E+02  0.00000000000E+00 0. -1.
</event>
<event>
 7    1  0.4630495E-010  0.4778728E+02  0.7816164E-02  0.1312668E+00
        -11   -1    0    0    0    0  0.00000000000E+00  0.00000000000E+00  0.45593999997E+02  0.45594000000E+02  0.51100000000E-03 0.  1.
         11   -1    0    0    0    0 -0.00000000000E+00 -0.00000000000E+00 -0.45593999997E+02  0.45594000000E+02  0.51100000000E-03 0. -1.
    9900012    2    1    2    0    0  0.28799028874E+00  0.37160653567E+02 -0.22419315121E+02  0.47787276476E+02  0.20000024763E+02 0.  0.
        -12    1    1    2    0    0 -0.28799028874E+00 -0.37160653567E+02  0.22419315121E+02  0.43400723524E+02  0.00000000000E+00 0.  1.
         11    1    3    3    0    0 -0.24930214371E+01  0.88577512718E+01 -0.42017484578E+01  0.10115809599E+02  0.51100000000E-03 0. -1.
        -11    1    3    3    0    0 -0.18879424915E+01  0.85999742205E+00 -0.76000512355E+01  0.78781153495E+01  0.51100000000E-03 0.  1.
        -12    1    3    3    0    0  0.46689542174E+01  0.27442904873E+02 -0.10617515428E+02  0.29793351527E+02  0.00000000000E+00 0.  1.
</event>
<event>
 7    1  0.4630495E-010  0.4778728E+02  0.7816164E-02  0.1312668E+00
        -11   -1    0    0    0    0  0.00000000000E+00  0.00000000000E+00  0.45593999997E+02  0.45594000000E+02  0.51100000000E-03 0.  1.
         11   -1    0    0    0    0 -0.00000000000E+00 -0.00000000000E+00 -0.45593999997E+02  0.45594000000E+02  0.51100000000E-03 0. -1.
    9900012    2    1    2    0    0 -0.21131960294E+02  0.31057360851E+02 -0.21737141622E+02  0.47787277255E+02  0.20000028317E+02 0.  0.
        -12    1    1    2    0    0  0.21131960294E+02 -0.31057360851E+02  0.21737141622E+02  0.43400722745E+02  0.00000000000E+00 0.  1.
         11    1    3    3    0    0 -0.23362415154E+01  0.75250653054E+01 -0.19335491008E+01  0.81131525719E+01  0.51100000000E-03 0. -1.
        -11    1    3    3    0    0 -0.11330587420E+02  0.24040909701E+02 -0.17590742849E+02  0.31871331706E+02  0.51100000000E-03 0.  1.
         12    1    3    3    0    0 -0.74651313592E+01 -0.50861415516E+00 -0.22128496722E+01  0.78027929770E+01  0.00000000000E+00 0. -1.
</event>
<event>
 7    1  0.4630495E-010  0.4778727E+02  0.7816164E-02  0.1312668E+00
        -11   -1    0    0    0    0  0.00000000000E+00  0.00000000000E+00  0.45593999997E+02  0.45594000000E+02  0.51100000000E-03 0.  1.
         11   -1    0    0    0    0 -0.00000000000E+00 -0.00000000000E+00 -0.45593999997E+02  0.45594000000E+02  0.51100000000E-03 0. -1.
    9900012    2    1    2    0    0 -0.28967486888E+02  0.21075522486E+02 -0.24501637230E+02  0.47787272223E+02  0.20000005373E+02 0.  0.
        -12    1    1    2    0    0  0.28967486888E+02 -0.21075522486E+02  0.24501637230E+02  0.43400727777E+02  0.00000000000E+00 0.  1.
         11    1    3    3    0    0 -0.98664861141E+01  0.63237871501E+01 -0.15546691554E+02  0.19468884167E+02  0.51100000000E-03 0. -1.
        -11    1    3    3    0    0 -0.25438878590E+01  0.86435452690E+01 -0.47109741879E+01  0.10167375193E+02  0.51100000000E-03 0.  1.
         12    1    3    3    0    0 -0.16557112915E+02  0.61081900664E+01 -0.42439714879E+01  0.18151012863E+02  0.00000000000E+00 0. -1.
</event>
<event>
 7    1  0.4630495E-010  0.4778727E+02  0.7816164E-02  0.1312668E+00
        -11   -1    0    0    0    0  0.00000000000E+00  0.00000000000E+00  0.45593999997E+02  0.45594000000E+02  0.51100000000E-03 0. -1.
         11   -1    0    0    0    0 -0.00000000000E+00 -0.00000000000E+00 -0.45593999997E+02  0.45594000000E+02  0.51100000000E-03 0.  1.
    9900012    2    1    2    0    0  0.28904925448E+02  0.15130031036E+02  0.28621857810E+02  0.47787270757E+02  0.19999998689E+02 0.  0.
        -12    1    1    2    0    0 -0.28904925448E+02 -0.15130031036E+02 -0.28621857810E+02  0.43400729243E+02  0.00000000000E+00 0.  1.
         11    1    3    3    0    0 -0.15818150245E+00  0.37986582643E+01  0.23988704242E+01  0.44954872450E+01  0.51100000000E-03 0. -1.
        -11    1    3    3    0    0  0.20314182365E+02  0.14007231805E+02  0.22569612661E+02  0.33440334387E+02  0.51100000000E-03 0.  1.
        -12    1    3    3    0    0  0.87489245862E+01 -0.26758590334E+01  0.36533747253E+01  0.98514491251E+01  0.00000000000E+00 0.  1.
</event>
<event>
 7    1  0.4630495E-010  0.4778727E+02  0.7816164E-02  0.1312668E+00
        -11   -1    0    0    0    0  0.00000000000E+00  0.00000000000E+00  0.45593999997E+02  0.45594000000E+02  0.51100000000E-03 0. -1.
         11   -1    0    0    0    0 -0.00000000000E+00 -0.00000000000E+00 -0.45593999997E+02  0.45594000000E+02  0.51100000000E-03 0.  1.
    9900012    2    1    2    0    0 -0.32366193328E+02 -0.27685232473E+02 -0.83415168210E+01  0.47787268779E+02  0.19999989671E+02 0.  0.
        -12    1    1    2    0    0  0.32366193328E+02  0.27685232473E+02  0.83415168210E+01  0.43400731221E+02  0.00000000000E+00 0.  1.
         11    1    3    3    0    0 -0.12958421837E+02 -0.45410775477E+01  0.35672645205E+01  0.14186876267E+02  0.51100000000E-03 0. -1.
        -11    1    3    3    0    0 -0.98564581627E+01 -0.75308799242E+01 -0.13688239821E+01  0.12479487141E+02  0.51100000000E-03 0.  1.
        -12    1    3    3    0    0 -0.95513133284E+01 -0.15613275001E+02 -0.10539957359E+02  0.21120905371E+02  0.00000000000E+00 0.  1.
</event>
<event>
 7    1  0.4630495E-010  0.4778727E+02  0.7816164E-02  0.1312668E+00
        -11   -1    0    0    0    0  0.00000000000E+00  0.00000000000E+00  0.45593999997E+02  0.45594000000E+02  0.51100000000E-03 0.  1.
         11   -1    0    0    0    0 -0.00000000000E+00 -0.00000000000E+00 -0.45593999997E+02  0.45594000000E+02  0.51100000000E-03 0. -1.
    9900012    2    1    2    0    0  0.32791478632E+02 -0.26013317104E+02 -0.11473867332E+02  0.47787269946E+02  0.19999994994E+02 0.  0.
        -12    1    1    2    0    0 -0.32791478632E+02  0.26013317104E+02  0.11473867332E+02  0.43400730054E+02  0.00000000000E+00 0.  1.
         11    1    3    3    0    0  0.12716036661E+02 -0.80177008876E+01 -0.16146844029E+01  0.15119137603E+02  0.51100000000E-03 0. -1.
        -11    1    3    3    0    0 -0.10829129415E+01 -0.68336630599E+01 -0.41716369913E+01  0.80792454291E+01  0.51100000000E-03 0.  1.
         12    1    3    3    0    0  0.21158354913E+02 -0.11161953156E+02 -0.56875459378E+01  0.24588886914E+02  0.00000000000E+00 0. -1.
</event>
<event>
 7    1  0.7853179E-010  0.4778733E+02  0.7816164E-02  0.1312667E+00
        -11   -1    0    0    0    0  0.00000000000E+00  0.00000000000E+00  0.45593999997E+02  0.45594000000E+02  0.51100000000E-03 0.  1.
         11   -1    0    0    0    0 -0.00000000000E+00 -0.00000000000E+00 -0.45593999997E+02  0.45594000000E+02  0.51100000000E-03 0. -1.
    9900012    2    1    2    0    0 -0.35929321116E+02 -0.81493027498E+01 -0.22941028860E+02  0.47787331153E+02  0.20000274057E+02 0.  0.
        -12    1    1    2    0    0  0.35929321116E+02  0.81493027498E+01  0.22941028860E+02  0.43400668847E+02  0.00000000000E+00 0.  1.
         11    1    3    3    0    0 -0.11662354007E+02 -0.52879759353E+01 -0.97070956127E+01  0.16068630806E+02  0.51100000000E-03 0. -1.
        -11    1    3    3    0    0 -0.58115982568E+00 -0.38917727303E+01  0.10075750868E+01  0.40618775885E+01  0.51100000000E-03 0.  1.
         12    1    3    3    0    0 -0.23685807283E+02  0.10304459158E+01 -0.14241508334E+02  0.27656822758E+02  0.00000000000E+00 0. -1.
</event>
<event>
 7    1  0.4630495E-010  0.4778728E+02  0.7816164E-02  0.1312668E+00
        -11   -1    0    0    0    0  0.00000000000E+00  0.00000000000E+00  0.45593999997E+02  0.45594000000E+02  0.51100000000E-03 0. -1.
         11   -1    0    0    0    0 -0.00000000000E+00 -0.00000000000E+00 -0.45593999997E+02  0.45594000000E+02  0.51100000000E-03 0.  1.
    9900012    2    1    2    0    0 -0.13756257388E+02  0.41069760322E+02  0.27680957179E+01  0.47787283599E+02  0.20000057241E+02 0.  0.
        -12    1    1    2    0    0  0.13756257388E+02 -0.41069760322E+02 -0.27680957179E+01  0.43400716401E+02  0.00000000000E+00 0.  1.
         11    1    3    3    0    0 -0.18326265685E+00  0.86208135988E+01  0.47054773820E+00  0.86355907581E+01  0.51100000000E-03 0. -1.
        -11    1    3    3    0    0  0.24385659096E+01  0.13555372824E+02  0.39581193410E+01  0.14330437714E+02  0.51100000000E-03 0.  1.
         12    1    3    3    0    0 -0.16011560641E+02  0.18893573899E+02 -0.16605713613E+01  0.24821255127E+02  0.00000000000E+00 0. -1.
</event>
<event>
 7    1  0.4630495E-010  0.4778727E+02  0.7816164E-02  0.1312668E+00
        -11   -1    0    0    0    0  0.00000000000E+00  0.00000000000E+00  0.45593999997E+02  0.45594000000E+02  0.51100000000E-03 0.  1.
         11   -1    0    0    0    0 -0.00000000000E+00 -0.00000000000E+00 -0.45593999997E+02  0.45594000000E+02  0.51100000000E-03 0. -1.
    9900012    2    1    2    0    0 -0.11032894059E+02 -0.33748921841E+02 -0.24958137764E+02  0.47787272848E+02  0.20000008222E+02 0.  0.
        -12    1    1    2    0    0  0.11032894059E+02  0.33748921841E+02  0.24958137764E+02  0.43400727152E+02  0.00000000000E+00 0.  1.
         11    1    3    3    0    0 -0.84823847584E+01 -0.23334863280E+02 -0.14383223661E+02  0.28693968332E+02  0.51100000000E-03 0. -1.
        -11    1    3    3    0    0 -0.59498944188E+01 -0.73575035858E+01 -0.24559140868E+01  0.97757668176E+01  0.51100000000E-03 0.  1.
        -12    1    3    3    0    0  0.33993851186E+01 -0.30565549746E+01 -0.81190000159E+01  0.93175376981E+01  0.00000000000E+00 0.  1.
</event>
<event>
 7    1  0.4630495E-010  0.4778727E+02  0.7816164E-02  0.1312668E+00
        -11   -1    0    0    0    0  0.00000000000E+00  0.00000000000E+00  0.45593999997E+02  0.45594000000E+02  0.51100000000E-03 0.  1.
         11   -1    0    0    0    0 -0.00000000000E+00 -0.00000000000E+00 -0.45593999997E+02  0.45594000000E+02  0.51100000000E-03 0. -1.
    9900012    2    1    2    0    0  0.28389641969E+02  0.26352100297E+01 -0.32721660072E+02  0.47787272577E+02  0.20000006986E+02 0.  0.
        -12    1    1    2    0    0 -0.28389641969E+02 -0.26352100297E+01  0.32721660072E+02  0.43400727423E+02  0.00000000000E+00 0.  1.
         11    1    3    3    0    0  0.15464725503E+01 -0.69111015531E+00 -0.89931679102E+01  0.91512993568E+01  0.51100000000E-03 0.  1.
        -11    1    3    3    0    0  0.11190655522E+02  0.83377840112E+01 -0.12464168637E+02  0.18711090650E+02  0.51100000000E-03 0. -1.
        -12    1    3    3    0    0  0.15652513896E+02 -0.50114638262E+01 -0.11264323525E+02  0.19924882570E+02  0.00000000000E+00 0.  1.
</event>
<event>
 7    1  0.4630495E-010  0.4778728E+02  0.7816164E-02  0.1312668E+00
        -11   -1    0    0    0    0  0.00000000000E+00  0.00000000000E+00  0.45593999997E+02  0.45594000000E+02  0.51100000000E-03 0.  1.
         11   -1    0    0    0    0 -0.00000000000E+00 -0.00000000000E+00 -0.45593999997E+02  0.45594000000E+02  0.51100000000E-03 0. -1.
    9900012    2    1    2    0    0 -0.99745151380E+01 -0.12197312898E+02 -0.40439552095E+02  0.47787276874E+02  0.20000026581E+02 0.  0.
        -12    1    1    2    0    0  0.99745151380E+01  0.12197312898E+02  0.40439552095E+02  0.43400723126E+02  0.00000000000E+00 0.  1.
         11    1    3    3    0    0 -0.45086801083E+01 -0.58944812947E+01 -0.43632288539E+01  0.86087671792E+01  0.51100000000E-03 0. -1.
        -11    1    3    3    0    0 -0.20071912423E+00  0.15447001875E+01  0.30724323873E+00  0.15876981782E+01  0.51100000000E-03 0.  1.
         12    1    3    3    0    0 -0.52651159055E+01 -0.78475317911E+01 -0.36383566480E+02  0.37590811517E+02  0.00000000000E+00 0. -1.
</event>
<event>
 7    1  0.4630495E-010  0.4778727E+02  0.7816164E-02  0.1312668E+00
        -11   -1    0    0    0    0  0.00000000000E+00  0.00000000000E+00  0.45593999997E+02  0.45594000000E+02  0.51100000000E-03 0.  1.
         11   -1    0    0    0    0 -0.00000000000E+00 -0.00000000000E+00 -0.45593999997E+02  0.45594000000E+02  0.51100000000E-03 0. -1.
    9900012    2    1    2    0    0 -0.11119046904E+02 -0.36498857739E+02 -0.20683895689E+02  0.47787270039E+02  0.19999995415E+02 0.  0.
        -12    1    1    2    0    0  0.11119046904E+02  0.36498857739E+02  0.20683895689E+02  0.43400729961E+02  0.00000000000E+00 0.  1.
         11    1    3    3    0    0 -0.10281388004E+02 -0.20014375084E+02 -0.12377248825E+02  0.25680312265E+02  0.51100000000E-03 0. -1.
        -11    1    3    3    0    0 -0.29035206031E+01 -0.12355804173E+02 -0.10970887878E+02  0.16776671593E+02  0.51100000000E-03 0.  1.
        -12    1    3    3    0    0  0.20658617035E+01 -0.41286784815E+01  0.26642410142E+01  0.53302861803E+01  0.00000000000E+00 0.  1.
</event>
<event>
 7    1  0.4630495E-010  0.4778727E+02  0.7816164E-02  0.1312668E+00
        -11   -1    0    0    0    0  0.00000000000E+00  0.00000000000E+00  0.45593999997E+02  0.45594000000E+02  0.51100000000E-03 0. -1.
         11   -1    0    0    0    0 -0.00000000000E+00 -0.00000000000E+00 -0.45593999997E+02  0.45594000000E+02  0.51100000000E-03 0.  1.
    9900012    2    1    2    0    0 -0.25798882858E+02  0.33734431245E+02  0.89459015085E+01  0.47787270030E+02  0.19999995374E+02 0.  0.
        -12    1    1    2    0    0  0.25798882858E+02 -0.33734431245E+02 -0.89459015085E+01  0.43400729970E+02  0.00000000000E+00 0.  1.
         11    1    3    3    0    0 -0.75888309963E+01  0.56344445772E+01  0.59779949139E+01  0.11183637379E+02  0.51100000000E-03 0. -1.
        -11    1    3    3    0    0 -0.13221197276E+02  0.17474164922E+02 -0.49240345354E+01  0.22458686816E+02  0.51100000000E-03 0.  1.
         12    1    3    3    0    0 -0.49888545850E+01  0.10625821746E+02  0.78919411300E+01  0.14144945834E+02  0.00000000000E+00 0. -1.
</event>
<event>
 7    1  0.4630495E-010  0.4778725E+02  0.7816164E-02  0.1312668E+00
        -11   -1    0    0    0    0  0.00000000000E+00  0.00000000000E+00  0.45593999997E+02  0.45594000000E+02  0.51100000000E-03 0.  1.
         11   -1    0    0    0    0 -0.00000000000E+00 -0.00000000000E+00 -0.45593999997E+02  0.45594000000E+02  0.51100000000E-03 0. -1.
    9900012    2    1    2    0    0  0.17538101471E+02 -0.29211501498E+02 -0.26883613575E+02  0.47787245378E+02  0.19999882975E+02 0.  0.
        -12    1    1    2    0    0 -0.17538101471E+02  0.29211501498E+02  0.26883613575E+02  0.43400754622E+02  0.00000000000E+00 0.  1.
         11    1    3    3    0    0  0.56737826665E+01 -0.69367850835E+01 -0.10518398073E+01  0.90231460302E+01  0.51100000000E-03 0.  1.
        -11    1    3    3    0    0  0.12910424487E+02 -0.22549724364E+02 -0.19884996433E+02  0.32719752638E+02  0.51100000000E-03 0. -1.
        -12    1    3    3    0    0 -0.10461056825E+01  0.27500794990E+00 -0.59467773346E+01  0.60443467090E+01  0.00000000000E+00 0.  1.
</event>
<event>
 7    1  0.4630495E-010  0.4778728E+02  0.7816164E-02  0.1312668E+00
        -11   -1    0    0    0    0  0.00000000000E+00  0.00000000000E+00  0.45593999997E+02  0.45594000000E+02  0.51100000000E-03 0. -1.
         11   -1    0    0    0    0 -0.00000000000E+00 -0.00000000000E+00 -0.45593999997E+02  0.45594000000E+02  0.51100000000E-03 0.  1.
    9900012    2    1    2    0    0  0.19558937829E+02 -0.34290055646E+02  0.18035045901E+02  0.47787275975E+02  0.20000022482E+02 0.  0.
        -12    1    1    2    0    0 -0.19558937829E+02  0.34290055646E+02 -0.18035045901E+02  0.43400724025E+02  0.00000000000E+00 0.  1.
         11    1    3    3    0    0 -0.46825295393E+00 -0.67767042164E+01 -0.29533137611E+00  0.67992795022E+01  0.51100000000E-03 0. -1.
        -11    1    3    3    0    0  0.68136469697E+01 -0.20701156264E+02  0.10753741685E+02  0.24302399392E+02  0.51100000000E-03 0.  1.
         12    1    3    3    0    0  0.13213543813E+02 -0.68121951656E+01  0.75766355921E+01  0.16685597082E+02  0.00000000000E+00 0. -1.
</event>
<event>
 7    1  0.4630495E-010  0.4778727E+02  0.7816164E-02  0.1312668E+00
        -11   -1    0    0    0    0  0.00000000000E+00  0.00000000000E+00  0.45593999997E+02  0.45594000000E+02  0.51100000000E-03 0. -1.
         11   -1    0    0    0    0 -0.00000000000E+00 -0.00000000000E+00 -0.45593999997E+02  0.45594000000E+02  0.51100000000E-03 0.  1.
    9900012    2    1    2    0    0  0.99684125043E+00 -0.29998635636E+02  0.31348227390E+02  0.47787271976E+02  0.20000004247E+02 0.  0.
        -12    1    1    2    0    0 -0.99684125043E+00  0.29998635636E+02 -0.31348227390E+02  0.43400728024E+02  0.00000000000E+00 0.  1.
         11    1    3    3    0    0  0.22231982512E+00 -0.15040888088E+02  0.12493637835E+02  0.19554250873E+02  0.51100000000E-03 0. -1.
        -11    1    3    3    0    0 -0.23832809761E+01 -0.44666672058E+01 -0.13583452698E+01  0.52417789224E+01  0.51100000000E-03 0.  1.
         12    1    3    3    0    0  0.31578024014E+01 -0.10491080342E+02  0.20212934825E+02  0.22991242180E+02  0.00000000000E+00 0. -1.
</event>
<event>
 7    1  0.4630495E-010  0.4778727E+02  0.7816164E-02  0.1312668E+00
        -11   -1    0    0    0    0  0.00000000000E+00  0.00000000000E+00  0.45593999997E+02  0.45594000000E+02  0.51100000000E-03 0.  1.
         11   -1    0    0    0    0 -0.00000000000E+00 -0.00000000000E+00 -0.45593999997E+02  0.45594000000E+02  0.51100000000E-03 0. -1.
    9900012    2    1    2    0    0 -0.20841834258E+01  0.88458010593E+01 -0.42438559976E+02  0.47787269709E+02  0.19999993912E+02 0.  0.
        -12    1    1    2    0    0  0.20841834258E+01 -0.88458010593E+01  0.42438559976E+02  0.43400730291E+02  0.00000000000E+00 0.  1.
         11    1    3    3    0    0  0.30164472107E+01 -0.14135075929E+00 -0.13592739321E+02  0.13924133593E+02  0.51100000000E-03 0. -1.
        -11    1    3    3    0    0 -0.41292848223E+00  0.11313971703E+02 -0.24753365009E+02  0.27219580180E+02  0.51100000000E-03 0.  1.
        -12    1    3    3    0    0 -0.46877021543E+01 -0.23268198844E+01 -0.40924556458E+01  0.66435559360E+01  0.00000000000E+00 0.  1.
</event>
<event>
 7    1  0.4630495E-010  0.4778727E+02  0.7816164E-02  0.1312668E+00
        -11   -1    0    0    0    0  0.00000000000E+00  0.00000000000E+00  0.45593999997E+02  0.45594000000E+02  0.51100000000E-03 0. -1.
         11   -1    0    0    0    0 -0.00000000000E+00 -0.00000000000E+00 -0.45593999997E+02  0.45594000000E+02  0.51100000000E-03 0.  1.
    9900012    2    1    2    0    0 -0.41074737330E+01  0.19888816943E+02  0.38356050444E+02  0.47787274367E+02  0.20000015148E+02 0.  0.
        -12    1    1    2    0    0  0.41074737330E+01 -0.19888816943E+02 -0.38356050444E+02  0.43400725633E+02  0.00000000000E+00 0.  1.
         11    1    3    3    0    0  0.64068634828E+00 -0.72033574254E+00  0.28725766951E+01  0.30300263545E+01  0.51100000000E-03 0.  1.
        -11    1    3    3    0    0  0.63356179142E+01  0.57091751455E+01  0.13639838230E+02  0.16086638008E+02  0.51100000000E-03 0. -1.
         12    1    3    3    0    0 -0.11083777995E+02  0.14899977540E+02  0.21843635519E+02  0.28670610004E+02  0.00000000000E+00 0. -1.
</event>
<event>
 7    1  0.4630495E-010  0.4778727E+02  0.7816164E-02  0.1312668E+00
        -11   -1    0    0    0    0  0.00000000000E+00  0.00000000000E+00  0.45593999997E+02  0.45594000000E+02  0.51100000000E-03 0.  1.
         11   -1    0    0    0    0 -0.00000000000E+00 -0.00000000000E+00 -0.45593999997E+02  0.45594000000E+02  0.51100000000E-03 0. -1.
    9900012    2    1    2    0    0  0.29367750403E+02 -0.29632472835E+02 -0.11961391250E+02  0.47787273155E+02  0.20000009621E+02 0.  0.
        -12    1    1    2    0    0 -0.29367750403E+02  0.29632472835E+02  0.11961391250E+02  0.43400726845E+02  0.00000000000E+00 0.  1.
         11    1    3    3    0    0  0.12265637919E+02 -0.22603613635E+02 -0.97465412381E+01  0.27502077909E+02  0.51100000000E-03 0. -1.
        -11    1    3    3    0    0  0.36944568015E+00 -0.28851883265E+01 -0.61467223802E+00  0.29729823429E+01  0.51100000000E-03 0.  1.
        -12    1    3    3    0    0  0.16732666804E+02 -0.41436708733E+01 -0.16001777739E+01  0.17312212903E+02  0.00000000000E+00 0.  1.
</event>
<event>
 7    1  0.4630495E-010  0.4778727E+02  0.7816164E-02  0.1312668E+00
        -11   -1    0    0    0    0  0.00000000000E+00  0.00000000000E+00  0.45593999997E+02  0.45594000000E+02  0.51100000000E-03 0. -1.
         11   -1    0    0    0    0 -0.00000000000E+00 -0.00000000000E+00 -0.45593999997E+02  0.45594000000E+02  0.51100000000E-03 0.  1.
    9900012    2    1    2    0    0 -0.30358654873E+02 -0.28133725282E+02  0.13056372353E+02  0.47787270940E+02  0.19999999526E+02 0.  0.
        -12    1    1    2    0    0  0.30358654873E+02  0.28133725282E+02 -0.13056372353E+02  0.43400729060E+02  0.00000000000E+00 0.  1.
         11    1    3    3    0    0 -0.92884110877E+01 -0.99120591928E+01  0.44669473236E+01  0.14299549525E+02  0.51100000000E-03 0. -1.
        -11    1    3    3    0    0 -0.70676597422E+01 -0.10006832148E+02  0.11719966259E+02  0.16954235849E+02  0.51100000000E-03 0.  1.
         12    1    3    3    0    0 -0.14002584043E+02 -0.82148339412E+01 -0.31305412301E+01  0.16533485566E+02  0.00000000000E+00 0. -1.
</event>
<event>
 7    1  0.4630495E-010  0.4778727E+02  0.7816164E-02  0.1312668E+00
        -11   -1    0    0    0    0  0.00000000000E+00  0.00000000000E+00  0.45593999997E+02  0.45594000000E+02  0.51100000000E-03 0.  1.
         11   -1    0    0    0    0 -0.00000000000E+00 -0.00000000000E+00 -0.45593999997E+02  0.45594000000E+02  0.51100000000E-03 0. -1.
    9900012    2    1    2    0    0 -0.20658939364E+02 -0.36461448802E+02 -0.11286915093E+02  0.47787268708E+02  0.19999989346E+02 0.  0.
        -12    1    1    2    0    0  0.20658939364E+02  0.36461448802E+02  0.11286915093E+02  0.43400731292E+02  0.00000000000E+00 0.  1.
         11    1    3    3    0    0 -0.13358055636E+02 -0.20957826817E+02 -0.79422042016E+00  0.24865617660E+02  0.51100000000E-03 0. -1.
        -11    1    3    3    0    0 -0.58220566048E+01 -0.12004967824E+01 -0.38476977653E+01  0.70811237801E+01  0.51100000000E-03 0.  1.
         12    1    3    3    0    0 -0.14788271229E+01 -0.14303125203E+02 -0.66449969075E+01  0.15840527268E+02  0.00000000000E+00 0. -1.
</event>
<event>
 7    1  0.4630495E-010  0.4778727E+02  0.7816164E-02  0.1312668E+00
        -11   -1    0    0    0    0  0.00000000000E+00  0.00000000000E+00  0.45593999997E+02  0.45594000000E+02  0.51100000000E-03 0. -1.
         11   -1    0    0    0    0 -0.00000000000E+00 -0.00000000000E+00 -0.45593999997E+02  0.45594000000E+02  0.51100000000E-03 0.  1.
    9900012    2    1    2    0    0 -0.10265532368E+02  0.17908974216E+02  0.38177360049E+02  0.47787270368E+02  0.19999996915E+02 0.  0.
        -12    1    1    2    0    0  0.10265532368E+02 -0.17908974216E+02 -0.38177360049E+02  0.43400729632E+02  0.00000000000E+00 0.  1.
         11    1    3    3    0    0 -0.62495378701E+01  0.52618811274E+01  0.21056608114E+02  0.22585943905E+02  0.51100000000E-03 0. -1.
        -11    1    3    3    0    0 -0.71805771105E+01  0.23828088857E+01  0.53480337726E+01  0.92649841511E+01  0.51100000000E-03 0.  1.
         12    1    3    3    0    0  0.31645826130E+01  0.10264284203E+02  0.11772718163E+02  0.15936342311E+02  0.00000000000E+00 0. -1.
</event>
<event>
 7    1  0.4630495E-010  0.4778728E+02  0.7816164E-02  0.1312668E+00
        -11   -1    0    0    0    0  0.00000000000E+00  0.00000000000E+00  0.45593999997E+02  0.45594000000E+02  0.51100000000E-03 0.  1.
         11   -1    0    0    0    0 -0.00000000000E+00 -0.00000000000E+00 -0.45593999997E+02  0.45594000000E+02  0.51100000000E-03 0. -1.
    9900012    2    1    2    0    0 -0.12079102047E+02 -0.19043656727E+02 -0.37081763591E+02  0.47787276978E+02  0.20000027053E+02 0.  0.
        -12    1    1    2    0    0  0.12079102047E+02  0.19043656727E+02  0.37081763591E+02  0.43400723022E+02  0.00000000000E+00 0.  1.
         11    1    3    3    0    0  0.21241115712E+01 -0.18310684287E+01 -0.11076664222E+02  0.11426160864E+02  0.51100000000E-03 0. -1.
        -11    1    3    3    0    0  0.17935934486E+01  0.14689163402E+00 -0.20857542177E+01  0.27548004517E+01  0.51100000000E-03 0.  1.
         12    1    3    3    0    0 -0.15996807067E+02 -0.17359479932E+02 -0.23919345152E+02  0.33606315662E+02  0.00000000000E+00 0. -1.
</event>
<event>
 7    1  0.4630495E-010  0.4778728E+02  0.7816164E-02  0.1312668E+00
        -11   -1    0    0    0    0  0.00000000000E+00  0.00000000000E+00  0.45593999997E+02  0.45594000000E+02  0.51100000000E-03 0.  1.
         11   -1    0    0    0    0 -0.00000000000E+00 -0.00000000000E+00 -0.45593999997E+02  0.45594000000E+02  0.51100000000E-03 0. -1.
    9900012    2    1    2    0    0 -0.13805546292E+02  0.98982533995E+00 -0.41134535675E+02  0.47787275492E+02  0.20000020277E+02 0.  0.
        -12    1    1    2    0    0  0.13805546292E+02 -0.98982533995E+00  0.41134535675E+02  0.43400724508E+02  0.00000000000E+00 0.  1.
         11    1    3    3    0    0  0.28129590171E+01  0.39905960049E+01 -0.17106295232E+02  0.17789405042E+02  0.51100000000E-03 0. -1.
        -11    1    3    3    0    0 -0.55190971125E+00 -0.16828848782E+01 -0.16715150982E+01  0.24352964557E+01  0.51100000000E-03 0.  1.
         12    1    3    3    0    0 -0.16066595597E+02 -0.13178857868E+01 -0.22356725345E+02  0.27562573994E+02  0.00000000000E+00 0. -1.
</event>
<event>
 7    1  0.4630495E-010  0.4778727E+02  0.7816164E-02  0.1312668E+00
        -11   -1    0    0    0    0  0.00000000000E+00  0.00000000000E+00  0.45593999997E+02  0.45594000000E+02  0.51100000000E-03 0.  1.
         11   -1    0    0    0    0 -0.00000000000E+00 -0.00000000000E+00 -0.45593999997E+02  0.45594000000E+02  0.51100000000E-03 0. -1.
    9900012    2    1    2    0    0  0.25046986061E+02 -0.16986761986E+02 -0.31108223534E+02  0.47787272300E+02  0.20000005723E+02 0.  0.
        -12    1    1    2    0    0 -0.25046986061E+02  0.16986761986E+02  0.31108223534E+02  0.43400727700E+02  0.00000000000E+00 0.  1.
         11    1    3    3    0    0  0.76097950144E+01 -0.52922772887E+01 -0.11342705553E+01  0.93382947595E+01  0.51100000000E-03 0. -1.
        -11    1    3    3    0    0  0.11039266196E+02 -0.34885978826E+01 -0.78137930447E+01  0.13967500683E+02  0.51100000000E-03 0.  1.
         12    1    3    3    0    0  0.63979248510E+01 -0.82058868143E+01 -0.22160159934E+02  0.24481476857E+02  0.00000000000E+00 0. -1.
</event>
<event>
 7    1  0.4630495E-010  0.4778728E+02  0.7816164E-02  0.1312668E+00
        -11   -1    0    0    0    0  0.00000000000E+00  0.00000000000E+00  0.45593999997E+02  0.45594000000E+02  0.51100000000E-03 0.  1.
         11   -1    0    0    0    0 -0.00000000000E+00 -0.00000000000E+00 -0.45593999997E+02  0.45594000000E+02  0.51100000000E-03 0. -1.
    9900012    2    1    2    0    0 -0.21739937304E+00 -0.29063350799E+02 -0.32231929248E+02  0.47787275523E+02  0.20000020418E+02 0.  0.
        -12    1    1    2    0    0  0.21739937304E+00  0.29063350799E+02  0.32231929248E+02  0.43400724477E+02  0.00000000000E+00 0.  1.
         11    1    3    3    0    0  0.10645569118E+01  0.31354490353E-01 -0.37528018615E+01  0.39009981538E+01  0.51100000000E-03 0. -1.
        -11    1    3    3    0    0  0.23083807511E+01 -0.12349869898E+02 -0.25621964278E+01  0.12822353879E+02  0.51100000000E-03 0.  1.
        -12    1    3    3    0    0 -0.35903370359E+01 -0.16744835391E+02 -0.25916930958E+02  0.31063923490E+02  0.00000000000E+00 0.  1.
</event>
<event>
 7    1  0.4630495E-010  0.4778726E+02  0.7816164E-02  0.1312668E+00
        -11   -1    0    0    0    0  0.00000000000E+00  0.00000000000E+00  0.45593999997E+02  0.45594000000E+02  0.51100000000E-03 0.  1.
         11   -1    0    0    0    0 -0.00000000000E+00 -0.00000000000E+00 -0.45593999997E+02  0.45594000000E+02  0.51100000000E-03 0. -1.
    9900012    2    1    2    0    0  0.33565673314E+02  0.20843859898E+02 -0.17958366848E+02  0.47787264288E+02  0.19999969195E+02 0.  0.
        -12    1    1    2    0    0 -0.33565673314E+02 -0.20843859898E+02  0.17958366848E+02  0.43400735712E+02  0.00000000000E+00 0.  1.
         11    1    3    3    0    0  0.43625315301E+01  0.40074376632E+01 -0.65437827039E+01  0.88267961522E+01  0.51100000000E-03 0. -1.
        -11    1    3    3    0    0  0.11319160284E+02 -0.17539913716E+01 -0.35996156779E+01  0.12006544405E+02  0.51100000000E-03 0.  1.
         12    1    3    3    0    0  0.17883981500E+02  0.18590413606E+02 -0.78149684666E+01  0.26953923731E+02  0.00000000000E+00 0. -1.
</event>
<event>
 7    1  0.4743936E-010  0.4778727E+02  0.7816164E-02  0.1312668E+00
        -11   -1    0    0    0    0  0.00000000000E+00  0.00000000000E+00  0.45593999997E+02  0.45594000000E+02  0.51100000000E-03 0. -1.
         11   -1    0    0    0    0 -0.00000000000E+00 -0.00000000000E+00 -0.45593999997E+02  0.45594000000E+02  0.51100000000E-03 0.  1.
    9900012    2    1    2    0    0  0.13841703546E+02 -0.16751648226E+02  0.37568770252E+02  0.47787274504E+02  0.20000015773E+02 0.  0.
        -12    1    1    2    0    0 -0.13841703546E+02  0.16751648226E+02 -0.37568770252E+02  0.43400725496E+02  0.00000000000E+00 0.  1.
         11    1    3    3    0    0  0.30065487052E+01 -0.73295881683E+01  0.12529134204E+02  0.14823677074E+02  0.51100000000E-03 0. -1.
        -11    1    3    3    0    0  0.36662411541E+01 -0.52612598849E+01 -0.18159144661E+00  0.64152284052E+01  0.51100000000E-03 0.  1.
         12    1    3    3    0    0  0.71689136870E+01 -0.41608001727E+01  0.25221227494E+02  0.26548369024E+02  0.00000000000E+00 0. -1.
</event>
<event>
 7    1  0.4767321E-010  0.4778727E+02  0.7816164E-02  0.1312668E+00
        -11   -1    0    0    0    0  0.00000000000E+00  0.00000000000E+00  0.45593999997E+02  0.45594000000E+02  0.51100000000E-03 0.  1.
         11   -1    0    0    0    0 -0.00000000000E+00 -0.00000000000E+00 -0.45593999997E+02  0.45594000000E+02  0.51100000000E-03 0. -1.
    9900012    2    1    2    0    0 -0.28328808952E+02  0.21138013388E+02 -0.25185040950E+02  0.47787270579E+02  0.19999997877E+02 0.  0.
        -12    1    1    2    0    0  0.28328808952E+02 -0.21138013388E+02  0.25185040950E+02  0.43400729421E+02  0.00000000000E+00 0.  1.
         11    1    3    3    0    0  0.15664249939E-01  0.17101429836E+01  0.14241591428E+01  0.22255480040E+01  0.51100000000E-03 0.  1.
        -11    1    3    3    0    0 -0.11843502441E+02  0.54169277159E+00 -0.74601246500E+01  0.14007692215E+02  0.51100000000E-03 0. -1.
         12    1    3    3    0    0 -0.16500970761E+02  0.18886177633E+02 -0.19149075443E+02  0.31554030360E+02  0.00000000000E+00 0. -1.
</event>
<event>
 7    1  0.4630495E-010  0.4778725E+02  0.7816164E-02  0.1312668E+00
        -11   -1    0    0    0    0  0.00000000000E+00  0.00000000000E+00  0.45593999997E+02  0.45594000000E+02  0.51100000000E-03 0. -1.
         11   -1    0    0    0    0 -0.00000000000E+00 -0.00000000000E+00 -0.45593999997E+02  0.45594000000E+02  0.51100000000E-03 0.  1.
    9900012    2    1    2    0    0 -0.28866238444E+02 -0.33109697797E+00  0.32407646286E+02  0.47787252484E+02  0.19999915377E+02 0.  0.
        -12    1    1    2    0    0  0.28866238444E+02  0.33109697797E+00 -0.32407646286E+02  0.43400747516E+02  0.00000000000E+00 0.  1.
         11    1    3    3    0    0 -0.60944482508E+01 -0.49718453172E+01  0.25918242505E+01  0.82812498179E+01  0.51100000000E-03 0.  1.
        -11    1    3    3    0    0 -0.14173901067E+02 -0.29151703784E+01  0.16834784109E+02  0.22199271296E+02  0.51100000000E-03 0. -1.
         12    1    3    3    0    0 -0.85978891259E+01  0.75559187176E+01  0.12981037926E+02  0.17306731371E+02  0.00000000000E+00 0. -1.
</event>
<event>
 7    1  0.4630495E-010  0.4778727E+02  0.7816164E-02  0.1312668E+00
        -11   -1    0    0    0    0  0.00000000000E+00  0.00000000000E+00  0.45593999997E+02  0.45594000000E+02  0.51100000000E-03 0.  1.
         11   -1    0    0    0    0 -0.00000000000E+00 -0.00000000000E+00 -0.45593999997E+02  0.45594000000E+02  0.51100000000E-03 0. -1.
    9900012    2    1    2    0    0 -0.30548957990E+01  0.25267729494E+02 -0.35154413942E+02  0.47787270033E+02  0.19999995387E+02 0.  0.
        -12    1    1    2    0    0  0.30548957990E+01 -0.25267729494E+02  0.35154413942E+02  0.43400729967E+02  0.00000000000E+00 0.  1.
         11    1    3    3    0    0  0.39806042156E+01  0.38561484836E+01 -0.16852122880E+01  0.57926705211E+01  0.51100000000E-03 0. -1.
        -11    1    3    3    0    0  0.12518889521E+00 -0.14172510041E+00  0.83348003611E+00  0.85466221121E+00  0.51100000000E-03 0.  1.
         12    1    3    3    0    0 -0.71606889098E+01  0.21553306110E+02 -0.34302681690E+02  0.41139937300E+02  0.00000000000E+00 0. -1.
</event>
<event>
 7    1  0.4630495E-010  0.4778727E+02  0.7816164E-02  0.1312668E+00
        -11   -1    0    0    0    0  0.00000000000E+00  0.00000000000E+00  0.45593999997E+02  0.45594000000E+02  0.51100000000E-03 0.  1.
         11   -1    0    0    0    0 -0.00000000000E+00 -0.00000000000E+00 -0.45593999997E+02  0.45594000000E+02  0.51100000000E-03 0. -1.
    9900012    2    1    2    0    0  0.23183003905E+02  0.22313467841E+02 -0.29125259230E+02  0.47787271407E+02  0.20000001652E+02 0.  0.
        -12    1    1    2    0    0 -0.23183003905E+02 -0.22313467841E+02  0.29125259230E+02  0.43400728593E+02  0.00000000000E+00 0.  1.
         11    1    3    3    0    0  0.17655766792E+02  0.49719280833E+01 -0.19027990802E+02  0.26429351186E+02  0.51100000000E-03 0. -1.
        -11    1    3    3    0    0  0.40398475498E-01  0.32014908752E+00  0.48139041415E+00  0.57953814976E+00  0.51100000000E-03 0.  1.
         12    1    3    3    0    0  0.54868386383E+01  0.17021390671E+02 -0.10578658842E+02  0.20778382071E+02  0.00000000000E+00 0. -1.
</event>
<event>
 7    1  0.4630495E-010  0.4778728E+02  0.7816164E-02  0.1312668E+00
        -11   -1    0    0    0    0  0.00000000000E+00  0.00000000000E+00  0.45593999997E+02  0.45594000000E+02  0.51100000000E-03 0.  1.
         11   -1    0    0    0    0 -0.00000000000E+00 -0.00000000000E+00 -0.45593999997E+02  0.45594000000E+02  0.51100000000E-03 0. -1.
    9900012    2    1    2    0    0 -0.12920483258E+02  0.41394515955E+02 -0.17825684716E+01  0.47787281237E+02  0.20000046473E+02 0.  0.
        -12    1    1    2    0    0  0.12920483258E+02 -0.41394515955E+02  0.17825684716E+01  0.43400718763E+02  0.00000000000E+00 0.  1.
         11    1    3    3    0    0 -0.75387184543E+01  0.12204536737E+02  0.20744958486E+01  0.14494361876E+02  0.51100000000E-03 0. -1.
        -11    1    3    3    0    0 -0.36268305252E+01  0.29741253826E+02 -0.11040521878E+01  0.29981911385E+02  0.51100000000E-03 0.  1.
        -12    1    3    3    0    0 -0.17549342787E+01 -0.55127460841E+00 -0.27530121324E+01  0.33110079761E+01  0.00000000000E+00 0.  1.
</event>
<event>
 7    1  0.4630495E-010  0.4778727E+02  0.7816164E-02  0.1312668E+00
        -11   -1    0    0    0    0  0.00000000000E+00  0.00000000000E+00  0.45593999997E+02  0.45594000000E+02  0.51100000000E-03 0.  1.
         11   -1    0    0    0    0 -0.00000000000E+00 -0.00000000000E+00 -0.45593999997E+02  0.45594000000E+02  0.51100000000E-03 0. -1.
    9900012    2    1    2    0    0 -0.35601526147E+02 -0.21986435154E+01 -0.24724900895E+02  0.47787269343E+02  0.19999992244E+02 0.  0.
        -12    1    1    2    0    0  0.35601526147E+02  0.21986435154E+01  0.24724900895E+02  0.43400730657E+02  0.00000000000E+00 0.  1.
         11    1    3    3    0    0 -0.10756871329E+02  0.51247265673E+01 -0.13044217475E+02  0.17667051621E+02  0.51100000000E-03 0. -1.
        -11    1    3    3    0    0 -0.98485255138E+01 -0.48172039835E+01 -0.99722778411E+01  0.14820433010E+02  0.51100000000E-03 0.  1.
        -12    1    3    3    0    0 -0.14996129304E+02 -0.25061660992E+01 -0.17084055786E+01  0.15299784712E+02  0.00000000000E+00 0.  1.
</event>
<event>
 7    1  0.4630495E-010  0.4778727E+02  0.7816164E-02  0.1312668E+00
        -11   -1    0    0    0    0  0.00000000000E+00  0.00000000000E+00  0.45593999997E+02  0.45594000000E+02  0.51100000000E-03 0.  1.
         11   -1    0    0    0    0 -0.00000000000E+00 -0.00000000000E+00 -0.45593999997E+02  0.45594000000E+02  0.51100000000E-03 0. -1.
    9900012    2    1    2    0    0 -0.22896395315E+02 -0.48399470528E+01 -0.36550700271E+02  0.47787266179E+02  0.19999977816E+02 0.  0.
        -12    1    1    2    0    0  0.22896395315E+02  0.48399470528E+01  0.36550700271E+02  0.43400733821E+02  0.00000000000E+00 0.  1.
         11    1    3    3    0    0 -0.64143556737E+01 -0.33393868252E+01 -0.67867143315E+01  0.99174066548E+01  0.51100000000E-03 0. -1.
        -11    1    3    3    0    0 -0.65967708873E+01 -0.42456307725E+01 -0.17519060051E+01  0.80381553672E+01  0.51100000000E-03 0.  1.
         12    1    3    3    0    0 -0.98852687537E+01  0.27450705449E+01 -0.28012079935E+02  0.29831704157E+02  0.00000000000E+00 0. -1.
</event>
<event>
 7    1  0.4630495E-010  0.4778726E+02  0.7816164E-02  0.1312668E+00
        -11   -1    0    0    0    0  0.00000000000E+00  0.00000000000E+00  0.45593999997E+02  0.45594000000E+02  0.51100000000E-03 0.  1.
         11   -1    0    0    0    0 -0.00000000000E+00 -0.00000000000E+00 -0.45593999997E+02  0.45594000000E+02  0.51100000000E-03 0. -1.
    9900012    2    1    2    0    0  0.17275114239E+00  0.34645289137E+02  0.26139967912E+02  0.47787264698E+02  0.19999971062E+02 0.  0.
        -12    1    1    2    0    0 -0.17275114239E+00 -0.34645289137E+02 -0.26139967912E+02  0.43400735302E+02  0.00000000000E+00 0.  1.
         11    1    3    3    0    0 -0.14215126419E+01  0.14487027051E+02  0.57955448822E+01  0.15667896850E+02  0.51100000000E-03 0. -1.
        -11    1    3    3    0    0 -0.62877832211E+01  0.11770491361E+02  0.10919901939E+02  0.17243112925E+02  0.51100000000E-03 0.  1.
         12    1    3    3    0    0  0.78820470054E+01  0.83877707247E+01  0.94245210912E+01  0.14876254923E+02  0.00000000000E+00 0. -1.
</event>
<event>
 7    1  0.4630495E-010  0.4778727E+02  0.7816164E-02  0.1312668E+00
        -11   -1    0    0    0    0  0.00000000000E+00  0.00000000000E+00  0.45593999997E+02  0.45594000000E+02  0.51100000000E-03 0.  1.
         11   -1    0    0    0    0 -0.00000000000E+00 -0.00000000000E+00 -0.45593999997E+02  0.45594000000E+02  0.51100000000E-03 0. -1.
    9900012    2    1    2    0    0  0.24459305390E+02 -0.35851985854E+02 -0.24833768427E-01  0.47787272742E+02  0.20000007739E+02 0.  0.
        -12    1    1    2    0    0 -0.24459305390E+02  0.35851985854E+02  0.24833768427E-01  0.43400727258E+02  0.00000000000E+00 0.  1.
         11    1    3    3    0    0  0.16305647810E+02 -0.21888257522E+02  0.40602944623E+01  0.27594491465E+02  0.51100000000E-03 0. -1.
        -11    1    3    3    0    0  0.87981206278E+01 -0.15573080089E+02 -0.29697915396E+01  0.18131392999E+02  0.51100000000E-03 0.  1.
        -12    1    3    3    0    0 -0.64446304868E+00  0.16093517562E+01 -0.11153366912E+01  0.20613882776E+01  0.00000000000E+00 0.  1.
</event>
<event>
 7    1  0.4630495E-010  0.4778727E+02  0.7816164E-02  0.1312668E+00
        -11   -1    0    0    0    0  0.00000000000E+00  0.00000000000E+00  0.45593999997E+02  0.45594000000E+02  0.51100000000E-03 0. -1.
         11   -1    0    0    0    0 -0.00000000000E+00 -0.00000000000E+00 -0.45593999997E+02  0.45594000000E+02  0.51100000000E-03 0.  1.
    9900012    2    1    2    0    0  0.19555958027E+02  0.37588181262E+02  0.93976820841E+01  0.47787270819E+02  0.19999998972E+02 0.  0.
        -12    1    1    2    0    0 -0.19555958027E+02 -0.37588181262E+02 -0.93976820841E+01  0.43400729181E+02  0.00000000000E+00 0.  1.
         11    1    3    3    0    0  0.32757416574E+01  0.16712943190E+02 -0.46598712457E+01  0.17656935005E+02  0.51100000000E-03 0. -1.
        -11    1    3    3    0    0  0.34867068013E+01  0.29403478429E+01  0.31861398033E+01  0.55636549913E+01  0.51100000000E-03 0.  1.
         12    1    3    3    0    0  0.12793509568E+02  0.17934890229E+02  0.10871413526E+02  0.24566680823E+02  0.00000000000E+00 0. -1.
</event>
<event>
 7    1  0.4630495E-010  0.4778727E+02  0.7816164E-02  0.1312668E+00
        -11   -1    0    0    0    0  0.00000000000E+00  0.00000000000E+00  0.45593999997E+02  0.45594000000E+02  0.51100000000E-03 0. -1.
         11   -1    0    0    0    0 -0.00000000000E+00 -0.00000000000E+00 -0.45593999997E+02  0.45594000000E+02  0.51100000000E-03 0.  1.
    9900012    2    1    2    0    0 -0.20172446894E+02 -0.25337775318E+02  0.28891047500E+02  0.47787273077E+02  0.20000009267E+02 0.  0.
        -12    1    1    2    0    0  0.20172446894E+02  0.25337775318E+02 -0.28891047500E+02  0.43400726923E+02  0.00000000000E+00 0.  1.
         11    1    3    3    0    0 -0.95015386361E+01 -0.46160307036E+01  0.79787841579E+01  0.13238125729E+02  0.51100000000E-03 0. -1.
        -11    1    3    3    0    0 -0.75490631421E+01 -0.26974520993E+01  0.11384961585E+02  0.13924149981E+02  0.51100000000E-03 0.  1.
        -12    1    3    3    0    0 -0.31218451162E+01 -0.18024292516E+02  0.95273017576E+01  0.20624997367E+02  0.00000000000E+00 0.  1.
</event>
<event>
 7    1  0.4630495E-010  0.4778727E+02  0.7816164E-02  0.1312668E+00
        -11   -1    0    0    0    0  0.00000000000E+00  0.00000000000E+00  0.45593999997E+02  0.45594000000E+02  0.51100000000E-03 0. -1.
         11   -1    0    0    0    0 -0.00000000000E+00 -0.00000000000E+00 -0.45593999997E+02  0.45594000000E+02  0.51100000000E-03 0.  1.
    9900012    2    1    2    0    0 -0.10663351203E+02  0.24745631544E+02  0.34023082805E+02  0.47787268405E+02  0.19999987967E+02 0.  0.
        -12    1    1    2    0    0  0.10663351203E+02 -0.24745631544E+02 -0.34023082805E+02  0.43400731595E+02  0.00000000000E+00 0.  1.
         11    1    3    3    0    0 -0.35262821480E+01  0.33175756370E+01 -0.39717257348E+00  0.48578513984E+01  0.51100000000E-03 0. -1.
        -11    1    3    3    0    0  0.10625231868E+01  0.35195854686E+01  0.50686092003E+00  0.37112458348E+01  0.51100000000E-03 0.  1.
         12    1    3    3    0    0 -0.81995922417E+01  0.17908470438E+02  0.33913394459E+02  0.39218171172E+02  0.00000000000E+00 0. -1.
</event>
<event>
 7    1  0.4630495E-010  0.4778727E+02  0.7816164E-02  0.1312668E+00
        -11   -1    0    0    0    0  0.00000000000E+00  0.00000000000E+00  0.45593999997E+02  0.45594000000E+02  0.51100000000E-03 0. -1.
         11   -1    0    0    0    0 -0.00000000000E+00 -0.00000000000E+00 -0.45593999997E+02  0.45594000000E+02  0.51100000000E-03 0.  1.
    9900012    2    1    2    0    0  0.18191014255E+02  0.83973234394E+01  0.38499288513E+02  0.47787271244E+02  0.20000000909E+02 0.  0.
        -12    1    1    2    0    0 -0.18191014255E+02 -0.83973234394E+01 -0.38499288513E+02  0.43400728756E+02  0.00000000000E+00 0.  1.
         11    1    3    3    0    0  0.78411041857E+01  0.41860800478E+01  0.13318532650E+02  0.16012167037E+02  0.51100000000E-03 0. -1.
        -11    1    3    3    0    0  0.14591469243E+02  0.26368888234E+01  0.19996638061E+02  0.24894370676E+02  0.51100000000E-03 0.  1.
         12    1    3    3    0    0 -0.42415591743E+01  0.15743545683E+01  0.51841178020E+01  0.68807335308E+01  0.00000000000E+00 0. -1.
</event>
<event>
 7    1  0.4630495E-010  0.4778728E+02  0.7816164E-02  0.1312668E+00
        -11   -1    0    0    0    0  0.00000000000E+00  0.00000000000E+00  0.45593999997E+02  0.45594000000E+02  0.51100000000E-03 0.  1.
         11   -1    0    0    0    0 -0.00000000000E+00 -0.00000000000E+00 -0.45593999997E+02  0.45594000000E+02  0.51100000000E-03 0. -1.
    9900012    2    1    2    0    0 -0.12267468667E+02  0.37244616752E+02 -0.18600277495E+02  0.47787278953E+02  0.20000036058E+02 0.  0.
        -12    1    1    2    0    0  0.12267468667E+02 -0.37244616752E+02  0.18600277495E+02  0.43400721047E+02  0.00000000000E+00 0.  1.
         11    1    3    3    0    0  0.15019996903E+01  0.20803706786E+01  0.17302232426E+00  0.25717469191E+01  0.51100000000E-03 0. -1.
        -11    1    3    3    0    0  0.36842247315E+01  0.84544139366E+01 -0.39199888530E+01  0.10020825303E+02  0.51100000000E-03 0.  1.
        -12    1    3    3    0    0 -0.17453693088E+02  0.26709832137E+02 -0.14853310966E+02  0.35194706731E+02  0.00000000000E+00 0.  1.
</event>
<event>
 7    1  0.6036232E-010  0.4778727E+02  0.7816164E-02  0.1312668E+00
        -11   -1    0    0    0    0  0.00000000000E+00  0.00000000000E+00  0.45593999997E+02  0.45594000000E+02  0.51100000000E-03 0.  1.
         11   -1    0    0    0    0 -0.00000000000E+00 -0.00000000000E+00 -0.45593999997E+02  0.45594000000E+02  0.51100000000E-03 0. -1.
    9900012    2    1    2    0    0  0.16711230221E+02  0.37117592098E+02 -0.15054647252E+02  0.47787271174E+02  0.20000000593E+02 0.  0.
        -12    1    1    2    0    0 -0.16711230221E+02 -0.37117592098E+02  0.15054647252E+02  0.43400728826E+02  0.00000000000E+00 0.  1.
         11    1    3    3    0    0  0.29971685005E+01  0.82094591229E-01 -0.25249613964E+01  0.39198455144E+01  0.51100000000E-03 0. -1.
        -11    1    3    3    0    0  0.42609601909E+01  0.84391751397E+01  0.30818820182E+01  0.99435132535E+01  0.51100000000E-03 0.  1.
         12    1    3    3    0    0  0.94531015300E+01  0.28596322367E+02 -0.15611567874E+02  0.33923912407E+02  0.00000000000E+00 0. -1.
</event>
<event>
 7    1  0.4630495E-010  0.4778727E+02  0.7816164E-02  0.1312668E+00
        -11   -1    0    0    0    0  0.00000000000E+00  0.00000000000E+00  0.45593999997E+02  0.45594000000E+02  0.51100000000E-03 0. -1.
         11   -1    0    0    0    0 -0.00000000000E+00 -0.00000000000E+00 -0.45593999997E+02  0.45594000000E+02  0.51100000000E-03 0.  1.
    9900012    2    1    2    0    0  0.56281292578E+01  0.22149935328E+02  0.36896175949E+02  0.47787271047E+02  0.20000000011E+02 0.  0.
        -12    1    1    2    0    0 -0.56281292578E+01 -0.22149935328E+02 -0.36896175949E+02  0.43400728953E+02  0.00000000000E+00 0.  1.
         11    1    3    3    0    0  0.67670744974E+01  0.56784869313E+01  0.57380990919E+01  0.10533959015E+02  0.51100000000E-03 0.  1.
        -11    1    3    3    0    0  0.11562711289E+01  0.45964003471E+01  0.11178093118E+01  0.48696362280E+01  0.51100000000E-03 0. -1.
         12    1    3    3    0    0 -0.22952163685E+01  0.11875048050E+02  0.30040267545E+02  0.32383675804E+02  0.00000000000E+00 0. -1.
</event>
<event>
 7    1  0.4630495E-010  0.4778727E+02  0.7816164E-02  0.1312668E+00
        -11   -1    0    0    0    0  0.00000000000E+00  0.00000000000E+00  0.45593999997E+02  0.45594000000E+02  0.51100000000E-03 0.  1.
         11   -1    0    0    0    0 -0.00000000000E+00 -0.00000000000E+00 -0.45593999997E+02  0.45594000000E+02  0.51100000000E-03 0. -1.
    9900012    2    1    2    0    0 -0.30659669120E+02  0.30711852932E+02  0.62489213028E+00  0.47787266006E+02  0.19999977026E+02 0.  0.
        -12    1    1    2    0    0  0.30659669120E+02 -0.30711852932E+02 -0.62489213028E+00  0.43400733994E+02  0.00000000000E+00 0.  1.
         11    1    3    3    0    0 -0.91913840836E+01  0.62855725607E+01 -0.70236490705E+01  0.13165166551E+02  0.51100000000E-03 0. -1.
        -11    1    3    3    0    0 -0.84423257820E+01  0.96293401302E+01 -0.14915658777E+01  0.12892704332E+02  0.51100000000E-03 0.  1.
        -12    1    3    3    0    0 -0.13025959255E+02  0.14796940241E+02  0.91401070785E+01  0.21729395123E+02  0.00000000000E+00 0.  1.
</event>
<event>
 7    1  0.4630495E-010  0.4778727E+02  0.7816164E-02  0.1312668E+00
        -11   -1    0    0    0    0  0.00000000000E+00  0.00000000000E+00  0.45593999997E+02  0.45594000000E+02  0.51100000000E-03 0.  1.
         11   -1    0    0    0    0 -0.00000000000E+00 -0.00000000000E+00 -0.45593999997E+02  0.45594000000E+02  0.51100000000E-03 0. -1.
    9900012    2    1    2    0    0 -0.94167972856E+01 -0.15577363043E+02 -0.39399148747E+02  0.47787271522E+02  0.20000002175E+02 0.  0.
        -12    1    1    2    0    0  0.94167972856E+01  0.15577363043E+02  0.39399148747E+02  0.43400728478E+02  0.00000000000E+00 0.  1.
         11    1    3    3    0    0  0.66033533404E-01 -0.24075070021E+01  0.10036016953E+01  0.26091506313E+01  0.51100000000E-03 0. -1.
        -11    1    3    3    0    0 -0.72576811774E+01 -0.46531563246E+01 -0.85908264003E+01  0.12170788732E+02  0.51100000000E-03 0.  1.
         12    1    3    3    0    0 -0.22251496416E+01 -0.85166997164E+01 -0.31811924042E+02  0.33007332158E+02  0.00000000000E+00 0. -1.
</event>
<event>
 7    1  0.4630495E-010  0.4778730E+02  0.7816164E-02  0.1312668E+00
        -11   -1    0    0    0    0  0.00000000000E+00  0.00000000000E+00  0.45593999997E+02  0.45594000000E+02  0.51100000000E-03 0.  1.
         11   -1    0    0    0    0 -0.00000000000E+00 -0.00000000000E+00 -0.45593999997E+02  0.45594000000E+02  0.51100000000E-03 0. -1.
    9900012    2    1    2    0    0  0.34062329852E+02  0.81908266354E+01 -0.25618127662E+02  0.47787303913E+02  0.20000149860E+02 0.  0.
        -12    1    1    2    0    0 -0.34062329852E+02 -0.81908266354E+01  0.25618127662E+02  0.43400696087E+02  0.00000000000E+00 0.  1.
         11    1    3    3    0    0  0.59150570051E+01  0.18958805038E+01 -0.81023175634E+01  0.10209300290E+02  0.51100000000E-03 0. -1.
        -11    1    3    3    0    0  0.34094304115E+01 -0.25085980846E+01 -0.90472890564E+01  0.99885294019E+01  0.51100000000E-03 0.  1.
         12    1    3    3    0    0  0.24737842435E+02  0.88035442162E+01 -0.84685210427E+01  0.27589474221E+02  0.00000000000E+00 0. -1.
</event>
<event>
 7    1  0.4630495E-010  0.4778733E+02  0.7816164E-02  0.1312668E+00
        -11   -1    0    0    0    0  0.00000000000E+00  0.00000000000E+00  0.45593999997E+02  0.45594000000E+02  0.51100000000E-03 0. -1.
         11   -1    0    0    0    0 -0.00000000000E+00 -0.00000000000E+00 -0.45593999997E+02  0.45594000000E+02  0.51100000000E-03 0.  1.
    9900012    2    1    2    0    0  0.29768201771E+02  0.29238473703E+02 -0.11940860051E+02  0.47787328117E+02  0.20000260214E+02 0.  0.
        -12    1    1    2    0    0 -0.29768201771E+02 -0.29238473703E+02  0.11940860051E+02  0.43400671883E+02  0.00000000000E+00 0.  1.
         11    1    3    3    0    0  0.24210322803E+02  0.21271662198E+02 -0.11220054801E+02  0.34124961141E+02  0.51100000000E-03 0. -1.
        -11    1    3    3    0    0  0.60986441053E+01  0.24136733560E+01  0.27274365823E+01  0.71033928207E+01  0.51100000000E-03 0.  1.
        -12    1    3    3    0    0 -0.54076513671E+00  0.55531381488E+01 -0.34482418323E+01  0.65589741550E+01  0.00000000000E+00 0.  1.
</event>
<event>
 7    1  0.4630495E-010  0.4778727E+02  0.7816164E-02  0.1312668E+00
        -11   -1    0    0    0    0  0.00000000000E+00  0.00000000000E+00  0.45593999997E+02  0.45594000000E+02  0.51100000000E-03 0.  1.
         11   -1    0    0    0    0 -0.00000000000E+00 -0.00000000000E+00 -0.45593999997E+02  0.45594000000E+02  0.51100000000E-03 0. -1.
    9900012    2    1    2    0    0 -0.13804520634E+02  0.18338038380E+02 -0.36834425878E+02  0.47787269922E+02  0.19999994882E+02 0.  0.
        -12    1    1    2    0    0  0.13804520634E+02 -0.18338038380E+02  0.36834425878E+02  0.43400730078E+02  0.00000000000E+00 0.  1.
         11    1    3    3    0    0  0.14766007995E+01 -0.18154502332E+01  0.58862206285E+00  0.24130241740E+01  0.51100000000E-03 0.  1.
        -11    1    3    3    0    0 -0.30910622584E+01  0.19826672341E+01 -0.40432885671E+01  0.54620342314E+01  0.51100000000E-03 0. -1.
        -12    1    3    3    0    0 -0.12190059175E+02  0.18170821379E+02 -0.33379759374E+02  0.39912211516E+02  0.00000000000E+00 0.  1.
</event>
<event>
 7    1  0.4630495E-010  0.4778727E+02  0.7816164E-02  0.1312668E+00
        -11   -1    0    0    0    0  0.00000000000E+00  0.00000000000E+00  0.45593999997E+02  0.45594000000E+02  0.51100000000E-03 0. -1.
         11   -1    0    0    0    0 -0.00000000000E+00 -0.00000000000E+00 -0.45593999997E+02  0.45594000000E+02  0.51100000000E-03 0.  1.
    9900012    2    1    2    0    0  0.13714000116E+02  0.40947315779E+02 -0.43436086279E+01  0.47787269538E+02  0.19999993132E+02 0.  0.
        -12    1    1    2    0    0 -0.13714000116E+02 -0.40947315779E+02  0.43436086279E+01  0.43400730462E+02  0.00000000000E+00 0.  1.
         11    1    3    3    0    0  0.12401364708E+01  0.12900470679E+01 -0.31414964937E+01  0.36154059778E+01  0.51100000000E-03 0. -1.
        -11    1    3    3    0    0  0.13645504972E+01  0.94158332995E+01  0.58809176441E+01  0.11185039445E+02  0.51100000000E-03 0.  1.
         12    1    3    3    0    0  0.11109313149E+02  0.30241435412E+02 -0.70830297784E+01  0.32986824116E+02  0.00000000000E+00 0. -1.
</event>
<event>
 7    1  0.4630495E-010  0.4778727E+02  0.7816164E-02  0.1312668E+00
        -11   -1    0    0    0    0  0.00000000000E+00  0.00000000000E+00  0.45593999997E+02  0.45594000000E+02  0.51100000000E-03 0.  1.
         11   -1    0    0    0    0 -0.00000000000E+00 -0.00000000000E+00 -0.45593999997E+02  0.45594000000E+02  0.51100000000E-03 0. -1.
    9900012    2    1    2    0    0 -0.65639520915E+01  0.35758299775E+02 -0.23704050101E+02  0.47787268888E+02  0.19999990168E+02 0.  0.
        -12    1    1    2    0    0  0.65639520915E+01 -0.35758299775E+02  0.23704050101E+02  0.43400731112E+02  0.00000000000E+00 0.  1.
         11    1    3    3    0    0  0.13306051910E+01  0.65885421289E+01 -0.28259823330E+01  0.72914726884E+01  0.51100000000E-03 0. -1.
        -11    1    3    3    0    0 -0.64190279910E+01  0.24762540989E+02 -0.79969200190E+01  0.26801829912E+02  0.51100000000E-03 0.  1.
         12    1    3    3    0    0 -0.14755292915E+01  0.44072166574E+01 -0.12881147749E+02  0.13693966288E+02  0.00000000000E+00 0. -1.
</event>
<event>
 7    1  0.4630495E-010  0.4778729E+02  0.7816164E-02  0.1312668E+00
        -11   -1    0    0    0    0  0.00000000000E+00  0.00000000000E+00  0.45593999997E+02  0.45594000000E+02  0.51100000000E-03 0.  1.
         11   -1    0    0    0    0 -0.00000000000E+00 -0.00000000000E+00 -0.45593999997E+02  0.45594000000E+02  0.51100000000E-03 0. -1.
    9900012    2    1    2    0    0  0.37628588954E+02  0.16301435893E+02 -0.14211769588E+02  0.47787286715E+02  0.20000071448E+02 0.  0.
        -12    1    1    2    0    0 -0.37628588954E+02 -0.16301435893E+02  0.14211769588E+02  0.43400713285E+02  0.00000000000E+00 0.  1.
         11    1    3    3    0    0  0.26162717974E+02  0.68643384486E+01 -0.67415662766E+01  0.27875718292E+02  0.51100000000E-03 0. -1.
        -11    1    3    3    0    0  0.84438274797E+01  0.33261507096E+01  0.89600560412E+00  0.91194477549E+01  0.51100000000E-03 0.  1.
        -12    1    3    3    0    0  0.30220434998E+01  0.61109467349E+01 -0.83662089152E+01  0.10792120668E+02  0.00000000000E+00 0.  1.
</event>
<event>
 7    1  0.4630495E-010  0.4778727E+02  0.7816164E-02  0.1312668E+00
        -11   -1    0    0    0    0  0.00000000000E+00  0.00000000000E+00  0.45593999997E+02  0.45594000000E+02  0.51100000000E-03 0.  1.
         11   -1    0    0    0    0 -0.00000000000E+00 -0.00000000000E+00 -0.45593999997E+02  0.45594000000E+02  0.51100000000E-03 0. -1.
    9900012    2    1    2    0    0 -0.33523673078E+02 -0.42385142237E+01 -0.27236399600E+02  0.47787272787E+02  0.20000007945E+02 0.  0.
        -12    1    1    2    0    0  0.33523673078E+02  0.42385142237E+01  0.27236399600E+02  0.43400727213E+02  0.00000000000E+00 0.  1.
         11    1    3    3    0    0 -0.35675174862E+01  0.35204666619E+01  0.13707065647E+01  0.51961238707E+01  0.51100000000E-03 0. -1.
        -11    1    3    3    0    0 -0.55593043719E+01  0.95717753115E+00 -0.54246296717E+01  0.78261523919E+01  0.51100000000E-03 0.  1.
         12    1    3    3    0    0 -0.24396851220E+02 -0.87161584168E+01 -0.23182476493E+02  0.34764996524E+02  0.00000000000E+00 0. -1.
</event>
<event>
 7    1  0.4630495E-010  0.4778728E+02  0.7816164E-02  0.1312668E+00
        -11   -1    0    0    0    0  0.00000000000E+00  0.00000000000E+00  0.45593999997E+02  0.45594000000E+02  0.51100000000E-03 0. -1.
         11   -1    0    0    0    0 -0.00000000000E+00 -0.00000000000E+00 -0.45593999997E+02  0.45594000000E+02  0.51100000000E-03 0.  1.
    9900012    2    1    2    0    0  0.23566947394E+02 -0.92629079552E+01  0.35247983902E+02  0.47787276016E+02  0.20000022665E+02 0.  0.
        -12    1    1    2    0    0 -0.23566947394E+02  0.92629079552E+01 -0.35247983902E+02  0.43400723984E+02  0.00000000000E+00 0.  1.
         11    1    3    3    0    0  0.38601589007E+01 -0.64388266287E+01  0.64322945292E+01  0.98860370354E+01  0.51100000000E-03 0. -1.
        -11    1    3    3    0    0  0.18418186918E+02 -0.71227845797E+01  0.20578075682E+02  0.28520534156E+02  0.51100000000E-03 0.  1.
        -12    1    3    3    0    0  0.12886015747E+01  0.42987032532E+01  0.82376136910E+01  0.93807048242E+01  0.00000000000E+00 0.  1.
</event>
<event>
 7    1  0.4630495E-010  0.4778727E+02  0.7816164E-02  0.1312668E+00
        -11   -1    0    0    0    0  0.00000000000E+00  0.00000000000E+00  0.45593999997E+02  0.45594000000E+02  0.51100000000E-03 0.  1.
         11   -1    0    0    0    0 -0.00000000000E+00 -0.00000000000E+00 -0.45593999997E+02  0.45594000000E+02  0.51100000000E-03 0. -1.
    9900012    2    1    2    0    0 -0.40191751243E+02  0.14925760181E+02  0.67430221191E+01  0.47787268067E+02  0.19999986427E+02 0.  0.
        -12    1    1    2    0    0  0.40191751243E+02 -0.14925760181E+02 -0.67430221191E+01  0.43400731933E+02  0.00000000000E+00 0.  1.
         11    1    3    3    0    0 -0.24632474639E+02  0.77925350811E+01  0.89790387451E+01  0.27351518182E+02  0.51100000000E-03 0. -1.
        -11    1    3    3    0    0 -0.16895384060E+02  0.48998245249E+01 -0.11929007989E+01  0.17631939641E+02  0.51100000000E-03 0.  1.
        -12    1    3    3    0    0  0.13361074555E+01  0.22334005748E+01 -0.10431158271E+01  0.28038102448E+01  0.00000000000E+00 0.  1.
</event>
<event>
 7    1  0.4630495E-010  0.4778727E+02  0.7816164E-02  0.1312668E+00
        -11   -1    0    0    0    0  0.00000000000E+00  0.00000000000E+00  0.45593999997E+02  0.45594000000E+02  0.51100000000E-03 0.  1.
         11   -1    0    0    0    0 -0.00000000000E+00 -0.00000000000E+00 -0.45593999997E+02  0.45594000000E+02  0.51100000000E-03 0. -1.
    9900012    2    1    2    0    0  0.14942366294E+02  0.17541445708E+02 -0.36778348637E+02  0.47787267789E+02  0.19999985155E+02 0.  0.
        -12    1    1    2    0    0 -0.14942366294E+02 -0.17541445708E+02  0.36778348637E+02  0.43400732211E+02  0.00000000000E+00 0.  1.
         11    1    3    3    0    0 -0.17572210616E+01  0.39749580583E+01 -0.29582349133E+01  0.52573064860E+01  0.51100000000E-03 0. -1.
        -11    1    3    3    0    0  0.39183386863E+01  0.17219016086E+01  0.22338859422E+00  0.42858168341E+01  0.51100000000E-03 0.  1.
         12    1    3    3    0    0  0.12781248669E+02  0.11844586041E+02 -0.34043502318E+02  0.38244144468E+02  0.00000000000E+00 0. -1.
</event>
<event>
 7    1  0.4630495E-010  0.4778727E+02  0.7816164E-02  0.1312668E+00
        -11   -1    0    0    0    0  0.00000000000E+00  0.00000000000E+00  0.45593999997E+02  0.45594000000E+02  0.51100000000E-03 0.  1.
         11   -1    0    0    0    0 -0.00000000000E+00 -0.00000000000E+00 -0.45593999997E+02  0.45594000000E+02  0.51100000000E-03 0. -1.
    9900012    2    1    2    0    0 -0.39323994164E+02 -0.13565648300E+01 -0.18314109535E+02  0.47787269669E+02  0.19999993730E+02 0.  0.
        -12    1    1    2    0    0  0.39323994164E+02  0.13565648300E+01  0.18314109535E+02  0.43400730331E+02  0.00000000000E+00 0.  1.
         11    1    3    3    0    0 -0.32844039083E+01  0.22927538978E+01 -0.12891177453E+01  0.42078324932E+01  0.51100000000E-03 0. -1.
        -11    1    3    3    0    0 -0.22120956536E+02 -0.47897571299E+00 -0.19004893848E+02  0.29167655481E+02  0.51100000000E-03 0.  1.
        -12    1    3    3    0    0 -0.13918633720E+02 -0.31703430148E+01  0.19799020587E+01  0.14411781695E+02  0.00000000000E+00 0.  1.
</event>
<event>
 7    1  0.4630495E-010  0.4778727E+02  0.7816164E-02  0.1312668E+00
        -11   -1    0    0    0    0  0.00000000000E+00  0.00000000000E+00  0.45593999997E+02  0.45594000000E+02  0.51100000000E-03 0.  1.
         11   -1    0    0    0    0 -0.00000000000E+00 -0.00000000000E+00 -0.45593999997E+02  0.45594000000E+02  0.51100000000E-03 0. -1.
    9900012    2    1    2    0    0  0.22064807469E+01  0.25628910105E+02 -0.34955880126E+02  0.47787272520E+02  0.20000006726E+02 0.  0.
        -12    1    1    2    0    0 -0.22064807469E+01 -0.25628910105E+02  0.34955880126E+02  0.43400727480E+02  0.00000000000E+00 0.  1.
         11    1    3    3    0    0 -0.31112199631E+00  0.45564822290E+01 -0.58822415094E+01  0.74470861843E+01  0.51100000000E-03 0. -1.
        -11    1    3    3    0    0  0.10411454871E+02  0.11009861143E+02 -0.16575696182E+02  0.22458164197E+02  0.51100000000E-03 0.  1.
        -12    1    3    3    0    0 -0.78938521273E+01  0.10062566733E+02 -0.12497942434E+02  0.17882022138E+02  0.00000000000E+00 0.  1.
</event>
<event>
 7    1  0.4630495E-010  0.4778727E+02  0.7816164E-02  0.1312668E+00
        -11   -1    0    0    0    0  0.00000000000E+00  0.00000000000E+00  0.45593999997E+02  0.45594000000E+02  0.51100000000E-03 0.  1.
         11   -1    0    0    0    0 -0.00000000000E+00 -0.00000000000E+00 -0.45593999997E+02  0.45594000000E+02  0.51100000000E-03 0. -1.
    9900012    2    1    2    0    0  0.11047280301E+02 -0.12128640588E+02 -0.40180553178E+02  0.47787272146E+02  0.20000005023E+02 0.  0.
        -12    1    1    2    0    0 -0.11047280301E+02  0.12128640588E+02  0.40180553178E+02  0.43400727854E+02  0.00000000000E+00 0.  1.
         11    1    3    3    0    0  0.10171937683E+02 -0.91258209606E+01 -0.18195940481E+02  0.22756123894E+02  0.51100000000E-03 0. -1.
        -11    1    3    3    0    0 -0.88165094674E+00 -0.64758927645E+01 -0.71174856231E+01  0.96629755948E+01  0.51100000000E-03 0.  1.
        -12    1    3    3    0    0  0.17569935649E+01  0.34730731370E+01 -0.14867127073E+02  0.15368172657E+02  0.00000000000E+00 0.  1.
</event>
<event>
 7    1  0.4630495E-010  0.4778727E+02  0.7816164E-02  0.1312668E+00
        -11   -1    0    0    0    0  0.00000000000E+00  0.00000000000E+00  0.45593999997E+02  0.45594000000E+02  0.51100000000E-03 0.  1.
         11   -1    0    0    0    0 -0.00000000000E+00 -0.00000000000E+00 -0.45593999997E+02  0.45594000000E+02  0.51100000000E-03 0. -1.
    9900012    2    1    2    0    0 -0.17423123254E+02  0.33223589341E+02 -0.21823182450E+02  0.47787269535E+02  0.19999993118E+02 0.  0.
        -12    1    1    2    0    0  0.17423123254E+02 -0.33223589341E+02  0.21823182450E+02  0.43400730465E+02  0.00000000000E+00 0.  1.
         11    1    3    3    0    0 -0.98831925636E+01  0.12712594721E+02 -0.13382905071E+02  0.20937757955E+02  0.51100000000E-03 0.  1.
        -11    1    3    3    0    0 -0.16905851145E+01  0.13787696557E+02 -0.10840477280E+02  0.17620289507E+02  0.51100000000E-03 0. -1.
         12    1    3    3    0    0 -0.58493455763E+01  0.67232980625E+01  0.24001999006E+01  0.92292220729E+01  0.00000000000E+00 0. -1.
</event>
<event>
 7    1  0.5879872E-010  0.4778724E+02  0.7816164E-02  0.1312668E+00
        -11   -1    0    0    0    0  0.00000000000E+00  0.00000000000E+00  0.45593999997E+02  0.45594000000E+02  0.51100000000E-03 0. -1.
         11   -1    0    0    0    0 -0.00000000000E+00 -0.00000000000E+00 -0.45593999997E+02  0.45594000000E+02  0.51100000000E-03 0.  1.
    9900012    2    1    2    0    0  0.20649998943E+01 -0.21955236687E+02  0.37380866805E+02  0.47787241417E+02  0.19999864916E+02 0.  0.
        -12    1    1    2    0    0 -0.20649998943E+01  0.21955236687E+02 -0.37380866805E+02  0.43400758583E+02  0.00000000000E+00 0.  1.
         11    1    3    3    0    0  0.57831731380E+01 -0.24790928250E+01  0.98971362685E+01  0.11727928178E+02  0.51100000000E-03 0. -1.
        -11    1    3    3    0    0 -0.25502454761E+01  0.82059328371E+00  0.54888323647E+01  0.61077333205E+01  0.51100000000E-03 0.  1.
         12    1    3    3    0    0 -0.11679277677E+01 -0.20296737145E+02  0.21994898171E+02  0.29951579918E+02  0.00000000000E+00 0. -1.
</event>
<event>
 7    1  0.4630495E-010  0.4778728E+02  0.7816164E-02  0.1312668E+00
        -11   -1    0    0    0    0  0.00000000000E+00  0.00000000000E+00  0.45593999997E+02  0.45594000000E+02  0.51100000000E-03 0.  1.
         11   -1    0    0    0    0 -0.00000000000E+00 -0.00000000000E+00 -0.45593999997E+02  0.45594000000E+02  0.51100000000E-03 0. -1.
    9900012    2    1    2    0    0  0.30685432865E+02 -0.28123544682E+02 -0.12291999805E+02  0.47787276333E+02  0.20000024114E+02 0.  0.
        -12    1    1    2    0    0 -0.30685432865E+02  0.28123544682E+02  0.12291999805E+02  0.43400723667E+02  0.00000000000E+00 0.  1.
         11    1    3    3    0    0  0.66253920753E+01 -0.93757945317E+01 -0.36925110468E+01  0.12059684131E+02  0.51100000000E-03 0. -1.
        -11    1    3    3    0    0  0.91013630499E+01 -0.10583607466E+02  0.40155621674E+01  0.14524885409E+02  0.51100000000E-03 0.  1.
         12    1    3    3    0    0  0.14958677740E+02 -0.81641426837E+01 -0.12615050926E+02  0.21202706793E+02  0.00000000000E+00 0. -1.
</event>
<event>
 7    1  0.4630495E-010  0.4778728E+02  0.7816164E-02  0.1312668E+00
        -11   -1    0    0    0    0  0.00000000000E+00  0.00000000000E+00  0.45593999997E+02  0.45594000000E+02  0.51100000000E-03 0. -1.
         11   -1    0    0    0    0 -0.00000000000E+00 -0.00000000000E+00 -0.45593999997E+02  0.45594000000E+02  0.51100000000E-03 0.  1.
    9900012    2    1    2    0    0  0.32370186680E+02  0.28863574552E+02  0.16393869489E+01  0.47787279831E+02  0.20000040060E+02 0.  0.
        -12    1    1    2    0    0 -0.32370186680E+02 -0.28863574552E+02 -0.16393869489E+01  0.43400720169E+02  0.00000000000E+00 0.  1.
         11    1    3    3    0    0  0.69184763456E+00  0.73730756248E+00 -0.12836210936E+01  0.16340009070E+01  0.51100000000E-03 0. -1.
        -11    1    3    3    0    0  0.36437489552E+01  0.78377623647E+01 -0.58695826098E+01  0.10447938821E+02  0.51100000000E-03 0.  1.
         12    1    3    3    0    0  0.28034590090E+02  0.20288504625E+02  0.87925906523E+01  0.35705340103E+02  0.00000000000E+00 0. -1.
</event>
<event>
 7    1  0.4630495E-010  0.4778727E+02  0.7816164E-02  0.1312668E+00
        -11   -1    0    0    0    0  0.00000000000E+00  0.00000000000E+00  0.45593999997E+02  0.45594000000E+02  0.51100000000E-03 0.  1.
         11   -1    0    0    0    0 -0.00000000000E+00 -0.00000000000E+00 -0.45593999997E+02  0.45594000000E+02  0.51100000000E-03 0. -1.
    9900012    2    1    2    0    0  0.24802371314E+02  0.35465707991E+02 -0.32632858896E+01  0.47787273037E+02  0.20000009086E+02 0.  0.
        -12    1    1    2    0    0 -0.24802371314E+02 -0.35465707991E+02  0.32632858896E+01  0.43400726963E+02  0.00000000000E+00 0.  1.
         11    1    3    3    0    0  0.17060279840E+01  0.56627428222E+01 -0.24620385530E+01  0.64061549973E+01  0.51100000000E-03 0. -1.
        -11    1    3    3    0    0  0.68252349548E+01  0.49885194338E+01 -0.71079429530E+01  0.11044999394E+02  0.51100000000E-03 0.  1.
         12    1    3    3    0    0  0.16271108375E+02  0.24814445735E+02  0.63066956164E+01  0.30336118646E+02  0.00000000000E+00 0. -1.
</event>
<event>
 7    1  0.4630495E-010  0.4778727E+02  0.7816164E-02  0.1312668E+00
        -11   -1    0    0    0    0  0.00000000000E+00  0.00000000000E+00  0.45593999997E+02  0.45594000000E+02  0.51100000000E-03 0.  1.
         11   -1    0    0    0    0 -0.00000000000E+00 -0.00000000000E+00 -0.45593999997E+02  0.45594000000E+02  0.51100000000E-03 0. -1.
    9900012    2    1    2    0    0 -0.34466486204E+02  0.15286115024E+02 -0.21494632917E+02  0.47787271573E+02  0.20000002408E+02 0.  0.
        -12    1    1    2    0    0  0.34466486204E+02 -0.15286115024E+02  0.21494632917E+02  0.43400728427E+02  0.00000000000E+00 0.  1.
         11    1    3    3    0    0 -0.20620583890E+02  0.69850300874E+01 -0.11171113851E+02  0.24470245406E+02  0.51100000000E-03 0. -1.
        -11    1    3    3    0    0 -0.97133495144E+01  0.78144706492E+00 -0.11017440580E+02  0.14708630646E+02  0.51100000000E-03 0.  1.
        -12    1    3    3    0    0 -0.41325527999E+01  0.75196378716E+01  0.69392151422E+00  0.86083955202E+01  0.00000000000E+00 0.  1.
</event>
<event>
 7    1  0.4630495E-010  0.4778727E+02  0.7816164E-02  0.1312668E+00
        -11   -1    0    0    0    0  0.00000000000E+00  0.00000000000E+00  0.45593999997E+02  0.45594000000E+02  0.51100000000E-03 0.  1.
         11   -1    0    0    0    0 -0.00000000000E+00 -0.00000000000E+00 -0.45593999997E+02  0.45594000000E+02  0.51100000000E-03 0. -1.
    9900012    2    1    2    0    0 -0.30461085420E+02  0.30776003216E+02  0.29297130568E+01  0.47787270542E+02  0.19999997708E+02 0.  0.
        -12    1    1    2    0    0  0.30461085420E+02 -0.30776003216E+02 -0.29297130568E+01  0.43400729458E+02  0.00000000000E+00 0.  1.
         11    1    3    3    0    0 -0.63438291026E+01  0.59946585252E+01 -0.65742292542E+01  0.10927057658E+02  0.51100000000E-03 0. -1.
        -11    1    3    3    0    0 -0.42782903184E+01  0.94416810114E+01  0.44385632266E+01  0.11276078758E+02  0.51100000000E-03 0.  1.
         12    1    3    3    0    0 -0.19838965999E+02  0.15339663680E+02  0.50653790843E+01  0.25584134126E+02  0.00000000000E+00 0. -1.
</event>
<event>
 7    1  0.4630495E-010  0.4778728E+02  0.7816164E-02  0.1312668E+00
        -11   -1    0    0    0    0  0.00000000000E+00  0.00000000000E+00  0.45593999997E+02  0.45594000000E+02  0.51100000000E-03 0. -1.
         11   -1    0    0    0    0 -0.00000000000E+00 -0.00000000000E+00 -0.45593999997E+02  0.45594000000E+02  0.51100000000E-03 0.  1.
    9900012    2    1    2    0    0  0.26523130389E+02  0.28961943472E+02  0.18475718661E+02  0.47787276557E+02  0.20000025135E+02 0.  0.
        -12    1    1    2    0    0 -0.26523130389E+02 -0.28961943472E+02 -0.18475718661E+02  0.43400723443E+02  0.00000000000E+00 0.  1.
         11    1    3    3    0    0  0.67528635733E+01  0.15580568637E+02  0.20093129810E+01  0.17099491934E+02  0.51100000000E-03 0. -1.
        -11    1    3    3    0    0  0.32865903275E+00  0.36847049885E+01  0.46976589520E+01  0.59793868836E+01  0.51100000000E-03 0.  1.
         12    1    3    3    0    0  0.19441607783E+02  0.96966698467E+01  0.11768746728E+02  0.24708397739E+02  0.00000000000E+00 0. -1.
</event>
<event>
 7    1  0.4630495E-010  0.4778727E+02  0.7816164E-02  0.1312668E+00
        -11   -1    0    0    0    0  0.00000000000E+00  0.00000000000E+00  0.45593999997E+02  0.45594000000E+02  0.51100000000E-03 0.  1.
         11   -1    0    0    0    0 -0.00000000000E+00 -0.00000000000E+00 -0.45593999997E+02  0.45594000000E+02  0.51100000000E-03 0. -1.
    9900012    2    1    2    0    0 -0.25223471197E+02  0.89764908157E+01 -0.34158782145E+02  0.47787270925E+02  0.19999999457E+02 0.  0.
        -12    1    1    2    0    0  0.25223471197E+02 -0.89764908157E+01  0.34158782145E+02  0.43400729075E+02  0.00000000000E+00 0.  1.
         11    1    3    3    0    0 -0.89174201322E+01  0.31229462236E+01 -0.20605070229E+02  0.22668085370E+02  0.51100000000E-03 0. -1.
        -11    1    3    3    0    0 -0.17814362660E+01  0.31504703976E+01 -0.89347868695E+01  0.96399893962E+01  0.51100000000E-03 0.  1.
         12    1    3    3    0    0 -0.14524614799E+02  0.27030741945E+01 -0.46189250462E+01  0.15479196159E+02  0.00000000000E+00 0. -1.
</event>
<event>
 7    1  0.4630495E-010  0.4778727E+02  0.7816164E-02  0.1312668E+00
        -11   -1    0    0    0    0  0.00000000000E+00  0.00000000000E+00  0.45593999997E+02  0.45594000000E+02  0.51100000000E-03 0.  1.
         11   -1    0    0    0    0 -0.00000000000E+00 -0.00000000000E+00 -0.45593999997E+02  0.45594000000E+02  0.51100000000E-03 0. -1.
    9900012    2    1    2    0    0  0.24126423505E+02  0.93025603724E+01 -0.34856867760E+02  0.47787272233E+02  0.20000005420E+02 0.  0.
        -12    1    1    2    0    0 -0.24126423505E+02 -0.93025603724E+01  0.34856867760E+02  0.43400727767E+02  0.00000000000E+00 0.  1.
         11    1    3    3    0    0 -0.72795214531E+00  0.42443943179E+01 -0.97577824082E+01  0.10665791824E+02  0.51100000000E-03 0. -1.
        -11    1    3    3    0    0  0.19313861780E+01  0.65344366676E+00  0.85837005578E+00  0.22122478631E+01  0.51100000000E-03 0.  1.
        -12    1    3    3    0    0  0.22922989473E+02  0.44047223877E+01 -0.25957455408E+02  0.34909232546E+02  0.00000000000E+00 0.  1.
</event>
<event>
 7    1  0.4630495E-010  0.4778726E+02  0.7816164E-02  0.1312668E+00
        -11   -1    0    0    0    0  0.00000000000E+00  0.00000000000E+00  0.45593999997E+02  0.45594000000E+02  0.51100000000E-03 0.  1.
         11   -1    0    0    0    0 -0.00000000000E+00 -0.00000000000E+00 -0.45593999997E+02  0.45594000000E+02  0.51100000000E-03 0. -1.
    9900012    2    1    2    0    0  0.37650846469E+02  0.20098544776E+02 -0.78795174538E+01  0.47787256490E+02  0.19999933639E+02 0.  0.
        -12    1    1    2    0    0 -0.37650846469E+02 -0.20098544776E+02  0.78795174538E+01  0.43400743510E+02  0.00000000000E+00 0.  1.
         11    1    3    3    0    0 -0.90570500374E+00  0.19821858070E+01 -0.21220638459E+01  0.30417950875E+01  0.51100000000E-03 0. -1.
        -11    1    3    3    0    0  0.20693791299E+02  0.14479401423E+02 -0.77223497427E+01  0.26410618124E+02  0.51100000000E-03 0.  1.
        -12    1    3    3    0    0  0.17862760173E+02  0.36369575462E+01  0.19648961348E+01  0.18334843278E+02  0.00000000000E+00 0.  1.
</event>
<event>
 7    1  0.4630495E-010  0.4778727E+02  0.7816164E-02  0.1312668E+00
        -11   -1    0    0    0    0  0.00000000000E+00  0.00000000000E+00  0.45593999997E+02  0.45594000000E+02  0.51100000000E-03 0. -1.
         11   -1    0    0    0    0 -0.00000000000E+00 -0.00000000000E+00 -0.45593999997E+02  0.45594000000E+02  0.51100000000E-03 0.  1.
    9900012    2    1    2    0    0 -0.19678142095E+01 -0.42542092484E+02  0.83619051750E+01  0.47787269777E+02  0.19999994223E+02 0.  0.
        -12    1    1    2    0    0  0.19678142095E+01  0.42542092484E+02 -0.83619051750E+01  0.43400730223E+02  0.00000000000E+00 0.  1.
         11    1    3    3    0    0 -0.29863308254E+01 -0.52494554735E+01  0.47897965717E+01  0.77082492193E+01  0.51100000000E-03 0. -1.
        -11    1    3    3    0    0 -0.59968668330E-01 -0.13996068722E+01 -0.32395250508E+01  0.35294501631E+01  0.51100000000E-03 0.  1.
        -12    1    3    3    0    0  0.10784852842E+01 -0.35893030138E+02  0.68116336542E+01  0.36549570395E+02  0.00000000000E+00 0.  1.
</event>
<event>
 7    1  0.4630495E-010  0.4778727E+02  0.7816164E-02  0.1312668E+00
        -11   -1    0    0    0    0  0.00000000000E+00  0.00000000000E+00  0.45593999997E+02  0.45594000000E+02  0.51100000000E-03 0. -1.
         11   -1    0    0    0    0 -0.00000000000E+00 -0.00000000000E+00 -0.45593999997E+02  0.45594000000E+02  0.51100000000E-03 0.  1.
    9900012    2    1    2    0    0  0.37171799825E+02 -0.21650461702E+02  0.57565637917E+01  0.47787271655E+02  0.20000002785E+02 0.  0.
        -12    1    1    2    0    0 -0.37171799825E+02  0.21650461702E+02 -0.57565637917E+01  0.43400728345E+02  0.00000000000E+00 0.  1.
         11    1    3    3    0    0 -0.67724067217E+00 -0.64509146633E-01  0.17165175643E+01  0.18464152209E+01  0.51100000000E-03 0. -1.
        -11    1    3    3    0    0  0.52113815480E+00 -0.19573465669E+01 -0.25483075323E+01  0.32552514649E+01  0.51100000000E-03 0.  1.
        -12    1    3    3    0    0  0.37327902343E+02 -0.19628605988E+02  0.65883537596E+01  0.42685604970E+02  0.00000000000E+00 0.  1.
</event>
<event>
 7    1  0.4630495E-010  0.4778727E+02  0.7816164E-02  0.1312668E+00
        -11   -1    0    0    0    0  0.00000000000E+00  0.00000000000E+00  0.45593999997E+02  0.45594000000E+02  0.51100000000E-03 0. -1.
         11   -1    0    0    0    0 -0.00000000000E+00 -0.00000000000E+00 -0.45593999997E+02  0.45594000000E+02  0.51100000000E-03 0.  1.
    9900012    2    1    2    0    0  0.17538206436E+02  0.32942323000E+02  0.22154862907E+02  0.47787270973E+02  0.19999999674E+02 0.  0.
        -12    1    1    2    0    0 -0.17538206436E+02 -0.32942323000E+02 -0.22154862907E+02  0.43400729027E+02  0.00000000000E+00 0.  1.
         11    1    3    3    0    0  0.32828826153E+01  0.89805026883E+01  0.14407092929E+02  0.17291358354E+02  0.51100000000E-03 0.  1.
        -11    1    3    3    0    0  0.34538736783E+01  0.44453977477E+01  0.58350838084E+01  0.81079595357E+01  0.51100000000E-03 0. -1.
        -12    1    3    3    0    0  0.10801450142E+02  0.19516422564E+02  0.19126861701E+01  0.22387953084E+02  0.00000000000E+00 0.  1.
</event>
<event>
 7    1  0.4630495E-010  0.4778727E+02  0.7816164E-02  0.1312668E+00
        -11   -1    0    0    0    0  0.00000000000E+00  0.00000000000E+00  0.45593999997E+02  0.45594000000E+02  0.51100000000E-03 0.  1.
         11   -1    0    0    0    0 -0.00000000000E+00 -0.00000000000E+00 -0.45593999997E+02  0.45594000000E+02  0.51100000000E-03 0. -1.
    9900012    2    1    2    0    0 -0.38046478906E+02 -0.57337854782E+01  0.20080150971E+02  0.47787270558E+02  0.19999997782E+02 0.  0.
        -12    1    1    2    0    0  0.38046478906E+02  0.57337854782E+01 -0.20080150971E+02  0.43400729442E+02  0.00000000000E+00 0.  1.
         11    1    3    3    0    0 -0.13885065578E+02 -0.82289996928E+01  0.11874129452E+02  0.20037625422E+02  0.51100000000E-03 0. -1.
        -11    1    3    3    0    0 -0.17897707452E+02  0.68170469599E+00  0.10589236833E+02  0.20806839988E+02  0.51100000000E-03 0.  1.
         12    1    3    3    0    0 -0.62637058764E+01  0.18135095186E+01 -0.23832153148E+01  0.69428051475E+01  0.00000000000E+00 0. -1.
</event>
<event>
 7    1  0.4630495E-010  0.4778727E+02  0.7816164E-02  0.1312668E+00
        -11   -1    0    0    0    0  0.00000000000E+00  0.00000000000E+00  0.45593999997E+02  0.45594000000E+02  0.51100000000E-03 0.  1.
         11   -1    0    0    0    0 -0.00000000000E+00 -0.00000000000E+00 -0.45593999997E+02  0.45594000000E+02  0.51100000000E-03 0. -1.
    9900012    2    1    2    0    0  0.28251199821E+02  0.27048219617E+02 -0.18811880780E+02  0.47787270349E+02  0.19999996830E+02 0.  0.
        -12    1    1    2    0    0 -0.28251199821E+02 -0.27048219617E+02  0.18811880780E+02  0.43400729651E+02  0.00000000000E+00 0.  1.
         11    1    3    3    0    0  0.17765318172E+02  0.15100134342E+02 -0.90582148010E+01  0.25013433242E+02  0.51100000000E-03 0. -1.
        -11    1    3    3    0    0  0.91801532710E+01  0.91181990246E+00 -0.61644867213E+01  0.11095383112E+02  0.51100000000E-03 0.  1.
         12    1    3    3    0    0  0.13057283774E+01  0.11036265372E+02 -0.35891792577E+01  0.11678453994E+02  0.00000000000E+00 0. -1.
</event>
<event>
 7    1  0.4630495E-010  0.4778727E+02  0.7816164E-02  0.1312668E+00
        -11   -1    0    0    0    0  0.00000000000E+00  0.00000000000E+00  0.45593999997E+02  0.45594000000E+02  0.51100000000E-03 0. -1.
         11   -1    0    0    0    0 -0.00000000000E+00 -0.00000000000E+00 -0.45593999997E+02  0.45594000000E+02  0.51100000000E-03 0.  1.
    9900012    2    1    2    0    0 -0.44610007428E+01  0.24710125730E+02  0.35399608798E+02  0.47787272538E+02  0.20000006810E+02 0.  0.
        -12    1    1    2    0    0  0.44610007428E+01 -0.24710125730E+02 -0.35399608798E+02  0.43400727462E+02  0.00000000000E+00 0.  1.
         11    1    3    3    0    0 -0.13219665530E+00  0.20126595605E+02  0.15710571556E+02  0.25532712066E+02  0.51100000000E-03 0. -1.
        -11    1    3    3    0    0  0.24247931011E+01  0.16094914921E+01  0.69099292519E+01  0.74978134795E+01  0.51100000000E-03 0.  1.
         12    1    3    3    0    0 -0.67535971886E+01  0.29740386330E+01  0.12779107990E+02  0.14756746992E+02  0.00000000000E+00 0. -1.
</event>
<event>
 7    1  0.4630495E-010  0.4778728E+02  0.7816164E-02  0.1312668E+00
        -11   -1    0    0    0    0  0.00000000000E+00  0.00000000000E+00  0.45593999997E+02  0.45594000000E+02  0.51100000000E-03 0.  1.
         11   -1    0    0    0    0 -0.00000000000E+00 -0.00000000000E+00 -0.45593999997E+02  0.45594000000E+02  0.51100000000E-03 0. -1.
    9900012    2    1    2    0    0  0.53742370715E+01 -0.25103335268E+02 -0.34993750656E+02  0.47787280528E+02  0.20000043240E+02 0.  0.
        -12    1    1    2    0    0 -0.53742370715E+01  0.25103335268E+02  0.34993750656E+02  0.43400719472E+02  0.00000000000E+00 0.  1.
         11    1    3    3    0    0 -0.44555579182E+01 -0.15754956631E+02 -0.24752554134E+02  0.29677594094E+02  0.51100000000E-03 0. -1.
        -11    1    3    3    0    0  0.18377231865E+01 -0.51003194257E+01 -0.60862220696E+01  0.81506186327E+01  0.51100000000E-03 0.  1.
        -12    1    3    3    0    0  0.79920718033E+01 -0.42480592113E+01 -0.41549744531E+01  0.99590678016E+01  0.00000000000E+00 0.  1.
</event>
<event>
 7    1  0.5969411E-010  0.4778726E+02  0.7816164E-02  0.1312668E+00
        -11   -1    0    0    0    0  0.00000000000E+00  0.00000000000E+00  0.45593999997E+02  0.45594000000E+02  0.51100000000E-03 0. -1.
         11   -1    0    0    0    0 -0.00000000000E+00 -0.00000000000E+00 -0.45593999997E+02  0.45594000000E+02  0.51100000000E-03 0.  1.
    9900012    2    1    2    0    0 -0.23646457005E+02 -0.19843756853E+02  0.30507286737E+02  0.47787260848E+02  0.19999953508E+02 0.  0.
        -12    1    1    2    0    0  0.23646457005E+02  0.19843756853E+02 -0.30507286737E+02  0.43400739152E+02  0.00000000000E+00 0.  1.
         11    1    3    3    0    0 -0.31916636082E+01  0.24869611255E+01  0.49075549237E+01  0.63604864451E+01  0.51100000000E-03 0. -1.
        -11    1    3    3    0    0 -0.48972084933E+01 -0.59300658025E+01  0.58809325405E+00  0.77132473955E+01  0.51100000000E-03 0.  1.
         12    1    3    3    0    0 -0.15557584904E+02 -0.16400652176E+02  0.25011638559E+02  0.33713527007E+02  0.00000000000E+00 0. -1.
</event>
<event>
 7    1  0.1258873E-009  0.4778727E+02  0.7816164E-02  0.1312668E+00
        -11   -1    0    0    0    0  0.00000000000E+00  0.00000000000E+00  0.45593999997E+02  0.45594000000E+02  0.51100000000E-03 0.  1.
         11   -1    0    0    0    0 -0.00000000000E+00 -0.00000000000E+00 -0.45593999997E+02  0.45594000000E+02  0.51100000000E-03 0. -1.
    9900012    2    1    2    0    0 -0.28064666932E+02  0.16264007277E+02 -0.28835395081E+02  0.47787268760E+02  0.19999989584E+02 0.  0.
        -12    1    1    2    0    0  0.28064666932E+02 -0.16264007277E+02  0.28835395081E+02  0.43400731240E+02  0.00000000000E+00 0.  1.
         11    1    3    3    0    0 -0.83020636665E+01  0.71567106200E+01 -0.48677675334E+01  0.11993245142E+02  0.51100000000E-03 0. -1.
        -11    1    3    3    0    0 -0.86800994000E+01 -0.26104887544E+01 -0.34556158087E+01  0.97005184403E+01  0.51100000000E-03 0.  1.
        -12    1    3    3    0    0 -0.11082503866E+02  0.11717785411E+02 -0.20512011739E+02  0.26093505177E+02  0.00000000000E+00 0.  1.
</event>
<event>
 7    1  0.4630495E-010  0.4778727E+02  0.7816164E-02  0.1312668E+00
        -11   -1    0    0    0    0  0.00000000000E+00  0.00000000000E+00  0.45593999997E+02  0.45594000000E+02  0.51100000000E-03 0.  1.
         11   -1    0    0    0    0 -0.00000000000E+00 -0.00000000000E+00 -0.45593999997E+02  0.45594000000E+02  0.51100000000E-03 0. -1.
    9900012    2    1    2    0    0  0.34376763583E+02  0.25345150537E+02  0.77126234156E+01  0.47787273161E+02  0.20000009651E+02 0.  0.
        -12    1    1    2    0    0 -0.34376763583E+02 -0.25345150537E+02 -0.77126234156E+01  0.43400726839E+02  0.00000000000E+00 0.  1.
         11    1    3    3    0    0  0.23145180606E+01  0.29751288732E+01  0.50829471763E+01  0.63280911753E+01  0.51100000000E-03 0. -1.
        -11    1    3    3    0    0  0.17990254973E+02  0.10295859974E+02  0.79002986433E+01  0.22182622151E+02  0.51100000000E-03 0.  1.
         12    1    3    3    0    0  0.14071990549E+02  0.12074161690E+02 -0.52706224040E+01  0.19276559835E+02  0.00000000000E+00 0. -1.
</event>
<event>
 7    1  0.4630495E-010  0.4778724E+02  0.7816164E-02  0.1312668E+00
        -11   -1    0    0    0    0  0.00000000000E+00  0.00000000000E+00  0.45593999997E+02  0.45594000000E+02  0.51100000000E-03 0.  1.
         11   -1    0    0    0    0 -0.00000000000E+00 -0.00000000000E+00 -0.45593999997E+02  0.45594000000E+02  0.51100000000E-03 0. -1.
    9900012    2    1    2    0    0 -0.17865182004E+02  0.26002435981E+02 -0.29804939681E+02  0.47787241547E+02  0.19999865508E+02 0.  0.
        -12    1    1    2    0    0  0.17865182004E+02 -0.26002435981E+02  0.29804939681E+02  0.43400758453E+02  0.00000000000E+00 0.  1.
         11    1    3    3    0    0 -0.31932366672E+01  0.10106672864E+02 -0.76124396773E+01  0.13049553053E+02  0.51100000000E-03 0.  1.
        -11    1    3    3    0    0 -0.16538207324E+02  0.10580630130E+02 -0.11771908298E+02  0.22891916929E+02  0.51100000000E-03 0. -1.
         12    1    3    3    0    0  0.18662619874E+01  0.53151329866E+01 -0.10420591705E+02  0.11845771564E+02  0.00000000000E+00 0. -1.
</event>
<event>
 7    1  0.4630495E-010  0.4778727E+02  0.7816164E-02  0.1312668E+00
        -11   -1    0    0    0    0  0.00000000000E+00  0.00000000000E+00  0.45593999997E+02  0.45594000000E+02  0.51100000000E-03 0.  1.
         11   -1    0    0    0    0 -0.00000000000E+00 -0.00000000000E+00 -0.45593999997E+02  0.45594000000E+02  0.51100000000E-03 0. -1.
    9900012    2    1    2    0    0 -0.64470261454E+01  0.15661611755E+01 -0.42890632419E+02  0.47787270096E+02  0.19999995674E+02 0.  0.
        -12    1    1    2    0    0  0.64470261454E+01 -0.15661611755E+01  0.42890632419E+02  0.43400729904E+02  0.00000000000E+00 0.  1.
         11    1    3    3    0    0  0.19142714720E+01  0.73595682750E+01 -0.16764736144E+02  0.18408803837E+02  0.51100000000E-03 0. -1.
        -11    1    3    3    0    0 -0.68998662800E+01 -0.31016925063E+01 -0.24992991482E+02  0.26112799057E+02  0.51100000000E-03 0.  1.
        -12    1    3    3    0    0 -0.14614313374E+01 -0.26917145932E+01 -0.11329047925E+01  0.32656672020E+01  0.00000000000E+00 0.  1.
</event>
<event>
 7    1  0.4630495E-010  0.4778727E+02  0.7816164E-02  0.1312668E+00
        -11   -1    0    0    0    0  0.00000000000E+00  0.00000000000E+00  0.45593999997E+02  0.45594000000E+02  0.51100000000E-03 0.  1.
         11   -1    0    0    0    0 -0.00000000000E+00 -0.00000000000E+00 -0.45593999997E+02  0.45594000000E+02  0.51100000000E-03 0. -1.
    9900012    2    1    2    0    0 -0.85900543880E+01  0.72278823226E+01 -0.41923644766E+02  0.47787270654E+02  0.19999998220E+02 0.  0.
        -12    1    1    2    0    0  0.85900543880E+01 -0.72278823226E+01  0.41923644766E+02  0.43400729346E+02  0.00000000000E+00 0.  1.
         11    1    3    3    0    0 -0.37285464554E-02 -0.15560797740E+01  0.27117906407E+00  0.15795368027E+01  0.51100000000E-03 0. -1.
        -11    1    3    3    0    0  0.25956411782E+01  0.11310544297E+01 -0.20030740543E+02  0.20229859223E+02  0.51100000000E-03 0.  1.
         12    1    3    3    0    0 -0.11181967020E+02  0.76529076669E+01 -0.22164083288E+02  0.25977874628E+02  0.00000000000E+00 0. -1.
</event>
<event>
 7    1  0.4630495E-010  0.4778727E+02  0.7816164E-02  0.1312668E+00
        -11   -1    0    0    0    0  0.00000000000E+00  0.00000000000E+00  0.45593999997E+02  0.45594000000E+02  0.51100000000E-03 0.  1.
         11   -1    0    0    0    0 -0.00000000000E+00 -0.00000000000E+00 -0.45593999997E+02  0.45594000000E+02  0.51100000000E-03 0. -1.
    9900012    2    1    2    0    0  0.10695574357E+02 -0.18470242829E+02 -0.37789917057E+02  0.47787274060E+02  0.20000013747E+02 0.  0.
        -12    1    1    2    0    0 -0.10695574357E+02  0.18470242829E+02  0.37789917057E+02  0.43400725940E+02  0.00000000000E+00 0.  1.
         11    1    3    3    0    0 -0.29617325775E+01 -0.10616576994E+01 -0.76691327359E+01  0.82894254393E+01  0.51100000000E-03 0. -1.
        -11    1    3    3    0    0  0.77379842517E+00 -0.84103316749E+01 -0.48498885957E+01  0.97392947659E+01  0.51100000000E-03 0.  1.
        -12    1    3    3    0    0  0.12883508509E+02 -0.89982534543E+01 -0.25270895725E+02  0.29758553854E+02  0.00000000000E+00 0.  1.
</event>
<event>
 7    1  0.4630495E-010  0.4778728E+02  0.7816164E-02  0.1312668E+00
        -11   -1    0    0    0    0  0.00000000000E+00  0.00000000000E+00  0.45593999997E+02  0.45594000000E+02  0.51100000000E-03 0.  1.
         11   -1    0    0    0    0 -0.00000000000E+00 -0.00000000000E+00 -0.45593999997E+02  0.45594000000E+02  0.51100000000E-03 0. -1.
    9900012    2    1    2    0    0  0.40755433691E+02  0.10595386540E+02 -0.10505012719E+02  0.47787275542E+02  0.20000020505E+02 0.  0.
        -12    1    1    2    0    0 -0.40755433691E+02 -0.10595386540E+02  0.10505012719E+02  0.43400724458E+02  0.00000000000E+00 0.  1.
         11    1    3    3    0    0  0.28062789061E+01  0.27185246781E+01 -0.42442315671E+00  0.39301034339E+01  0.51100000000E-03 0. -1.
        -11    1    3    3    0    0  0.23369084297E+02 -0.13128792258E+01  0.89756887705E+00  0.23423137768E+02  0.51100000000E-03 0.  1.
         12    1    3    3    0    0  0.14580070488E+02  0.91897410873E+01 -0.10978158439E+02  0.20434034340E+02  0.00000000000E+00 0. -1.
</event>
<event>
 7    1  0.4630495E-010  0.4778728E+02  0.7816164E-02  0.1312668E+00
        -11   -1    0    0    0    0  0.00000000000E+00  0.00000000000E+00  0.45593999997E+02  0.45594000000E+02  0.51100000000E-03 0. -1.
         11   -1    0    0    0    0 -0.00000000000E+00 -0.00000000000E+00 -0.45593999997E+02  0.45594000000E+02  0.51100000000E-03 0.  1.
    9900012    2    1    2    0    0 -0.52171175211E+00 -0.53148686907E+01  0.43070899549E+02  0.47787281108E+02  0.20000045886E+02 0.  0.
        -12    1    1    2    0    0  0.52171175211E+00  0.53148686907E+01 -0.43070899549E+02  0.43400718892E+02  0.00000000000E+00 0.  1.
         11    1    3    3    0    0  0.14315915403E+01  0.77119641642E-01  0.28178149038E+02  0.28214597025E+02  0.51100000000E-03 0. -1.
        -11    1    3    3    0    0  0.55345799663E+00 -0.55549790496E+00  0.14036373423E+02  0.14058259950E+02  0.51100000000E-03 0.  1.
        -12    1    3    3    0    0 -0.25067612890E+01 -0.48364904273E+01  0.85637708732E+00  0.55144241340E+01  0.00000000000E+00 0.  1.
</event>
<event>
 7    1  0.4630495E-010  0.4778727E+02  0.7816164E-02  0.1312668E+00
        -11   -1    0    0    0    0  0.00000000000E+00  0.00000000000E+00  0.45593999997E+02  0.45594000000E+02  0.51100000000E-03 0.  1.
         11   -1    0    0    0    0 -0.00000000000E+00 -0.00000000000E+00 -0.45593999997E+02  0.45594000000E+02  0.51100000000E-03 0. -1.
    9900012    2    1    2    0    0  0.27032964532E+02 -0.33889221026E+02 -0.20887318789E+01  0.47787271043E+02  0.19999999991E+02 0.  0.
        -12    1    1    2    0    0 -0.27032964532E+02  0.33889221026E+02  0.20887318789E+01  0.43400728957E+02  0.00000000000E+00 0.  1.
         11    1    3    3    0    0  0.20568369583E+02 -0.23873774589E+02 -0.47762649100E+01  0.31872051192E+02  0.51100000000E-03 0. -1.
        -11    1    3    3    0    0  0.68586169159E+01 -0.11527494856E+02  0.76163235661E+00  0.13435172041E+02  0.51100000000E-03 0.  1.
        -12    1    3    3    0    0 -0.39402196674E+00  0.15120484187E+01  0.19259006745E+01  0.24800478098E+01  0.00000000000E+00 0.  1.
</event>
<event>
 7    1  0.4630495E-010  0.4778726E+02  0.7816164E-02  0.1312668E+00
        -11   -1    0    0    0    0  0.00000000000E+00  0.00000000000E+00  0.45593999997E+02  0.45594000000E+02  0.51100000000E-03 0.  1.
         11   -1    0    0    0    0 -0.00000000000E+00 -0.00000000000E+00 -0.45593999997E+02  0.45594000000E+02  0.51100000000E-03 0. -1.
    9900012    2    1    2    0    0  0.28372921085E+02  0.32592056307E+02 -0.40447257876E+01  0.47787255860E+02  0.19999930769E+02 0.  0.
        -12    1    1    2    0    0 -0.28372921085E+02 -0.32592056307E+02  0.40447257876E+01  0.43400744140E+02  0.00000000000E+00 0.  1.
         11    1    3    3    0    0  0.25499616574E+01  0.10616692642E+02  0.55362323128E+01  0.12241990671E+02  0.51100000000E-03 0. -1.
        -11    1    3    3    0    0  0.21716262686E+01  0.38830702701E+01 -0.10923420920E+01  0.45812014669E+01  0.51100000000E-03 0.  1.
        -12    1    3    3    0    0  0.23651333159E+02  0.18092293395E+02 -0.84886160083E+01  0.30964063723E+02  0.00000000000E+00 0.  1.
</event>
<event>
 7    1  0.4630495E-010  0.4778727E+02  0.7816164E-02  0.1312668E+00
        -11   -1    0    0    0    0  0.00000000000E+00  0.00000000000E+00  0.45593999997E+02  0.45594000000E+02  0.51100000000E-03 0.  1.
         11   -1    0    0    0    0 -0.00000000000E+00 -0.00000000000E+00 -0.45593999997E+02  0.45594000000E+02  0.51100000000E-03 0. -1.
    9900012    2    1    2    0    0  0.21281882306E+01  0.43336687459E+02  0.10127847809E+01  0.47787269613E+02  0.19999993476E+02 0.  0.
        -12    1    1    2    0    0 -0.21281882306E+01 -0.43336687459E+02 -0.10127847809E+01  0.43400730387E+02  0.00000000000E+00 0.  1.
         11    1    3    3    0    0  0.50829347902E+00  0.19313806306E+02 -0.68334811484E+01  0.20493363344E+02  0.51100000000E-03 0. -1.
        -11    1    3    3    0    0 -0.22532575156E+01  0.65908376630E+01 -0.15202761336E+01  0.71293443118E+01  0.51100000000E-03 0.  1.
        -12    1    3    3    0    0  0.38731522673E+01  0.17432043490E+02  0.93665420629E+01  0.20164561958E+02  0.00000000000E+00 0.  1.
</event>
<event>
 7    1  0.4630495E-010  0.4778727E+02  0.7816164E-02  0.1312668E+00
        -11   -1    0    0    0    0  0.00000000000E+00  0.00000000000E+00  0.45593999997E+02  0.45594000000E+02  0.51100000000E-03 0.  1.
         11   -1    0    0    0    0 -0.00000000000E+00 -0.00000000000E+00 -0.45593999997E+02  0.45594000000E+02  0.51100000000E-03 0. -1.
    9900012    2    1    2    0    0 -0.13483541146E+02  0.12901896678E+02 -0.39183651004E+02  0.47787270448E+02  0.19999997278E+02 0.  0.
        -12    1    1    2    0    0  0.13483541146E+02 -0.12901896678E+02  0.39183651004E+02  0.43400729552E+02  0.00000000000E+00 0.  1.
         11    1    3    3    0    0 -0.49071323430E+01  0.68240408403E+01 -0.14310244243E+02  0.16596101101E+02  0.51100000000E-03 0. -1.
        -11    1    3    3    0    0 -0.78313090358E+01  0.83925716303E+01 -0.76442857114E+01  0.13791293053E+02  0.51100000000E-03 0.  1.
         12    1    3    3    0    0 -0.74509976697E+00 -0.23147157928E+01 -0.17229121050E+02  0.17399876293E+02  0.00000000000E+00 0. -1.
</event>
<event>
 7    1  0.4630495E-010  0.4778727E+02  0.7816164E-02  0.1312668E+00
        -11   -1    0    0    0    0  0.00000000000E+00  0.00000000000E+00  0.45593999997E+02  0.45594000000E+02  0.51100000000E-03 0. -1.
         11   -1    0    0    0    0 -0.00000000000E+00 -0.00000000000E+00 -0.45593999997E+02  0.45594000000E+02  0.51100000000E-03 0.  1.
    9900012    2    1    2    0    0 -0.24105355287E+02  0.18909147163E+02  0.30740844707E+02  0.47787268056E+02  0.19999986377E+02 0.  0.
        -12    1    1    2    0    0  0.24105355287E+02 -0.18909147163E+02 -0.30740844707E+02  0.43400731944E+02  0.00000000000E+00 0.  1.
         11    1    3    3    0    0 -0.83814455037E+01  0.10433246487E+02  0.82966167944E+01  0.15745955401E+02  0.51100000000E-03 0. -1.
        -11    1    3    3    0    0  0.14623480867E+01  0.51272801869E+01  0.46077790874E+01  0.70469207759E+01  0.51100000000E-03 0.  1.
        -12    1    3    3    0    0 -0.17186257870E+02  0.33486204890E+01  0.17836448825E+02  0.24994391880E+02  0.00000000000E+00 0.  1.
</event>
<event>
 7    1  0.4630495E-010  0.4778727E+02  0.7816164E-02  0.1312668E+00
        -11   -1    0    0    0    0  0.00000000000E+00  0.00000000000E+00  0.45593999997E+02  0.45594000000E+02  0.51100000000E-03 0.  1.
         11   -1    0    0    0    0 -0.00000000000E+00 -0.00000000000E+00 -0.45593999997E+02  0.45594000000E+02  0.51100000000E-03 0. -1.
    9900012    2    1    2    0    0 -0.11842220034E+02 -0.24743485502E+02 -0.33632499906E+02  0.47787270743E+02  0.19999998628E+02 0.  0.
        -12    1    1    2    0    0  0.11842220034E+02  0.24743485502E+02  0.33632499906E+02  0.43400729257E+02  0.00000000000E+00 0.  1.
         11    1    3    3    0    0  0.22643725802E+01 -0.15192363010E+01 -0.69057355138E+01  0.74245973203E+01  0.51100000000E-03 0. -1.
        -11    1    3    3    0    0  0.26273848106E+01 -0.28452514908E+01 -0.36495589980E+01  0.53214554523E+01  0.51100000000E-03 0.  1.
         12    1    3    3    0    0 -0.16733977424E+02 -0.20378997710E+02 -0.23077205394E+02  0.35041217971E+02  0.00000000000E+00 0. -1.
</event>
<event>
 7    1  0.4630495E-010  0.4778727E+02  0.7816164E-02  0.1312668E+00
        -11   -1    0    0    0    0  0.00000000000E+00  0.00000000000E+00  0.45593999997E+02  0.45594000000E+02  0.51100000000E-03 0.  1.
         11   -1    0    0    0    0 -0.00000000000E+00 -0.00000000000E+00 -0.45593999997E+02  0.45594000000E+02  0.51100000000E-03 0. -1.
    9900012    2    1    2    0    0 -0.10426288449E+02 -0.42008697447E+02  0.31913844265E+01  0.47787273203E+02  0.20000009840E+02 0.  0.
        -12    1    1    2    0    0  0.10426288449E+02  0.42008697447E+02 -0.31913844265E+01  0.43400726797E+02  0.00000000000E+00 0.  1.
         11    1    3    3    0    0 -0.57266781364E+01 -0.26061993698E+02 -0.17072755404E+01  0.26738308623E+02  0.51100000000E-03 0. -1.
        -11    1    3    3    0    0  0.27467152332E+01 -0.67972268273E+01 -0.17090344083E+01  0.75277842679E+01  0.51100000000E-03 0.  1.
        -12    1    3    3    0    0 -0.74463255456E+01 -0.91494769214E+01  0.66076943752E+01  0.13521180312E+02  0.00000000000E+00 0.  1.
</event>
<event>
 7    1  0.4630495E-010  0.4778729E+02  0.7816164E-02  0.1312668E+00
        -11   -1    0    0    0    0  0.00000000000E+00  0.00000000000E+00  0.45593999997E+02  0.45594000000E+02  0.51100000000E-03 0. -1.
         11   -1    0    0    0    0 -0.00000000000E+00 -0.00000000000E+00 -0.45593999997E+02  0.45594000000E+02  0.51100000000E-03 0.  1.
    9900012    2    1    2    0    0  0.74989496139E+01 -0.37106700422E+02  0.21224520438E+02  0.47787288838E+02  0.20000081130E+02 0.  0.
        -12    1    1    2    0    0 -0.74989496139E+01  0.37106700422E+02 -0.21224520438E+02  0.43400711162E+02  0.00000000000E+00 0.  1.
         11    1    3    3    0    0  0.87839887593E+01 -0.18409941782E+02  0.85260052221E+01  0.22108305685E+02  0.51100000000E-03 0. -1.
        -11    1    3    3    0    0 -0.56843741847E+00 -0.20420517978E+02  0.11956026418E+02  0.23669965009E+02  0.51100000000E-03 0.  1.
        -12    1    3    3    0    0 -0.71660172695E+00  0.17237593378E+01  0.74248879855E+00  0.20090181447E+01  0.00000000000E+00 0.  1.
</event>
<event>
 7    1  0.4630495E-010  0.4778727E+02  0.7816164E-02  0.1312668E+00
        -11   -1    0    0    0    0  0.00000000000E+00  0.00000000000E+00  0.45593999997E+02  0.45594000000E+02  0.51100000000E-03 0. -1.
         11   -1    0    0    0    0 -0.00000000000E+00 -0.00000000000E+00 -0.45593999997E+02  0.45594000000E+02  0.51100000000E-03 0.  1.
    9900012    2    1    2    0    0 -0.12056592886E+02  0.37548703709E+02  0.18120616982E+02  0.47787270259E+02  0.19999996418E+02 0.  0.
        -12    1    1    2    0    0  0.12056592886E+02 -0.37548703709E+02 -0.18120616982E+02  0.43400729741E+02  0.00000000000E+00 0.  1.
         11    1    3    3    0    0  0.30057959081E+01  0.94717021613E+01  0.38046149242E+01  0.10640631835E+02  0.51100000000E-03 0. -1.
        -11    1    3    3    0    0 -0.41543438442E+01  0.15328271393E+02  0.13432555785E+01  0.15937967640E+02  0.51100000000E-03 0.  1.
         12    1    3    3    0    0 -0.10908044950E+02  0.12748730154E+02  0.12972746479E+02  0.21208670783E+02  0.00000000000E+00 0. -1.
</event>
<event>
 7    1  0.4630495E-010  0.4778726E+02  0.7816164E-02  0.1312668E+00
        -11   -1    0    0    0    0  0.00000000000E+00  0.00000000000E+00  0.45593999997E+02  0.45594000000E+02  0.51100000000E-03 0.  1.
         11   -1    0    0    0    0 -0.00000000000E+00 -0.00000000000E+00 -0.45593999997E+02  0.45594000000E+02  0.51100000000E-03 0. -1.
    9900012    2    1    2    0    0  0.34704678155E+02 -0.23806756892E+02 -0.10604145392E+02  0.47787259694E+02  0.19999948249E+02 0.  0.
        -12    1    1    2    0    0 -0.34704678155E+02  0.23806756892E+02  0.10604145392E+02  0.43400740306E+02  0.00000000000E+00 0.  1.
         11    1    3    3    0    0  0.55806812818E+01  0.25736472203E+01 -0.43442368233E+01  0.75259589038E+01  0.51100000000E-03 0. -1.
        -11    1    3    3    0    0  0.73699792660E+01 -0.48627682505E+01  0.77901323838E+00  0.88639704042E+01  0.51100000000E-03 0.  1.
        -12    1    3    3    0    0  0.21754017608E+02 -0.21517635862E+02 -0.70389218074E+01  0.31397330386E+02  0.00000000000E+00 0.  1.
</event>
<event>
 7    1  0.4630495E-010  0.4778727E+02  0.7816164E-02  0.1312668E+00
        -11   -1    0    0    0    0  0.00000000000E+00  0.00000000000E+00  0.45593999997E+02  0.45594000000E+02  0.51100000000E-03 0.  1.
         11   -1    0    0    0    0 -0.00000000000E+00 -0.00000000000E+00 -0.45593999997E+02  0.45594000000E+02  0.51100000000E-03 0. -1.
    9900012    2    1    2    0    0 -0.35308998445E+02 -0.25172699453E+02  0.17979980141E+01  0.47787274593E+02  0.20000016180E+02 0.  0.
        -12    1    1    2    0    0  0.35308998445E+02  0.25172699453E+02 -0.17979980141E+01  0.43400725407E+02  0.00000000000E+00 0.  1.
         11    1    3    3    0    0 -0.80680766966E+00 -0.37289686179E+01 -0.27127093668E+01  0.46813393318E+01  0.51100000000E-03 0. -1.
        -11    1    3    3    0    0 -0.19822826566E+01 -0.66572520217E+01 -0.79077700956E+00  0.69909782971E+01  0.51100000000E-03 0.  1.
        -12    1    3    3    0    0 -0.32519908119E+02 -0.14786478814E+02  0.53014843905E+01  0.36114956964E+02  0.00000000000E+00 0.  1.
</event>
<event>
 7    1  0.4630495E-010  0.4778727E+02  0.7816164E-02  0.1312668E+00
        -11   -1    0    0    0    0  0.00000000000E+00  0.00000000000E+00  0.45593999997E+02  0.45594000000E+02  0.51100000000E-03 0.  1.
         11   -1    0    0    0    0 -0.00000000000E+00 -0.00000000000E+00 -0.45593999997E+02  0.45594000000E+02  0.51100000000E-03 0. -1.
    9900012    2    1    2    0    0  0.11257638143E+02 -0.16575232223E+02 -0.38498709427E+02  0.47787269968E+02  0.19999995090E+02 0.  0.
        -12    1    1    2    0    0 -0.11257638143E+02  0.16575232223E+02  0.38498709427E+02  0.43400730032E+02  0.00000000000E+00 0.  1.
         11    1    3    3    0    0  0.12892371446E+02 -0.89722841323E+01 -0.26295618762E+02  0.30629637451E+02  0.51100000000E-03 0. -1.
        -11    1    3    3    0    0  0.30094824833E+01 -0.66783049558E+01 -0.74956053581E+01  0.10480498168E+02  0.51100000000E-03 0.  1.
        -12    1    3    3    0    0 -0.46442157863E+01 -0.92464313506E+00 -0.47074853071E+01  0.66771343489E+01  0.00000000000E+00 0.  1.
</event>
<event>
 7    1  0.4630495E-010  0.4778728E+02  0.7816164E-02  0.1312668E+00
        -11   -1    0    0    0    0  0.00000000000E+00  0.00000000000E+00  0.45593999997E+02  0.45594000000E+02  0.51100000000E-03 0. -1.
         11   -1    0    0    0    0 -0.00000000000E+00 -0.00000000000E+00 -0.45593999997E+02  0.45594000000E+02  0.51100000000E-03 0.  1.
    9900012    2    1    2    0    0  0.40418273161E+02 -0.13544697827E+01  0.15752817222E+02  0.47787278299E+02  0.20000033078E+02 0.  0.
        -12    1    1    2    0    0 -0.40418273161E+02  0.13544697827E+01 -0.15752817222E+02  0.43400721701E+02  0.00000000000E+00 0.  1.
         11    1    3    3    0    0  0.18840974255E+02 -0.26334231969E+01  0.10016042827E+02  0.21499728901E+02  0.51100000000E-03 0. -1.
        -11    1    3    3    0    0  0.14402665953E+02 -0.56268867720E+01  0.17523056903E+01  0.15561787070E+02  0.51100000000E-03 0.  1.
         12    1    3    3    0    0  0.71746329522E+01  0.69058401862E+01  0.39844687043E+01  0.10725762329E+02  0.00000000000E+00 0. -1.
</event>
<event>
 7    1  0.4630495E-010  0.4778727E+02  0.7816164E-02  0.1312668E+00
        -11   -1    0    0    0    0  0.00000000000E+00  0.00000000000E+00  0.45593999997E+02  0.45594000000E+02  0.51100000000E-03 0.  1.
         11   -1    0    0    0    0 -0.00000000000E+00 -0.00000000000E+00 -0.45593999997E+02  0.45594000000E+02  0.51100000000E-03 0. -1.
    9900012    2    1    2    0    0 -0.21652221535E+01  0.36989923021E+02 -0.22598244316E+02  0.47787271455E+02  0.20000001872E+02 0.  0.
        -12    1    1    2    0    0  0.21652221535E+01 -0.36989923021E+02  0.22598244316E+02  0.43400728545E+02  0.00000000000E+00 0.  1.
         11    1    3    3    0    0 -0.35837461149E+00  0.18939044053E+02 -0.17730962433E+02  0.25946152915E+02  0.51100000000E-03 0. -1.
        -11    1    3    3    0    0 -0.61705427400E+00 -0.26975422841E+00 -0.33525403868E+01  0.34195102905E+01  0.51100000000E-03 0.  1.
        -12    1    3    3    0    0 -0.11897932680E+01  0.18320633195E+02 -0.15147414967E+01  0.18421608250E+02  0.00000000000E+00 0.  1.
</event>
<event>
 7    1  0.4630495E-010  0.4778729E+02  0.7816164E-02  0.1312668E+00
        -11   -1    0    0    0    0  0.00000000000E+00  0.00000000000E+00  0.45593999997E+02  0.45594000000E+02  0.51100000000E-03 0.  1.
         11   -1    0    0    0    0 -0.00000000000E+00 -0.00000000000E+00 -0.45593999997E+02  0.45594000000E+02  0.51100000000E-03 0. -1.
    9900012    2    1    2    0    0 -0.19677036932E+02  0.98969719988E+01 -0.37396334763E+02  0.47787289281E+02  0.20000083147E+02 0.  0.
        -12    1    1    2    0    0  0.19677036932E+02 -0.98969719988E+01  0.37396334763E+02  0.43400710719E+02  0.00000000000E+00 0.  1.
         11    1    3    3    0    0 -0.62115358355E+01  0.45452743695E+01 -0.25060100607E+02  0.26215479001E+02  0.51100000000E-03 0. -1.
        -11    1    3    3    0    0  0.15582054085E+01  0.15395495765E+01 -0.13449906929E+01  0.25704507812E+01  0.51100000000E-03 0.  1.
         12    1    3    3    0    0 -0.15023706506E+02  0.38121480528E+01 -0.10991243463E+02  0.19001359499E+02  0.00000000000E+00 0. -1.
</event>
<event>
 7    1  0.4630495E-010  0.4778727E+02  0.7816164E-02  0.1312668E+00
        -11   -1    0    0    0    0  0.00000000000E+00  0.00000000000E+00  0.45593999997E+02  0.45594000000E+02  0.51100000000E-03 0.  1.
         11   -1    0    0    0    0 -0.00000000000E+00 -0.00000000000E+00 -0.45593999997E+02  0.45594000000E+02  0.51100000000E-03 0. -1.
    9900012    2    1    2    0    0  0.22447758293E+02 -0.20567850122E+02 -0.30930328827E+02  0.47787267836E+02  0.19999985370E+02 0.  0.
        -12    1    1    2    0    0 -0.22447758293E+02  0.20567850122E+02  0.30930328827E+02  0.43400732164E+02  0.00000000000E+00 0.  1.
         11    1    3    3    0    0  0.13729891803E+00 -0.38898442515E+01 -0.62115533016E+01  0.73302888056E+01  0.51100000000E-03 0. -1.
        -11    1    3    3    0    0  0.76549676550E+01 -0.32551979325E+00 -0.14140995647E+02  0.16083291052E+02  0.51100000000E-03 0.  1.
         12    1    3    3    0    0  0.14655491720E+02 -0.16352486078E+02 -0.10577779879E+02  0.24373687978E+02  0.00000000000E+00 0. -1.
</event>
<event>
 7    1  0.4630495E-010  0.4778727E+02  0.7816164E-02  0.1312668E+00
        -11   -1    0    0    0    0  0.00000000000E+00  0.00000000000E+00  0.45593999997E+02  0.45594000000E+02  0.51100000000E-03 0. -1.
         11   -1    0    0    0    0 -0.00000000000E+00 -0.00000000000E+00 -0.45593999997E+02  0.45594000000E+02  0.51100000000E-03 0.  1.
    9900012    2    1    2    0    0 -0.49936950973E+01 -0.13830830133E+02  0.40833737768E+02  0.47787274280E+02  0.20000014753E+02 0.  0.
        -12    1    1    2    0    0  0.49936950973E+01  0.13830830133E+02 -0.40833737768E+02  0.43400725720E+02  0.00000000000E+00 0.  1.
         11    1    3    3    0    0  0.18453836371E+01 -0.97144712979E+01  0.24516876427E+02  0.26435839751E+02  0.51100000000E-03 0. -1.
        -11    1    3    3    0    0  0.28774449339E+01  0.10101199307E+00  0.18536292102E+01  0.34243005534E+01  0.51100000000E-03 0.  1.
        -12    1    3    3    0    0 -0.97165236683E+01 -0.42173708285E+01  0.14463232131E+02  0.17927133975E+02  0.00000000000E+00 0.  1.
</event>
<event>
 7    1  0.4630495E-010  0.4778727E+02  0.7816164E-02  0.1312668E+00
        -11   -1    0    0    0    0  0.00000000000E+00  0.00000000000E+00  0.45593999997E+02  0.45594000000E+02  0.51100000000E-03 0.  1.
         11   -1    0    0    0    0 -0.00000000000E+00 -0.00000000000E+00 -0.45593999997E+02  0.45594000000E+02  0.51100000000E-03 0. -1.
    9900012    2    1    2    0    0  0.58823871575E+01  0.36413546638E+02 -0.22870828523E+02  0.47787266657E+02  0.19999979995E+02 0.  0.
        -12    1    1    2    0    0 -0.58823871575E+01 -0.36413546638E+02  0.22870828523E+02  0.43400733343E+02  0.00000000000E+00 0.  1.
         11    1    3    3    0    0  0.54084095651E+01  0.85340480070E+01 -0.34632746765E+01  0.10680596479E+02  0.51100000000E-03 0. -1.
        -11    1    3    3    0    0  0.51392558436E+01  0.20261374927E+02 -0.18864947498E+02  0.28157086300E+02  0.51100000000E-03 0.  1.
        -12    1    3    3    0    0 -0.46652782512E+01  0.76181237036E+01 -0.54260634848E+00  0.89495838771E+01  0.00000000000E+00 0.  1.
</event>
<event>
 7    1  0.4630495E-010  0.4778731E+02  0.7816164E-02  0.1312668E+00
        -11   -1    0    0    0    0  0.00000000000E+00  0.00000000000E+00  0.45593999997E+02  0.45594000000E+02  0.51100000000E-03 0. -1.
         11   -1    0    0    0    0 -0.00000000000E+00 -0.00000000000E+00 -0.45593999997E+02  0.45594000000E+02  0.51100000000E-03 0.  1.
    9900012    2    1    2    0    0  0.15624337904E+02  0.85809509807E+01  0.39571042028E+02  0.47787308510E+02  0.20000170820E+02 0.  0.
        -12    1    1    2    0    0 -0.15624337904E+02 -0.85809509807E+01 -0.39571042028E+02  0.43400691490E+02  0.00000000000E+00 0.  1.
         11    1    3    3    0    0  0.43946362543E+01 -0.51596591163E+00  0.15264262105E+02  0.15892663291E+02  0.51100000000E-03 0. -1.
        -11    1    3    3    0    0 -0.24377309803E+01  0.58146041576E+01  0.10122739550E+02  0.11925686987E+02  0.51100000000E-03 0.  1.
        -12    1    3    3    0    0  0.13667432630E+02  0.32823127347E+01  0.14184040373E+02  0.19968958232E+02  0.00000000000E+00 0.  1.
</event>
<event>
 7    1  0.4630495E-010  0.4778727E+02  0.7816164E-02  0.1312668E+00
        -11   -1    0    0    0    0  0.00000000000E+00  0.00000000000E+00  0.45593999997E+02  0.45594000000E+02  0.51100000000E-03 0. -1.
         11   -1    0    0    0    0 -0.00000000000E+00 -0.00000000000E+00 -0.45593999997E+02  0.45594000000E+02  0.51100000000E-03 0.  1.
    9900012    2    1    2    0    0  0.52135232076E+01  0.10924485511E+01  0.43072602225E+02  0.47787270392E+02  0.19999997027E+02 0.  0.
        -12    1    1    2    0    0 -0.52135232076E+01 -0.10924485511E+01 -0.43072602225E+02  0.43400729608E+02  0.00000000000E+00 0.  1.
         11    1    3    3    0    0  0.11553181673E+01  0.24870982641E+00  0.28310003126E+02  0.28334658881E+02  0.51100000000E-03 0. -1.
        -11    1    3    3    0    0 -0.19892616493E+01 -0.35948959807E+01  0.93176239494E+01  0.10183248762E+02  0.51100000000E-03 0.  1.
        -12    1    3    3    0    0  0.60474666897E+01  0.44386347054E+01  0.54449751492E+01  0.92693627498E+01  0.00000000000E+00 0.  1.
</event>
<event>
 7    1  0.4630495E-010  0.4778727E+02  0.7816164E-02  0.1312668E+00
        -11   -1    0    0    0    0  0.00000000000E+00  0.00000000000E+00  0.45593999997E+02  0.45594000000E+02  0.51100000000E-03 0.  1.
         11   -1    0    0    0    0 -0.00000000000E+00 -0.00000000000E+00 -0.45593999997E+02  0.45594000000E+02  0.51100000000E-03 0. -1.
    9900012    2    1    2    0    0  0.32798132245E+02  0.12189342081E+02 -0.25677335921E+02  0.47787272827E+02  0.20000008129E+02 0.  0.
        -12    1    1    2    0    0 -0.32798132245E+02 -0.12189342081E+02  0.25677335921E+02  0.43400727173E+02  0.00000000000E+00 0.  1.
         11    1    3    3    0    0  0.12220120265E+02  0.58736803772E+01 -0.12300204785E+01  0.13614125426E+02  0.51100000000E-03 0. -1.
        -11    1    3    3    0    0  0.19470740046E+01  0.46892771755E+01 -0.40061550214E+01  0.64675881072E+01  0.51100000000E-03 0.  1.
        -12    1    3    3    0    0  0.18630937975E+02  0.16263845280E+01 -0.20441160421E+02  0.27705559294E+02  0.00000000000E+00 0.  1.
</event>
<event>
 7    1  0.4630495E-010  0.4778726E+02  0.7816164E-02  0.1312668E+00
        -11   -1    0    0    0    0  0.00000000000E+00  0.00000000000E+00  0.45593999997E+02  0.45594000000E+02  0.51100000000E-03 0.  1.
         11   -1    0    0    0    0 -0.00000000000E+00 -0.00000000000E+00 -0.45593999997E+02  0.45594000000E+02  0.51100000000E-03 0. -1.
    9900012    2    1    2    0    0  0.18825734684E+00 -0.31926502198E+02 -0.29398756563E+02  0.47787264167E+02  0.19999968642E+02 0.  0.
        -12    1    1    2    0    0 -0.18825734684E+00  0.31926502198E+02  0.29398756563E+02  0.43400735833E+02  0.00000000000E+00 0.  1.
         11    1    3    3    0    0  0.21039065056E+01 -0.12805291661E+02 -0.23203258391E+02  0.26585581004E+02  0.51100000000E-03 0. -1.
        -11    1    3    3    0    0 -0.39485908865E+00  0.40698128682E+00  0.19279702869E+00  0.59893106707E+00  0.51100000000E-03 0.  1.
         12    1    3    3    0    0 -0.15207900701E+01 -0.19528191824E+02 -0.63882952004E+01  0.20602752095E+02  0.00000000000E+00 0. -1.
</event>
<event>
 7    1  0.4630495E-010  0.4778727E+02  0.7816164E-02  0.1312668E+00
        -11   -1    0    0    0    0  0.00000000000E+00  0.00000000000E+00  0.45593999997E+02  0.45594000000E+02  0.51100000000E-03 0.  1.
         11   -1    0    0    0    0 -0.00000000000E+00 -0.00000000000E+00 -0.45593999997E+02  0.45594000000E+02  0.51100000000E-03 0. -1.
    9900012    2    1    2    0    0  0.23946721482E+02 -0.22704643127E+02 -0.28190019012E+02  0.47787268887E+02  0.19999990163E+02 0.  0.
        -12    1    1    2    0    0 -0.23946721482E+02  0.22704643127E+02  0.28190019012E+02  0.43400731113E+02  0.00000000000E+00 0.  1.
         11    1    3    3    0    0  0.61779372684E+01 -0.12267145064E+02 -0.15475688446E+02  0.20691705827E+02  0.51100000000E-03 0. -1.
        -11    1    3    3    0    0  0.11191202949E+01 -0.50998601496E+01  0.40442652254E+00  0.52368468426E+01  0.51100000000E-03 0.  1.
        -12    1    3    3    0    0  0.16649663919E+02 -0.53376379139E+01 -0.13118757088E+02  0.21858716217E+02  0.00000000000E+00 0.  1.
</event>
<event>
 7    1  0.4630495E-010  0.4778726E+02  0.7816164E-02  0.1312668E+00
        -11   -1    0    0    0    0  0.00000000000E+00  0.00000000000E+00  0.45593999997E+02  0.45594000000E+02  0.51100000000E-03 0. -1.
         11   -1    0    0    0    0 -0.00000000000E+00 -0.00000000000E+00 -0.45593999997E+02  0.45594000000E+02  0.51100000000E-03 0.  1.
    9900012    2    1    2    0    0 -0.12621142435E+02 -0.43755159649E+01  0.41293900713E+02  0.47787255624E+02  0.19999929692E+02 0.  0.
        -12    1    1    2    0    0  0.12621142435E+02  0.43755159649E+01 -0.41293900713E+02  0.43400744376E+02  0.00000000000E+00 0.  1.
         11    1    3    3    0    0 -0.15620077054E+01  0.15334270727E+01  0.54346312661E+01  0.58588807735E+01  0.51100000000E-03 0. -1.
        -11    1    3    3    0    0  0.15986505990E+01 -0.32785267671E+01  0.24342858779E+02  0.24614613450E+02  0.51100000000E-03 0.  1.
        -12    1    3    3    0    0 -0.12657785328E+02 -0.26304162705E+01  0.11516410668E+02  0.17313761401E+02  0.00000000000E+00 0.  1.
</event>
<event>
 7    1  0.4630495E-010  0.4778727E+02  0.7816164E-02  0.1312668E+00
        -11   -1    0    0    0    0  0.00000000000E+00  0.00000000000E+00  0.45593999997E+02  0.45594000000E+02  0.51100000000E-03 0.  1.
         11   -1    0    0    0    0 -0.00000000000E+00 -0.00000000000E+00 -0.45593999997E+02  0.45594000000E+02  0.51100000000E-03 0. -1.
    9900012    2    1    2    0    0 -0.20292583404E+01  0.33043519177E+02 -0.28064770669E+02  0.47787269571E+02  0.19999993284E+02 0.  0.
        -12    1    1    2    0    0  0.20292583404E+01 -0.33043519177E+02  0.28064770669E+02  0.43400730429E+02  0.00000000000E+00 0.  1.
         11    1    3    3    0    0  0.25659357786E+01 -0.24205432729E+00 -0.27092058574E+01  0.37393065341E+01  0.51100000000E-03 0.  1.
        -11    1    3    3    0    0  0.33264365499E+01  0.25159856253E+01 -0.20723297398E+01  0.46572432402E+01  0.51100000000E-03 0. -1.
         12    1    3    3    0    0 -0.79216306689E+01  0.30769587880E+02 -0.23283235072E+02  0.39390719797E+02  0.00000000000E+00 0. -1.
</event>
<event>
 7    1  0.4630495E-010  0.4778727E+02  0.7816164E-02  0.1312668E+00
        -11   -1    0    0    0    0  0.00000000000E+00  0.00000000000E+00  0.45593999997E+02  0.45594000000E+02  0.51100000000E-03 0.  1.
         11   -1    0    0    0    0 -0.00000000000E+00 -0.00000000000E+00 -0.45593999997E+02  0.45594000000E+02  0.51100000000E-03 0. -1.
    9900012    2    1    2    0    0 -0.13829772596E+01 -0.16546176553E+02 -0.40099062162E+02  0.47787269927E+02  0.19999994905E+02 0.  0.
        -12    1    1    2    0    0  0.13829772596E+01  0.16546176553E+02  0.40099062162E+02  0.43400730073E+02  0.00000000000E+00 0.  1.
         11    1    3    3    0    0 -0.42668079556E+01 -0.22399484112E+01 -0.17377341078E+02  0.18033163954E+02  0.51100000000E-03 0.  1.
        -11    1    3    3    0    0  0.55459589316E+01 -0.43031557206E+01 -0.15835360262E+02  0.17321473509E+02  0.51100000000E-03 0. -1.
        -12    1    3    3    0    0 -0.26621282355E+01 -0.10003072421E+02 -0.68863608215E+01  0.12432632464E+02  0.00000000000E+00 0.  1.
</event>
<event>
 7    1  0.4812645E-010  0.4778727E+02  0.7816164E-02  0.1312668E+00
        -11   -1    0    0    0    0  0.00000000000E+00  0.00000000000E+00  0.45593999997E+02  0.45594000000E+02  0.51100000000E-03 0.  1.
         11   -1    0    0    0    0 -0.00000000000E+00 -0.00000000000E+00 -0.45593999997E+02  0.45594000000E+02  0.51100000000E-03 0. -1.
    9900012    2    1    2    0    0 -0.80855583778E+01  0.17440703881E+02 -0.38911035379E+02  0.47787273273E+02  0.20000010163E+02 0.  0.
        -12    1    1    2    0    0  0.80855583778E+01 -0.17440703881E+02  0.38911035379E+02  0.43400726727E+02  0.00000000000E+00 0.  1.
         11    1    3    3    0    0 -0.82174204636E+01  0.58632725537E+01 -0.11002027220E+02  0.14931462331E+02  0.51100000000E-03 0. -1.
        -11    1    3    3    0    0  0.13366700665E+01  0.22893849930E+01  0.70898841464E+00  0.27442003109E+01  0.51100000000E-03 0.  1.
         12    1    3    3    0    0 -0.12048079807E+01  0.92880463338E+01 -0.28617996574E+02  0.30111610632E+02  0.00000000000E+00 0. -1.
</event>
<event>
 7    1  0.4630495E-010  0.4778727E+02  0.7816164E-02  0.1312668E+00
        -11   -1    0    0    0    0  0.00000000000E+00  0.00000000000E+00  0.45593999997E+02  0.45594000000E+02  0.51100000000E-03 0. -1.
         11   -1    0    0    0    0 -0.00000000000E+00 -0.00000000000E+00 -0.45593999997E+02  0.45594000000E+02  0.51100000000E-03 0.  1.
    9900012    2    1    2    0    0  0.18685307440E+02  0.34354870353E+02 -0.18820879214E+02  0.47787270450E+02  0.19999997289E+02 0.  0.
        -12    1    1    2    0    0 -0.18685307440E+02 -0.34354870353E+02  0.18820879214E+02  0.43400729550E+02  0.00000000000E+00 0.  1.
         11    1    3    3    0    0  0.53692812949E+01  0.23748636361E+02 -0.88170389611E+01  0.25895310134E+02  0.51100000000E-03 0. -1.
        -11    1    3    3    0    0  0.44205332456E+00  0.43706217772E+01 -0.51889434384E+01  0.67987410694E+01  0.51100000000E-03 0.  1.
        -12    1    3    3    0    0  0.12873972821E+02  0.62356122144E+01 -0.48148968145E+01  0.15093219246E+02  0.00000000000E+00 0.  1.
</event>
<event>
 7    1  0.4630495E-010  0.4778727E+02  0.7816164E-02  0.1312668E+00
        -11   -1    0    0    0    0  0.00000000000E+00  0.00000000000E+00  0.45593999997E+02  0.45594000000E+02  0.51100000000E-03 0.  1.
         11   -1    0    0    0    0 -0.00000000000E+00 -0.00000000000E+00 -0.45593999997E+02  0.45594000000E+02  0.51100000000E-03 0. -1.
    9900012    2    1    2    0    0  0.11529846529E+02 -0.29789788185E+02 -0.29381192805E+02  0.47787270378E+02  0.19999996961E+02 0.  0.
        -12    1    1    2    0    0 -0.11529846529E+02  0.29789788185E+02  0.29381192805E+02  0.43400729622E+02  0.00000000000E+00 0.  1.
         11    1    3    3    0    0  0.20466640243E+01 -0.12356099756E+02 -0.22935992179E+02  0.26132771998E+02  0.51100000000E-03 0. -1.
        -11    1    3    3    0    0  0.15397206976E+01 -0.82946229200E+01 -0.38377657831E+01  0.92682228975E+01  0.51100000000E-03 0.  1.
         12    1    3    3    0    0  0.79434618070E+01 -0.91390655089E+01 -0.26074348429E+01  0.12386275482E+02  0.00000000000E+00 0. -1.
</event>
<event>
 7    1  0.4630495E-010  0.4778727E+02  0.7816164E-02  0.1312668E+00
        -11   -1    0    0    0    0  0.00000000000E+00  0.00000000000E+00  0.45593999997E+02  0.45594000000E+02  0.51100000000E-03 0.  1.
         11   -1    0    0    0    0 -0.00000000000E+00 -0.00000000000E+00 -0.45593999997E+02  0.45594000000E+02  0.51100000000E-03 0. -1.
    9900012    2    1    2    0    0 -0.41199219200E+02 -0.61130660635E+01 -0.12201569333E+02  0.47787268052E+02  0.19999986356E+02 0.  0.
        -12    1    1    2    0    0  0.41199219200E+02  0.61130660635E+01  0.12201569333E+02  0.43400731948E+02  0.00000000000E+00 0.  1.
         11    1    3    3    0    0 -0.81295705615E+01 -0.37797250244E+00 -0.40585553367E+00  0.81484660951E+01  0.51100000000E-03 0. -1.
        -11    1    3    3    0    0 -0.21976904329E+02 -0.10963051925E+02 -0.12086143931E+02  0.27372389497E+02  0.51100000000E-03 0.  1.
        -12    1    3    3    0    0 -0.11092744310E+02  0.52279583639E+01  0.29043013094E+00  0.12266412460E+02  0.00000000000E+00 0.  1.
</event>
<event>
 7    1  0.4630495E-010  0.4778726E+02  0.7816164E-02  0.1312668E+00
        -11   -1    0    0    0    0  0.00000000000E+00  0.00000000000E+00  0.45593999997E+02  0.45594000000E+02  0.51100000000E-03 0. -1.
         11   -1    0    0    0    0 -0.00000000000E+00 -0.00000000000E+00 -0.45593999997E+02  0.45594000000E+02  0.51100000000E-03 0.  1.
    9900012    2    1    2    0    0  0.38344353769E+02 -0.11877255803E+01 -0.20295917569E+02  0.47787257749E+02  0.19999939379E+02 0.  0.
        -12    1    1    2    0    0 -0.38344353769E+02  0.11877255803E+01  0.20295917569E+02  0.43400742251E+02  0.00000000000E+00 0.  1.
         11    1    3    3    0    0  0.13701393315E+02  0.22922557735E+01 -0.60235842097E+01  0.15141538307E+02  0.51100000000E-03 0. -1.
        -11    1    3    3    0    0  0.20159904296E+02 -0.90932310514E+01 -0.98522603043E+01  0.24211064114E+02  0.51100000000E-03 0.  1.
        -12    1    3    3    0    0  0.44830561578E+01  0.56132496976E+01 -0.44200730554E+01  0.84346553276E+01  0.00000000000E+00 0.  1.
</event>
<event>
 7    1  0.4630495E-010  0.4778727E+02  0.7816164E-02  0.1312668E+00
        -11   -1    0    0    0    0  0.00000000000E+00  0.00000000000E+00  0.45593999997E+02  0.45594000000E+02  0.51100000000E-03 0.  1.
         11   -1    0    0    0    0 -0.00000000000E+00 -0.00000000000E+00 -0.45593999997E+02  0.45594000000E+02  0.51100000000E-03 0. -1.
    9900012    2    1    2    0    0  0.22066104886E+02  0.35549491561E+02 -0.11530150094E+02  0.47787266178E+02  0.19999977811E+02 0.  0.
        -12    1    1    2    0    0 -0.22066104886E+02 -0.35549491561E+02  0.11530150094E+02  0.43400733822E+02  0.00000000000E+00 0.  1.
         11    1    3    3    0    0 -0.11302362514E+00  0.16978718699E+01 -0.25859210712E+00  0.17211662806E+01  0.51100000000E-03 0. -1.
        -11    1    3    3    0    0 -0.59349093976E+00  0.10959081982E+02  0.19981707602E+01  0.11155554493E+02  0.51100000000E-03 0.  1.
         12    1    3    3    0    0  0.22772619451E+02  0.22892537709E+02 -0.13269728747E+02  0.34910545405E+02  0.00000000000E+00 0. -1.
</event>
<event>
 7    1  0.4630495E-010  0.4778727E+02  0.7816164E-02  0.1312668E+00
        -11   -1    0    0    0    0  0.00000000000E+00  0.00000000000E+00  0.45593999997E+02  0.45594000000E+02  0.51100000000E-03 0.  1.
         11   -1    0    0    0    0 -0.00000000000E+00 -0.00000000000E+00 -0.45593999997E+02  0.45594000000E+02  0.51100000000E-03 0. -1.
    9900012    2    1    2    0    0 -0.29739349838E+02  0.91735214431E+01 -0.30249640223E+02  0.47787272379E+02  0.20000006083E+02 0.  0.
        -12    1    1    2    0    0  0.29739349838E+02 -0.91735214431E+01  0.30249640223E+02  0.43400727621E+02  0.00000000000E+00 0.  1.
         11    1    3    3    0    0 -0.15910285948E+01 -0.88113816986E+00 -0.66099009734E+01  0.68555501313E+01  0.51100000000E-03 0. -1.
        -11    1    3    3    0    0 -0.31088960227E+01  0.53241369115E+00 -0.10749839400E+02  0.11203023976E+02  0.51100000000E-03 0.  1.
        -12    1    3    3    0    0 -0.25039425220E+02  0.95222459219E+01 -0.12889899849E+02  0.29728698271E+02  0.00000000000E+00 0.  1.
</event>
<event>
 7    1  0.4630495E-010  0.4778727E+02  0.7816164E-02  0.1312668E+00
        -11   -1    0    0    0    0  0.00000000000E+00  0.00000000000E+00  0.45593999997E+02  0.45594000000E+02  0.51100000000E-03 0.  1.
         11   -1    0    0    0    0 -0.00000000000E+00 -0.00000000000E+00 -0.45593999997E+02  0.45594000000E+02  0.51100000000E-03 0. -1.
    9900012    2    1    2    0    0  0.22055463477E+02 -0.19238282263E+02 -0.32047908431E+02  0.47787269494E+02  0.19999992933E+02 0.  0.
        -12    1    1    2    0    0 -0.22055463477E+02  0.19238282263E+02  0.32047908431E+02  0.43400730506E+02  0.00000000000E+00 0.  1.
         11    1    3    3    0    0  0.10044083440E+02 -0.65660024168E+00 -0.11652646101E+02  0.15398016023E+02  0.51100000000E-03 0. -1.
        -11    1    3    3    0    0 -0.12093676747E+00  0.15697766067E+01 -0.18954715173E+01  0.24640691611E+01  0.51100000000E-03 0.  1.
         12    1    3    3    0    0  0.12132316805E+02 -0.20151458628E+02 -0.18499790812E+02  0.29925184310E+02  0.00000000000E+00 0. -1.
</event>
<event>
 7    1  0.4630495E-010  0.4778727E+02  0.7816164E-02  0.1312668E+00
        -11   -1    0    0    0    0  0.00000000000E+00  0.00000000000E+00  0.45593999997E+02  0.45594000000E+02  0.51100000000E-03 0.  1.
         11   -1    0    0    0    0 -0.00000000000E+00 -0.00000000000E+00 -0.45593999997E+02  0.45594000000E+02  0.51100000000E-03 0. -1.
    9900012    2    1    2    0    0 -0.27275312731E+02  0.23336245305E+02 -0.24394676280E+02  0.47787271201E+02  0.20000000714E+02 0.  0.
        -12    1    1    2    0    0  0.27275312731E+02 -0.23336245305E+02  0.24394676280E+02  0.43400728799E+02  0.00000000000E+00 0.  1.
         11    1    3    3    0    0 -0.11351662548E+02  0.96431131246E+01 -0.10490030192E+01  0.14931519713E+02  0.51100000000E-03 0. -1.
        -11    1    3    3    0    0  0.12802453487E+01  0.68949615340E+00 -0.23121172469E+01  0.27313585489E+01  0.51100000000E-03 0.  1.
         12    1    3    3    0    0 -0.17203895531E+02  0.13003636027E+02 -0.21033556014E+02  0.30124392939E+02  0.00000000000E+00 0. -1.
</event>
<event>
 7    1  0.4630495E-010  0.4778727E+02  0.7816164E-02  0.1312668E+00
        -11   -1    0    0    0    0  0.00000000000E+00  0.00000000000E+00  0.45593999997E+02  0.45594000000E+02  0.51100000000E-03 0.  1.
         11   -1    0    0    0    0 -0.00000000000E+00 -0.00000000000E+00 -0.45593999997E+02  0.45594000000E+02  0.51100000000E-03 0. -1.
    9900012    2    1    2    0    0  0.83951054299E+01 -0.42247955480E+02 -0.53156054506E+01  0.47787271910E+02  0.20000003948E+02 0.  0.
        -12    1    1    2    0    0 -0.83951054299E+01  0.42247955480E+02  0.53156054506E+01  0.43400728090E+02  0.00000000000E+00 0.  1.
         11    1    3    3    0    0 -0.30082604891E+00 -0.55051544209E+01  0.10348064648E+01  0.56096386863E+01  0.51100000000E-03 0. -1.
        -11    1    3    3    0    0  0.25959797887E+01 -0.25695922117E+02 -0.11845871661E+02  0.28413802987E+02  0.51100000000E-03 0.  1.
        -12    1    3    3    0    0  0.60999516901E+01 -0.11046878942E+02  0.54954597457E+01  0.13763830237E+02  0.00000000000E+00 0.  1.
</event>
<event>
 7    1  0.4630495E-010  0.4778726E+02  0.7816164E-02  0.1312668E+00
        -11   -1    0    0    0    0  0.00000000000E+00  0.00000000000E+00  0.45593999997E+02  0.45594000000E+02  0.51100000000E-03 0.  1.
         11   -1    0    0    0    0 -0.00000000000E+00 -0.00000000000E+00 -0.45593999997E+02  0.45594000000E+02  0.51100000000E-03 0. -1.
    9900012    2    1    2    0    0 -0.38222643504E+01 -0.31089658925E+02 -0.30040761956E+02  0.47787262959E+02  0.19999963136E+02 0.  0.
        -12    1    1    2    0    0  0.38222643504E+01  0.31089658925E+02  0.30040761956E+02  0.43400737041E+02  0.00000000000E+00 0.  1.
         11    1    3    3    0    0  0.10832725773E+01 -0.36585890521E+01 -0.44864690476E+00  0.38418794405E+01  0.51100000000E-03 0. -1.
        -11    1    3    3    0    0  0.32638548944E+00  0.18369606214E+01  0.17405392178E+00  0.18738321273E+01  0.51100000000E-03 0.  1.
         12    1    3    3    0    0 -0.52319224171E+01 -0.29268030494E+02 -0.29766168973E+02  0.42071551391E+02  0.00000000000E+00 0. -1.
</event>
<event>
 7    1  0.4630495E-010  0.4778725E+02  0.7816164E-02  0.1312668E+00
        -11   -1    0    0    0    0  0.00000000000E+00  0.00000000000E+00  0.45593999997E+02  0.45594000000E+02  0.51100000000E-03 0.  1.
         11   -1    0    0    0    0 -0.00000000000E+00 -0.00000000000E+00 -0.45593999997E+02  0.45594000000E+02  0.51100000000E-03 0. -1.
    9900012    2    1    2    0    0  0.28929654452E+02  0.19618080911E+02 -0.25726076252E+02  0.47787251105E+02  0.19999909086E+02 0.  0.
        -12    1    1    2    0    0 -0.28929654452E+02 -0.19618080911E+02  0.25726076252E+02  0.43400748895E+02  0.00000000000E+00 0.  1.
         11    1    3    3    0    0  0.15699808520E+02  0.13980043055E+02 -0.20821689916E+02  0.29588314629E+02  0.51100000000E-03 0. -1.
        -11    1    3    3    0    0  0.73191088982E+01  0.24197711329E+01 -0.77143695902E+01  0.10905784971E+02  0.51100000000E-03 0.  1.
        -12    1    3    3    0    0  0.59107370338E+01  0.32182667230E+01  0.28099832533E+01  0.72931515045E+01  0.00000000000E+00 0.  1.
</event>
<event>
 7    1  0.4630495E-010  0.4778727E+02  0.7816164E-02  0.1312668E+00
        -11   -1    0    0    0    0  0.00000000000E+00  0.00000000000E+00  0.45593999997E+02  0.45594000000E+02  0.51100000000E-03 0. -1.
         11   -1    0    0    0    0 -0.00000000000E+00 -0.00000000000E+00 -0.45593999997E+02  0.45594000000E+02  0.51100000000E-03 0.  1.
    9900012    2    1    2    0    0 -0.42337974036E+02  0.84195529155E+01 -0.44977836474E+01  0.47787274494E+02  0.20000015726E+02 0.  0.
        -12    1    1    2    0    0  0.42337974036E+02 -0.84195529155E+01  0.44977836474E+01  0.43400725506E+02  0.00000000000E+00 0.  1.
         11    1    3    3    0    0 -0.50138096657E+01 -0.10060705883E+01 -0.78893444747E+00  0.51742519474E+01  0.51100000000E-03 0. -1.
        -11    1    3    3    0    0 -0.99498208252E+01  0.86914154406E+01  0.46109542491E+01  0.13992874478E+02  0.51100000000E-03 0.  1.
        -12    1    3    3    0    0 -0.27374343545E+02  0.73420806311E+00 -0.83198034491E+01  0.28620148068E+02  0.00000000000E+00 0.  1.
</event>
<event>
 7    1  0.4630495E-010  0.4778727E+02  0.7816164E-02  0.1312668E+00
        -11   -1    0    0    0    0  0.00000000000E+00  0.00000000000E+00  0.45593999997E+02  0.45594000000E+02  0.51100000000E-03 0. -1.
         11   -1    0    0    0    0 -0.00000000000E+00 -0.00000000000E+00 -0.45593999997E+02  0.45594000000E+02  0.51100000000E-03 0.  1.
    9900012    2    1    2    0    0  0.53792335038E+00 -0.39989979676E+02 -0.16856318277E+02  0.47787270722E+02  0.19999998530E+02 0.  0.
        -12    1    1    2    0    0 -0.53792335038E+00  0.39989979676E+02  0.16856318277E+02  0.43400729278E+02  0.00000000000E+00 0.  1.
         11    1    3    3    0    0 -0.52200428258E+01 -0.26514191126E+02 -0.14099720798E+02  0.30480375736E+02  0.51100000000E-03 0. -1.
        -11    1    3    3    0    0  0.20425598486E+01 -0.80608340596E+01 -0.57294493642E+01  0.10098301181E+02  0.51100000000E-03 0.  1.
        -12    1    3    3    0    0  0.37154063276E+01 -0.54149544898E+01  0.29728518850E+01  0.72085938043E+01  0.00000000000E+00 0.  1.
</event>
<event>
 7    1  0.4630495E-010  0.4778727E+02  0.7816164E-02  0.1312668E+00
        -11   -1    0    0    0    0  0.00000000000E+00  0.00000000000E+00  0.45593999997E+02  0.45594000000E+02  0.51100000000E-03 0. -1.
         11   -1    0    0    0    0 -0.00000000000E+00 -0.00000000000E+00 -0.45593999997E+02  0.45594000000E+02  0.51100000000E-03 0.  1.
    9900012    2    1    2    0    0  0.40277482516E+02 -0.11626212471E+02  0.11232930237E+02  0.47787272633E+02  0.20000007243E+02 0.  0.
        -12    1    1    2    0    0 -0.40277482516E+02  0.11626212471E+02 -0.11232930237E+02  0.43400727367E+02  0.00000000000E+00 0.  1.
         11    1    3    3    0    0  0.11495271336E+02 -0.24802135518E+01  0.68940778135E+01  0.13631618815E+02  0.51100000000E-03 0. -1.
        -11    1    3    3    0    0  0.53968750902E+01  0.74745324258E+00  0.67211874773E+01  0.86521273948E+01  0.51100000000E-03 0.  1.
         12    1    3    3    0    0  0.23385336090E+02 -0.98934521620E+01 -0.23823350541E+01  0.25503526423E+02  0.00000000000E+00 0. -1.
</event>
<event>
 7    1  0.4630495E-010  0.4778728E+02  0.7816164E-02  0.1312668E+00
        -11   -1    0    0    0    0  0.00000000000E+00  0.00000000000E+00  0.45593999997E+02  0.45594000000E+02  0.51100000000E-03 0. -1.
         11   -1    0    0    0    0 -0.00000000000E+00 -0.00000000000E+00 -0.45593999997E+02  0.45594000000E+02  0.51100000000E-03 0.  1.
    9900012    2    1    2    0    0  0.21611530056E+02 -0.17132627732E+01  0.37598263620E+02  0.47787275030E+02  0.20000018171E+02 0.  0.
        -12    1    1    2    0    0 -0.21611530056E+02  0.17132627732E+01 -0.37598263620E+02  0.43400724970E+02  0.00000000000E+00 0.  1.
         11    1    3    3    0    0  0.14010968881E+02  0.61879454057E+01  0.30144233464E+02  0.33812316228E+02  0.51100000000E-03 0. -1.
        -11    1    3    3    0    0  0.31190786041E+01 -0.28789829200E+01  0.55360327372E+01  0.69760198337E+01  0.51100000000E-03 0.  1.
        -12    1    3    3    0    0  0.44814825706E+01 -0.50222252589E+01  0.19179974194E+01  0.69989389683E+01  0.00000000000E+00 0.  1.
</event>
<event>
 7    1  0.4630495E-010  0.4778727E+02  0.7816164E-02  0.1312668E+00
        -11   -1    0    0    0    0  0.00000000000E+00  0.00000000000E+00  0.45593999997E+02  0.45594000000E+02  0.51100000000E-03 0.  1.
         11   -1    0    0    0    0 -0.00000000000E+00 -0.00000000000E+00 -0.45593999997E+02  0.45594000000E+02  0.51100000000E-03 0. -1.
    9900012    2    1    2    0    0  0.89351558609E+01  0.11267866834E+02 -0.40949007876E+02  0.47787273286E+02  0.20000010222E+02 0.  0.
        -12    1    1    2    0    0 -0.89351558609E+01 -0.11267866834E+02  0.40949007876E+02  0.43400726714E+02  0.00000000000E+00 0.  1.
         11    1    3    3    0    0  0.27946165236E+01 -0.94651870272E+00 -0.93198881664E+00  0.30942499227E+01  0.51100000000E-03 0. -1.
        -11    1    3    3    0    0 -0.33636506592E+01  0.22395421802E+01 -0.19926174535E+02  0.20331800874E+02  0.51100000000E-03 0.  1.
         12    1    3    3    0    0  0.95041899965E+01  0.99748433570E+01 -0.20090844524E+02  0.24361222489E+02  0.00000000000E+00 0. -1.
</event>
<event>
 7    1  0.4630495E-010  0.4778727E+02  0.7816164E-02  0.1312668E+00
        -11   -1    0    0    0    0  0.00000000000E+00  0.00000000000E+00  0.45593999997E+02  0.45594000000E+02  0.51100000000E-03 0. -1.
         11   -1    0    0    0    0 -0.00000000000E+00 -0.00000000000E+00 -0.45593999997E+02  0.45594000000E+02  0.51100000000E-03 0.  1.
    9900012    2    1    2    0    0  0.29738745369E+02  0.15165681843E+02  0.27735040349E+02  0.47787270225E+02  0.19999996264E+02 0.  0.
        -12    1    1    2    0    0 -0.29738745369E+02 -0.15165681843E+02 -0.27735040349E+02  0.43400729775E+02  0.00000000000E+00 0.  1.
         11    1    3    3    0    0  0.59603285183E+01  0.62855002373E+01  0.98349674450E+00  0.87178148286E+01  0.51100000000E-03 0. -1.
        -11    1    3    3    0    0  0.25709159415E+01  0.47180086578E+01  0.10251777836E+01  0.54699364002E+01  0.51100000000E-03 0.  1.
         12    1    3    3    0    0  0.21207500909E+02  0.41621729474E+01  0.25726365820E+02  0.33599518996E+02  0.00000000000E+00 0. -1.
</event>
<event>
 7    1  0.4630495E-010  0.4778728E+02  0.7816164E-02  0.1312668E+00
        -11   -1    0    0    0    0  0.00000000000E+00  0.00000000000E+00  0.45593999997E+02  0.45594000000E+02  0.51100000000E-03 0.  1.
         11   -1    0    0    0    0 -0.00000000000E+00 -0.00000000000E+00 -0.45593999997E+02  0.45594000000E+02  0.51100000000E-03 0. -1.
    9900012    2    1    2    0    0 -0.42388740446E+02  0.18965335649E+01 -0.91225353201E+01  0.47787276425E+02  0.20000024533E+02 0.  0.
        -12    1    1    2    0    0  0.42388740446E+02 -0.18965335649E+01  0.91225353201E+01  0.43400723575E+02  0.00000000000E+00 0.  1.
         11    1    3    3    0    0 -0.34498361481E+02  0.37084702237E+01 -0.62611769506E+00  0.34702762425E+02  0.51100000000E-03 0. -1.
        -11    1    3    3    0    0 -0.73392796893E+01 -0.20005118934E+01 -0.40843717704E+01  0.86341859612E+01  0.51100000000E-03 0.  1.
         12    1    3    3    0    0 -0.55109927517E+00  0.18857523462E+00 -0.44120458547E+01  0.44503280389E+01  0.00000000000E+00 0. -1.
</event>
<event>
 7    1  0.4630495E-010  0.4778727E+02  0.7816164E-02  0.1312668E+00
        -11   -1    0    0    0    0  0.00000000000E+00  0.00000000000E+00  0.45593999997E+02  0.45594000000E+02  0.51100000000E-03 0.  1.
         11   -1    0    0    0    0 -0.00000000000E+00 -0.00000000000E+00 -0.45593999997E+02  0.45594000000E+02  0.51100000000E-03 0. -1.
    9900012    2    1    2    0    0 -0.27212196905E+02 -0.31705464965E+02 -0.11742362202E+02  0.47787271445E+02  0.20000001826E+02 0.  0.
        -12    1    1    2    0    0  0.27212196905E+02  0.31705464965E+02  0.11742362202E+02  0.43400728555E+02  0.00000000000E+00 0.  1.
         11    1    3    3    0    0 -0.13602922357E+02 -0.22511223205E+02  0.51056026642E+00  0.26306944689E+02  0.51100000000E-03 0. -1.
        -11    1    3    3    0    0 -0.19159146444E+01 -0.23130472648E+01 -0.56329484698E+01  0.63836529744E+01  0.51100000000E-03 0.  1.
        -12    1    3    3    0    0 -0.11693359904E+02 -0.68811944954E+01 -0.66199739985E+01  0.15096673782E+02  0.00000000000E+00 0.  1.
</event>
<event>
 7    1  0.4630495E-010  0.4778727E+02  0.7816164E-02  0.1312668E+00
        -11   -1    0    0    0    0  0.00000000000E+00  0.00000000000E+00  0.45593999997E+02  0.45594000000E+02  0.51100000000E-03 0.  1.
         11   -1    0    0    0    0 -0.00000000000E+00 -0.00000000000E+00 -0.45593999997E+02  0.45594000000E+02  0.51100000000E-03 0. -1.
    9900012    2    1    2    0    0 -0.15237784428E+02  0.33402226035E+02  0.23145727468E+02  0.47787268689E+02  0.19999989260E+02 0.  0.
        -12    1    1    2    0    0  0.15237784428E+02 -0.33402226035E+02 -0.23145727468E+02  0.43400731311E+02  0.00000000000E+00 0.  1.
         11    1    3    3    0    0 -0.11736756731E+02  0.14900650635E+02  0.15138737078E+02  0.24268543601E+02  0.51100000000E-03 0. -1.
        -11    1    3    3    0    0  0.36398267819E-01  0.96441006607E+01  0.98713496985E+01  0.13800490843E+02  0.51100000000E-03 0.  1.
        -12    1    3    3    0    0 -0.35374259645E+01  0.88574747390E+01 -0.18643593092E+01  0.97182342450E+01  0.00000000000E+00 0.  1.
</event>
<event>
 7    1  0.4630495E-010  0.4778727E+02  0.7816164E-02  0.1312668E+00
        -11   -1    0    0    0    0  0.00000000000E+00  0.00000000000E+00  0.45593999997E+02  0.45594000000E+02  0.51100000000E-03 0.  1.
         11   -1    0    0    0    0 -0.00000000000E+00 -0.00000000000E+00 -0.45593999997E+02  0.45594000000E+02  0.51100000000E-03 0. -1.
    9900012    2    1    2    0    0  0.31672641538E+02 -0.90069318702E+01 -0.28272642070E+02  0.47787270360E+02  0.19999996878E+02 0.  0.
        -12    1    1    2    0    0 -0.31672641538E+02  0.90069318702E+01  0.28272642070E+02  0.43400729640E+02  0.00000000000E+00 0.  1.
         11    1    3    3    0    0  0.80386087548E+01 -0.60338545409E+01 -0.81303948673E+01  0.12927875011E+02  0.51100000000E-03 0. -1.
        -11    1    3    3    0    0  0.14117145241E+02  0.11312999253E+01 -0.24757697537E+01  0.14377171676E+02  0.51100000000E-03 0.  1.
         12    1    3    3    0    0  0.95168875425E+01 -0.41043772547E+01 -0.17666477448E+02  0.20482223673E+02  0.00000000000E+00 0. -1.
</event>
<event>
 7    1  0.4630495E-010  0.4778727E+02  0.7816164E-02  0.1312668E+00
        -11   -1    0    0    0    0  0.00000000000E+00  0.00000000000E+00  0.45593999997E+02  0.45594000000E+02  0.51100000000E-03 0.  1.
         11   -1    0    0    0    0 -0.00000000000E+00 -0.00000000000E+00 -0.45593999997E+02  0.45594000000E+02  0.51100000000E-03 0. -1.
    9900012    2    1    2    0    0  0.15099528218E+02 -0.38344288833E+02  0.13614076498E+02  0.47787270542E+02  0.19999997711E+02 0.  0.
        -12    1    1    2    0    0 -0.15099528218E+02  0.38344288833E+02 -0.13614076498E+02  0.43400729458E+02  0.00000000000E+00 0.  1.
         11    1    3    3    0    0  0.11649043109E+01 -0.13505276773E+02  0.89815915490E+01  0.16260949842E+02  0.51100000000E-03 0. -1.
        -11    1    3    3    0    0  0.12140061427E+02 -0.17898883131E+02  0.86681954765E+01  0.23299972572E+02  0.51100000000E-03 0.  1.
         12    1    3    3    0    0  0.17945624808E+01 -0.69401289302E+01 -0.40357105273E+01  0.82263481282E+01  0.00000000000E+00 0. -1.
</event>
<event>
 7    1  0.5046720E-010  0.4778727E+02  0.7816164E-02  0.1312668E+00
        -11   -1    0    0    0    0  0.00000000000E+00  0.00000000000E+00  0.45593999997E+02  0.45594000000E+02  0.51100000000E-03 0. -1.
         11   -1    0    0    0    0 -0.00000000000E+00 -0.00000000000E+00 -0.45593999997E+02  0.45594000000E+02  0.51100000000E-03 0.  1.
    9900012    2    1    2    0    0 -0.37374646539E+02  0.18448212796E+02  0.12100518044E+02  0.47787270787E+02  0.19999998827E+02 0.  0.
        -12    1    1    2    0    0  0.37374646539E+02 -0.18448212796E+02 -0.12100518044E+02  0.43400729213E+02  0.00000000000E+00 0.  1.
         11    1    3    3    0    0 -0.48615263626E+01  0.59554485192E+00 -0.30521304117E+01  0.57710148636E+01  0.51100000000E-03 0. -1.
        -11    1    3    3    0    0 -0.59799357301E+01 -0.16158409617E+00  0.64261898681E+01  0.87796160074E+01  0.51100000000E-03 0.  1.
         12    1    3    3    0    0 -0.26533184446E+02  0.18014252041E+02  0.87264585873E+01  0.33236639916E+02  0.00000000000E+00 0. -1.
</event>
<event>
 7    1  0.4630495E-010  0.4778727E+02  0.7816164E-02  0.1312668E+00
        -11   -1    0    0    0    0  0.00000000000E+00  0.00000000000E+00  0.45593999997E+02  0.45594000000E+02  0.51100000000E-03 0. -1.
         11   -1    0    0    0    0 -0.00000000000E+00 -0.00000000000E+00 -0.45593999997E+02  0.45594000000E+02  0.51100000000E-03 0.  1.
    9900012    2    1    2    0    0 -0.38520210252E+02 -0.17664439777E+02  0.93693279201E+01  0.47787270326E+02  0.19999996726E+02 0.  0.
        -12    1    1    2    0    0  0.38520210252E+02  0.17664439777E+02 -0.93693279201E+01  0.43400729674E+02  0.00000000000E+00 0.  1.
         11    1    3    3    0    0 -0.16200013263E+02 -0.65254350742E+01  0.23922128902E+01  0.17627944163E+02  0.51100000000E-03 0. -1.
        -11    1    3    3    0    0 -0.16733455688E+02 -0.14390534174E+02  0.82671140335E+01  0.23567799807E+02  0.51100000000E-03 0.  1.
        -12    1    3    3    0    0 -0.55867413018E+01  0.32515294713E+01 -0.12899990036E+01  0.65915263562E+01  0.00000000000E+00 0.  1.
</event>
<event>
 7    1  0.4630495E-010  0.4778727E+02  0.7816164E-02  0.1312668E+00
        -11   -1    0    0    0    0  0.00000000000E+00  0.00000000000E+00  0.45593999997E+02  0.45594000000E+02  0.51100000000E-03 0.  1.
         11   -1    0    0    0    0 -0.00000000000E+00 -0.00000000000E+00 -0.45593999997E+02  0.45594000000E+02  0.51100000000E-03 0. -1.
    9900012    2    1    2    0    0  0.21504160507E+02 -0.15287343047E+02 -0.34459998597E+02  0.47787270976E+02  0.19999999687E+02 0.  0.
        -12    1    1    2    0    0 -0.21504160507E+02  0.15287343047E+02  0.34459998597E+02  0.43400729024E+02  0.00000000000E+00 0.  1.
         11    1    3    3    0    0  0.84895852735E+01 -0.11016456694E+02 -0.15953135265E+02  0.21164543493E+02  0.51100000000E-03 0. -1.
        -11    1    3    3    0    0 -0.12693721597E+01 -0.46354127581E+01 -0.39007445775E+01  0.61898437491E+01  0.51100000000E-03 0.  1.
         12    1    3    3    0    0  0.14283947393E+02  0.36452640463E+00 -0.14606118754E+02  0.20432883734E+02  0.00000000000E+00 0. -1.
</event>
<event>
 7    1  0.4630495E-010  0.4778727E+02  0.7816164E-02  0.1312668E+00
        -11   -1    0    0    0    0  0.00000000000E+00  0.00000000000E+00  0.45593999997E+02  0.45594000000E+02  0.51100000000E-03 0. -1.
         11   -1    0    0    0    0 -0.00000000000E+00 -0.00000000000E+00 -0.45593999997E+02  0.45594000000E+02  0.51100000000E-03 0.  1.
    9900012    2    1    2    0    0  0.12392335272E+02 -0.41559954362E+02  0.16804054054E+01  0.47787267951E+02  0.19999985897E+02 0.  0.
        -12    1    1    2    0    0 -0.12392335272E+02  0.41559954362E+02 -0.16804054054E+01  0.43400732049E+02  0.00000000000E+00 0.  1.
         11    1    3    3    0    0 -0.50579235870E+01 -0.51583450161E+01 -0.90913891097E+00  0.72813218675E+01  0.51100000000E-03 0. -1.
        -11    1    3    3    0    0  0.27115052987E+01 -0.60632930617E+01 -0.33497714900E+00  0.66504130465E+01  0.51100000000E-03 0.  1.
         12    1    3    3    0    0  0.14738753560E+02 -0.30338316284E+02  0.29245214654E+01  0.33855533037E+02  0.00000000000E+00 0. -1.
</event>
<event>
 7    1  0.4630495E-010  0.4778726E+02  0.7816164E-02  0.1312668E+00
        -11   -1    0    0    0    0  0.00000000000E+00  0.00000000000E+00  0.45593999997E+02  0.45594000000E+02  0.51100000000E-03 0. -1.
         11   -1    0    0    0    0 -0.00000000000E+00 -0.00000000000E+00 -0.45593999997E+02  0.45594000000E+02  0.51100000000E-03 0.  1.
    9900012    2    1    2    0    0 -0.11741467950E+02  0.15034737225E+02  0.38983572982E+02  0.47787258584E+02  0.19999943186E+02 0.  0.
        -12    1    1    2    0    0  0.11741467950E+02 -0.15034737225E+02 -0.38983572982E+02  0.43400741416E+02  0.00000000000E+00 0.  1.
         11    1    3    3    0    0 -0.86223915451E+01  0.32269781989E+01  0.56997866716E+01  0.10828046574E+02  0.51100000000E-03 0.  1.
        -11    1    3    3    0    0  0.28716129035E+01  0.87171226760E+00  0.11233009757E+02  0.11626975162E+02  0.51100000000E-03 0. -1.
        -12    1    3    3    0    0 -0.59906893083E+01  0.10936046758E+02  0.22050776553E+02  0.25332236848E+02  0.00000000000E+00 0.  1.
</event>
<event>
 7    1  0.4630495E-010  0.4778727E+02  0.7816164E-02  0.1312668E+00
        -11   -1    0    0    0    0  0.00000000000E+00  0.00000000000E+00  0.45593999997E+02  0.45594000000E+02  0.51100000000E-03 0. -1.
         11   -1    0    0    0    0 -0.00000000000E+00 -0.00000000000E+00 -0.45593999997E+02  0.45594000000E+02  0.51100000000E-03 0.  1.
    9900012    2    1    2    0    0  0.12466919534E+02 -0.25359601182E+02  0.32940699742E+02  0.47787272422E+02  0.20000006283E+02 0.  0.
        -12    1    1    2    0    0 -0.12466919534E+02  0.25359601182E+02 -0.32940699742E+02  0.43400727578E+02  0.00000000000E+00 0.  1.
         11    1    3    3    0    0 -0.32529706230E+00  0.76611791537E+00  0.26052451532E+01  0.27349693615E+01  0.51100000000E-03 0. -1.
        -11    1    3    3    0    0  0.14215125563E+00 -0.61125402230E+01 -0.54696833830E+00  0.61386097434E+01  0.51100000000E-03 0.  1.
         12    1    3    3    0    0  0.12650065341E+02 -0.20013178875E+02  0.30882422927E+02  0.38913693318E+02  0.00000000000E+00 0. -1.
</event>
<event>
 7    1  0.4630495E-010  0.4778727E+02  0.7816164E-02  0.1312668E+00
        -11   -1    0    0    0    0  0.00000000000E+00  0.00000000000E+00  0.45593999997E+02  0.45594000000E+02  0.51100000000E-03 0.  1.
         11   -1    0    0    0    0 -0.00000000000E+00 -0.00000000000E+00 -0.45593999997E+02  0.45594000000E+02  0.51100000000E-03 0. -1.
    9900012    2    1    2    0    0 -0.29546464864E+02  0.26253018467E+02 -0.17927876806E+02  0.47787270382E+02  0.19999996981E+02 0.  0.
        -12    1    1    2    0    0  0.29546464864E+02 -0.26253018467E+02  0.17927876806E+02  0.43400729618E+02  0.00000000000E+00 0.  1.
         11    1    3    3    0    0 -0.81456067801E+01  0.14024958468E+02 -0.83025159060E+01  0.18220377067E+02  0.51100000000E-03 0. -1.
        -11    1    3    3    0    0 -0.58625075399E+01  0.10484778959E+02 -0.63656202483E+01  0.13594877928E+02  0.51100000000E-03 0.  1.
        -12    1    3    3    0    0 -0.15538350544E+02  0.17432810404E+01 -0.32597406521E+01  0.15972015387E+02  0.00000000000E+00 0.  1.
</event>
<event>
 7    1  0.4630495E-010  0.4778727E+02  0.7816164E-02  0.1312668E+00
        -11   -1    0    0    0    0  0.00000000000E+00  0.00000000000E+00  0.45593999997E+02  0.45594000000E+02  0.51100000000E-03 0.  1.
         11   -1    0    0    0    0 -0.00000000000E+00 -0.00000000000E+00 -0.45593999997E+02  0.45594000000E+02  0.51100000000E-03 0. -1.
    9900012    2    1    2    0    0 -0.13729800547E+02 -0.14794622336E+02 -0.38421802092E+02  0.47787272482E+02  0.20000006552E+02 0.  0.
        -12    1    1    2    0    0  0.13729800547E+02  0.14794622336E+02  0.38421802092E+02  0.43400727518E+02  0.00000000000E+00 0.  1.
         11    1    3    3    0    0 -0.73525295247E+01 -0.11426000880E+02 -0.13608601206E+02  0.19230372164E+02  0.51100000000E-03 0. -1.
        -11    1    3    3    0    0 -0.39861932955E+01 -0.79590538879E+01 -0.16907628533E+02  0.19107699460E+02  0.51100000000E-03 0.  1.
        -12    1    3    3    0    0 -0.23910777273E+01  0.45904324324E+01 -0.79055723526E+01  0.94492008570E+01  0.00000000000E+00 0.  1.
</event>
<event>
 7    1  0.4630495E-010  0.4778727E+02  0.7816164E-02  0.1312668E+00
        -11   -1    0    0    0    0  0.00000000000E+00  0.00000000000E+00  0.45593999997E+02  0.45594000000E+02  0.51100000000E-03 0. -1.
         11   -1    0    0    0    0 -0.00000000000E+00 -0.00000000000E+00 -0.45593999997E+02  0.45594000000E+02  0.51100000000E-03 0.  1.
    9900012    2    1    2    0    0  0.43136352282E+02 -0.36900187802E+01  0.30433864663E+01  0.47787270421E+02  0.19999997158E+02 0.  0.
        -12    1    1    2    0    0 -0.43136352282E+02  0.36900187802E+01 -0.30433864663E+01  0.43400729579E+02  0.00000000000E+00 0.  1.
         11    1    3    3    0    0  0.30123102938E+02 -0.67512654456E+01  0.64660125257E+01  0.31540295401E+02  0.51100000000E-03 0. -1.
        -11    1    3    3    0    0  0.48673328282E+00 -0.93280146386E+00  0.18120561655E+01  0.20953700550E+01  0.51100000000E-03 0.  1.
        -12    1    3    3    0    0  0.12526516061E+02  0.39940481292E+01 -0.52346822250E+01  0.14151604965E+02  0.00000000000E+00 0.  1.
</event>
<event>
 7    1  0.4630495E-010  0.4778727E+02  0.7816164E-02  0.1312668E+00
        -11   -1    0    0    0    0  0.00000000000E+00  0.00000000000E+00  0.45593999997E+02  0.45594000000E+02  0.51100000000E-03 0. -1.
         11   -1    0    0    0    0 -0.00000000000E+00 -0.00000000000E+00 -0.45593999997E+02  0.45594000000E+02  0.51100000000E-03 0.  1.
    9900012    2    1    2    0    0 -0.17441473118E+02  0.33117045998E+02  0.21969970354E+02  0.47787270541E+02  0.19999997707E+02 0.  0.
        -12    1    1    2    0    0  0.17441473118E+02 -0.33117045998E+02 -0.21969970354E+02  0.43400729459E+02  0.00000000000E+00 0.  1.
         11    1    3    3    0    0  0.61871212048E+00 -0.40144805568E+00  0.18513791280E+01  0.19928798675E+01  0.51100000000E-03 0.  1.
        -11    1    3    3    0    0 -0.17691065337E+02  0.16757106500E+02  0.12284822311E+02  0.27289032055E+02  0.51100000000E-03 0. -1.
         12    1    3    3    0    0 -0.36911990213E+00  0.16761387553E+02  0.78337689149E+01  0.18505358619E+02  0.00000000000E+00 0. -1.
</event>
<event>
 7    1  0.4630495E-010  0.4778727E+02  0.7816164E-02  0.1312668E+00
        -11   -1    0    0    0    0  0.00000000000E+00  0.00000000000E+00  0.45593999997E+02  0.45594000000E+02  0.51100000000E-03 0.  1.
         11   -1    0    0    0    0 -0.00000000000E+00 -0.00000000000E+00 -0.45593999997E+02  0.45594000000E+02  0.51100000000E-03 0. -1.
    9900012    2    1    2    0    0  0.12876249839E+02  0.20902123993E+02 -0.35790040509E+02  0.47787267322E+02  0.19999983028E+02 0.  0.
        -12    1    1    2    0    0 -0.12876249839E+02 -0.20902123993E+02  0.35790040509E+02  0.43400732678E+02  0.00000000000E+00 0.  1.
         11    1    3    3    0    0  0.56665168625E+01  0.59313082234E+01 -0.82091807684E+01  0.11605191931E+02  0.51100000000E-03 0. -1.
        -11    1    3    3    0    0  0.10840750995E+02  0.35874330628E+01 -0.12281671256E+02  0.16769943566E+02  0.51100000000E-03 0.  1.
         12    1    3    3    0    0 -0.36310180188E+01  0.11383382707E+02 -0.15299188485E+02  0.19412131826E+02  0.00000000000E+00 0. -1.
</event>
<event>
 7    1  0.4630495E-010  0.4778727E+02  0.7816164E-02  0.1312668E+00
        -11   -1    0    0    0    0  0.00000000000E+00  0.00000000000E+00  0.45593999997E+02  0.45594000000E+02  0.51100000000E-03 0.  1.
         11   -1    0    0    0    0 -0.00000000000E+00 -0.00000000000E+00 -0.45593999997E+02  0.45594000000E+02  0.51100000000E-03 0. -1.
    9900012    2    1    2    0    0 -0.16109191411E+02 -0.39273546344E+02 -0.90391183914E+01  0.47787272453E+02  0.20000006421E+02 0.  0.
        -12    1    1    2    0    0  0.16109191411E+02  0.39273546344E+02  0.90391183914E+01  0.43400727547E+02  0.00000000000E+00 0.  1.
         11    1    3    3    0    0 -0.34345985824E+01 -0.13395612177E+02 -0.51967679165E+01  0.14773127295E+02  0.51100000000E-03 0. -1.
        -11    1    3    3    0    0 -0.25740609796E+01 -0.16818827044E+02  0.38114159665E+01  0.17436330606E+02  0.51100000000E-03 0.  1.
        -12    1    3    3    0    0 -0.10100531849E+02 -0.90591071229E+01 -0.76537664414E+01  0.15577814552E+02  0.00000000000E+00 0.  1.
</event>
<event>
 7    1  0.4630495E-010  0.4778728E+02  0.7816164E-02  0.1312668E+00
        -11   -1    0    0    0    0  0.00000000000E+00  0.00000000000E+00  0.45593999997E+02  0.45594000000E+02  0.51100000000E-03 0.  1.
         11   -1    0    0    0    0 -0.00000000000E+00 -0.00000000000E+00 -0.45593999997E+02  0.45594000000E+02  0.51100000000E-03 0. -1.
    9900012    2    1    2    0    0  0.11910742620E+02  0.34383761951E+02 -0.23654049117E+02  0.47787275176E+02  0.20000018836E+02 0.  0.
        -12    1    1    2    0    0 -0.11910742620E+02 -0.34383761951E+02  0.23654049117E+02  0.43400724824E+02  0.00000000000E+00 0.  1.
         11    1    3    3    0    0  0.34973254391E+01  0.13559024776E+02 -0.89441290871E+01  0.16615531394E+02  0.51100000000E-03 0. -1.
        -11    1    3    3    0    0 -0.45840582333E+01  0.77930797643E+01 -0.41032432227E+01  0.99288613297E+01  0.51100000000E-03 0.  1.
         12    1    3    3    0    0  0.12997475414E+02  0.13031657411E+02 -0.10606676807E+02  0.21242882452E+02  0.00000000000E+00 0. -1.
</event>
<event>
 7    1  0.4630495E-010  0.4778727E+02  0.7816164E-02  0.1312668E+00
        -11   -1    0    0    0    0  0.00000000000E+00  0.00000000000E+00  0.45593999997E+02  0.45594000000E+02  0.51100000000E-03 0.  1.
         11   -1    0    0    0    0 -0.00000000000E+00 -0.00000000000E+00 -0.45593999997E+02  0.45594000000E+02  0.51100000000E-03 0. -1.
    9900012    2    1    2    0    0  0.35038491531E+02  0.22543187267E+02 -0.12154511082E+02  0.47787270506E+02  0.19999997545E+02 0.  0.
        -12    1    1    2    0    0 -0.35038491531E+02 -0.22543187267E+02  0.12154511082E+02  0.43400729494E+02  0.00000000000E+00 0.  1.
         11    1    3    3    0    0  0.20916496715E+02  0.33854995685E+01 -0.89938098561E+01  0.23018472108E+02  0.51100000000E-03 0. -1.
        -11    1    3    3    0    0  0.10489006451E+02  0.14479899094E+02 -0.50020779417E+01  0.18566300603E+02  0.51100000000E-03 0.  1.
        -12    1    3    3    0    0  0.36329883652E+01  0.46777886047E+01  0.18413767155E+01  0.62024977953E+01  0.00000000000E+00 0.  1.
</event>
<event>
 7    1  0.4630495E-010  0.4778727E+02  0.7816164E-02  0.1312668E+00
        -11   -1    0    0    0    0  0.00000000000E+00  0.00000000000E+00  0.45593999997E+02  0.45594000000E+02  0.51100000000E-03 0. -1.
         11   -1    0    0    0    0 -0.00000000000E+00 -0.00000000000E+00 -0.45593999997E+02  0.45594000000E+02  0.51100000000E-03 0.  1.
    9900012    2    1    2    0    0  0.39462573994E+02  0.17563537688E+02  0.42250195304E+01  0.47787269679E+02  0.19999993775E+02 0.  0.
        -12    1    1    2    0    0 -0.39462573994E+02 -0.17563537688E+02 -0.42250195304E+01  0.43400730321E+02  0.00000000000E+00 0.  1.
         11    1    3    3    0    0  0.18986719251E+02  0.36908044547E+01  0.72927579044E+01  0.20671281130E+02  0.51100000000E-03 0. -1.
        -11    1    3    3    0    0 -0.93418705290E+00 -0.42556154661E+00  0.46913947496E+00  0.11286718690E+01  0.51100000000E-03 0.  1.
         12    1    3    3    0    0  0.21410041795E+02  0.14298294780E+02 -0.35368778490E+01  0.25987316680E+02  0.00000000000E+00 0. -1.
</event>
<event>
 7    1  0.4630495E-010  0.4778727E+02  0.7816164E-02  0.1312668E+00
        -11   -1    0    0    0    0  0.00000000000E+00  0.00000000000E+00  0.45593999997E+02  0.45594000000E+02  0.51100000000E-03 0.  1.
         11   -1    0    0    0    0 -0.00000000000E+00 -0.00000000000E+00 -0.45593999997E+02  0.45594000000E+02  0.51100000000E-03 0. -1.
    9900012    2    1    2    0    0 -0.43148034770E+02 -0.23542981564E+01 -0.40407574036E+01  0.47787270228E+02  0.19999996278E+02 0.  0.
        -12    1    1    2    0    0  0.43148034770E+02  0.23542981564E+01  0.40407574036E+01  0.43400729772E+02  0.00000000000E+00 0.  1.
         11    1    3    3    0    0 -0.26951074041E+01  0.88088073654E+00 -0.70041036104E+00  0.29206385820E+01  0.51100000000E-03 0. -1.
        -11    1    3    3    0    0 -0.21828108663E+02 -0.54911917494E+01 -0.10434453504E+02  0.24809218747E+02  0.51100000000E-03 0.  1.
        -12    1    3    3    0    0 -0.18624818703E+02  0.22560128565E+01  0.70941064615E+01  0.20057412900E+02  0.00000000000E+00 0.  1.
</event>
<event>
 7    1  0.4630495E-010  0.4778727E+02  0.7816164E-02  0.1312668E+00
        -11   -1    0    0    0    0  0.00000000000E+00  0.00000000000E+00  0.45593999997E+02  0.45594000000E+02  0.51100000000E-03 0.  1.
         11   -1    0    0    0    0 -0.00000000000E+00 -0.00000000000E+00 -0.45593999997E+02  0.45594000000E+02  0.51100000000E-03 0. -1.
    9900012    2    1    2    0    0 -0.33996520631E+02  0.24818000083E+02 -0.10579535594E+02  0.47787272857E+02  0.20000008265E+02 0.  0.
        -12    1    1    2    0    0  0.33996520631E+02 -0.24818000083E+02  0.10579535594E+02  0.43400727143E+02  0.00000000000E+00 0.  1.
         11    1    3    3    0    0 -0.23900894619E+02  0.19005751084E+02 -0.10576583994E+02  0.32316179649E+02  0.51100000000E-03 0.  1.
        -11    1    3    3    0    0 -0.10582533266E+02  0.31479872387E+01 -0.29904640151E+01  0.11438649801E+02  0.51100000000E-03 0. -1.
        -12    1    3    3    0    0  0.48690725394E+00  0.26642617609E+01  0.29875124154E+01  0.40324434078E+01  0.00000000000E+00 0.  1.
</event>
<event>
 7    1  0.4630495E-010  0.4778727E+02  0.7816164E-02  0.1312668E+00
        -11   -1    0    0    0    0  0.00000000000E+00  0.00000000000E+00  0.45593999997E+02  0.45594000000E+02  0.51100000000E-03 0. -1.
         11   -1    0    0    0    0 -0.00000000000E+00 -0.00000000000E+00 -0.45593999997E+02  0.45594000000E+02  0.51100000000E-03 0.  1.
    9900012    2    1    2    0    0 -0.41963617267E+02 -0.80004231978E+01 -0.76597269616E+01  0.47787270022E+02  0.19999995338E+02 0.  0.
        -12    1    1    2    0    0  0.41963617267E+02  0.80004231978E+01  0.76597269616E+01  0.43400729978E+02  0.00000000000E+00 0.  1.
         11    1    3    3    0    0 -0.11818874582E+02  0.18592870368E+01  0.82392560883E+00  0.11992564294E+02  0.51100000000E-03 0. -1.
        -11    1    3    3    0    0 -0.14976556440E+01  0.24951684578E+01 -0.28864813398E+01  0.40988550654E+01  0.51100000000E-03 0.  1.
        -12    1    3    3    0    0 -0.28647087041E+02 -0.12354878692E+02 -0.55971712306E+01  0.31695850662E+02  0.00000000000E+00 0.  1.
</event>
<event>
 7    1  0.4630495E-010  0.4778727E+02  0.7816164E-02  0.1312668E+00
        -11   -1    0    0    0    0  0.00000000000E+00  0.00000000000E+00  0.45593999997E+02  0.45594000000E+02  0.51100000000E-03 0.  1.
         11   -1    0    0    0    0 -0.00000000000E+00 -0.00000000000E+00 -0.45593999997E+02  0.45594000000E+02  0.51100000000E-03 0. -1.
    9900012    2    1    2    0    0  0.49282105363E+01 -0.30184269026E+02 -0.30793603303E+02  0.47787270050E+02  0.19999995467E+02 0.  0.
        -12    1    1    2    0    0 -0.49282105363E+01  0.30184269026E+02  0.30793603303E+02  0.43400729950E+02  0.00000000000E+00 0.  1.
         11    1    3    3    0    0  0.48680315507E+01 -0.97355728614E+01 -0.75201816211E+01  0.13229975132E+02  0.51100000000E-03 0. -1.
        -11    1    3    3    0    0  0.47221634408E+01 -0.17810929877E+00 -0.37907651854E+01  0.60580897514E+01  0.51100000000E-03 0.  1.
        -12    1    3    3    0    0 -0.46619844553E+01 -0.20270586866E+02 -0.19482656497E+02  0.28499205167E+02  0.00000000000E+00 0.  1.
</event>
<event>
 7    1  0.4630495E-010  0.4778727E+02  0.7816164E-02  0.1312668E+00
        -11   -1    0    0    0    0  0.00000000000E+00  0.00000000000E+00  0.45593999997E+02  0.45594000000E+02  0.51100000000E-03 0.  1.
         11   -1    0    0    0    0 -0.00000000000E+00 -0.00000000000E+00 -0.45593999997E+02  0.45594000000E+02  0.51100000000E-03 0. -1.
    9900012    2    1    2    0    0 -0.13176482747E+02  0.36566780576E+02 -0.19309953959E+02  0.47787268886E+02  0.19999990160E+02 0.  0.
        -12    1    1    2    0    0  0.13176482747E+02 -0.36566780576E+02  0.19309953959E+02  0.43400731114E+02  0.00000000000E+00 0.  1.
         11    1    3    3    0    0 -0.56893328703E+00  0.17965685346E+02 -0.52351664270E+01  0.18721551827E+02  0.51100000000E-03 0. -1.
        -11    1    3    3    0    0 -0.12204941881E+00  0.94995667616E+01 -0.26908828892E+01  0.98740830310E+01  0.51100000000E-03 0.  1.
        -12    1    3    3    0    0 -0.12485500041E+02  0.91015284687E+01 -0.11383904643E+02  0.19191634028E+02  0.00000000000E+00 0.  1.
</event>
<event>
 7    1  0.4630495E-010  0.4778727E+02  0.7816164E-02  0.1312668E+00
        -11   -1    0    0    0    0  0.00000000000E+00  0.00000000000E+00  0.45593999997E+02  0.45594000000E+02  0.51100000000E-03 0.  1.
         11   -1    0    0    0    0 -0.00000000000E+00 -0.00000000000E+00 -0.45593999997E+02  0.45594000000E+02  0.51100000000E-03 0. -1.
    9900012    2    1    2    0    0  0.60719386559E+01  0.41045687936E+02  0.12728182523E+02  0.47787267661E+02  0.19999984575E+02 0.  0.
        -12    1    1    2    0    0 -0.60719386559E+01 -0.41045687936E+02 -0.12728182523E+02  0.43400732339E+02  0.00000000000E+00 0.  1.
         11    1    3    3    0    0 -0.88641475671E+00  0.15645825527E+01  0.29083853861E+01  0.34194086478E+01  0.51100000000E-03 0. -1.
        -11    1    3    3    0    0  0.94901771964E+01  0.11129368229E+02  0.14480948006E+01  0.14697730410E+02  0.51100000000E-03 0.  1.
         12    1    3    3    0    0 -0.25318237838E+01  0.28351737154E+02  0.83717023365E+01  0.29670128604E+02  0.00000000000E+00 0. -1.
</event>
<event>
 7    1  0.4630495E-010  0.4778725E+02  0.7816164E-02  0.1312668E+00
        -11   -1    0    0    0    0  0.00000000000E+00  0.00000000000E+00  0.45593999997E+02  0.45594000000E+02  0.51100000000E-03 0.  1.
         11   -1    0    0    0    0 -0.00000000000E+00 -0.00000000000E+00 -0.45593999997E+02  0.45594000000E+02  0.51100000000E-03 0. -1.
    9900012    2    1    2    0    0 -0.15542102558E+02 -0.33673667070E+02 -0.22542230445E+02  0.47787251627E+02  0.19999911468E+02 0.  0.
        -12    1    1    2    0    0  0.15542102558E+02  0.33673667070E+02  0.22542230445E+02  0.43400748373E+02  0.00000000000E+00 0.  1.
         11    1    3    3    0    0  0.27012657350E+01 -0.15467407747E+02 -0.92338157418E+01  0.18215402614E+02  0.51100000000E-03 0. -1.
        -11    1    3    3    0    0 -0.29208164874E+01 -0.52304611292E+00 -0.98330313829E+00  0.31259608942E+01  0.51100000000E-03 0.  1.
        -12    1    3    3    0    0 -0.15322551806E+02 -0.17683213211E+02 -0.12325111565E+02  0.26445888119E+02  0.00000000000E+00 0.  1.
</event>
<event>
 7    1  0.4630495E-010  0.4778728E+02  0.7816164E-02  0.1312668E+00
        -11   -1    0    0    0    0  0.00000000000E+00  0.00000000000E+00  0.45593999997E+02  0.45594000000E+02  0.51100000000E-03 0.  1.
         11   -1    0    0    0    0 -0.00000000000E+00 -0.00000000000E+00 -0.45593999997E+02  0.45594000000E+02  0.51100000000E-03 0. -1.
    9900012    2    1    2    0    0 -0.20725347871E+02 -0.26236343519E+02 -0.27671953330E+02  0.47787276887E+02  0.20000026640E+02 0.  0.
        -12    1    1    2    0    0  0.20725347871E+02  0.26236343519E+02  0.27671953330E+02  0.43400723113E+02  0.00000000000E+00 0.  1.
         11    1    3    3    0    0 -0.12114843695E+02 -0.21138454456E+02 -0.24665223415E+02  0.34669539093E+02  0.51100000000E-03 0. -1.
        -11    1    3    3    0    0 -0.64000676787E+01 -0.70879438754E+01 -0.33574289689E+01  0.10122852573E+02  0.51100000000E-03 0.  1.
        -12    1    3    3    0    0 -0.22104364971E+01  0.19900548125E+01  0.35069905347E+00  0.29948852216E+01  0.00000000000E+00 0.  1.
</event>
<event>
 7    1  0.4630495E-010  0.4778728E+02  0.7816164E-02  0.1312668E+00
        -11   -1    0    0    0    0  0.00000000000E+00  0.00000000000E+00  0.45593999997E+02  0.45594000000E+02  0.51100000000E-03 0.  1.
         11   -1    0    0    0    0 -0.00000000000E+00 -0.00000000000E+00 -0.45593999997E+02  0.45594000000E+02  0.51100000000E-03 0. -1.
    9900012    2    1    2    0    0  0.29050636567E+02  0.19647560379E+01 -0.32184195115E+02  0.47787283802E+02  0.20000058168E+02 0.  0.
        -12    1    1    2    0    0 -0.29050636567E+02 -0.19647560379E+01  0.32184195115E+02  0.43400716198E+02  0.00000000000E+00 0.  1.
         11    1    3    3    0    0  0.13358744627E+02  0.40642131229E+01 -0.76312606570E+01  0.15912574456E+02  0.51100000000E-03 0. -1.
        -11    1    3    3    0    0  0.76607143325E+01  0.53684399874E+01 -0.11650588981E+02  0.14941315733E+02  0.51100000000E-03 0.  1.
         12    1    3    3    0    0  0.80311776072E+01 -0.74678970724E+01 -0.12902345478E+02  0.16933393614E+02  0.00000000000E+00 0. -1.
</event>
<event>
 7    1  0.4630495E-010  0.4778727E+02  0.7816164E-02  0.1312668E+00
        -11   -1    0    0    0    0  0.00000000000E+00  0.00000000000E+00  0.45593999997E+02  0.45594000000E+02  0.51100000000E-03 0.  1.
         11   -1    0    0    0    0 -0.00000000000E+00 -0.00000000000E+00 -0.45593999997E+02  0.45594000000E+02  0.51100000000E-03 0. -1.
    9900012    2    1    2    0    0  0.95705062849E+01 -0.41133438231E+02 -0.10003448892E+02  0.47787270502E+02  0.19999997525E+02 0.  0.
        -12    1    1    2    0    0 -0.95705062849E+01  0.41133438231E+02  0.10003448892E+02  0.43400729498E+02  0.00000000000E+00 0.  1.
         11    1    3    3    0    0  0.84918727777E+00 -0.49068173102E+00  0.23469345985E+01  0.25436174761E+01  0.51100000000E-03 0. -1.
        -11    1    3    3    0    0  0.55199797263E+01 -0.13035464643E+02  0.14197914425E+01  0.14227063036E+02  0.51100000000E-03 0.  1.
         12    1    3    3    0    0  0.32013392808E+01 -0.27607291857E+02 -0.13770174933E+02  0.31016589990E+02  0.00000000000E+00 0. -1.
</event>
<event>
 7    1  0.4630495E-010  0.4778727E+02  0.7816164E-02  0.1312668E+00
        -11   -1    0    0    0    0  0.00000000000E+00  0.00000000000E+00  0.45593999997E+02  0.45594000000E+02  0.51100000000E-03 0.  1.
         11   -1    0    0    0    0 -0.00000000000E+00 -0.00000000000E+00 -0.45593999997E+02  0.45594000000E+02  0.51100000000E-03 0. -1.
    9900012    2    1    2    0    0 -0.28024418337E+01  0.11322677492E+02 -0.41803903918E+02  0.47787273179E+02  0.20000009733E+02 0.  0.
        -12    1    1    2    0    0  0.28024418337E+01 -0.11322677492E+02  0.41803903918E+02  0.43400726821E+02  0.00000000000E+00 0.  1.
         11    1    3    3    0    0  0.35568687474E+01  0.19320086530E+01 -0.22912737548E+01  0.46512265481E+01  0.51100000000E-03 0. -1.
        -11    1    3    3    0    0  0.97089120635E+00  0.10968367212E+01  0.55589819941E+00  0.15667493726E+01  0.51100000000E-03 0.  1.
         12    1    3    3    0    0 -0.73302017874E+01  0.82938321181E+01 -0.40068528362E+02  0.41569297258E+02  0.00000000000E+00 0. -1.
</event>
<event>
 7    1  0.4630495E-010  0.4778727E+02  0.7816164E-02  0.1312668E+00
        -11   -1    0    0    0    0  0.00000000000E+00  0.00000000000E+00  0.45593999997E+02  0.45594000000E+02  0.51100000000E-03 0.  1.
         11   -1    0    0    0    0 -0.00000000000E+00 -0.00000000000E+00 -0.45593999997E+02  0.45594000000E+02  0.51100000000E-03 0. -1.
    9900012    2    1    2    0    0  0.41277690726E+02  0.10681536065E+02 -0.81043351173E+01  0.47787271757E+02  0.20000003248E+02 0.  0.
        -12    1    1    2    0    0 -0.41277690726E+02 -0.10681536065E+02  0.81043351173E+01  0.43400728243E+02  0.00000000000E+00 0.  1.
         11    1    3    3    0    0  0.48722901751E+01  0.22483521196E+01  0.16288691102E+01  0.56078082745E+01  0.51100000000E-03 0. -1.
        -11    1    3    3    0    0  0.17750987070E+02  0.33336583671E+01  0.39514366634E+01  0.18488501076E+02  0.51100000000E-03 0.  1.
         12    1    3    3    0    0  0.18654413480E+02  0.50995255783E+01 -0.13684640891E+02  0.23690962406E+02  0.00000000000E+00 0. -1.
</event>
<event>
 7    1  0.4630495E-010  0.4778727E+02  0.7816164E-02  0.1312668E+00
        -11   -1    0    0    0    0  0.00000000000E+00  0.00000000000E+00  0.45593999997E+02  0.45594000000E+02  0.51100000000E-03 0. -1.
         11   -1    0    0    0    0 -0.00000000000E+00 -0.00000000000E+00 -0.45593999997E+02  0.45594000000E+02  0.51100000000E-03 0.  1.
    9900012    2    1    2    0    0 -0.39200403627E+02  0.10541773836E+02  0.15356521989E+02  0.47787269503E+02  0.19999992970E+02 0.  0.
        -12    1    1    2    0    0  0.39200403627E+02 -0.10541773836E+02 -0.15356521989E+02  0.43400730497E+02  0.00000000000E+00 0.  1.
         11    1    3    3    0    0 -0.47927826411E+01  0.46289806441E+01 -0.26608434707E+01  0.71748390563E+01  0.51100000000E-03 0. -1.
        -11    1    3    3    0    0 -0.22411197156E+01 -0.22810664570E+01  0.17857537838E+01  0.36626218202E+01  0.51100000000E-03 0.  1.
         12    1    3    3    0    0 -0.32166501270E+02  0.81938596484E+01  0.16231611675E+02  0.36949808626E+02  0.00000000000E+00 0. -1.
</event>
<event>
 7    1  0.4630495E-010  0.4778728E+02  0.7816164E-02  0.1312668E+00
        -11   -1    0    0    0    0  0.00000000000E+00  0.00000000000E+00  0.45593999997E+02  0.45594000000E+02  0.51100000000E-03 0.  1.
         11   -1    0    0    0    0 -0.00000000000E+00 -0.00000000000E+00 -0.45593999997E+02  0.45594000000E+02  0.51100000000E-03 0. -1.
    9900012    2    1    2    0    0 -0.11733858748E+01 -0.35764090696E+01 -0.43237199194E+02  0.47787275002E+02  0.20000018042E+02 0.  0.
        -12    1    1    2    0    0  0.11733858748E+01  0.35764090696E+01  0.43237199194E+02  0.43400724998E+02  0.00000000000E+00 0.  1.
         11    1    3    3    0    0  0.16862927002E+01 -0.40100799927E+01 -0.43252211063E+01  0.61344814368E+01  0.51100000000E-03 0. -1.
        -11    1    3    3    0    0  0.18073502430E+01 -0.55550111836E+01 -0.85441139735E+01  0.10350195554E+02  0.51100000000E-03 0.  1.
         12    1    3    3    0    0 -0.46670288180E+01  0.59886821067E+01 -0.30367864114E+02  0.31302598011E+02  0.00000000000E+00 0. -1.
</event>
<event>
 7    1  0.4630495E-010  0.4778727E+02  0.7816164E-02  0.1312668E+00
        -11   -1    0    0    0    0  0.00000000000E+00  0.00000000000E+00  0.45593999997E+02  0.45594000000E+02  0.51100000000E-03 0. -1.
         11   -1    0    0    0    0 -0.00000000000E+00 -0.00000000000E+00 -0.45593999997E+02  0.45594000000E+02  0.51100000000E-03 0.  1.
    9900012    2    1    2    0    0 -0.27888978147E+02 -0.31826414665E+02  0.96388522289E+01  0.47787271380E+02  0.20000001528E+02 0.  0.
        -12    1    1    2    0    0  0.27888978147E+02  0.31826414665E+02 -0.96388522289E+01  0.43400728620E+02  0.00000000000E+00 0.  1.
         11    1    3    3    0    0 -0.87368324529E+01 -0.15528879174E+02  0.64044232564E+01  0.18933963326E+02  0.51100000000E-03 0. -1.
        -11    1    3    3    0    0 -0.59702916252E+01 -0.11664265748E+02 -0.31725004885E+01  0.13481996779E+02  0.51100000000E-03 0.  1.
         12    1    3    3    0    0 -0.13181854069E+02 -0.46332697424E+01  0.64069294610E+01  0.15371311275E+02  0.00000000000E+00 0. -1.
</event>
<event>
 7    1  0.4630495E-010  0.4778727E+02  0.7816164E-02  0.1312668E+00
        -11   -1    0    0    0    0  0.00000000000E+00  0.00000000000E+00  0.45593999997E+02  0.45594000000E+02  0.51100000000E-03 0.  1.
         11   -1    0    0    0    0 -0.00000000000E+00 -0.00000000000E+00 -0.45593999997E+02  0.45594000000E+02  0.51100000000E-03 0. -1.
    9900012    2    1    2    0    0  0.35634053933E+02 -0.10611487718E+02 -0.22388261446E+02  0.47787265883E+02  0.19999976467E+02 0.  0.
        -12    1    1    2    0    0 -0.35634053933E+02  0.10611487718E+02  0.22388261446E+02  0.43400734117E+02  0.00000000000E+00 0.  1.
         11    1    3    3    0    0  0.57070403972E+01 -0.33780758343E+00 -0.64831069000E+01  0.86437896433E+01  0.51100000000E-03 0. -1.
        -11    1    3    3    0    0  0.12954177951E+01  0.11802441083E+01  0.26327927422E+01  0.31627015831E+01  0.51100000000E-03 0.  1.
        -12    1    3    3    0    0  0.28631595741E+02 -0.11453924243E+02 -0.18537947288E+02  0.35980774657E+02  0.00000000000E+00 0.  1.
</event>
<event>
 7    1  0.4630495E-010  0.4778725E+02  0.7816164E-02  0.1312668E+00
        -11   -1    0    0    0    0  0.00000000000E+00  0.00000000000E+00  0.45593999997E+02  0.45594000000E+02  0.51100000000E-03 0.  1.
         11   -1    0    0    0    0 -0.00000000000E+00 -0.00000000000E+00 -0.45593999997E+02  0.45594000000E+02  0.51100000000E-03 0. -1.
    9900012    2    1    2    0    0  0.94633608396E+01 -0.20397382207E+02 -0.37121648648E+02  0.47787248882E+02  0.19999898952E+02 0.  0.
        -12    1    1    2    0    0 -0.94633608396E+01  0.20397382207E+02  0.37121648648E+02  0.43400751118E+02  0.00000000000E+00 0.  1.
         11    1    3    3    0    0  0.48847076587E+01 -0.14739150426E+02 -0.20011621329E+02  0.25329190920E+02  0.51100000000E-03 0. -1.
        -11    1    3    3    0    0 -0.27181616714E+01 -0.64564535808E+01 -0.64999391741E+01  0.95563280208E+01  0.51100000000E-03 0.  1.
        -12    1    3    3    0    0  0.72968148523E+01  0.79822179962E+00 -0.10610088145E+02  0.12901729941E+02  0.00000000000E+00 0.  1.
</event>
<event>
 7    1  0.4630495E-010  0.4778727E+02  0.7816164E-02  0.1312668E+00
        -11   -1    0    0    0    0  0.00000000000E+00  0.00000000000E+00  0.45593999997E+02  0.45594000000E+02  0.51100000000E-03 0.  1.
         11   -1    0    0    0    0 -0.00000000000E+00 -0.00000000000E+00 -0.45593999997E+02  0.45594000000E+02  0.51100000000E-03 0. -1.
    9900012    2    1    2    0    0 -0.10622460898E+02  0.24335872465E+02 -0.34330047185E+02  0.47787268395E+02  0.19999987919E+02 0.  0.
        -12    1    1    2    0    0  0.10622460898E+02 -0.24335872465E+02  0.34330047185E+02  0.43400731605E+02  0.00000000000E+00 0.  1.
         11    1    3    3    0    0 -0.11524427851E+02  0.96011272051E+01 -0.11642517898E+02  0.18987951553E+02  0.51100000000E-03 0. -1.
        -11    1    3    3    0    0 -0.26316154040E+01  0.12618119812E+02 -0.13166557238E+02  0.18425541430E+02  0.51100000000E-03 0.  1.
        -12    1    3    3    0    0  0.35335823563E+01  0.21166254481E+01 -0.95209720483E+01  0.10373775412E+02  0.00000000000E+00 0.  1.
</event>
<event>
 7    1  0.4630495E-010  0.4778727E+02  0.7816164E-02  0.1312668E+00
        -11   -1    0    0    0    0  0.00000000000E+00  0.00000000000E+00  0.45593999997E+02  0.45594000000E+02  0.51100000000E-03 0.  1.
         11   -1    0    0    0    0 -0.00000000000E+00 -0.00000000000E+00 -0.45593999997E+02  0.45594000000E+02  0.51100000000E-03 0. -1.
    9900012    2    1    2    0    0 -0.21079637185E+02  0.36982105573E+02  0.84614431320E+01  0.47787271246E+02  0.20000000921E+02 0.  0.
        -12    1    1    2    0    0  0.21079637185E+02 -0.36982105573E+02 -0.84614431320E+01  0.43400728754E+02  0.00000000000E+00 0.  1.
         11    1    3    3    0    0 -0.38150814983E+01  0.13415856891E+02  0.43699426745E+01  0.14616308090E+02  0.51100000000E-03 0. -1.
        -11    1    3    3    0    0 -0.20543545784E+01  0.15562752445E+02  0.12169909550E+01  0.15744862770E+02  0.51100000000E-03 0.  1.
         12    1    3    3    0    0 -0.15210201109E+02  0.80034962364E+01  0.28745095025E+01  0.17426100386E+02  0.00000000000E+00 0. -1.
</event>
<event>
 7    1  0.4630495E-010  0.4778726E+02  0.7816164E-02  0.1312668E+00
        -11   -1    0    0    0    0  0.00000000000E+00  0.00000000000E+00  0.45593999997E+02  0.45594000000E+02  0.51100000000E-03 0. -1.
         11   -1    0    0    0    0 -0.00000000000E+00 -0.00000000000E+00 -0.45593999997E+02  0.45594000000E+02  0.51100000000E-03 0.  1.
    9900012    2    1    2    0    0 -0.28827824884E+00 -0.18008499479E+02  0.39487153521E+02  0.47787257483E+02  0.19999938167E+02 0.  0.
        -12    1    1    2    0    0  0.28827824884E+00  0.18008499479E+02 -0.39487153521E+02  0.43400742517E+02  0.00000000000E+00 0.  1.
         11    1    3    3    0    0 -0.55926995133E+01 -0.54541242775E+01  0.74817609753E+01  0.10816769713E+02  0.51100000000E-03 0. -1.
        -11    1    3    3    0    0 -0.28447046419E+01 -0.39658842956E+01  0.32245609402E+01  0.58496475333E+01  0.51100000000E-03 0.  1.
         12    1    3    3    0    0  0.81491259063E+01 -0.85884909055E+01  0.28780831606E+02  0.31120840236E+02  0.00000000000E+00 0. -1.
</event>
<event>
 7    1  0.4630495E-010  0.4778728E+02  0.7816164E-02  0.1312668E+00
        -11   -1    0    0    0    0  0.00000000000E+00  0.00000000000E+00  0.45593999997E+02  0.45594000000E+02  0.51100000000E-03 0. -1.
         11   -1    0    0    0    0 -0.00000000000E+00 -0.00000000000E+00 -0.45593999997E+02  0.45594000000E+02  0.51100000000E-03 0.  1.
    9900012    2    1    2    0    0  0.35912465482E+02  0.21496311542E+02 -0.11481544071E+02  0.47787280638E+02  0.20000043739E+02 0.  0.
        -12    1    1    2    0    0 -0.35912465482E+02 -0.21496311542E+02  0.11481544071E+02  0.43400719362E+02  0.00000000000E+00 0.  1.
         11    1    3    3    0    0  0.76010271176E+00  0.20829624267E+01 -0.23693779521E+01  0.32450640586E+01  0.51100000000E-03 0. -1.
        -11    1    3    3    0    0  0.48599779878E+01 -0.10302335999E+01 -0.61083486377E+01  0.78735437163E+01  0.51100000000E-03 0.  1.
         12    1    3    3    0    0  0.30292384782E+02  0.20443582716E+02 -0.30038174814E+01  0.36668672863E+02  0.00000000000E+00 0. -1.
</event>
<event>
 7    1  0.4630495E-010  0.4778728E+02  0.7816164E-02  0.1312668E+00
        -11   -1    0    0    0    0  0.00000000000E+00  0.00000000000E+00  0.45593999997E+02  0.45594000000E+02  0.51100000000E-03 0.  1.
         11   -1    0    0    0    0 -0.00000000000E+00 -0.00000000000E+00 -0.45593999997E+02  0.45594000000E+02  0.51100000000E-03 0. -1.
    9900012    2    1    2    0    0 -0.26239961727E+02  0.32910159329E+02 -0.10583404398E+02  0.47787278496E+02  0.20000033972E+02 0.  0.
        -12    1    1    2    0    0  0.26239961727E+02 -0.32910159329E+02  0.10583404398E+02  0.43400721504E+02  0.00000000000E+00 0.  1.
         11    1    3    3    0    0 -0.17224066837E+02  0.15210922880E+02 -0.20666255812E+01  0.23071878875E+02  0.51100000000E-03 0. -1.
        -11    1    3    3    0    0 -0.72691364990E+01  0.15262563466E+02 -0.13645274381E+01  0.16960192345E+02  0.51100000000E-03 0.  1.
         12    1    3    3    0    0 -0.17467583910E+01  0.24366729825E+01 -0.71522513788E+01  0.77552072755E+01  0.00000000000E+00 0. -1.
</event>
<event>
 7    1  0.4630495E-010  0.4778726E+02  0.7816164E-02  0.1312668E+00
        -11   -1    0    0    0    0  0.00000000000E+00  0.00000000000E+00  0.45593999997E+02  0.45594000000E+02  0.51100000000E-03 0. -1.
         11   -1    0    0    0    0 -0.00000000000E+00 -0.00000000000E+00 -0.45593999997E+02  0.45594000000E+02  0.51100000000E-03 0.  1.
    9900012    2    1    2    0    0  0.26427918905E+02 -0.92017360039E+01  0.33174043004E+02  0.47787262998E+02  0.19999963311E+02 0.  0.
        -12    1    1    2    0    0 -0.26427918905E+02  0.92017360039E+01 -0.33174043004E+02  0.43400737002E+02  0.00000000000E+00 0.  1.
         11    1    3    3    0    0  0.70313635229E+01  0.21276019139E+01  0.76416677384E+01  0.10600087216E+02  0.51100000000E-03 0.  1.
        -11    1    3    3    0    0  0.16859041059E+02 -0.10521285723E+02  0.27462234803E+02  0.33898363667E+02  0.51100000000E-03 0. -1.
        -12    1    3    3    0    0  0.25375143232E+01 -0.80805219476E+00 -0.19298595376E+01  0.32888121145E+01  0.00000000000E+00 0.  1.
</event>
<event>
 7    1  0.4630495E-010  0.4778727E+02  0.7816164E-02  0.1312668E+00
        -11   -1    0    0    0    0  0.00000000000E+00  0.00000000000E+00  0.45593999997E+02  0.45594000000E+02  0.51100000000E-03 0.  1.
         11   -1    0    0    0    0 -0.00000000000E+00 -0.00000000000E+00 -0.45593999997E+02  0.45594000000E+02  0.51100000000E-03 0. -1.
    9900012    2    1    2    0    0  0.37542218642E+02 -0.92980780417E+01 -0.19691391045E+02  0.47787270546E+02  0.19999997727E+02 0.  0.
        -12    1    1    2    0    0 -0.37542218642E+02  0.92980780417E+01  0.19691391045E+02  0.43400729454E+02  0.00000000000E+00 0.  1.
         11    1    3    3    0    0  0.24441760906E+02 -0.15133200283E+02 -0.11902938479E+02  0.31114198876E+02  0.51100000000E-03 0. -1.
        -11    1    3    3    0    0  0.14551213870E+01  0.79452417719E+00 -0.23295404117E+01  0.28592666385E+01  0.51100000000E-03 0.  1.
         12    1    3    3    0    0  0.11645336349E+02  0.50405980645E+01 -0.54589121545E+01  0.13813805031E+02  0.00000000000E+00 0. -1.
</event>
<event>
 7    1  0.4630495E-010  0.4778726E+02  0.7816164E-02  0.1312668E+00
        -11   -1    0    0    0    0  0.00000000000E+00  0.00000000000E+00  0.45593999997E+02  0.45594000000E+02  0.51100000000E-03 0.  1.
         11   -1    0    0    0    0 -0.00000000000E+00 -0.00000000000E+00 -0.45593999997E+02  0.45594000000E+02  0.51100000000E-03 0. -1.
    9900012    2    1    2    0    0 -0.38284198806E+02 -0.20352426573E+02 -0.19294271791E+01  0.47787264581E+02  0.19999970531E+02 0.  0.
        -12    1    1    2    0    0  0.38284198806E+02  0.20352426573E+02  0.19294271791E+01  0.43400735419E+02  0.00000000000E+00 0.  1.
         11    1    3    3    0    0 -0.11022534610E+02 -0.10858284900E+02 -0.71753179901E+01  0.17055316143E+02  0.51100000000E-03 0. -1.
        -11    1    3    3    0    0 -0.45877679690E+00 -0.25368449878E+01  0.20902066564E+00  0.25864548211E+01  0.51100000000E-03 0.  1.
        -12    1    3    3    0    0 -0.26802887399E+02 -0.69572966856E+01  0.50368701454E+01  0.28145493617E+02  0.00000000000E+00 0.  1.
</event>
<event>
 7    1  0.4630495E-010  0.4778727E+02  0.7816164E-02  0.1312668E+00
        -11   -1    0    0    0    0  0.00000000000E+00  0.00000000000E+00  0.45593999997E+02  0.45594000000E+02  0.51100000000E-03 0. -1.
         11   -1    0    0    0    0 -0.00000000000E+00 -0.00000000000E+00 -0.45593999997E+02  0.45594000000E+02  0.51100000000E-03 0.  1.
    9900012    2    1    2    0    0 -0.36621713165E+02  0.57287979917E+01  0.22575522318E+02  0.47787271786E+02  0.20000003382E+02 0.  0.
        -12    1    1    2    0    0  0.36621713165E+02 -0.57287979917E+01 -0.22575522318E+02  0.43400728214E+02  0.00000000000E+00 0.  1.
         11    1    3    3    0    0 -0.13652567054E+02  0.42235917504E+01  0.13595359613E+02  0.19724733653E+02  0.51100000000E-03 0. -1.
        -11    1    3    3    0    0 -0.50388249566E+01  0.33995216189E+01  0.79439975624E+01  0.10002679727E+02  0.51100000000E-03 0.  1.
         12    1    3    3    0    0 -0.17930321154E+02 -0.18943153776E+01  0.10361651432E+01  0.18059858406E+02  0.00000000000E+00 0. -1.
</event>
<event>
 7    1  0.4630495E-010  0.4778727E+02  0.7816164E-02  0.1312668E+00
        -11   -1    0    0    0    0  0.00000000000E+00  0.00000000000E+00  0.45593999997E+02  0.45594000000E+02  0.51100000000E-03 0.  1.
         11   -1    0    0    0    0 -0.00000000000E+00 -0.00000000000E+00 -0.45593999997E+02  0.45594000000E+02  0.51100000000E-03 0. -1.
    9900012    2    1    2    0    0 -0.47678614725E+00 -0.19770613275E+02 -0.38633130922E+02  0.47787270984E+02  0.19999999725E+02 0.  0.
        -12    1    1    2    0    0  0.47678614725E+00  0.19770613275E+02  0.38633130922E+02  0.43400729016E+02  0.00000000000E+00 0.  1.
         11    1    3    3    0    0  0.29538604977E+01 -0.12752648386E+00 -0.73239106886E+01  0.78981784533E+01  0.51100000000E-03 0. -1.
        -11    1    3    3    0    0  0.42860390480E+01 -0.13053148916E+02 -0.12783860680E+02  0.18766510637E+02  0.51100000000E-03 0.  1.
         12    1    3    3    0    0 -0.77166856930E+01 -0.65899378745E+01 -0.18525359553E+02  0.21122581893E+02  0.00000000000E+00 0. -1.
</event>
<event>
 7    1  0.4630495E-010  0.4778727E+02  0.7816164E-02  0.1312668E+00
        -11   -1    0    0    0    0  0.00000000000E+00  0.00000000000E+00  0.45593999997E+02  0.45594000000E+02  0.51100000000E-03 0. -1.
         11   -1    0    0    0    0 -0.00000000000E+00 -0.00000000000E+00 -0.45593999997E+02  0.45594000000E+02  0.51100000000E-03 0.  1.
    9900012    2    1    2    0    0  0.33188636200E+02 -0.24652857256E+02 -0.13205092664E+02  0.47787269408E+02  0.19999992537E+02 0.  0.
        -12    1    1    2    0    0 -0.33188636200E+02  0.24652857256E+02  0.13205092664E+02  0.43400730592E+02  0.00000000000E+00 0.  1.
         11    1    3    3    0    0  0.16832774617E+02 -0.18015087838E+02 -0.69447527927E+01  0.25614747368E+02  0.51100000000E-03 0. -1.
        -11    1    3    3    0    0  0.67265851961E-02 -0.30097045299E+01 -0.43884773736E+01  0.53213814488E+01  0.51100000000E-03 0.  1.
         12    1    3    3    0    0  0.16349134997E+02 -0.36280648885E+01 -0.18718624974E+01  0.16851140591E+02  0.00000000000E+00 0. -1.
</event>
<event>
 7    1  0.4630495E-010  0.4778730E+02  0.7816164E-02  0.1312668E+00
        -11   -1    0    0    0    0  0.00000000000E+00  0.00000000000E+00  0.45593999997E+02  0.45594000000E+02  0.51100000000E-03 0. -1.
         11   -1    0    0    0    0 -0.00000000000E+00 -0.00000000000E+00 -0.45593999997E+02  0.45594000000E+02  0.51100000000E-03 0.  1.
    9900012    2    1    2    0    0 -0.68479638022E+01 -0.36794051088E+02  0.21975531078E+02  0.47787299892E+02  0.20000131525E+02 0.  0.
        -12    1    1    2    0    0  0.68479638022E+01  0.36794051088E+02 -0.21975531078E+02  0.43400700108E+02  0.00000000000E+00 0.  1.
         11    1    3    3    0    0 -0.47208287880E+01 -0.24956393001E+02  0.16741366339E+02  0.30420077633E+02  0.51100000000E-03 0. -1.
        -11    1    3    3    0    0 -0.59403574730E+01 -0.85735516744E+01  0.63688178443E+01  0.12221107815E+02  0.51100000000E-03 0.  1.
         12    1    3    3    0    0  0.38132224588E+01 -0.32641064134E+01 -0.11346531053E+01  0.51461144437E+01  0.00000000000E+00 0. -1.
</event>
<event>
 7    1  0.4630495E-010  0.4778727E+02  0.7816164E-02  0.1312668E+00
        -11   -1    0    0    0    0  0.00000000000E+00  0.00000000000E+00  0.45593999997E+02  0.45594000000E+02  0.51100000000E-03 0.  1.
         11   -1    0    0    0    0 -0.00000000000E+00 -0.00000000000E+00 -0.45593999997E+02  0.45594000000E+02  0.51100000000E-03 0. -1.
    9900012    2    1    2    0    0  0.23987640633E+02 -0.23504120039E+02 -0.27491317917E+02  0.47787272785E+02  0.20000007936E+02 0.  0.
        -12    1    1    2    0    0 -0.23987640633E+02  0.23504120039E+02  0.27491317917E+02  0.43400727215E+02  0.00000000000E+00 0.  1.
         11    1    3    3    0    0  0.25986017137E+02 -0.22643242180E+02 -0.28725229673E+02  0.44867898581E+02  0.51100000000E-03 0. -1.
        -11    1    3    3    0    0 -0.50442835718E-01 -0.12974530294E+00  0.77673842194E+00  0.78911416192E+00  0.51100000000E-03 0.  1.
         12    1    3    3    0    0 -0.19479336678E+01 -0.73113255568E+00  0.45717333412E+00  0.21302600418E+01  0.00000000000E+00 0. -1.
</event>
<event>
 7    1  0.4630495E-010  0.4778727E+02  0.7816164E-02  0.1312668E+00
        -11   -1    0    0    0    0  0.00000000000E+00  0.00000000000E+00  0.45593999997E+02  0.45594000000E+02  0.51100000000E-03 0. -1.
         11   -1    0    0    0    0 -0.00000000000E+00 -0.00000000000E+00 -0.45593999997E+02  0.45594000000E+02  0.51100000000E-03 0.  1.
    9900012    2    1    2    0    0 -0.23136643210E+02  0.61023922909E+00  0.36714392346E+02  0.47787271247E+02  0.20000000923E+02 0.  0.
        -12    1    1    2    0    0  0.23136643210E+02 -0.61023922909E+00 -0.36714392346E+02  0.43400728753E+02  0.00000000000E+00 0.  1.
         11    1    3    3    0    0 -0.25911625334E+01  0.16350333022E+01  0.31670064992E+00  0.30802202415E+01  0.51100000000E-03 0. -1.
        -11    1    3    3    0    0 -0.11104043321E+02 -0.79637050022E+01  0.14854109480E+02  0.20183283780E+02  0.51100000000E-03 0.  1.
        -12    1    3    3    0    0 -0.94414373565E+01  0.69389109291E+01  0.21543582216E+02  0.24523767225E+02  0.00000000000E+00 0.  1.
</event>
<event>
 7    1  0.4630495E-010  0.4778726E+02  0.7816164E-02  0.1312668E+00
        -11   -1    0    0    0    0  0.00000000000E+00  0.00000000000E+00  0.45593999997E+02  0.45594000000E+02  0.51100000000E-03 0.  1.
         11   -1    0    0    0    0 -0.00000000000E+00 -0.00000000000E+00 -0.45593999997E+02  0.45594000000E+02  0.51100000000E-03 0. -1.
    9900012    2    1    2    0    0 -0.79684712678E+01 -0.22089530520E+02 -0.36499048154E+02  0.47787257966E+02  0.19999940369E+02 0.  0.
        -12    1    1    2    0    0  0.79684712678E+01  0.22089530520E+02  0.36499048154E+02  0.43400742034E+02  0.00000000000E+00 0.  1.
         11    1    3    3    0    0 -0.56481638830E+01 -0.79501764021E+01 -0.12464324956E+02  0.15826132091E+02  0.51100000000E-03 0. -1.
        -11    1    3    3    0    0 -0.87903629321E+01 -0.62364734343E+01 -0.13694909877E+02  0.17427410541E+02  0.51100000000E-03 0.  1.
         12    1    3    3    0    0  0.64700555473E+01 -0.79028806840E+01 -0.10339813321E+02  0.14533715334E+02  0.00000000000E+00 0. -1.
</event>
<event>
 7    1  0.4630495E-010  0.4778726E+02  0.7816164E-02  0.1312668E+00
        -11   -1    0    0    0    0  0.00000000000E+00  0.00000000000E+00  0.45593999997E+02  0.45594000000E+02  0.51100000000E-03 0.  1.
         11   -1    0    0    0    0 -0.00000000000E+00 -0.00000000000E+00 -0.45593999997E+02  0.45594000000E+02  0.51100000000E-03 0. -1.
    9900012    2    1    2    0    0 -0.23913483085E+01  0.16201971921E+02 -0.40192060477E+02  0.47787260764E+02  0.19999953127E+02 0.  0.
        -12    1    1    2    0    0  0.23913483085E+01 -0.16201971921E+02  0.40192060477E+02  0.43400739236E+02  0.00000000000E+00 0.  1.
         11    1    3    3    0    0 -0.12224336486E+01  0.90107877406E+00  0.65085283260E+00  0.16522398897E+01  0.51100000000E-03 0. -1.
        -11    1    3    3    0    0  0.39710964109E+01  0.39034487314E+01 -0.30956371913E+01  0.63709880384E+01  0.51100000000E-03 0.  1.
         12    1    3    3    0    0 -0.51400110708E+01  0.11397444416E+02 -0.37747276118E+02  0.39764032836E+02  0.00000000000E+00 0. -1.
</event>
<event>
 7    1  0.4630495E-010  0.4778727E+02  0.7816164E-02  0.1312668E+00
        -11   -1    0    0    0    0  0.00000000000E+00  0.00000000000E+00  0.45593999997E+02  0.45594000000E+02  0.51100000000E-03 0.  1.
         11   -1    0    0    0    0 -0.00000000000E+00 -0.00000000000E+00 -0.45593999997E+02  0.45594000000E+02  0.51100000000E-03 0. -1.
    9900012    2    1    2    0    0 -0.70246126809E+01 -0.20749601810E+02 -0.37466413468E+02  0.47787270781E+02  0.19999998798E+02 0.  0.
        -12    1    1    2    0    0  0.70246126809E+01  0.20749601810E+02  0.37466413468E+02  0.43400729219E+02  0.00000000000E+00 0.  1.
         11    1    3    3    0    0  0.16576612637E+01 -0.16865283255E+01 -0.13701011847E+02  0.13903594663E+02  0.51100000000E-03 0. -1.
        -11    1    3    3    0    0 -0.74893370054E+01 -0.46271084813E+01 -0.13550110123E+02  0.16158768093E+02  0.51100000000E-03 0.  1.
        -12    1    3    3    0    0 -0.11929369392E+01 -0.14435965003E+02 -0.10215291499E+02  0.17724908025E+02  0.00000000000E+00 0.  1.
</event>
<event>
 7    1  0.9288607E-010  0.4778727E+02  0.7816164E-02  0.1312668E+00
        -11   -1    0    0    0    0  0.00000000000E+00  0.00000000000E+00  0.45593999997E+02  0.45594000000E+02  0.51100000000E-03 0.  1.
         11   -1    0    0    0    0 -0.00000000000E+00 -0.00000000000E+00 -0.45593999997E+02  0.45594000000E+02  0.51100000000E-03 0. -1.
    9900012    2    1    2    0    0 -0.31118766614E+02 -0.25861090317E+02  0.15698704853E+02  0.47787274637E+02  0.20000016379E+02 0.  0.
        -12    1    1    2    0    0  0.31118766614E+02  0.25861090317E+02 -0.15698704853E+02  0.43400725363E+02  0.00000000000E+00 0.  1.
         11    1    3    3    0    0 -0.91277456196E+01  0.12697904208E+00  0.39316367511E+01  0.99392973382E+01  0.51100000000E-03 0. -1.
        -11    1    3    3    0    0  0.13484479055E+01 -0.70975613213E+00  0.13612912821E+00  0.15299009516E+01  0.51100000000E-03 0.  1.
         12    1    3    3    0    0 -0.23339468900E+02 -0.25278313227E+02  0.11630938974E+02  0.36318076347E+02  0.00000000000E+00 0. -1.
</event>
<event>
 7    1  0.4630495E-010  0.4778727E+02  0.7816164E-02  0.1312668E+00
        -11   -1    0    0    0    0  0.00000000000E+00  0.00000000000E+00  0.45593999997E+02  0.45594000000E+02  0.51100000000E-03 0. -1.
         11   -1    0    0    0    0 -0.00000000000E+00 -0.00000000000E+00 -0.45593999997E+02  0.45594000000E+02  0.51100000000E-03 0.  1.
    9900012    2    1    2    0    0  0.14438099123E+02 -0.22062859773E+02  0.34473104071E+02  0.47787269684E+02  0.19999993796E+02 0.  0.
        -12    1    1    2    0    0 -0.14438099123E+02  0.22062859773E+02 -0.34473104071E+02  0.43400730316E+02  0.00000000000E+00 0.  1.
         11    1    3    3    0    0  0.16102652599E+02 -0.94698191454E+01  0.15009447289E+02  0.23963647542E+02  0.51100000000E-03 0. -1.
        -11    1    3    3    0    0 -0.27410339457E+01 -0.38261995746E+01  0.87759851633E+01  0.99584630402E+01  0.51100000000E-03 0.  1.
         12    1    3    3    0    0  0.10764804701E+01 -0.87668410531E+01  0.10687671619E+02  0.13865159101E+02  0.00000000000E+00 0. -1.
</event>
<event>
 7    1  0.4630495E-010  0.4778727E+02  0.7816164E-02  0.1312668E+00
        -11   -1    0    0    0    0  0.00000000000E+00  0.00000000000E+00  0.45593999997E+02  0.45594000000E+02  0.51100000000E-03 0.  1.
         11   -1    0    0    0    0 -0.00000000000E+00 -0.00000000000E+00 -0.45593999997E+02  0.45594000000E+02  0.51100000000E-03 0. -1.
    9900012    2    1    2    0    0 -0.29314339223E+02 -0.31069388536E+02  0.76802125186E+01  0.47787273596E+02  0.20000011633E+02 0.  0.
        -12    1    1    2    0    0  0.29314339223E+02  0.31069388536E+02 -0.76802125186E+01  0.43400726404E+02  0.00000000000E+00 0.  1.
         11    1    3    3    0    0 -0.85639402894E+00  0.41084559468E+00  0.15894237257E+00  0.96305128337E+00  0.51100000000E-03 0. -1.
        -11    1    3    3    0    0 -0.62051402089E+01 -0.15476397460E+02 -0.39094922838E+01  0.17126201375E+02  0.51100000000E-03 0.  1.
        -12    1    3    3    0    0 -0.22252804985E+02 -0.16003836670E+02  0.11430762430E+02  0.29698020937E+02  0.00000000000E+00 0.  1.
</event>
<event>
 7    1  0.4630495E-010  0.4778729E+02  0.7816164E-02  0.1312668E+00
        -11   -1    0    0    0    0  0.00000000000E+00  0.00000000000E+00  0.45593999997E+02  0.45594000000E+02  0.51100000000E-03 0.  1.
         11   -1    0    0    0    0 -0.00000000000E+00 -0.00000000000E+00 -0.45593999997E+02  0.45594000000E+02  0.51100000000E-03 0. -1.
    9900012    2    1    2    0    0  0.18688223524E+02 -0.18933959671E+02 -0.34291069786E+02  0.47787285785E+02  0.20000067209E+02 0.  0.
        -12    1    1    2    0    0 -0.18688223524E+02  0.18933959671E+02  0.34291069786E+02  0.43400714215E+02  0.00000000000E+00 0.  1.
         11    1    3    3    0    0  0.13918903263E+02 -0.48992571541E+01 -0.16800837238E+02  0.22360830058E+02  0.51100000000E-03 0. -1.
        -11    1    3    3    0    0  0.64599965787E+01 -0.81159806531E+01 -0.50290771829E+01  0.11527892927E+02  0.51100000000E-03 0.  1.
        -12    1    3    3    0    0 -0.16906763173E+01 -0.59187218635E+01 -0.12461155364E+02  0.13898562801E+02  0.00000000000E+00 0.  1.
</event>
<event>
 7    1  0.4630495E-010  0.4778727E+02  0.7816164E-02  0.1312668E+00
        -11   -1    0    0    0    0  0.00000000000E+00  0.00000000000E+00  0.45593999997E+02  0.45594000000E+02  0.51100000000E-03 0.  1.
         11   -1    0    0    0    0 -0.00000000000E+00 -0.00000000000E+00 -0.45593999997E+02  0.45594000000E+02  0.51100000000E-03 0. -1.
    9900012    2    1    2    0    0 -0.15997680672E+02 -0.81534533893E+00 -0.40336494705E+02  0.47787269822E+02  0.19999994427E+02 0.  0.
        -12    1    1    2    0    0  0.15997680672E+02  0.81534533893E+00  0.40336494705E+02  0.43400730178E+02  0.00000000000E+00 0.  1.
         11    1    3    3    0    0 -0.17108850260E+02 -0.30228347127E+01 -0.26977505398E+02  0.32087942979E+02  0.51100000000E-03 0. -1.
        -11    1    3    3    0    0  0.30521204072E+00 -0.27815825002E+01 -0.72475547970E+01  0.77690029214E+01  0.51100000000E-03 0.  1.
         12    1    3    3    0    0  0.80595754681E+00  0.49890718740E+01 -0.61114345101E+01  0.79303239216E+01  0.00000000000E+00 0. -1.
</event>
<event>
 7    1  0.4630495E-010  0.4778727E+02  0.7816164E-02  0.1312668E+00
        -11   -1    0    0    0    0  0.00000000000E+00  0.00000000000E+00  0.45593999997E+02  0.45594000000E+02  0.51100000000E-03 0.  1.
         11   -1    0    0    0    0 -0.00000000000E+00 -0.00000000000E+00 -0.45593999997E+02  0.45594000000E+02  0.51100000000E-03 0. -1.
    9900012    2    1    2    0    0  0.92722738144E+01 -0.23635567894E+02 -0.35199548361E+02  0.47787270327E+02  0.19999996728E+02 0.  0.
        -12    1    1    2    0    0 -0.92722738144E+01  0.23635567894E+02  0.35199548361E+02  0.43400729673E+02  0.00000000000E+00 0.  1.
         11    1    3    3    0    0 -0.34582756356E+01 -0.24833588566E+01 -0.38779071055E+01  0.57588979295E+01  0.51100000000E-03 0. -1.
        -11    1    3    3    0    0 -0.18994905262E+01 -0.89659956595E+00 -0.18916275804E+00  0.21089660620E+01  0.51100000000E-03 0.  1.
         12    1    3    3    0    0  0.14630039976E+02 -0.20255609471E+02 -0.31132478498E+02  0.39919406335E+02  0.00000000000E+00 0. -1.
</event>
<event>
 7    1  0.4630495E-010  0.4778727E+02  0.7816164E-02  0.1312668E+00
        -11   -1    0    0    0    0  0.00000000000E+00  0.00000000000E+00  0.45593999997E+02  0.45594000000E+02  0.51100000000E-03 0.  1.
         11   -1    0    0    0    0 -0.00000000000E+00 -0.00000000000E+00 -0.45593999997E+02  0.45594000000E+02  0.51100000000E-03 0. -1.
    9900012    2    1    2    0    0 -0.21033948613E+02 -0.36550537394E+02 -0.10259346875E+02  0.47787274473E+02  0.20000015630E+02 0.  0.
        -12    1    1    2    0    0  0.21033948613E+02  0.36550537394E+02  0.10259346875E+02  0.43400725527E+02  0.00000000000E+00 0.  1.
         11    1    3    3    0    0 -0.49794638581E+01 -0.82674167616E+01 -0.76478576264E+01  0.12314015054E+02  0.51100000000E-03 0. -1.
        -11    1    3    3    0    0 -0.74988673034E+01 -0.22430307079E+01  0.72832301291E+00  0.78609574647E+01  0.51100000000E-03 0.  1.
        -12    1    3    3    0    0 -0.85556174511E+01 -0.26040089924E+02 -0.33398122619E+01  0.27612301953E+02  0.00000000000E+00 0.  1.
</event>
<event>
 7    1  0.4630495E-010  0.4778727E+02  0.7816164E-02  0.1312668E+00
        -11   -1    0    0    0    0  0.00000000000E+00  0.00000000000E+00  0.45593999997E+02  0.45594000000E+02  0.51100000000E-03 0. -1.
         11   -1    0    0    0    0 -0.00000000000E+00 -0.00000000000E+00 -0.45593999997E+02  0.45594000000E+02  0.51100000000E-03 0.  1.
    9900012    2    1    2    0    0 -0.22285587169E+02 -0.35269338078E+02  0.11960339227E+02  0.47787270532E+02  0.19999997662E+02 0.  0.
        -12    1    1    2    0    0  0.22285587169E+02  0.35269338078E+02 -0.11960339227E+02  0.43400729468E+02  0.00000000000E+00 0.  1.
         11    1    3    3    0    0 -0.10498505287E+02 -0.59546110455E+01  0.80052382973E+01  0.14483088290E+02  0.51100000000E-03 0. -1.
        -11    1    3    3    0    0 -0.62183842831E+01 -0.16108372722E+02  0.70341383692E+01  0.18644760060E+02  0.51100000000E-03 0.  1.
        -12    1    3    3    0    0 -0.55686975990E+01 -0.13206354311E+02 -0.30790374396E+01  0.14659422181E+02  0.00000000000E+00 0.  1.
</event>
<event>
 7    1  0.4630495E-010  0.4778727E+02  0.7816164E-02  0.1312668E+00
        -11   -1    0    0    0    0  0.00000000000E+00  0.00000000000E+00  0.45593999997E+02  0.45594000000E+02  0.51100000000E-03 0. -1.
         11   -1    0    0    0    0 -0.00000000000E+00 -0.00000000000E+00 -0.45593999997E+02  0.45594000000E+02  0.51100000000E-03 0.  1.
    9900012    2    1    2    0    0 -0.54650111409E+01  0.40012307607E+02  0.15898799549E+02  0.47787274961E+02  0.20000017856E+02 0.  0.
        -12    1    1    2    0    0  0.54650111409E+01 -0.40012307607E+02 -0.15898799549E+02  0.43400725039E+02  0.00000000000E+00 0.  1.
         11    1    3    3    0    0 -0.62554665580E+01  0.23723309674E+02  0.10188341429E+02  0.26565552603E+02  0.51100000000E-03 0. -1.
        -11    1    3    3    0    0 -0.52956351111E+01  0.37169844495E+01  0.19234138002E+01  0.67497589243E+01  0.51100000000E-03 0.  1.
        -12    1    3    3    0    0  0.60860905281E+01  0.12572013484E+02  0.37870443192E+01  0.14471963434E+02  0.00000000000E+00 0.  1.
</event>
<event>
 7    1  0.4630495E-010  0.4778727E+02  0.7816164E-02  0.1312668E+00
        -11   -1    0    0    0    0  0.00000000000E+00  0.00000000000E+00  0.45593999997E+02  0.45594000000E+02  0.51100000000E-03 0.  1.
         11   -1    0    0    0    0 -0.00000000000E+00 -0.00000000000E+00 -0.45593999997E+02  0.45594000000E+02  0.51100000000E-03 0. -1.
    9900012    2    1    2    0    0  0.91956156506E+01  0.65268638774E+01 -0.41910188314E+02  0.47787272083E+02  0.20000004733E+02 0.  0.
        -12    1    1    2    0    0 -0.91956156506E+01 -0.65268638774E+01  0.41910188314E+02  0.43400727917E+02  0.00000000000E+00 0.  1.
         11    1    3    3    0    0  0.84033514457E+00  0.15284907002E+01 -0.21599617205E+02  0.21669931026E+02  0.51100000000E-03 0. -1.
        -11    1    3    3    0    0  0.95381373665E+01  0.34800891441E+01 -0.21554204568E+02  0.23825843525E+02  0.51100000000E-03 0.  1.
        -12    1    3    3    0    0 -0.11828568605E+01  0.15182840331E+01  0.12436334593E+01  0.22914975319E+01  0.00000000000E+00 0.  1.
</event>
<event>
 7    1  0.5480899E-010  0.4778727E+02  0.7816164E-02  0.1312668E+00
        -11   -1    0    0    0    0  0.00000000000E+00  0.00000000000E+00  0.45593999997E+02  0.45594000000E+02  0.51100000000E-03 0.  1.
         11   -1    0    0    0    0 -0.00000000000E+00 -0.00000000000E+00 -0.45593999997E+02  0.45594000000E+02  0.51100000000E-03 0. -1.
    9900012    2    1    2    0    0 -0.17104915878E+02 -0.39342815878E+02  0.65717333867E+01  0.47787274337E+02  0.20000015012E+02 0.  0.
        -12    1    1    2    0    0  0.17104915878E+02  0.39342815878E+02 -0.65717333867E+01  0.43400725663E+02  0.00000000000E+00 0.  1.
         11    1    3    3    0    0 -0.44401587847E+01 -0.14240461890E+02  0.10821799456E+02  0.18428703389E+02  0.51100000000E-03 0. -1.
        -11    1    3    3    0    0 -0.70572863717E+00 -0.76927632818E+00 -0.18694877941E+01  0.21412201783E+01  0.51100000000E-03 0.  1.
         12    1    3    3    0    0 -0.11959028456E+02 -0.24333077659E+02 -0.23805782750E+01  0.27217350769E+02  0.00000000000E+00 0. -1.
</event>
<event>
 7    1  0.4630495E-010  0.4778727E+02  0.7816164E-02  0.1312668E+00
        -11   -1    0    0    0    0  0.00000000000E+00  0.00000000000E+00  0.45593999997E+02  0.45594000000E+02  0.51100000000E-03 0.  1.
         11   -1    0    0    0    0 -0.00000000000E+00 -0.00000000000E+00 -0.45593999997E+02  0.45594000000E+02  0.51100000000E-03 0. -1.
    9900012    2    1    2    0    0 -0.30133663561E+02  0.14450102111E+02 -0.27690795977E+02  0.47787270600E+02  0.19999997973E+02 0.  0.
        -12    1    1    2    0    0  0.30133663561E+02 -0.14450102111E+02  0.27690795977E+02  0.43400729400E+02  0.00000000000E+00 0.  1.
         11    1    3    3    0    0 -0.15367142270E+02  0.41232563068E+01 -0.14836203735E+02  0.21754614353E+02  0.51100000000E-03 0. -1.
        -11    1    3    3    0    0 -0.15283888270E+02  0.76784556165E+01 -0.51402234292E+01  0.17859950125E+02  0.51100000000E-03 0.  1.
        -12    1    3    3    0    0  0.51736697867E+00  0.26483901881E+01 -0.77143688129E+01  0.81727061222E+01  0.00000000000E+00 0.  1.
</event>
<event>
 7    1  0.4630495E-010  0.4778727E+02  0.7816164E-02  0.1312668E+00
        -11   -1    0    0    0    0  0.00000000000E+00  0.00000000000E+00  0.45593999997E+02  0.45594000000E+02  0.51100000000E-03 0.  1.
         11   -1    0    0    0    0 -0.00000000000E+00 -0.00000000000E+00 -0.45593999997E+02  0.45594000000E+02  0.51100000000E-03 0. -1.
    9900012    2    1    2    0    0 -0.22100247958E+02  0.32878910591E+02 -0.17725110729E+02  0.47787271068E+02  0.20000000109E+02 0.  0.
        -12    1    1    2    0    0  0.22100247958E+02 -0.32878910591E+02  0.17725110729E+02  0.43400728932E+02  0.00000000000E+00 0.  1.
         11    1    3    3    0    0 -0.30018000405E+01  0.18152945984E+02 -0.10197337780E+02  0.21036300754E+02  0.51100000000E-03 0.  1.
        -11    1    3    3    0    0 -0.14885814650E+02  0.14960804886E+02 -0.78548357918E+01  0.22519138665E+02  0.51100000000E-03 0. -1.
        -12    1    3    3    0    0 -0.42126332676E+01 -0.23484027912E+00  0.32706284247E+00  0.42318316492E+01  0.00000000000E+00 0.  1.
</event>
<event>
 7    1  0.4630495E-010  0.4778727E+02  0.7816164E-02  0.1312668E+00
        -11   -1    0    0    0    0  0.00000000000E+00  0.00000000000E+00  0.45593999997E+02  0.45594000000E+02  0.51100000000E-03 0. -1.
         11   -1    0    0    0    0 -0.00000000000E+00 -0.00000000000E+00 -0.45593999997E+02  0.45594000000E+02  0.51100000000E-03 0.  1.
    9900012    2    1    2    0    0 -0.49286050851E+00 -0.39122443439E+02 -0.18783371630E+02  0.47787267957E+02  0.19999985923E+02 0.  0.
        -12    1    1    2    0    0  0.49286050851E+00  0.39122443439E+02  0.18783371630E+02  0.43400732043E+02  0.00000000000E+00 0.  1.
         11    1    3    3    0    0 -0.87975798077E+00 -0.11208947699E+02  0.98786622133E+00  0.11286733919E+02  0.51100000000E-03 0. -1.
        -11    1    3    3    0    0 -0.24593037162E+01 -0.24538491201E+01  0.89285409717E+00  0.35870236927E+01  0.51100000000E-03 0.  1.
         12    1    3    3    0    0  0.28462011884E+01 -0.25459646620E+02 -0.20664091948E+02  0.32913510345E+02  0.00000000000E+00 0. -1.
</event>
<event>
 7    1  0.4630495E-010  0.4778727E+02  0.7816164E-02  0.1312668E+00
        -11   -1    0    0    0    0  0.00000000000E+00  0.00000000000E+00  0.45593999997E+02  0.45594000000E+02  0.51100000000E-03 0.  1.
         11   -1    0    0    0    0 -0.00000000000E+00 -0.00000000000E+00 -0.45593999997E+02  0.45594000000E+02  0.51100000000E-03 0. -1.
    9900012    2    1    2    0    0 -0.39012664817E+02 -0.55980408505E+00 -0.19008470939E+02  0.47787270004E+02  0.19999995256E+02 0.  0.
        -12    1    1    2    0    0  0.39012664817E+02  0.55980408505E+00  0.19008470939E+02  0.43400729996E+02  0.00000000000E+00 0.  1.
         11    1    3    3    0    0 -0.81108203227E+01  0.27226418378E+01 -0.13223992621E+01  0.86571892063E+01  0.51100000000E-03 0. -1.
        -11    1    3    3    0    0 -0.20414607880E+01  0.83846408963E-01 -0.83719751136E+01  0.86176887814E+01  0.51100000000E-03 0.  1.
        -12    1    3    3    0    0 -0.28860383707E+02 -0.33662923318E+01 -0.93140965629E+01  0.30512392016E+02  0.00000000000E+00 0.  1.
</event>
<event>
 7    1  0.4630495E-010  0.4778727E+02  0.7816164E-02  0.1312668E+00
        -11   -1    0    0    0    0  0.00000000000E+00  0.00000000000E+00  0.45593999997E+02  0.45594000000E+02  0.51100000000E-03 0.  1.
         11   -1    0    0    0    0 -0.00000000000E+00 -0.00000000000E+00 -0.45593999997E+02  0.45594000000E+02  0.51100000000E-03 0. -1.
    9900012    2    1    2    0    0 -0.23268946999E+02 -0.36379873105E+02  0.43225174620E+01  0.47787271679E+02  0.20000002894E+02 0.  0.
        -12    1    1    2    0    0  0.23268946999E+02  0.36379873105E+02 -0.43225174620E+01  0.43400728321E+02  0.00000000000E+00 0.  1.
         11    1    3    3    0    0 -0.17516913584E+02 -0.27851245035E+02 -0.27846603619E+01  0.33019516125E+02  0.51100000000E-03 0. -1.
        -11    1    3    3    0    0 -0.50970979221E+01 -0.12945149435E+01  0.11728334703E+01  0.53881086456E+01  0.51100000000E-03 0.  1.
         12    1    3    3    0    0 -0.65493549274E+00 -0.72341131264E+01  0.59343443536E+01  0.93796469088E+01  0.00000000000E+00 0. -1.
</event>
<event>
 7    1  0.4630495E-010  0.4778727E+02  0.7816164E-02  0.1312668E+00
        -11   -1    0    0    0    0  0.00000000000E+00  0.00000000000E+00  0.45593999997E+02  0.45594000000E+02  0.51100000000E-03 0.  1.
         11   -1    0    0    0    0 -0.00000000000E+00 -0.00000000000E+00 -0.45593999997E+02  0.45594000000E+02  0.51100000000E-03 0. -1.
    9900012    2    1    2    0    0 -0.13725925962E+02  0.12887583247E+02 -0.39104122255E+02  0.47787271633E+02  0.20000002684E+02 0.  0.
        -12    1    1    2    0    0  0.13725925962E+02 -0.12887583247E+02  0.39104122255E+02  0.43400728367E+02  0.00000000000E+00 0.  1.
         11    1    3    3    0    0 -0.26406871735E+01 -0.16692022335E+01 -0.23132369839E+01  0.38872265755E+01  0.51100000000E-03 0. -1.
        -11    1    3    3    0    0 -0.12082651328E+02  0.93920505093E+01 -0.14802373118E+02  0.21291109085E+02  0.51100000000E-03 0.  1.
         12    1    3    3    0    0  0.99741254006E+00  0.51647349708E+01 -0.21988512153E+02  0.22608935973E+02  0.00000000000E+00 0. -1.
</event>
<event>
 7    1  0.4630495E-010  0.4778727E+02  0.7816164E-02  0.1312668E+00
        -11   -1    0    0    0    0  0.00000000000E+00  0.00000000000E+00  0.45593999997E+02  0.45594000000E+02  0.51100000000E-03 0. -1.
         11   -1    0    0    0    0 -0.00000000000E+00 -0.00000000000E+00 -0.45593999997E+02  0.45594000000E+02  0.51100000000E-03 0.  1.
    9900012    2    1    2    0    0  0.31099507149E+02 -0.22601371367E+01  0.30188336119E+02  0.47787271867E+02  0.20000003752E+02 0.  0.
        -12    1    1    2    0    0 -0.31099507149E+02  0.22601371367E+01 -0.30188336119E+02  0.43400728133E+02  0.00000000000E+00 0.  1.
         11    1    3    3    0    0  0.22316264251E+02 -0.47881160961E+01  0.27272366216E+02  0.35562953549E+02  0.51100000000E-03 0. -1.
        -11    1    3    3    0    0 -0.57011717746E+00  0.10274084795E+01  0.24765709020E+01  0.27411686328E+01  0.51100000000E-03 0.  1.
        -12    1    3    3    0    0  0.93533600760E+01  0.15005704799E+01  0.43939900133E+00  0.94831496856E+01  0.00000000000E+00 0.  1.
</event>
<event>
 7    1  0.4630495E-010  0.4778727E+02  0.7816164E-02  0.1312668E+00
        -11   -1    0    0    0    0  0.00000000000E+00  0.00000000000E+00  0.45593999997E+02  0.45594000000E+02  0.51100000000E-03 0. -1.
         11   -1    0    0    0    0 -0.00000000000E+00 -0.00000000000E+00 -0.45593999997E+02  0.45594000000E+02  0.51100000000E-03 0.  1.
    9900012    2    1    2    0    0 -0.36626104702E+02 -0.72662436564E-01  0.23284046806E+02  0.47787266583E+02  0.19999979658E+02 0.  0.
        -12    1    1    2    0    0  0.36626104702E+02  0.72662436564E-01 -0.23284046806E+02  0.43400733417E+02  0.00000000000E+00 0.  1.
         11    1    3    3    0    0 -0.38948692398E+01 -0.38333159275E+01  0.17281807827E+01  0.57315727749E+01  0.51100000000E-03 0. -1.
        -11    1    3    3    0    0 -0.14799905247E+02 -0.31754855207E+01  0.16038834870E+02  0.22053687398E+02  0.51100000000E-03 0.  1.
        -12    1    3    3    0    0 -0.17931330215E+02  0.69361390116E+01  0.55170311535E+01  0.20002006410E+02  0.00000000000E+00 0.  1.
</event>
<event>
 7    1  0.4630495E-010  0.4778727E+02  0.7816164E-02  0.1312668E+00
        -11   -1    0    0    0    0  0.00000000000E+00  0.00000000000E+00  0.45593999997E+02  0.45594000000E+02  0.51100000000E-03 0.  1.
         11   -1    0    0    0    0 -0.00000000000E+00 -0.00000000000E+00 -0.45593999997E+02  0.45594000000E+02  0.51100000000E-03 0. -1.
    9900012    2    1    2    0    0 -0.24887118815E+02  0.18772941726E+01 -0.35506765604E+02  0.47787270513E+02  0.19999997577E+02 0.  0.
        -12    1    1    2    0    0  0.24887118815E+02 -0.18772941726E+01  0.35506765604E+02  0.43400729487E+02  0.00000000000E+00 0.  1.
         11    1    3    3    0    0 -0.16516101391E+02 -0.90595419520E+00 -0.16535440450E+02  0.23388526018E+02  0.51100000000E-03 0. -1.
        -11    1    3    3    0    0 -0.83842744474E+01  0.23404538108E+01 -0.42788725863E+01  0.96996150914E+01  0.51100000000E-03 0.  1.
        -12    1    3    3    0    0  0.13257022915E-01  0.44279455701E+00 -0.14692452568E+02  0.14699129404E+02  0.00000000000E+00 0.  1.
</event>
<event>
 7    1  0.4630495E-010  0.4778727E+02  0.7816164E-02  0.1312668E+00
        -11   -1    0    0    0    0  0.00000000000E+00  0.00000000000E+00  0.45593999997E+02  0.45594000000E+02  0.51100000000E-03 0.  1.
         11   -1    0    0    0    0 -0.00000000000E+00 -0.00000000000E+00 -0.45593999997E+02  0.45594000000E+02  0.51100000000E-03 0. -1.
    9900012    2    1    2    0    0  0.65213830755E+01  0.26672505617E+02 -0.33610601934E+02  0.47787267800E+02  0.19999985209E+02 0.  0.
        -12    1    1    2    0    0 -0.65213830755E+01 -0.26672505617E+02  0.33610601934E+02  0.43400732200E+02  0.00000000000E+00 0.  1.
         11    1    3    3    0    0  0.39170505946E+01  0.13157055760E+02 -0.89586490485E+01  0.16392339511E+02  0.51100000000E-03 0. -1.
        -11    1    3    3    0    0  0.64148217393E+01  0.12976155947E+01 -0.68961194790E+01  0.95073765208E+01  0.51100000000E-03 0.  1.
         12    1    3    3    0    0 -0.38104892584E+01  0.12217834263E+02 -0.17755833406E+02  0.21887551768E+02  0.00000000000E+00 0. -1.
</event>
<event>
 7    1  0.4630495E-010  0.4778727E+02  0.7816164E-02  0.1312668E+00
        -11   -1    0    0    0    0  0.00000000000E+00  0.00000000000E+00  0.45593999997E+02  0.45594000000E+02  0.51100000000E-03 0. -1.
         11   -1    0    0    0    0 -0.00000000000E+00 -0.00000000000E+00 -0.45593999997E+02  0.45594000000E+02  0.51100000000E-03 0.  1.
    9900012    2    1    2    0    0  0.32423354306E+02  0.36408564894E+01 -0.28619809818E+02  0.47787271268E+02  0.20000001019E+02 0.  0.
        -12    1    1    2    0    0 -0.32423354306E+02 -0.36408564894E+01  0.28619809818E+02  0.43400728732E+02  0.00000000000E+00 0.  1.
         11    1    3    3    0    0  0.21198209570E+01 -0.29926346976E+01 -0.38790375889E+01  0.53382053351E+01  0.51100000000E-03 0. -1.
        -11    1    3    3    0    0  0.21293088414E+01 -0.83090215443E+00 -0.90771461824E+01  0.93604987906E+01  0.51100000000E-03 0.  1.
         12    1    3    3    0    0  0.28174224508E+02  0.74643933414E+01 -0.15663626047E+02  0.33088567142E+02  0.00000000000E+00 0. -1.
</event>
<event>
 7    1  0.4630495E-010  0.4778726E+02  0.7816164E-02  0.1312668E+00
        -11   -1    0    0    0    0  0.00000000000E+00  0.00000000000E+00  0.45593999997E+02  0.45594000000E+02  0.51100000000E-03 0. -1.
         11   -1    0    0    0    0 -0.00000000000E+00 -0.00000000000E+00 -0.45593999997E+02  0.45594000000E+02  0.51100000000E-03 0.  1.
    9900012    2    1    2    0    0 -0.31049274749E+02 -0.13711893649E+02 -0.27047187292E+02  0.47787264634E+02  0.19999970772E+02 0.  0.
        -12    1    1    2    0    0  0.31049274749E+02  0.13711893649E+02  0.27047187292E+02  0.43400735366E+02  0.00000000000E+00 0.  1.
         11    1    3    3    0    0 -0.19831274669E+02 -0.36688653536E+01 -0.89661636101E+01  0.22071069709E+02  0.51100000000E-03 0. -1.
        -11    1    3    3    0    0 -0.12551281560E-01 -0.49741440134E+01 -0.17518185627E+01  0.52736263367E+01  0.51100000000E-03 0.  1.
        -12    1    3    3    0    0 -0.11205448799E+02 -0.50688842825E+01 -0.16329205119E+02  0.20442568588E+02  0.00000000000E+00 0.  1.
</event>
<event>
 7    1  0.4630495E-010  0.4778727E+02  0.7816164E-02  0.1312668E+00
        -11   -1    0    0    0    0  0.00000000000E+00  0.00000000000E+00  0.45593999997E+02  0.45594000000E+02  0.51100000000E-03 0. -1.
         11   -1    0    0    0    0 -0.00000000000E+00 -0.00000000000E+00 -0.45593999997E+02  0.45594000000E+02  0.51100000000E-03 0.  1.
    9900012    2    1    2    0    0 -0.14940469685E+02  0.11130472671E+02  0.39198447134E+02  0.47787270582E+02  0.19999997893E+02 0.  0.
        -12    1    1    2    0    0  0.14940469685E+02 -0.11130472671E+02 -0.39198447134E+02  0.43400729418E+02  0.00000000000E+00 0.  1.
         11    1    3    3    0    0 -0.50446191700E+01  0.26213140521E+01  0.17616223421E+02  0.18510829204E+02  0.51100000000E-03 0. -1.
        -11    1    3    3    0    0 -0.22626911455E+01  0.24446748821E+01  0.18863619543E+02  0.19155478303E+02  0.51100000000E-03 0.  1.
         12    1    3    3    0    0 -0.76331593694E+01  0.60644837364E+01  0.27186041701E+01  0.10120963076E+02  0.00000000000E+00 0. -1.
</event>
<event>
 7    1  0.4630495E-010  0.4778728E+02  0.7816164E-02  0.1312668E+00
        -11   -1    0    0    0    0  0.00000000000E+00  0.00000000000E+00  0.45593999997E+02  0.45594000000E+02  0.51100000000E-03 0. -1.
         11   -1    0    0    0    0 -0.00000000000E+00 -0.00000000000E+00 -0.45593999997E+02  0.45594000000E+02  0.51100000000E-03 0.  1.
    9900012    2    1    2    0    0  0.13018167499E+02 -0.32063902452E+02  0.26192672857E+02  0.47787278383E+02  0.20000033461E+02 0.  0.
        -12    1    1    2    0    0 -0.13018167499E+02  0.32063902452E+02 -0.26192672857E+02  0.43400721617E+02  0.00000000000E+00 0.  1.
         11    1    3    3    0    0  0.28218153991E+01 -0.14579068725E+02  0.31712753950E+01  0.15184494557E+02  0.51100000000E-03 0. -1.
        -11    1    3    3    0    0  0.43744700421E+00  0.15531153931E+01  0.98785148416E+00  0.18919244493E+01  0.51100000000E-03 0.  1.
        -12    1    3    3    0    0  0.97589050959E+01 -0.19037949119E+02  0.22033545978E+02  0.30710859377E+02  0.00000000000E+00 0.  1.
</event>
<event>
 7    1  0.4630495E-010  0.4778727E+02  0.7816164E-02  0.1312668E+00
        -11   -1    0    0    0    0  0.00000000000E+00  0.00000000000E+00  0.45593999997E+02  0.45594000000E+02  0.51100000000E-03 0.  1.
         11   -1    0    0    0    0 -0.00000000000E+00 -0.00000000000E+00 -0.45593999997E+02  0.45594000000E+02  0.51100000000E-03 0. -1.
    9900012    2    1    2    0    0 -0.11850573177E+02 -0.38108287186E+02 -0.17057132870E+02  0.47787269376E+02  0.19999992394E+02 0.  0.
        -12    1    1    2    0    0  0.11850573177E+02  0.38108287186E+02  0.17057132870E+02  0.43400730624E+02  0.00000000000E+00 0.  1.
         11    1    3    3    0    0 -0.27209810658E+01 -0.16663579293E+02 -0.77882201534E+01  0.18593950259E+02  0.51100000000E-03 0. -1.
        -11    1    3    3    0    0 -0.40109968560E+01 -0.22045368612E+02 -0.64406419372E+01  0.23314550003E+02  0.51100000000E-03 0.  1.
        -12    1    3    3    0    0 -0.51185952553E+01  0.60066071934E+00 -0.28282707798E+01  0.58787691136E+01  0.00000000000E+00 0.  1.
</event>
<event>
 7    1  0.4630495E-010  0.4778727E+02  0.7816164E-02  0.1312668E+00
        -11   -1    0    0    0    0  0.00000000000E+00  0.00000000000E+00  0.45593999997E+02  0.45594000000E+02  0.51100000000E-03 0.  1.
         11   -1    0    0    0    0 -0.00000000000E+00 -0.00000000000E+00 -0.45593999997E+02  0.45594000000E+02  0.51100000000E-03 0. -1.
    9900012    2    1    2    0    0  0.87377738445E+01  0.12423757105E+01 -0.42493893720E+02  0.47787271980E+02  0.20000004265E+02 0.  0.
        -12    1    1    2    0    0 -0.87377738445E+01 -0.12423757105E+01  0.42493893720E+02  0.43400728020E+02  0.00000000000E+00 0.  1.
         11    1    3    3    0    0  0.54334240944E+01 -0.64517031233E+01 -0.30485540791E+02  0.31630914753E+02  0.51100000000E-03 0. -1.
        -11    1    3    3    0    0  0.36971396334E+01  0.18214095438E+01 -0.81084259180E+01  0.90957652412E+01  0.51100000000E-03 0.  1.
        -12    1    3    3    0    0 -0.39278988337E+00  0.58726692901E+01 -0.38999270118E+01  0.70605919852E+01  0.00000000000E+00 0.  1.
</event>
<event>
 7    1  0.4630495E-010  0.4778727E+02  0.7816164E-02  0.1312668E+00
        -11   -1    0    0    0    0  0.00000000000E+00  0.00000000000E+00  0.45593999997E+02  0.45594000000E+02  0.51100000000E-03 0.  1.
         11   -1    0    0    0    0 -0.00000000000E+00 -0.00000000000E+00 -0.45593999997E+02  0.45594000000E+02  0.51100000000E-03 0. -1.
    9900012    2    1    2    0    0 -0.33332515336E+02 -0.60788405929E+01 -0.27122213668E+02  0.47787270100E+02  0.19999995695E+02 0.  0.
        -12    1    1    2    0    0  0.33332515336E+02  0.60788405929E+01  0.27122213668E+02  0.43400729900E+02  0.00000000000E+00 0.  1.
         11    1    3    3    0    0 -0.13550667641E+02 -0.50128004014E+01 -0.55989918115E+01  0.15495078927E+02  0.51100000000E-03 0. -1.
        -11    1    3    3    0    0 -0.49621042140E+01  0.14297136123E+01  0.95633627234E+00  0.52517748020E+01  0.51100000000E-03 0.  1.
        -12    1    3    3    0    0 -0.14819743481E+02 -0.24957538038E+01 -0.22479558129E+02  0.27040416372E+02  0.00000000000E+00 0.  1.
</event>
<event>
 7    1  0.4630495E-010  0.4778733E+02  0.7816164E-02  0.1312667E+00
        -11   -1    0    0    0    0  0.00000000000E+00  0.00000000000E+00  0.45593999997E+02  0.45594000000E+02  0.51100000000E-03 0.  1.
         11   -1    0    0    0    0 -0.00000000000E+00 -0.00000000000E+00 -0.45593999997E+02  0.45594000000E+02  0.51100000000E-03 0. -1.
    9900012    2    1    2    0    0 -0.16120870458E+02  0.26212121827E+02 -0.30604906808E+02  0.47787330469E+02  0.20000270941E+02 0.  0.
        -12    1    1    2    0    0  0.16120870458E+02 -0.26212121827E+02  0.30604906808E+02  0.43400669531E+02  0.00000000000E+00 0.  1.
         11    1    3    3    0    0 -0.31115862804E+01  0.43540142705E+01 -0.15519530998E+02  0.16416310551E+02  0.51100000000E-03 0. -1.
        -11    1    3    3    0    0 -0.52264644197E+00  0.15551732636E+01 -0.53987113316E+01  0.56425001095E+01  0.51100000000E-03 0.  1.
        -12    1    3    3    0    0 -0.12486637736E+02  0.20302934293E+02 -0.96866644778E+01  0.25728519809E+02  0.00000000000E+00 0.  1.
</event>
<event>
 7    1  0.4630495E-010  0.4778728E+02  0.7816164E-02  0.1312668E+00
        -11   -1    0    0    0    0  0.00000000000E+00  0.00000000000E+00  0.45593999997E+02  0.45594000000E+02  0.51100000000E-03 0.  1.
         11   -1    0    0    0    0 -0.00000000000E+00 -0.00000000000E+00 -0.45593999997E+02  0.45594000000E+02  0.51100000000E-03 0. -1.
    9900012    2    1    2    0    0  0.50586685677E+00 -0.31552400526E+02 -0.29796191854E+02  0.47787275015E+02  0.20000018105E+02 0.  0.
        -12    1    1    2    0    0 -0.50586685677E+00  0.31552400526E+02  0.29796191854E+02  0.43400724985E+02  0.00000000000E+00 0.  1.
         11    1    3    3    0    0 -0.11008172994E-01  0.60781384378E+00 -0.23239419668E+01  0.24021376677E+01  0.51100000000E-03 0. -1.
        -11    1    3    3    0    0  0.63045828234E+01 -0.24157941888E+02 -0.13824537991E+02  0.28538951834E+02  0.51100000000E-03 0.  1.
         12    1    3    3    0    0 -0.57877077936E+01 -0.80022724812E+01 -0.13647711896E+02  0.16846185513E+02  0.00000000000E+00 0. -1.
</event>
<event>
 7    1  0.4630495E-010  0.4778728E+02  0.7816164E-02  0.1312668E+00
        -11   -1    0    0    0    0  0.00000000000E+00  0.00000000000E+00  0.45593999997E+02  0.45594000000E+02  0.51100000000E-03 0. -1.
         11   -1    0    0    0    0 -0.00000000000E+00 -0.00000000000E+00 -0.45593999997E+02  0.45594000000E+02  0.51100000000E-03 0.  1.
    9900012    2    1    2    0    0  0.18541837067E+02  0.35033820524E+02  0.17676376592E+02  0.47787278903E+02  0.20000035828E+02 0.  0.
        -12    1    1    2    0    0 -0.18541837067E+02 -0.35033820524E+02 -0.17676376592E+02  0.43400721097E+02  0.00000000000E+00 0.  1.
         11    1    3    3    0    0  0.10501863999E+01  0.75319990234E+01  0.11862726876E+02  0.14091067737E+02  0.51100000000E-03 0. -1.
        -11    1    3    3    0    0  0.23682149234E+01  0.83553926870E+01  0.27285912554E+01  0.91030895512E+01  0.51100000000E-03 0.  1.
        -12    1    3    3    0    0  0.15123435744E+02  0.19146428814E+02  0.30850584596E+01  0.24593121614E+02  0.00000000000E+00 0.  1.
</event>
<event>
 7    1  0.4630495E-010  0.4778727E+02  0.7816164E-02  0.1312668E+00
        -11   -1    0    0    0    0  0.00000000000E+00  0.00000000000E+00  0.45593999997E+02  0.45594000000E+02  0.51100000000E-03 0.  1.
         11   -1    0    0    0    0 -0.00000000000E+00 -0.00000000000E+00 -0.45593999997E+02  0.45594000000E+02  0.51100000000E-03 0. -1.
    9900012    2    1    2    0    0  0.25902141185E+02 -0.30542576983E+02 -0.16728820687E+02  0.47787269956E+02  0.19999995040E+02 0.  0.
        -12    1    1    2    0    0 -0.25902141185E+02  0.30542576983E+02  0.16728820687E+02  0.43400730044E+02  0.00000000000E+00 0.  1.
         11    1    3    3    0    0  0.23138766898E+01 -0.20292039360E+01 -0.17151612421E+00  0.30823873850E+01  0.51100000000E-03 0. -1.
        -11    1    3    3    0    0  0.11915638986E+00  0.16379421392E+01  0.16953394579E+01  0.23603450670E+01  0.51100000000E-03 0.  1.
         12    1    3    3    0    0  0.23469108105E+02 -0.30151315186E+02 -0.18252644021E+02  0.42344537504E+02  0.00000000000E+00 0. -1.
</event>
<event>
 7    1  0.4630495E-010  0.4778730E+02  0.7816164E-02  0.1312668E+00
        -11   -1    0    0    0    0  0.00000000000E+00  0.00000000000E+00  0.45593999997E+02  0.45594000000E+02  0.51100000000E-03 0. -1.
         11   -1    0    0    0    0 -0.00000000000E+00 -0.00000000000E+00 -0.45593999997E+02  0.45594000000E+02  0.51100000000E-03 0.  1.
    9900012    2    1    2    0    0 -0.25096052636E+02  0.33969471982E+02  0.99942033740E+01  0.47787297405E+02  0.20000120187E+02 0.  0.
        -12    1    1    2    0    0  0.25096052636E+02 -0.33969471982E+02 -0.99942033740E+01  0.43400702595E+02  0.00000000000E+00 0.  1.
         11    1    3    3    0    0 -0.17504191778E+02  0.19999293147E+02  0.10954206057E+02  0.28746531735E+02  0.51100000000E-03 0. -1.
        -11    1    3    3    0    0 -0.50553925741E+01  0.13036834740E+02  0.29471409875E+01  0.14289915828E+02  0.51100000000E-03 0.  1.
        -12    1    3    3    0    0 -0.25364682836E+01  0.93334409536E+00 -0.39071436705E+01  0.47508498415E+01  0.00000000000E+00 0.  1.
</event>
<event>
 7    1  0.4630495E-010  0.4778727E+02  0.7816164E-02  0.1312668E+00
        -11   -1    0    0    0    0  0.00000000000E+00  0.00000000000E+00  0.45593999997E+02  0.45594000000E+02  0.51100000000E-03 0.  1.
         11   -1    0    0    0    0 -0.00000000000E+00 -0.00000000000E+00 -0.45593999997E+02  0.45594000000E+02  0.51100000000E-03 0. -1.
    9900012    2    1    2    0    0  0.56497378067E+01 -0.43025246131E+02  0.72922429384E+00  0.47787272932E+02  0.20000008607E+02 0.  0.
        -12    1    1    2    0    0 -0.56497378067E+01  0.43025246131E+02 -0.72922429384E+00  0.43400727068E+02  0.00000000000E+00 0.  1.
         11    1    3    3    0    0  0.32213566089E+01 -0.12440660724E+02  0.27882804856E+01  0.13149969048E+02  0.51100000000E-03 0.  1.
        -11    1    3    3    0    0 -0.13416818999E+01 -0.26732829354E+02 -0.66242498380E+01  0.27573990675E+02  0.51100000000E-03 0. -1.
         12    1    3    3    0    0  0.37700630977E+01 -0.38517560540E+01  0.45651936463E+01  0.70633132090E+01  0.00000000000E+00 0. -1.
</event>
<event>
 7    1  0.4630495E-010  0.4778726E+02  0.7816164E-02  0.1312668E+00
        -11   -1    0    0    0    0  0.00000000000E+00  0.00000000000E+00  0.45593999997E+02  0.45594000000E+02  0.51100000000E-03 0.  1.
         11   -1    0    0    0    0 -0.00000000000E+00 -0.00000000000E+00 -0.45593999997E+02  0.45594000000E+02  0.51100000000E-03 0. -1.
    9900012    2    1    2    0    0  0.14664624619E+02 -0.31924431347E+02 -0.25483405214E+02  0.47787257226E+02  0.19999936995E+02 0.  0.
        -12    1    1    2    0    0 -0.14664624619E+02  0.31924431347E+02  0.25483405214E+02  0.43400742774E+02  0.00000000000E+00 0.  1.
         11    1    3    3    0    0  0.93746118025E+01 -0.76859350790E+01 -0.79289155284E+01  0.14485325202E+02  0.51100000000E-03 0. -1.
        -11    1    3    3    0    0 -0.97651725053E+00 -0.57757369297E+00  0.17794968644E+01  0.21103996453E+01  0.51100000000E-03 0.  1.
        -12    1    3    3    0    0  0.62665300665E+01 -0.23660922575E+02 -0.19333986550E+02  0.31191532378E+02  0.00000000000E+00 0.  1.
</event>
<event>
 7    1  0.4630495E-010  0.4778727E+02  0.7816164E-02  0.1312668E+00
        -11   -1    0    0    0    0  0.00000000000E+00  0.00000000000E+00  0.45593999997E+02  0.45594000000E+02  0.51100000000E-03 0. -1.
         11   -1    0    0    0    0 -0.00000000000E+00 -0.00000000000E+00 -0.45593999997E+02  0.45594000000E+02  0.51100000000E-03 0.  1.
    9900012    2    1    2    0    0 -0.96256284710E+01  0.39923672108E+02  0.14038192593E+02  0.47787272249E+02  0.20000005493E+02 0.  0.
        -12    1    1    2    0    0  0.96256284710E+01 -0.39923672108E+02 -0.14038192593E+02  0.43400727751E+02  0.00000000000E+00 0.  1.
         11    1    3    3    0    0 -0.82035196942E+01  0.20427244798E+02  0.15603392774E+02  0.26982140977E+02  0.51100000000E-03 0. -1.
        -11    1    3    3    0    0 -0.15464917456E+01  0.38614296451E+01 -0.29633929090E+01  0.51072471467E+01  0.51100000000E-03 0.  1.
        -12    1    3    3    0    0  0.12438296878E+00  0.15634997665E+02  0.13981927279E+01  0.15697884125E+02  0.00000000000E+00 0.  1.
</event>
<event>
 7    1  0.4630495E-010  0.4778727E+02  0.7816164E-02  0.1312668E+00
        -11   -1    0    0    0    0  0.00000000000E+00  0.00000000000E+00  0.45593999997E+02  0.45594000000E+02  0.51100000000E-03 0.  1.
         11   -1    0    0    0    0 -0.00000000000E+00 -0.00000000000E+00 -0.45593999997E+02  0.45594000000E+02  0.51100000000E-03 0. -1.
    9900012    2    1    2    0    0 -0.33406386769E+02 -0.26437262627E+02 -0.82890105887E+01  0.47787271564E+02  0.20000002371E+02 0.  0.
        -12    1    1    2    0    0  0.33406386769E+02  0.26437262627E+02  0.82890105887E+01  0.43400728436E+02  0.00000000000E+00 0.  1.
         11    1    3    3    0    0 -0.21536051205E+02 -0.11174685528E+02 -0.83305855816E+01  0.25652948262E+02  0.51100000000E-03 0. -1.
        -11    1    3    3    0    0 -0.60149659057E+01 -0.68584970779E+01 -0.53332216495E+01  0.10567026566E+02  0.51100000000E-03 0.  1.
         12    1    3    3    0    0 -0.58553696584E+01 -0.84040800214E+01  0.53747966424E+01  0.11567296737E+02  0.00000000000E+00 0. -1.
</event>
<event>
 7    1  0.4630495E-010  0.4778727E+02  0.7816164E-02  0.1312668E+00
        -11   -1    0    0    0    0  0.00000000000E+00  0.00000000000E+00  0.45593999997E+02  0.45594000000E+02  0.51100000000E-03 0. -1.
         11   -1    0    0    0    0 -0.00000000000E+00 -0.00000000000E+00 -0.45593999997E+02  0.45594000000E+02  0.51100000000E-03 0.  1.
    9900012    2    1    2    0    0  0.42899843674E+02 -0.44640368420E+01  0.48269376754E+01  0.47787267984E+02  0.19999986047E+02 0.  0.
        -12    1    1    2    0    0 -0.42899843674E+02  0.44640368420E+01 -0.48269376754E+01  0.43400732016E+02  0.00000000000E+00 0.  1.
         11    1    3    3    0    0  0.16757585002E+02 -0.72791561662E+01  0.59433561099E+01  0.19212658632E+02  0.51100000000E-03 0. -1.
        -11    1    3    3    0    0  0.63224071640E+01 -0.37810085212E+01  0.15148900504E+01  0.75208875747E+01  0.51100000000E-03 0.  1.
         12    1    3    3    0    0  0.19819851508E+02  0.65961278454E+01 -0.26313084850E+01  0.21053721777E+02  0.00000000000E+00 0. -1.
</event>
<event>
 7    1  0.4630495E-010  0.4778727E+02  0.7816164E-02  0.1312668E+00
        -11   -1    0    0    0    0  0.00000000000E+00  0.00000000000E+00  0.45593999997E+02  0.45594000000E+02  0.51100000000E-03 0.  1.
         11   -1    0    0    0    0 -0.00000000000E+00 -0.00000000000E+00 -0.45593999997E+02  0.45594000000E+02  0.51100000000E-03 0. -1.
    9900012    2    1    2    0    0  0.33707179612E+02 -0.19828430683E+02 -0.18822392792E+02  0.47787273149E+02  0.20000009597E+02 0.  0.
        -12    1    1    2    0    0 -0.33707179612E+02  0.19828430683E+02  0.18822392792E+02  0.43400726851E+02  0.00000000000E+00 0.  1.
         11    1    3    3    0    0  0.10091467484E+02 -0.14332022193E+02 -0.37461671918E+01  0.17924239036E+02  0.51100000000E-03 0. -1.
        -11    1    3    3    0    0  0.12312357973E+02 -0.70693567609E+01 -0.66540592277E+01  0.15679491967E+02  0.51100000000E-03 0.  1.
        -12    1    3    3    0    0  0.11303354155E+02  0.15729482708E+01 -0.84221663726E+01  0.14183542147E+02  0.00000000000E+00 0.  1.
</event>
<event>
 7    1  0.4630495E-010  0.4778728E+02  0.7816164E-02  0.1312668E+00
        -11   -1    0    0    0    0  0.00000000000E+00  0.00000000000E+00  0.45593999997E+02  0.45594000000E+02  0.51100000000E-03 0.  1.
         11   -1    0    0    0    0 -0.00000000000E+00 -0.00000000000E+00 -0.45593999997E+02  0.45594000000E+02  0.51100000000E-03 0. -1.
    9900012    2    1    2    0    0  0.59257309814E+00  0.38293720233E+02 -0.20417203980E+02  0.47787281451E+02  0.20000047449E+02 0.  0.
        -12    1    1    2    0    0 -0.59257309814E+00 -0.38293720233E+02  0.20417203980E+02  0.43400718549E+02  0.00000000000E+00 0.  1.
         11    1    3    3    0    0 -0.29332665579E+00  0.17248112743E+02 -0.13724020603E+02  0.22043869341E+02  0.51100000000E-03 0. -1.
        -11    1    3    3    0    0 -0.56841402678E+01  0.10275003622E+02 -0.57966707418E+01  0.13095287013E+02  0.51100000000E-03 0.  1.
        -12    1    3    3    0    0  0.65700400217E+01  0.10770603868E+02 -0.89651263531E+00  0.12648125097E+02  0.00000000000E+00 0.  1.
</event>
<event>
 7    1  0.4630495E-010  0.4778727E+02  0.7816164E-02  0.1312668E+00
        -11   -1    0    0    0    0  0.00000000000E+00  0.00000000000E+00  0.45593999997E+02  0.45594000000E+02  0.51100000000E-03 0.  1.
         11   -1    0    0    0    0 -0.00000000000E+00 -0.00000000000E+00 -0.45593999997E+02  0.45594000000E+02  0.51100000000E-03 0. -1.
    9900012    2    1    2    0    0 -0.20525233232E+02  0.52384001038E+01 -0.37880034095E+02  0.47787273993E+02  0.20000013444E+02 0.  0.
        -12    1    1    2    0    0  0.20525233232E+02 -0.52384001038E+01  0.37880034095E+02  0.43400726007E+02  0.00000000000E+00 0.  1.
         11    1    3    3    0    0 -0.67123690154E+01 -0.72452842505E+01 -0.87315544392E+01  0.13182946744E+02  0.51100000000E-03 0. -1.
        -11    1    3    3    0    0 -0.54132808492E+01  0.49578195065E+01 -0.10518285126E+02  0.12826453370E+02  0.51100000000E-03 0.  1.
         12    1    3    3    0    0 -0.83995833677E+01  0.75258648478E+01 -0.18630194530E+02  0.21777873879E+02  0.00000000000E+00 0. -1.
</event>
<event>
 7    1  0.4630495E-010  0.4778727E+02  0.7816164E-02  0.1312668E+00
        -11   -1    0    0    0    0  0.00000000000E+00  0.00000000000E+00  0.45593999997E+02  0.45594000000E+02  0.51100000000E-03 0.  1.
         11   -1    0    0    0    0 -0.00000000000E+00 -0.00000000000E+00 -0.45593999997E+02  0.45594000000E+02  0.51100000000E-03 0. -1.
    9900012    2    1    2    0    0 -0.41277480197E+02  0.13334313352E+02  0.14103479065E+01  0.47787269992E+02  0.19999995201E+02 0.  0.
        -12    1    1    2    0    0  0.41277480197E+02 -0.13334313352E+02 -0.14103479065E+01  0.43400730008E+02  0.00000000000E+00 0.  1.
         11    1    3    3    0    0 -0.68443254868E+01 -0.13543479257E+01 -0.84523248000E+00  0.70280486538E+01  0.51100000000E-03 0. -1.
        -11    1    3    3    0    0  0.85842715823E+00  0.10305069585E+01  0.25886181366E+01  0.29154392286E+01  0.51100000000E-03 0.  1.
         12    1    3    3    0    0 -0.35291581869E+02  0.13658154319E+02 -0.33303775010E+00  0.37843782110E+02  0.00000000000E+00 0. -1.
</event>
<event>
 7    1  0.4630495E-010  0.4778727E+02  0.7816164E-02  0.1312668E+00
        -11   -1    0    0    0    0  0.00000000000E+00  0.00000000000E+00  0.45593999997E+02  0.45594000000E+02  0.51100000000E-03 0.  1.
         11   -1    0    0    0    0 -0.00000000000E+00 -0.00000000000E+00 -0.45593999997E+02  0.45594000000E+02  0.51100000000E-03 0. -1.
    9900012    2    1    2    0    0 -0.21526061294E+02 -0.33705801977E+02 -0.16857365367E+02  0.47787272254E+02  0.20000005514E+02 0.  0.
        -12    1    1    2    0    0  0.21526061294E+02  0.33705801977E+02  0.16857365367E+02  0.43400727746E+02  0.00000000000E+00 0.  1.
         11    1    3    3    0    0 -0.92394634402E+01 -0.22918992372E+02 -0.17422971086E+02  0.30235869720E+02  0.51100000000E-03 0. -1.
        -11    1    3    3    0    0 -0.58651641735E+01 -0.28966429581E+01 -0.23793257497E+01  0.69607386457E+01  0.51100000000E-03 0.  1.
         12    1    3    3    0    0 -0.64214336805E+01 -0.78901666476E+01  0.29449314686E+01  0.10590663888E+02  0.00000000000E+00 0. -1.
</event>
